                         Program Version 6.0.0  -   RELEASE  -
|  1> ! wb97x-v def2-tzvp def2/J RIJCOSX DEFGRID2 scfconv7 GCP(DFT/TZ) printgap
|  2> %output
|  3>     printlevel normal
|  4> end
|  5> * xyz 0 1
|  6> C 1.8543588481634885 0.9401802528380556 -0.1949741667572889
|  7> C 0.9605191586522662 -0.13390429245334948 0.41811769207727595
|  8> C -0.37796288492674457 -0.28172553039805603 -0.2922754800952694
|  9> H -0.1936464607696066 -0.524417189377745 -1.3509266639109716
| 10> C -1.2507436843325668 0.959491496125116 -0.20767480582982925
| 11> O -1.0442389288088232 -1.4077076297859519 0.33409782295628715
| 12> H 2.8316924344616927 0.9532421858144808 0.29652045140999184
| 13> H 1.4189654428707956 1.9385751954768713 -0.09016407294376605
| 14> H 2.019576763143776 0.7542309260097105 -1.262162327782565
| 15> H 0.7702146395275792 0.09105681060427295 1.4758213689894972
| 16> H 1.4730700229448153 -1.102872562411886 0.38091899885641073
| 17> H -0.8011334787835399 1.7933599003804952 -0.7552648919492015
| 18> H -2.233831078636529 0.7651320823519021 -0.6506315166579086
| 19> H -1.390487093717295 1.2613874801895861 0.8366029757812231
| 20> H -1.9159435584802464 -1.4897033418623622 -0.0741728510671363
| 21> *
| 22>
| 23>                          ****END OF INPUT****

CARTESIAN COORDINATES (ANGSTROEM)
---------------------------------
  C      1.854359    0.940180   -0.194974
  C      0.960519   -0.133904    0.418118
  C     -0.377963   -0.281726   -0.292275
  H     -0.193646   -0.524417   -1.350927
  C     -1.250744    0.959491   -0.207675
  O     -1.044239   -1.407708    0.334098
  H      2.831692    0.953242    0.296520
  H      1.418965    1.938575   -0.090164
  H      2.019577    0.754231   -1.262162
  H      0.770215    0.091057    1.475821
  H      1.473070   -1.102873    0.380919
  H     -0.801133    1.793360   -0.755265
  H     -2.233831    0.765132   -0.650632
  H     -1.390487    1.261387    0.836603
  H     -1.915944   -1.489703   -0.074173

 Total Charge           Charge          ....    0
 Multiplicity           Mult            ....    1
 Number of Electrons    NEL             ....   42
 Basis Dimension        Dim             ....  215

ORBITAL ENERGIES
----------------

  NO   OCC          E(Eh)            E(eV)
   0   2.0000     -21.664491      -589.5208
   1   2.0000     -12.095358      -329.1314
   2   2.0000     -12.038939      -327.5962
   3   2.0000     -12.038456      -327.5830
   4   2.0000     -12.036352      -327.5258
   5   2.0000      -1.662357       -45.2350
   6   2.0000      -1.306741       -35.5582
   7   2.0000      -1.228273       -33.4230
   8   2.0000      -1.148934       -31.2641
   9   2.0000      -1.067577       -29.0502
  10   2.0000      -1.013254       -27.5720
  11   2.0000      -0.945268       -25.7221
  12   2.0000      -0.927133       -25.2286
  13   2.0000      -0.870240       -23.6804
  14   2.0000      -0.856158       -23.2972
  15   2.0000      -0.827736       -22.5238
  16   2.0000      -0.820744       -22.3336
  17   2.0000      -0.814129       -22.1536
  18   2.0000      -0.794298       -21.6139
  19   2.0000      -0.765992       -20.8437
  20   2.0000      -0.749913       -20.4062
  21   0.0000      -0.147263        -4.0072
  22   0.0000      -0.050325        -1.3694
  23   0.0000      -0.014390        -0.3916
  24   0.0000      -0.005600        -0.1524
  25   0.0000      -0.002883        -0.0784

MULLIKEN ATOMIC CHARGES
-----------------------
   0 C :   -0.370457
   1 C :   -0.134272
   2 C :    0.109586
   3 H :    0.062728
   4 C :   -0.381006
   5 O :   -0.445734
   6 H :    0.119181
   7 H :    0.111548
   8 H :    0.105584
   9 H :    0.093827
  10 H :    0.102527
  11 H :    0.114106
  12 H :    0.102492
  13 H :    0.118817
  14 H :    0.291073
Sum of atomic charges:   -0.0000000

LOEWDIN ATOMIC CHARGES
----------------------
   0 C :   -0.305399
   1 C :   -0.270161
   2 C :   -0.366064
   3 H :    0.128544
   4 C :   -0.292320
   5 O :   -0.041449
   6 H :    0.118335
   7 H :    0.114664
   8 H :    0.116810
   9 H :    0.135898
  10 H :    0.137834
  11 H :    0.121514
  12 H :    0.115367
  13 H :    0.122981
  14 H :    0.163445

  Mayer bond orders larger than 0.100000
B(  0-C ,  1-C ) :   0.9566 B(  0-C ,  6-H ) :   0.9821 B(  0-C ,  7-H ) :   0.9825
B(  0-C ,  8-H ) :   0.9761 B(  1-C ,  2-C ) :   0.9798 B(  1-C ,  9-H ) :   0.9739
B(  1-C , 10-H ) :   0.9739 B(  2-C ,  3-H ) :   0.9770 B(  2-C ,  4-C ) :   0.9660
B(  2-C ,  5-O ) :   1.0360 B(  4-C , 11-H ) :   0.9737 B(  4-C , 12-H ) :   0.9780
B(  4-C , 13-H ) :   0.9746 B(  5-O , 14-H ) :   0.9081

FINAL SINGLE POINT ENERGY      -233.680593119362

DIPOLE MOMENT
-------------

Method             : SCF
Type of density    : Electron Density
Multiplicity       :   1
Irrep              :   0
Energy             :  -233.6912166647623508 Eh
Relativity type    :
Basis              : AO
                                X                 Y                 Z
Electronic contribution:     -2.095474669      -3.760844463       0.774926183
Nuclear contribution   :      1.899712079       4.172765347      -1.218367693
                        -----------------------------------------
Total Dipole Moment    :     -0.195762590       0.411920884      -0.443441510
                        -----------------------------------------
Magnitude (a.u.)       :      0.636114911
Magnitude (Debye)      :      1.616875607

Rotational constants in cm-1:             0.257123             0.115784             0.088161
Rotational constants in MHz :          7708.354295          3471.127928          2642.985893

                             ****ORCA TERMINATED NORMALLY****
TOTAL RUN TIME: 0 days 0 hours 1 minutes 0 seconds 897 msec
