                         Program Version 6.0.0  -   RELEASE  -
|  1> ! wb97x-v def2-tzvp def2/J RIJCOSX DEFGRID2 scfconv7 GCP(DFT/TZ) printgap
|  2> %output
|  3>     printlevel normal
|  4> end
|  5> %cpcm
|  6>     smd true
|  7>     smdsolvent "water"
|  8> end
|  9> * xyz 0 1
| 10> C 1.8543588481634885 0.9401802528380556 -0.1949741667572889
| 11> C 0.9605191586522662 -0.13390429245334948 0.41811769207727595
| 12> C -0.37796288492674457 -0.28172553039805603 -0.2922754800952694
| 13> H -0.1936464607696066 -0.524417189377745 -1.3509266639109716
| 14> C -1.2507436843325668 0.959491496125116 -0.20767480582982925
| 15> O -1.0442389288088232 -1.4077076297859519 0.33409782295628715
| 16> H 2.8316924344616927 0.9532421858144808 0.29652045140999184
| 17> H 1.4189654428707956 1.9385751954768713 -0.09016407294376605
| 18> H 2.019576763143776 0.7542309260097105 -1.262162327782565
| 19> H 0.7702146395275792 0.09105681060427295 1.4758213689894972
| 20> H 1.4730700229448153 -1.102872562411886 0.38091899885641073
| 21> H -0.8011334787835399 1.7933599003804952 -0.7552648919492015
| 22> H -2.233831078636529 0.7651320823519021 -0.6506315166579086
| 23> H -1.390487093717295 1.2613874801895861 0.8366029757812231
| 24> H -1.9159435584802464 -1.4897033418623622 -0.0741728510671363
| 25> *
| 26>
| 27>                          ****END OF INPUT****

CARTESIAN COORDINATES (ANGSTROEM)
---------------------------------
  C      1.854359    0.940180   -0.194974
  C      0.960519   -0.133904    0.418118
  C     -0.377963   -0.281726   -0.292275
  H     -0.193646   -0.524417   -1.350927
  C     -1.250744    0.959491   -0.207675
  O     -1.044239   -1.407708    0.334098
  H      2.831692    0.953242    0.296520
  H      1.418965    1.938575   -0.090164
  H      2.019577    0.754231   -1.262162
  H      0.770215    0.091057    1.475821
  H      1.473070   -1.102873    0.380919
  H     -0.801133    1.793360   -0.755265
  H     -2.233831    0.765132   -0.650632
  H     -1.390487    1.261387    0.836603
  H     -1.915944   -1.489703   -0.074173

 Total Charge           Charge          ....    0
 Multiplicity           Mult            ....    1
 Number of Electrons    NEL             ....   42
 Basis Dimension        Dim             ....  215

ORBITAL ENERGIES
----------------

  NO   OCC          E(Eh)            E(eV)
   0   2.0000     -21.668734      -589.6362
   1   2.0000     -12.089493      -328.9718
   2   2.0000     -12.033196      -327.4399
   3   2.0000     -12.026929      -327.2694
   4   2.0000     -12.026291      -327.2520
   5   2.0000      -1.666905       -45.3588
   6   2.0000      -1.300655       -35.3926
   7   2.0000      -1.219513       -33.1846
   8   2.0000      -1.142886       -31.0995
   9   2.0000      -1.064566       -28.9683
  10   2.0000      -1.014067       -27.5942
  11   2.0000      -0.948021       -25.7970
  12   2.0000      -0.927248       -25.2317
  13   2.0000      -0.866427       -23.5767
  14   2.0000      -0.848965       -23.1015
  15   2.0000      -0.820066       -22.3151
  16   2.0000      -0.813299       -22.1310
  17   2.0000      -0.802325       -21.8324
  18   2.0000      -0.786037       -21.3891
  19   2.0000      -0.758073       -20.6282
  20   2.0000      -0.743126       -20.2215
  21   0.0000      -0.143226        -3.8974
  22   0.0000      -0.030077        -0.8184
  23   0.0000      -0.004801        -0.1307
  24   0.0000       0.004003         0.1089
  25   0.0000       0.009628         0.2620

MULLIKEN ATOMIC CHARGES
-----------------------
   0 C :   -0.419362
   1 C :   -0.144541
   2 C :    0.115052
   3 H :    0.085825
   4 C :   -0.422709
   5 O :   -0.558795
   6 H :    0.133582
   7 H :    0.130804
   8 H :    0.122755
   9 H :    0.102031
  10 H :    0.106443
  11 H :    0.135517
  12 H :    0.135804
  13 H :    0.122845
  14 H :    0.354750
Sum of atomic charges:   -0.0000000

LOEWDIN ATOMIC CHARGES
----------------------
   0 C :   -0.308302
   1 C :   -0.277842
   2 C :   -0.362704
   3 H :    0.135831
   4 C :   -0.293582
   5 O :   -0.084428
   6 H :    0.120291
   7 H :    0.119086
   8 H :    0.120624
   9 H :    0.135808
  10 H :    0.136049
  11 H :    0.127173
  12 H :    0.123432
  13 H :    0.123063
  14 H :    0.185500

  Mayer bond orders larger than 0.100000
B(  0-C ,  1-C ) :   0.9645 B(  0-C ,  6-H ) :   0.9777 B(  0-C ,  7-H ) :   0.9795
B(  0-C ,  8-H ) :   0.9749 B(  1-C ,  2-C ) :   0.9773 B(  1-C ,  9-H ) :   0.9658
B(  1-C , 10-H ) :   0.9705 B(  2-C ,  3-H ) :   0.9822 B(  2-C ,  4-C ) :   0.9755
B(  2-C ,  5-O ) :   0.9943 B(  4-C , 11-H ) :   0.9684 B(  4-C , 12-H ) :   0.9751
B(  4-C , 13-H ) :   0.9682 B(  5-O , 14-H ) :   0.8715

FINAL SINGLE POINT ENERGY      -233.688040244282

DIPOLE MOMENT
-------------

Method             : SCF
Type of density    : Electron Density
Multiplicity       :   1
Irrep              :   0
Energy             :  -233.6986637896823993 Eh
Relativity type    :
Basis              : AO
                                X                 Y                 Z
Electronic contribution:     -2.187007468      -3.579557605       0.549561885
Nuclear contribution   :      1.899712079       4.172765347      -1.218367693
                        -----------------------------------------
Total Dipole Moment    :     -0.287295389       0.593207743      -0.668805808
                        -----------------------------------------
Magnitude (a.u.)       :      0.939007601
Magnitude (Debye)      :      2.386767643

Rotational constants in cm-1:             0.257123             0.115784             0.088161
Rotational constants in MHz :          7708.354295          3471.127928          2642.985893

                             ****ORCA TERMINATED NORMALLY****
TOTAL RUN TIME: 0 days 0 hours 1 minutes 9 seconds 840 msec
