                         Program Version 6.0.0  -   RELEASE  -
|  1> ! pbe def2-sv(p) def2/J RI DEFGRID1 loosescf d4 GCP(DFT/SV(P)) printgap
|  2> %output
|  3>     printlevel normal
|  4> end
|  5> * xyz 0 1
|  6> C 2.4742366495 -0.0222983813 -0.2326898447
|  7> C 1.0123172541 0.093387251 0.0573112733
|  8> C 0.306522143 1.2068708248 -0.0885206771
|  9> C -1.1491768545 1.2495825629 0.2634818443
| 10> C -1.9164653954 -0.0375399588 -0.1107688167
| 11> C -1.0018849459 -1.2412020739 -0.3559064514
| 12> C 0.2754328236 -1.1458019704 0.4812748249
| 13> H 2.6432989601 -0.7363398046 -1.0383858717
| 14> H 3.0029170259 -0.3843454118 0.6483783646
| 15> H 2.8907985895 0.9388690094 -0.5231923732
| 16> H 0.7664684869 2.1282813106 -0.4162341151
| 17> H -1.2237654938 1.3976475925 1.3460507719
| 18> H -1.6210474183 2.1125633969 -0.2081129953
| 19> H -2.6153819471 -0.2713503859 0.6940108644
| 20> H -2.5078322417 0.1420180676 -1.0097204066
| 21> H -1.5379755661 -2.1638343435 -0.1286826743
| 22> H -0.7127057909 -1.2738475778 -1.4086385722
| 23> H 0.0107274745 -1.0843376689 1.5404440812
| 24> H 0.8927994467 -2.0327396346 0.3350762449
| 25> *
| 26>
| 27>                          ****END OF INPUT****

CARTESIAN COORDINATES (ANGSTROEM)
---------------------------------
  C      2.474237   -0.022298   -0.232690
  C      1.012317    0.093387    0.057311
  C      0.306522    1.206871   -0.088521
  C     -1.149177    1.249583    0.263482
  C     -1.916465   -0.037540   -0.110769
  C     -1.001885   -1.241202   -0.355906
  C      0.275433   -1.145802    0.481275
  H      2.643299   -0.736340   -1.038386
  H      3.002917   -0.384345    0.648378
  H      2.890799    0.938869   -0.523192
  H      0.766468    2.128281   -0.416234
  H     -1.223765    1.397648    1.346051
  H     -1.621047    2.112563   -0.208113
  H     -2.615382   -0.271350    0.694011
  H     -2.507832    0.142018   -1.009720
  H     -1.537976   -2.163834   -0.128683
  H     -0.712706   -1.273848   -1.408639
  H      0.010727   -1.084338    1.540444
  H      0.892799   -2.032740    0.335076

 Total Charge           Charge          ....    0
 Multiplicity           Mult            ....    1
 Number of Electrons    NEL             ....   54
 Basis Dimension        Dim             ....  122

ORBITAL ENERGIES
----------------

  NO   OCC          E(Eh)            E(eV)
   0   2.0000      -9.883068      -268.9319
   1   2.0000      -9.880647      -268.8661
   2   2.0000      -9.880585      -268.8644
   3   2.0000      -9.879437      -268.8331
   4   2.0000      -9.879343      -268.8306
   5   2.0000      -9.875336      -268.7216
   6   2.0000      -9.869762      -268.5699
   7   2.0000      -0.754578       -20.5331
   8   2.0000      -0.682127       -18.5616
   9   2.0000      -0.658202       -17.9106
  10   2.0000      -0.607399       -16.5282
  11   2.0000      -0.547844       -14.9076
  12   2.0000      -0.512717       -13.9518
  13   2.0000      -0.442885       -12.0515
  14   2.0000      -0.429205       -11.6793
  15   2.0000      -0.410091       -11.1592
  16   2.0000      -0.379681       -10.3316
  17   2.0000      -0.371076       -10.0975
  18   2.0000      -0.350441        -9.5360
  19   2.0000      -0.344428        -9.3724
  20   2.0000      -0.334137        -9.0923
  21   2.0000      -0.325007        -8.8439
  22   2.0000      -0.312257        -8.4969
  23   2.0000      -0.280980        -7.6459
  24   2.0000      -0.271017        -7.3747
  25   2.0000      -0.257681        -7.0119
  26   2.0000      -0.197436        -5.3725
  27   0.0000      -0.000452        -0.0123
  28   0.0000       0.032946         0.8965
  29   0.0000       0.060967         1.6590
  30   0.0000       0.065737         1.7888
  31   0.0000       0.078712         2.1419

MULLIKEN ATOMIC CHARGES
-----------------------
   0 C :   -0.208639
   1 C :   -0.100871
   2 C :   -0.197665
   3 C :   -0.085748
   4 C :   -0.155208
   5 C :   -0.162289
   6 C :   -0.093468
   7 H :    0.104568
   8 H :    0.105206
   9 H :    0.094997
  10 H :    0.040450
  11 H :    0.092465
  12 H :    0.081583
  13 H :    0.074776
  14 H :    0.085063
  15 H :    0.080791
  16 H :    0.083665
  17 H :    0.087268
  18 H :    0.073055
Sum of atomic charges:    0.0000000

LOEWDIN ATOMIC CHARGES
----------------------
   0 C :   -0.321925
   1 C :   -0.071627
   2 C :   -0.163297
   3 C :   -0.225877
   4 C :   -0.226605
   5 C :   -0.220289
   6 C :   -0.213894
   7 H :    0.125813
   8 H :    0.126042
   9 H :    0.121818
  10 H :    0.113347
  11 H :    0.127457
  12 H :    0.121266
  13 H :    0.115121
  14 H :    0.119076
  15 H :    0.114867
  16 H :    0.116767
  17 H :    0.125167
  18 H :    0.116772

  Mayer bond orders larger than 0.100000
B(  0-C ,  1-C ) :   1.1401 B(  0-C ,  7-H ) :   0.9281 B(  0-C ,  8-H ) :   0.9315
B(  0-C ,  9-H ) :   0.9438 B(  1-C ,  2-C ) :   1.9022 B(  1-C ,  6-C ) :   1.0805
B(  2-C ,  3-C ) :   1.0989 B(  2-C , 10-H ) :   0.9362 B(  3-C ,  4-C ) :   1.1203
B(  3-C , 11-H ) :   0.8970 B(  3-C , 12-H ) :   0.9185 B(  4-C ,  5-C ) :   1.1586
B(  4-C , 13-H ) :   0.9193 B(  4-C , 14-H ) :   0.9269 B(  5-C ,  6-C ) :   1.1438
B(  5-C , 15-H ) :   0.9201 B(  5-C , 16-H ) :   0.9159 B(  6-C , 17-H ) :   0.8869
B(  6-C , 18-H ) :   0.9131

Dispersion correction           -0.016770672
FINAL SINGLE POINT ENERGY      -273.282885706848

DIPOLE MOMENT
-------------

Method             : SCF
Type of density    : Electron Density
Multiplicity       :   1
Irrep              :   0
Energy             :  -273.3430496486878951 Eh
Relativity type    :
Basis              : AO
                                X                 Y                 Z
Electronic contribution:     -0.000629915       1.053104105       0.191618210
Nuclear contribution   :     -0.010975096      -1.151517860      -0.158556104
                        -----------------------------------------
Total Dipole Moment    :     -0.011605010      -0.098413755       0.033062106
                        -----------------------------------------
Magnitude (a.u.)       :      0.104465526
Magnitude (Debye)      :      0.265530266

Rotational constants in cm-1:             0.151982             0.075908             0.055948
Rotational constants in MHz :          4556.304065          2275.674331          1677.276811

                             ****ORCA TERMINATED NORMALLY****
TOTAL RUN TIME: 0 days 0 hours 0 minutes 7 seconds 67 msec
