                         Program Version 6.0.0  -   RELEASE  -
|  1> ! pbe def2-sv(p) def2/J RI DEFGRID1 loosescf d4 GCP(DFT/SV(P)) printgap
|  2> %output
|  3>     printlevel normal
|  4> end
|  5> * xyz 0 1
|  6> C -3.2678566805 0.3854191666 0.4415689513
|  7> C -2.212410676 -0.0944794477 -0.5517686515
|  8> H -2.6841139568 -0.1882009078 -1.5346026908
|  9> C -1.6535210232 -1.4620225275 -0.1273666251
| 10> C -0.178389246 -1.6023247299 -0.4892588925
| 11> C 0.6394176678 -0.6112456622 0.3399436747
| 12> H 0.6646966196 -0.9600353078 1.3793959285
| 13> C -0.0221092888 0.7474511898 0.363338842
| 14> O 0.280367135 1.6106599479 1.1674150523
| 15> C -1.0841488028 0.9501815314 -0.6775298496
| 16> C 2.1137220253 -0.5102552984 -0.1290975194
| 17> C 2.2651293563 0.3157709083 -1.4048699341
| 18> C 2.9897228733 0.071884048 0.9772928911
| 19> H -2.8117909314 0.5869852927 1.4094286821
| 20> H -3.741712297 1.2990986884 0.0906256441
| 21> H -4.0368460017 -0.3723226815 0.5710819288
| 22> H -1.7531550725 -1.5718644677 0.9552784375
| 23> H -2.2339726567 -2.2579902007 -0.5942930748
| 24> H 0.1648295628 -2.6154199304 -0.2746425905
| 25> H -0.041111263 -1.4256647698 -1.5558725277
| 26> H -1.489503637 1.9593042322 -0.5928394462
| 27> H -0.6048096461 0.848947167 -1.6519261095
| 28> H 2.4481152178 -1.5329064883 -0.3367218493
| 29> H 1.9869231103 1.3521588395 -1.2219193404
| 30> H 1.6499969914 -0.077979992 -2.20958365
| 31> H 3.3011046575 0.2959319067 -1.7345024291
| 32> H 2.6227606647 1.05327554 1.2709661881
| 33> H 4.0156577642 0.1754999254 0.6327859431
| 34> H 2.9835841904 -0.5714332579 1.8541920204
| 35> *
| 36>
| 37>                          ****END OF INPUT****

CARTESIAN COORDINATES (ANGSTROEM)
---------------------------------
  C     -3.267857    0.385419    0.441569
  C     -2.212411   -0.094479   -0.551769
  H     -2.684114   -0.188201   -1.534603
  C     -1.653521   -1.462023   -0.127367
  C     -0.178389   -1.602325   -0.489259
  C      0.639418   -0.611246    0.339944
  H      0.664697   -0.960035    1.379396
  C     -0.022109    0.747451    0.363339
  O      0.280367    1.610660    1.167415
  C     -1.084149    0.950182   -0.677530
  C      2.113722   -0.510255   -0.129098
  C      2.265129    0.315771   -1.404870
  C      2.989723    0.071884    0.977293
  H     -2.811791    0.586985    1.409429
  H     -3.741712    1.299099    0.090626
  H     -4.036846   -0.372323    0.571082
  H     -1.753155   -1.571864    0.955278
  H     -2.233973   -2.257990   -0.594293
  H      0.164830   -2.615420   -0.274643
  H     -0.041111   -1.425665   -1.555873
  H     -1.489504    1.959304   -0.592839
  H     -0.604810    0.848947   -1.651926
  H      2.448115   -1.532906   -0.336722
  H      1.986923    1.352159   -1.221919
  H      1.649997   -0.077980   -2.209584
  H      3.301105    0.295932   -1.734502
  H      2.622761    1.053276    1.270966
  H      4.015658    0.175500    0.632786
  H      2.983584   -0.571433    1.854192

 Total Charge           Charge          ....    0
 Multiplicity           Mult            ....    1
 Number of Electrons    NEL             ....   86
 Basis Dimension        Dim             ....  190

ORBITAL ENERGIES
----------------

  NO   OCC          E(Eh)            E(eV)
   0   2.0000     -18.731861      -509.7199
   1   2.0000      -9.968274      -271.2505
   2   2.0000      -9.907395      -269.5939
   3   2.0000      -9.903332      -269.4834
   4   2.0000      -9.897048      -269.3124
   5   2.0000      -9.891237      -269.1543
   6   2.0000      -9.889671      -269.1116
   7   2.0000      -9.888167      -269.0707
   8   2.0000      -9.877270      -268.7742
   9   2.0000      -9.876833      -268.7623
  10   2.0000      -9.865091      -268.4428
  11   2.0000      -0.930074       -25.3086
  12   2.0000      -0.769233       -20.9319
  13   2.0000      -0.730238       -19.8708
  14   2.0000      -0.679357       -18.4862
  15   2.0000      -0.651842       -17.7375
  16   2.0000      -0.615904       -16.7596
  17   2.0000      -0.607154       -16.5215
  18   2.0000      -0.551498       -15.0070
  19   2.0000      -0.530386       -14.4325
  20   2.0000      -0.501092       -13.6354
  21   2.0000      -0.459765       -12.5108
  22   2.0000      -0.448737       -12.2107
  23   2.0000      -0.413770       -11.2593
  24   2.0000      -0.409387       -11.1400
  25   2.0000      -0.405300       -11.0288
  26   2.0000      -0.388069       -10.5599
  27   2.0000      -0.375423       -10.2158
  28   2.0000      -0.365519        -9.9463
  29   2.0000      -0.358098        -9.7443
  30   2.0000      -0.348865        -9.4931
  31   2.0000      -0.341021        -9.2796
  32   2.0000      -0.340191        -9.2571
  33   2.0000      -0.333024        -9.0620
  34   2.0000      -0.316678        -8.6172
  35   2.0000      -0.313035        -8.5181
  36   2.0000      -0.304071        -8.2742
  37   2.0000      -0.292852        -7.9689
  38   2.0000      -0.290206        -7.8969
  39   2.0000      -0.281048        -7.6477
  40   2.0000      -0.277073        -7.5395
  41   2.0000      -0.267388        -7.2760
  42   2.0000      -0.185720        -5.0537
  43   0.0000      -0.052200        -1.4204
  44   0.0000       0.024508         0.6669
  45   0.0000       0.046325         1.2606
  46   0.0000       0.049809         1.3554
  47   0.0000       0.066550         1.8109

MULLIKEN ATOMIC CHARGES
-----------------------
   0 C :   -0.247621
   1 C :   -0.200000
   2 H :    0.070577
   3 C :   -0.095584
   4 C :   -0.088012
   5 C :   -0.166852
   6 H :    0.081407
   7 C :   -0.025317
   8 O :   -0.160719
   9 C :   -0.044825
  10 C :   -0.134921
  11 C :   -0.273678
  12 C :   -0.236564
  13 H :    0.111637
  14 H :    0.101981
  15 H :    0.104902
  16 H :    0.074218
  17 H :    0.085114
  18 H :    0.084047
  19 H :    0.074395
  20 H :    0.083777
  21 H :    0.093805
  22 H :    0.071671
  23 H :    0.120186
  24 H :    0.105212
  25 H :    0.104328
  26 H :    0.120185
  27 H :    0.093065
  28 H :    0.093587
Sum of atomic charges:    0.0000000

LOEWDIN ATOMIC CHARGES
----------------------
   0 C :   -0.329767
   1 C :   -0.142996
   2 H :    0.118311
   3 C :   -0.219629
   4 C :   -0.219411
   5 C :   -0.159585
   6 H :    0.135081
   7 C :    0.053608
   8 O :   -0.130368
   9 C :   -0.238163
  10 C :   -0.133197
  11 C :   -0.335109
  12 C :   -0.335473
  13 H :    0.121673
  14 H :    0.119212
  15 H :    0.119624
  16 H :    0.118039
  17 H :    0.121333
  18 H :    0.121239
  19 H :    0.115795
  20 H :    0.128843
  21 H :    0.136676
  22 H :    0.115591
  23 H :    0.123276
  24 H :    0.113779
  25 H :    0.122804
  26 H :    0.127134
  27 H :    0.115222
  28 H :    0.116458

  Mayer bond orders larger than 0.100000
B(  0-C ,  1-C ) :   1.1122 B(  0-C , 13-H ) :   0.9464 B(  0-C , 14-H ) :   0.9470
B(  0-C , 15-H ) :   0.9494 B(  1-C ,  2-H ) :   0.8893 B(  1-C ,  3-C ) :   1.0926
B(  1-C ,  9-C ) :   1.0792 B(  3-C ,  4-C ) :   1.1882 B(  3-C , 16-H ) :   0.9013
B(  3-C , 17-H ) :   0.9099 B(  4-C ,  5-C ) :   1.0868 B(  4-C , 18-H ) :   0.9036
B(  4-C , 19-H ) :   0.8800 B(  5-C ,  6-H ) :   0.8698 B(  5-C ,  7-C ) :   0.9270
B(  5-C , 10-C ) :   1.0147 B(  7-C ,  8-O ) :   2.1531 B(  7-C ,  9-C ) :   1.0899
B(  9-C , 20-H ) :   0.8925 B(  9-C , 21-H ) :   0.8614 B( 10-C , 11-C ) :   1.1181
B( 10-C , 12-C ) :   1.1195 B( 10-C , 22-H ) :   0.9012 B( 11-C , 23-H ) :   0.9332
B( 11-C , 24-H ) :   0.9394 B( 11-C , 25-H ) :   0.9441 B( 12-C , 26-H ) :   0.9317
B( 12-C , 27-H ) :   0.9462 B( 12-C , 28-H ) :   0.9462

Dispersion correction           -0.030811178
FINAL SINGLE POINT ENERGY      -466.030467311902

DIPOLE MOMENT
-------------

Method             : SCF
Type of density    : Electron Density
Multiplicity       :   1
Irrep              :   0
Energy             :  -466.1267328349829313 Eh
Relativity type    :
Basis              : AO
                                X                 Y                 Z
Electronic contribution:     -0.666351924       2.949107679       2.624518057
Nuclear contribution   :      0.417564442      -3.731225340      -3.306743532
                        -----------------------------------------
Total Dipole Moment    :     -0.248787482      -0.782117661      -0.682225474
                        -----------------------------------------
Magnitude (a.u.)       :      1.067255754
Magnitude (Debye)      :      2.712748542

Rotational constants in cm-1:             0.064993             0.025375             0.022535
Rotational constants in MHz :          1948.432598           760.737685           675.578807

                             ****ORCA TERMINATED NORMALLY****
TOTAL RUN TIME: 0 days 0 hours 0 minutes 13 seconds 853 msec
