                         Program Version 6.0.0  -   RELEASE  -
|  1> ! pbe def2-sv(p) def2/J RI DEFGRID1 loosescf d4 GCP(DFT/SV(P)) printgap
|  2> %output
|  3>     printlevel normal
|  4> end
|  5> * xyz 0 1
|  6> C 0.7276248318 -1.1920390323 -0.2319773722
|  7> C -0.7277546605 -1.1919785467 0.2318725283
|  8> N -1.3813254426 0.000155078 -0.2842984875
|  9> C -0.7275009935 1.1920589973 0.2320716395
| 10> C 0.7277472254 1.1919038328 -0.2321199043
| 11> N 1.3812028991 -6.68618e-05 0.2844276145
| 12> H 0.7414397714 -1.2274010718 -1.3347967431
| 13> H 1.2420619361 -2.0716936237 0.1585812935
| 14> H -1.2423126494 -2.0714684471 -0.1589081541
| 15> H -0.7415656091 -1.2275688141 1.3346739098
| 16> H -2.3591964543 0.0002073816 -0.0130053414
| 17> H -1.2420342192 2.071751079 -0.158264656
| 18> H -0.7409667629 1.2272457606 1.3348892686
| 19> H 0.7412160078 1.2269322879 -1.3349548615
| 20> H 1.2424412546 2.0715845191 0.1580352629
| 21> H 2.3592325414 -0.0001625678 0.0137801291
| 22> *
| 23>
| 24>                          ****END OF INPUT****

CARTESIAN COORDINATES (ANGSTROEM)
---------------------------------
  C      0.727625   -1.192039   -0.231977
  C     -0.727755   -1.191979    0.231873
  N     -1.381325    0.000155   -0.284298
  C     -0.727501    1.192059    0.232072
  C      0.727747    1.191904   -0.232120
  N      1.381203   -0.000067    0.284428
  H      0.741440   -1.227401   -1.334797
  H      1.242062   -2.071694    0.158581
  H     -1.242313   -2.071468   -0.158908
  H     -0.741566   -1.227569    1.334674
  H     -2.359196    0.000207   -0.013005
  H     -1.242034    2.071751   -0.158265
  H     -0.740967    1.227246    1.334889
  H      0.741216    1.226932   -1.334955
  H      1.242441    2.071585    0.158035
  H      2.359233   -0.000163    0.013780

 Total Charge           Charge          ....    0
 Multiplicity           Mult            ....    1
 Number of Electrons    NEL             ....   48
 Basis Dimension        Dim             ....  104

ORBITAL ENERGIES
----------------

  NO   OCC          E(Eh)            E(eV)
   0   2.0000     -13.966907      -380.0588
   1   2.0000     -13.966851      -380.0573
   2   2.0000      -9.901931      -269.4452
   3   2.0000      -9.901923      -269.4450
   4   2.0000      -9.901897      -269.4443
   5   2.0000      -9.901889      -269.4441
   6   2.0000      -0.842804       -22.9339
   7   2.0000      -0.789008       -21.4700
   8   2.0000      -0.676722       -18.4145
   9   2.0000      -0.597293       -16.2532
  10   2.0000      -0.560619       -15.2552
  11   2.0000      -0.487304       -13.2602
  12   2.0000      -0.473365       -12.8809
  13   2.0000      -0.419333       -11.4106
  14   2.0000      -0.403093       -10.9687
  15   2.0000      -0.389770       -10.6062
  16   2.0000      -0.379433       -10.3249
  17   2.0000      -0.356770        -9.7082
  18   2.0000      -0.338660        -9.2154
  19   2.0000      -0.300882        -8.1874
  20   2.0000      -0.289478        -7.8771
  21   2.0000      -0.283624        -7.7178
  22   2.0000      -0.176747        -4.8095
  23   2.0000      -0.174308        -4.7432
  24   0.0000       0.031963         0.8697
  25   0.0000       0.054471         1.4822
  26   0.0000       0.075861         2.0643
  27   0.0000       0.086624         2.3571
  28   0.0000       0.089081         2.4240

MULLIKEN ATOMIC CHARGES
-----------------------
   0 C :   -0.057294
   1 C :   -0.057263
   2 N :   -0.368042
   3 C :   -0.057247
   4 C :   -0.057279
   5 N :   -0.368012
   6 H :    0.057952
   7 H :    0.081782
   8 H :    0.081773
   9 H :    0.057951
  10 H :    0.203124
  11 H :    0.081772
  12 H :    0.057940
  13 H :    0.057942
  14 H :    0.081782
  15 H :    0.203119
Sum of atomic charges:   -0.0000000

LOEWDIN ATOMIC CHARGES
----------------------
   0 C :   -0.173637
   1 C :   -0.173640
   2 N :   -0.270427
   3 C :   -0.173644
   4 C :   -0.173641
   5 N :   -0.270406
   6 H :    0.092822
   7 H :    0.112315
   8 H :    0.112308
   9 H :    0.092824
  10 H :    0.207432
  11 H :    0.112304
  12 H :    0.092825
  13 H :    0.092821
  14 H :    0.112310
  15 H :    0.207433

  Mayer bond orders larger than 0.100000
B(  0-C ,  1-C ) :   1.1615 B(  0-C ,  5-N ) :   1.0748 B(  0-C ,  6-H ) :   0.8886
B(  0-C ,  7-H ) :   0.9264 B(  1-C ,  2-N ) :   1.0748 B(  1-C ,  8-H ) :   0.9264
B(  1-C ,  9-H ) :   0.8886 B(  2-N ,  3-C ) :   1.0748 B(  2-N , 10-H ) :   0.8795
B(  3-C ,  4-C ) :   1.1615 B(  3-C , 11-H ) :   0.9264 B(  3-C , 12-H ) :   0.8886
B(  4-C ,  5-N ) :   1.0748 B(  4-C , 13-H ) :   0.8885 B(  4-C , 14-H ) :   0.9264
B(  5-N , 15-H ) :   0.8795

Dispersion correction           -0.012949574
FINAL SINGLE POINT ENERGY      -267.291791077491

DIPOLE MOMENT
-------------

Method             : SCF
Type of density    : Electron Density
Multiplicity       :   1
Irrep              :   0
Energy             :  -267.3566462846059153 Eh
Relativity type    :
Basis              : AO
                                X                 Y                 Z
Electronic contribution:      0.000060618       0.000450806       0.000220369
Nuclear contribution   :      0.000295617      -0.000537552       0.000028953
                        -----------------------------------------
Total Dipole Moment    :      0.000356235      -0.000086746       0.000249321
                        -----------------------------------------
Magnitude (a.u.)       :      0.000443384
Magnitude (Debye)      :      0.001126994

Rotational constants in cm-1:             0.162441             0.152308             0.088638
Rotational constants in MHz :          4869.867510          4566.067088          2657.297092

                             ****ORCA TERMINATED NORMALLY****
TOTAL RUN TIME: 0 days 0 hours 0 minutes 5 seconds 63 msec
