                         Program Version 6.0.0  -   RELEASE  -
|  1> ! r2scan-3c def2/J RI DEFGRID2 scfconv6 printgap
|  2> %output
|  3>     printlevel normal
|  4> end
|  5> * xyz 0 1
|  6> C 1.841565056 -1.4400854398 0.0003590314
|  7> C 0.5328873742 -0.7174603755 -9.66448e-05
|  8> C -0.6716430612 -1.4059152262 -0.0003125972
|  9> C -1.8671231188 -0.7038417938 -0.0001456516
| 10> C -1.8064717718 0.6781392048 0.0002772811
| 11> N -0.6675362012 1.3530875417 0.0002056547
| 12> C 0.4792024182 0.6843649983 -8.0083e-05
| 13> C 1.72808101 1.5069672217 -0.0002828026
| 14> H 2.424401073 -1.1709672295 -0.8789898846
| 15> H 2.4244326533 -1.1697423831 0.8794461838
| 16> H 1.6840409624 -2.51538814 0.0011660031
| 17> H -0.6749122476 -2.4870380365 -0.0004439817
| 18> H -2.8163577362 -1.2155985262 -0.0003435287
| 19> H -2.7038869328 1.2829207067 0.0005642812
| 20> H 1.4654905501 2.5598970928 -0.0016091479
| 21> H 2.3270332147 1.286019571 0.8810617472
| 22> H 2.3281401995 1.2839120279 -0.8803554398
| 23> *
| 24>
| 25>                          ****END OF INPUT****

CARTESIAN COORDINATES (ANGSTROEM)
---------------------------------
  C      1.841565   -1.440085    0.000359
  C      0.532887   -0.717460   -0.000097
  C     -0.671643   -1.405915   -0.000313
  C     -1.867123   -0.703842   -0.000146
  C     -1.806472    0.678139    0.000277
  N     -0.667536    1.353088    0.000206
  C      0.479202    0.684365   -0.000080
  C      1.728081    1.506967   -0.000283
  H      2.424401   -1.170967   -0.878990
  H      2.424433   -1.169742    0.879446
  H      1.684041   -2.515388    0.001166
  H     -0.674912   -2.487038   -0.000444
  H     -2.816358   -1.215599   -0.000344
  H     -2.703887    1.282921    0.000564
  H      1.465491    2.559897   -0.001609
  H      2.327033    1.286020    0.881062
  H      2.328140    1.283912   -0.880355

 Total Charge           Charge          ....    0
 Multiplicity           Mult            ....    1
 Number of Electrons    NEL             ....   58
 Basis Dimension        Dim             ....  202

ORBITAL ENERGIES
----------------

  NO   OCC          E(Eh)            E(eV)
   0   2.0000     -14.145435      -384.9169
   1   2.0000     -10.068702      -273.9833
   2   2.0000     -10.057649      -273.6826
   3   2.0000     -10.047425      -273.4043
   4   2.0000     -10.045407      -273.3494
   5   2.0000     -10.036472      -273.1063
   6   2.0000     -10.035476      -273.0792
   7   2.0000     -10.023230      -272.7460
   8   2.0000      -0.909846       -24.7582
   9   2.0000      -0.782999       -21.3065
  10   2.0000      -0.756960       -20.5979
  11   2.0000      -0.688508       -18.7353
  12   2.0000      -0.654535       -17.8108
  13   2.0000      -0.580438       -15.7945
  14   2.0000      -0.566905       -15.4263
  15   2.0000      -0.474566       -12.9136
  16   2.0000      -0.464341       -12.6354
  17   2.0000      -0.418277       -11.3819
  18   2.0000      -0.413928       -11.2636
  19   2.0000      -0.379201       -10.3186
  20   2.0000      -0.379007       -10.3133
  21   2.0000      -0.374361       -10.1869
  22   2.0000      -0.369784       -10.0623
  23   2.0000      -0.349425        -9.5083
  24   2.0000      -0.344134        -9.3644
  25   2.0000      -0.318728        -8.6730
  26   2.0000      -0.261276        -7.1097
  27   2.0000      -0.227923        -6.2021
  28   2.0000      -0.216780        -5.8989
  29   0.0000      -0.044755        -1.2178
  30   0.0000      -0.032396        -0.8815
  31   0.0000       0.077189         2.1004
  32   0.0000       0.095335         2.5942
  33   0.0000       0.110951         3.0191

MULLIKEN ATOMIC CHARGES
-----------------------
   0 C :   -0.539554
   1 C :    0.132061
   2 C :   -0.223797
   3 C :   -0.110067
   4 C :   -0.103811
   5 N :   -0.171121
   6 C :    0.245926
   7 C :   -0.626257
   8 H :    0.165526
   9 H :    0.165419
  10 H :    0.150132
  11 H :    0.146444
  12 H :    0.147026
  13 H :    0.133012
  14 H :    0.181654
  15 H :    0.153794
  16 H :    0.153612
Sum of atomic charges:    0.0000000

LOEWDIN ATOMIC CHARGES
----------------------
   0 C :   -0.385030
   1 C :   -0.077886
   2 C :   -0.126619
   3 C :   -0.154163
   4 C :    0.075479
   5 N :   -0.623155
   6 C :    0.130319
   7 C :   -0.358689
   8 H :    0.165988
   9 H :    0.166006
  10 H :    0.160117
  11 H :    0.168795
  12 H :    0.168904
  13 H :    0.183289
  14 H :    0.177440
  15 H :    0.164620
  16 H :    0.164583

  Mayer bond orders larger than 0.100000
B(  0-C ,  1-C ) :   0.7660 B(  0-C ,  8-H ) :   0.9806 B(  0-C ,  9-H ) :   0.9805
B(  0-C , 10-H ) :   0.9856 B(  1-C ,  2-C ) :   1.3997 B(  1-C ,  6-C ) :   1.3782
B(  2-C ,  3-C ) :   1.4320 B(  2-C , 11-H ) :   0.9455 B(  3-C ,  4-C ) :   1.3688
B(  3-C , 12-H ) :   0.9348 B(  4-C ,  5-N ) :   1.4461 B(  4-C , 13-H ) :   0.9814
B(  5-N ,  6-C ) :   1.3495 B(  5-N ,  7-C ) :   0.1023 B(  6-C ,  7-C ) :   0.8221
B(  7-C , 14-H ) :   0.9910 B(  7-C , 15-H ) :   0.9732 B(  7-C , 16-H ) :   0.9732

Dispersion correction           -0.005384260
FINAL SINGLE POINT ENERGY      -326.823665655819

DIPOLE MOMENT
-------------

Method             : SCF
Type of density    : Electron Density
Multiplicity       :   1
Irrep              :   0
Energy             :  -326.8261547461157761 Eh
Relativity type    :
Basis              : AO
                                X                 Y                 Z
Electronic contribution:     -5.720340932       1.236017552      -0.000471128
Nuclear contribution   :      6.055390409      -2.005876541       0.000466677
                        -----------------------------------------
Total Dipole Moment    :      0.335049478      -0.769858988      -0.000004450
                        -----------------------------------------
Magnitude (a.u.)       :      0.839607655
Magnitude (Debye)      :      2.134113058

Rotational constants in cm-1:             0.107764             0.075853             0.045264
Rotational constants in MHz :          3230.674138          2274.028384          1356.989148

                             ****ORCA TERMINATED NORMALLY****
TOTAL RUN TIME: 0 days 0 hours 0 minutes 24 seconds 444 msec
