                         Program Version 6.0.0  -   RELEASE  -
|  1> ! r2scan-3c def2/J RI DEFGRID2 scfconv6 printgap
|  2> %output
|  3>     printlevel normal
|  4> end
|  5> %cpcm
|  6>     smd true
|  7>     smdsolvent "water"
|  8> end
|  9> * xyz 0 1
| 10> C 1.841565056 -1.4400854398 0.0003590314
| 11> C 0.5328873742 -0.7174603755 -9.66448e-05
| 12> C -0.6716430612 -1.4059152262 -0.0003125972
| 13> C -1.8671231188 -0.7038417938 -0.0001456516
| 14> C -1.8064717718 0.6781392048 0.0002772811
| 15> N -0.6675362012 1.3530875417 0.0002056547
| 16> C 0.4792024182 0.6843649983 -8.0083e-05
| 17> C 1.72808101 1.5069672217 -0.0002828026
| 18> H 2.424401073 -1.1709672295 -0.8789898846
| 19> H 2.4244326533 -1.1697423831 0.8794461838
| 20> H 1.6840409624 -2.51538814 0.0011660031
| 21> H -0.6749122476 -2.4870380365 -0.0004439817
| 22> H -2.8163577362 -1.2155985262 -0.0003435287
| 23> H -2.7038869328 1.2829207067 0.0005642812
| 24> H 1.4654905501 2.5598970928 -0.0016091479
| 25> H 2.3270332147 1.286019571 0.8810617472
| 26> H 2.3281401995 1.2839120279 -0.8803554398
| 27> *
| 28>
| 29>                          ****END OF INPUT****

CARTESIAN COORDINATES (ANGSTROEM)
---------------------------------
  C      1.841565   -1.440085    0.000359
  C      0.532887   -0.717460   -0.000097
  C     -0.671643   -1.405915   -0.000313
  C     -1.867123   -0.703842   -0.000146
  C     -1.806472    0.678139    0.000277
  N     -0.667536    1.353088    0.000206
  C      0.479202    0.684365   -0.000080
  C      1.728081    1.506967   -0.000283
  H      2.424401   -1.170967   -0.878990
  H      2.424433   -1.169742    0.879446
  H      1.684041   -2.515388    0.001166
  H     -0.674912   -2.487038   -0.000444
  H     -2.816358   -1.215599   -0.000344
  H     -2.703887    1.282921    0.000564
  H      1.465491    2.559897   -0.001609
  H      2.327033    1.286020    0.881062
  H      2.328140    1.283912   -0.880355

 Total Charge           Charge          ....    0
 Multiplicity           Mult            ....    1
 Number of Electrons    NEL             ....   58
 Basis Dimension        Dim             ....  202

ORBITAL ENERGIES
----------------

  NO   OCC          E(Eh)            E(eV)
   0   2.0000     -14.150826      -385.0636
   1   2.0000     -10.068844      -273.9872
   2   2.0000     -10.057451      -273.6771
   3   2.0000     -10.044541      -273.3259
   4   2.0000     -10.040724      -273.2220
   5   2.0000     -10.033108      -273.0147
   6   2.0000     -10.020461      -272.6706
   7   2.0000     -10.016340      -272.5585
   8   2.0000      -0.913464       -24.8566
   9   2.0000      -0.779396       -21.2084
  10   2.0000      -0.754630       -20.5345
  11   2.0000      -0.681361       -18.5408
  12   2.0000      -0.649049       -17.6615
  13   2.0000      -0.576421       -15.6852
  14   2.0000      -0.564148       -15.3513
  15   2.0000      -0.470285       -12.7971
  16   2.0000      -0.461043       -12.5456
  17   2.0000      -0.412106       -11.2140
  18   2.0000      -0.406854       -11.0711
  19   2.0000      -0.374600       -10.1934
  20   2.0000      -0.368844       -10.0368
  21   2.0000      -0.368373       -10.0239
  22   2.0000      -0.356344        -9.6966
  23   2.0000      -0.348877        -9.4934
  24   2.0000      -0.339659        -9.2426
  25   2.0000      -0.312899        -8.5144
  26   2.0000      -0.262619        -7.1462
  27   2.0000      -0.226878        -6.1737
  28   2.0000      -0.224817        -6.1176
  29   0.0000      -0.045903        -1.2491
  30   0.0000      -0.032031        -0.8716
  31   0.0000       0.083219         2.2645
  32   0.0000       0.106050         2.8858
  33   0.0000       0.112352         3.0573

MULLIKEN ATOMIC CHARGES
-----------------------
   0 C :   -0.579487
   1 C :    0.120099
   2 C :   -0.229420
   3 C :   -0.149532
   4 C :   -0.127088
   5 N :   -0.229098
   6 C :    0.248644
   7 C :   -0.658955
   8 H :    0.185544
   9 H :    0.185436
  10 H :    0.171599
  11 H :    0.183084
  12 H :    0.181394
  13 H :    0.158514
  14 H :    0.178233
  15 H :    0.180592
  16 H :    0.180442
Sum of atomic charges:    0.0000000

LOEWDIN ATOMIC CHARGES
----------------------
   0 C :   -0.388512
   1 C :   -0.074732
   2 C :   -0.124694
   3 C :   -0.158370
   4 C :    0.061947
   5 N :   -0.670660
   6 C :    0.126568
   7 C :   -0.364153
   8 H :    0.173680
   9 H :    0.173693
  10 H :    0.167217
  11 H :    0.182519
  12 H :    0.180982
  13 H :    0.191266
  14 H :    0.173718
  15 H :    0.174780
  16 H :    0.174752

  Mayer bond orders larger than 0.100000
B(  0-C ,  1-C ) :   0.7764 B(  0-C ,  8-H ) :   0.9735 B(  0-C ,  9-H ) :   0.9735
B(  0-C , 10-H ) :   0.9781 B(  1-C ,  2-C ) :   1.3914 B(  1-C ,  6-C ) :   1.3605
B(  2-C ,  3-C ) :   1.4013 B(  2-C , 11-H ) :   0.9496 B(  3-C ,  4-C ) :   1.3705
B(  3-C , 12-H ) :   0.9397 B(  4-C ,  5-N ) :   1.4335 B(  4-C , 13-H ) :   0.9715
B(  5-N ,  6-C ) :   1.3539 B(  5-N ,  7-C ) :   0.1119 B(  6-C ,  7-C ) :   0.8274
B(  7-C , 14-H ) :   0.9954 B(  7-C , 15-H ) :   0.9617 B(  7-C , 16-H ) :   0.9618

Dispersion correction           -0.005384260
FINAL SINGLE POINT ENERGY      -326.830002758394

DIPOLE MOMENT
-------------

Method             : SCF
Type of density    : Electron Density
Multiplicity       :   1
Irrep              :   0
Energy             :  -326.8324918486900401 Eh
Relativity type    :
Basis              : AO
                                X                 Y                 Z
Electronic contribution:     -5.537456389       0.833885298      -0.000487415
Nuclear contribution   :      6.055390409      -2.005876541       0.000466677
                        -----------------------------------------
Total Dipole Moment    :      0.517934021      -1.171991243      -0.000020738
                        -----------------------------------------
Magnitude (a.u.)       :      1.281334899
Magnitude (Debye)      :      3.256894483

Rotational constants in cm-1:             0.107764             0.075853             0.045264
Rotational constants in MHz :          3230.674138          2274.028384          1356.989148

                             ****ORCA TERMINATED NORMALLY****
TOTAL RUN TIME: 0 days 0 hours 0 minutes 33 seconds 132 msec
