                         Program Version 6.0.0  -   RELEASE  -
|  1> ! pbe def2-sv(p) def2/J RI DEFGRID1 loosescf d4 GCP(DFT/SV(P)) printgap
|  2> %output
|  3>     printlevel normal
|  4> end
|  5> * xyz 0 1
|  6> C -2.0972996484 -0.5746676982 -0.7099253783
|  7> C -1.3608206151 -0.3065608668 0.6060640359
|  8> C -0.0092713979 0.2879057293 0.3090500398
|  9> O 0.2562528934 1.4714104718 0.3533791817
| 10> O 0.8630336668 -0.6453205304 -0.0506669463
| 11> C 2.1833698364 -0.2382483841 -0.4194021101
| 12> H -2.2181411695 0.3494805292 -1.2702004468
| 13> H -1.5377979627 -1.2822086838 -1.3161004852
| 14> H -3.0794989311 -0.9879167219 -0.5018447588
| 15> H -1.222060653 -1.241617252 1.1470581587
| 16> H -1.9224274297 0.4007595969 1.2149326415
| 17> H 2.8107452359 -0.1992703867 0.4711905828
| 18> H 2.1535452024 0.7474370319 -0.885214837
| 19> H 2.5493480147 -0.9903893034 -1.1122894682
| 20> *
| 21>
| 22>                          ****END OF INPUT****

CARTESIAN COORDINATES (ANGSTROEM)
---------------------------------
  C     -2.097300   -0.574668   -0.709925
  C     -1.360821   -0.306561    0.606064
  C     -0.009271    0.287906    0.309050
  O      0.256253    1.471410    0.353379
  O      0.863034   -0.645321   -0.050667
  C      2.183370   -0.238248   -0.419402
  H     -2.218141    0.349481   -1.270200
  H     -1.537798   -1.282209   -1.316100
  H     -3.079499   -0.987917   -0.501845
  H     -1.222061   -1.241617    1.147058
  H     -1.922427    0.400760    1.214933
  H      2.810745   -0.199270    0.471191
  H      2.153545    0.747437   -0.885215
  H      2.549348   -0.990389   -1.112289

 Total Charge           Charge          ....    0
 Multiplicity           Mult            ....    1
 Number of Electrons    NEL             ....   48
 Basis Dimension        Dim             ....  100

ORBITAL ENERGIES
----------------

  NO   OCC          E(Eh)            E(eV)
   0   2.0000     -18.799398      -511.5576
   1   2.0000     -18.730143      -509.6731
   2   2.0000     -10.003973      -272.2219
   3   2.0000      -9.941158      -270.5127
   4   2.0000      -9.898870      -269.3620
   5   2.0000      -9.888267      -269.0734
   6   2.0000      -1.004875       -27.3440
   7   2.0000      -0.907343       -24.6901
   8   2.0000      -0.716931       -19.5087
   9   2.0000      -0.656710       -17.8700
  10   2.0000      -0.575349       -15.6560
  11   2.0000      -0.507055       -13.7977
  12   2.0000      -0.449430       -12.2296
  13   2.0000      -0.432287       -11.7631
  14   2.0000      -0.422720       -11.5028
  15   2.0000      -0.389143       -10.5891
  16   2.0000      -0.382121       -10.3980
  17   2.0000      -0.362488        -9.8638
  18   2.0000      -0.336127        -9.1465
  19   2.0000      -0.318628        -8.6703
  20   2.0000      -0.314759        -8.5650
  21   2.0000      -0.297307        -8.0901
  22   2.0000      -0.256096        -6.9687
  23   2.0000      -0.215145        -5.8544
  24   0.0000      -0.018722        -0.5095
  25   0.0000       0.044688         1.2160
  26   0.0000       0.063653         1.7321
  27   0.0000       0.089619         2.4387
  28   0.0000       0.090217         2.4549

MULLIKEN ATOMIC CHARGES
-----------------------
   0 C :   -0.304427
   1 C :   -0.132636
   2 C :    0.090517
   3 O :   -0.209353
   4 O :   -0.246169
   5 C :   -0.118626
   6 H :    0.115899
   7 H :    0.113429
   8 H :    0.116099
   9 H :    0.102891
  10 H :    0.104904
  11 H :    0.119972
  12 H :    0.126837
  13 H :    0.120662
Sum of atomic charges:    0.0000000

LOEWDIN ATOMIC CHARGES
----------------------
   0 C :   -0.331127
   1 C :   -0.248708
   2 C :    0.034206
   3 O :   -0.171282
   4 O :   -0.076844
   5 C :   -0.205615
   6 H :    0.124993
   7 H :    0.122443
   8 H :    0.123886
   9 H :    0.132291
  10 H :    0.134231
  11 H :    0.119414
  12 H :    0.122006
  13 H :    0.120106

  Mayer bond orders larger than 0.100000
B(  0-C ,  1-C ) :   1.1391 B(  0-C ,  6-H ) :   0.9536 B(  0-C ,  7-H ) :   0.9541
B(  0-C ,  8-H ) :   0.9523 B(  1-C ,  2-C ) :   1.0259 B(  1-C ,  9-H ) :   0.9068
B(  1-C , 10-H ) :   0.9133 B(  2-C ,  3-O ) :   2.0685 B(  2-C ,  4-O ) :   1.1981
B(  4-O ,  5-C ) :   0.9387 B(  5-C , 11-H ) :   0.9600 B(  5-C , 12-H ) :   0.9381
B(  5-C , 13-H ) :   0.9603

Dispersion correction           -0.009171288
FINAL SINGLE POINT ENERGY      -307.025610153790

DIPOLE MOMENT
-------------

Method             : SCF
Type of density    : Electron Density
Multiplicity       :   1
Irrep              :   0
Energy             :  -307.0798382034508904 Eh
Relativity type    :
Basis              : AO
                                X                 Y                 Z
Electronic contribution:      2.419472475       2.276271764       1.916384176
Nuclear contribution   :     -2.297179228      -2.993378504      -2.108709295
                        -----------------------------------------
Total Dipole Moment    :      0.122293246      -0.717106740      -0.192325119
                        -----------------------------------------
Magnitude (a.u.)       :      0.752453763
Magnitude (Debye)      :      1.912585471

Rotational constants in cm-1:             0.218475             0.081865             0.068143
Rotational constants in MHz :          6549.717778          2454.249651          2042.865471

                             ****ORCA TERMINATED NORMALLY****
TOTAL RUN TIME: 0 days 0 hours 0 minutes 7 seconds 36 msec
