                         Program Version 6.0.0  -   RELEASE  -
|  1> ! pbe def2-sv(p) def2/J RI DEFGRID1 loosescf d4 GCP(DFT/SV(P)) printgap
|  2> %output
|  3>     printlevel normal
|  4> end
|  5> * xyz 0 1
|  6> C 2.6440894492 -0.0006663519 2.0394990538
|  7> C 1.9235961472 1.2369153716 1.4984748386
|  8> H 1.9737704413 2.0658578638 2.2024199267
|  9> C 0.4654436602 0.7776408381 1.3207021558
| 10> H -0.076486284 1.1600287873 2.1878344252
| 11> C 0.4649789496 -0.777830734 1.3207748276
| 12> H -0.0772469737 -1.1597621334 2.1879242906
| 13> C 1.9228545145 -1.2379528294 1.4987120002
| 14> H 1.9724705541 -2.0667754297 2.2028536745
| 15> Cl 2.7359211092 -1.8946476989 0.0344787541
| 16> C -0.4055419262 -1.1198952808 0.082404961
| 17> C -1.8011993324 -0.668910079 0.5224224125
| 18> C -1.8008082107 0.6700502577 0.5223356821
| 19> C -0.4048724938 1.1201816731 0.0823410501
| 20> C -0.1417313791 1.32377e-05 -0.9535461876
| 21> Cl 1.3640523263 -0.000460922 -1.8388651755
| 22> Cl -1.4076530686 0.0004041821 -2.2347771154
| 23> Cl -0.3213972202 2.7667999187 -0.5126807836
| 24> Cl -3.0202642317 1.7454566624 0.9765473679
| 25> Cl -3.0212912314 -1.7435539558 0.9768815977
| 26> Cl -0.3231903721 -2.7665896444 -0.5125351466
| 27> Cl 2.7369144487 1.8928059805 0.0340096062
| 28> H 2.5577056636 -0.0005010868 3.1252212892
| 29> H 3.6983235357 -0.0009848329 1.77571951
| 30> *
| 31>
| 32>                          ****END OF INPUT****

CARTESIAN COORDINATES (ANGSTROEM)
---------------------------------
  C      2.644089   -0.000666    2.039499
  C      1.923596    1.236915    1.498475
  H      1.973770    2.065858    2.202420
  C      0.465444    0.777641    1.320702
  H     -0.076486    1.160029    2.187834
  C      0.464979   -0.777831    1.320775
  H     -0.077247   -1.159762    2.187924
  C      1.922855   -1.237953    1.498712
  H      1.972471   -2.066775    2.202854
  Cl     2.735921   -1.894648    0.034479
  C     -0.405542   -1.119895    0.082405
  C     -1.801199   -0.668910    0.522422
  C     -1.800808    0.670050    0.522336
  C     -0.404872    1.120182    0.082341
  C     -0.141731    0.000013   -0.953546
  Cl     1.364052   -0.000461   -1.838865
  Cl    -1.407653    0.000404   -2.234777
  Cl    -0.321397    2.766800   -0.512681
  Cl    -3.020264    1.745457    0.976547
  Cl    -3.021291   -1.743554    0.976882
  Cl    -0.323190   -2.766590   -0.512535
  Cl     2.736914    1.892806    0.034010
  H      2.557706   -0.000501    3.125221
  H      3.698324   -0.000985    1.775720

 Total Charge           Charge          ....    0
 Multiplicity           Mult            ....    1
 Number of Electrons    NEL             ....  202
 Basis Dimension        Dim             ....  296

ORBITAL ENERGIES
----------------

  NO   OCC          E(Eh)            E(eV)
   0   2.0000    -100.671558     -2739.4124
   1   2.0000    -100.671528     -2739.4115
   2   2.0000    -100.647923     -2738.7692
   3   2.0000    -100.647918     -2738.7691
   4   2.0000    -100.644003     -2738.6625
   5   2.0000    -100.639275     -2738.5339
   6   2.0000    -100.625820     -2738.1678
   7   2.0000    -100.625809     -2738.1675
   8   2.0000     -10.033754      -273.0323
   9   2.0000     -10.006781      -272.2984
  10   2.0000     -10.006759      -272.2978
  11   2.0000      -9.978313      -271.5237
  12   2.0000      -9.977711      -271.5073
  13   2.0000      -9.972463      -271.3645
  14   2.0000      -9.972384      -271.3624
  15   2.0000      -9.950206      -270.7589
  16   2.0000      -9.950164      -270.7577
  17   2.0000      -9.924430      -270.0575
  18   2.0000      -9.207229      -250.5414
  19   2.0000      -9.207193      -250.5404
  20   2.0000      -9.183746      -249.9024
  21   2.0000      -9.183740      -249.9023
  22   2.0000      -9.180341      -249.8098
  23   2.0000      -9.175110      -249.6674
  24   2.0000      -9.161601      -249.2998
  25   2.0000      -9.161595      -249.2997
  26   2.0000      -7.038683      -191.5323
  27   2.0000      -7.038677      -191.5321
  28   2.0000      -7.027375      -191.2246
  29   2.0000      -7.027371      -191.2245
  30   2.0000      -7.026290      -191.1951
  31   2.0000      -7.026277      -191.1947
  32   2.0000      -7.015642      -190.9053
  33   2.0000      -7.015640      -190.9053
  34   2.0000      -7.012319      -190.8149
  35   2.0000      -7.007237      -190.6766
  36   2.0000      -7.003365      -190.5713
  37   2.0000      -7.003363      -190.5712
  38   2.0000      -7.002894      -190.5584
  39   2.0000      -7.002892      -190.5584
  40   2.0000      -6.999657      -190.4704
  41   2.0000      -6.999432      -190.4642
  42   2.0000      -6.994669      -190.3346
  43   2.0000      -6.994126      -190.3198
  44   2.0000      -6.993378      -190.2995
  45   2.0000      -6.993372      -190.2993
  46   2.0000      -6.981200      -189.9681
  47   2.0000      -6.981192      -189.9679
  48   2.0000      -6.980898      -189.9599
  49   2.0000      -6.980892      -189.9597
  50   2.0000      -0.910823       -24.7848
  51   2.0000      -0.838069       -22.8050
  52   2.0000      -0.827131       -22.5074
  53   2.0000      -0.826063       -22.4783
  54   2.0000      -0.795858       -21.6564
  55   2.0000      -0.792324       -21.5602
  56   2.0000      -0.774804       -21.0835
  57   2.0000      -0.768089       -20.9008
  58   2.0000      -0.748166       -20.3586
  59   2.0000      -0.722400       -19.6575
  60   2.0000      -0.673167       -18.3178
  61   2.0000      -0.666116       -18.1259
  62   2.0000      -0.629358       -17.1257
  63   2.0000      -0.615024       -16.7357
  64   2.0000      -0.549392       -14.9497
  65   2.0000      -0.530005       -14.4222
  66   2.0000      -0.517352       -14.0779
  67   2.0000      -0.501507       -13.6467
  68   2.0000      -0.492962       -13.4142
  69   2.0000      -0.482637       -13.1332
  70   2.0000      -0.474508       -12.9120
  71   2.0000      -0.443561       -12.0699
  72   2.0000      -0.424551       -11.5526
  73   2.0000      -0.423129       -11.5139
  74   2.0000      -0.411719       -11.2034
  75   2.0000      -0.408911       -11.1270
  76   2.0000      -0.389829       -10.6078
  77   2.0000      -0.386656       -10.5214
  78   2.0000      -0.374068       -10.1789
  79   2.0000      -0.373117       -10.1530
  80   2.0000      -0.370525       -10.0825
  81   2.0000      -0.362661        -9.8685
  82   2.0000      -0.338900        -9.2219
  83   2.0000      -0.338704        -9.2166
  84   2.0000      -0.334514        -9.1026
  85   2.0000      -0.322568        -8.7775
  86   2.0000      -0.305319        -8.3081
  87   2.0000      -0.300285        -8.1712
  88   2.0000      -0.291496        -7.9320
  89   2.0000      -0.290834        -7.9140
  90   2.0000      -0.287722        -7.8293
  91   2.0000      -0.283482        -7.7139
  92   2.0000      -0.274900        -7.4804
  93   2.0000      -0.268951        -7.3185
  94   2.0000      -0.268781        -7.3139
  95   2.0000      -0.263119        -7.1598
  96   2.0000      -0.249830        -6.7982
  97   2.0000      -0.237632        -6.4663
  98   2.0000      -0.231578        -6.3016
  99   2.0000      -0.228375        -6.2144
 100   2.0000      -0.216686        -5.8963
 101   0.0000      -0.064564        -1.7569
 102   0.0000      -0.051148        -1.3918
 103   0.0000      -0.034222        -0.9312
 104   0.0000      -0.029100        -0.7918
 105   0.0000      -0.001587        -0.0432

MULLIKEN ATOMIC CHARGES
-----------------------
   0 C :   -0.064693
   1 C :   -0.093634
   2 H :    0.126332
   3 C :    0.012600
   4 H :    0.090846
   5 C :    0.012644
   6 H :    0.090849
   7 C :   -0.093629
   8 H :    0.126332
   9 Cl:   -0.092875
  10 C :   -0.099680
  11 C :    0.039730
  12 C :    0.039764
  13 C :   -0.099707
  14 C :   -0.127071
  15 Cl:    0.036027
  16 Cl:    0.000287
  17 Cl:   -0.015398
  18 Cl:   -0.004025
  19 Cl:   -0.004033
  20 Cl:   -0.015405
  21 Cl:   -0.092878
  22 H :    0.103613
  23 H :    0.124006
Sum of atomic charges:    0.0000000

LOEWDIN ATOMIC CHARGES
----------------------
   0 C :   -0.239953
   1 C :   -0.187139
   2 H :    0.131934
   3 C :   -0.134642
   4 H :    0.141560
   5 C :   -0.134638
   6 H :    0.141562
   7 C :   -0.187137
   8 H :    0.131933
   9 Cl:    0.058745
  10 C :   -0.169029
  11 C :   -0.210340
  12 C :   -0.210351
  13 C :   -0.169032
  14 C :   -0.223414
  15 Cl:    0.154079
  16 Cl:    0.101621
  17 Cl:    0.133719
  18 Cl:    0.203782
  19 Cl:    0.203754
  20 Cl:    0.133721
  21 Cl:    0.058739
  22 H :    0.135639
  23 H :    0.134885

  Mayer bond orders larger than 0.100000
B(  0-C ,  1-C ) :   1.0692 B(  0-C ,  7-C ) :   1.0692 B(  0-C , 22-H ) :   0.8923
B(  0-C , 23-H ) :   0.9057 B(  1-C ,  2-H ) :   0.9046 B(  1-C ,  3-C ) :   0.9967
B(  1-C , 21-Cl) :   1.0983 B(  3-C ,  4-H ) :   0.8392 B(  3-C ,  5-C ) :   1.0598
B(  3-C , 13-C ) :   0.9800 B(  5-C ,  6-H ) :   0.8392 B(  5-C ,  7-C ) :   0.9967
B(  5-C , 10-C ) :   0.9800 B(  7-C ,  8-H ) :   0.9046 B(  7-C ,  9-Cl) :   1.0983
B( 10-C , 11-C ) :   0.8976 B( 10-C , 14-C ) :   0.8104 B( 10-C , 20-Cl) :   1.1466
B( 11-C , 12-C ) :   1.7588 B( 11-C , 19-Cl) :   1.1469 B( 12-C , 13-C ) :   0.8976
B( 12-C , 18-Cl) :   1.1469 B( 13-C , 14-C ) :   0.8104 B( 13-C , 17-Cl) :   1.1466
B( 14-C , 15-Cl) :   1.2027 B( 14-C , 16-Cl) :   1.1239

Dispersion correction           -0.061486829
FINAL SINGLE POINT ENERGY     -4062.744277633743

DIPOLE MOMENT
-------------

Method             : SCF
Type of density    : Electron Density
Multiplicity       :   1
Irrep              :   0
Energy             : -4062.7744972728132780 Eh
Relativity type    :
Basis              : AO
                                X                 Y                 Z
Electronic contribution:    -11.120193904       0.002478835     -15.226386271
Nuclear contribution   :     11.114344500      -0.002292662      16.966014548
                        -----------------------------------------
Total Dipole Moment    :     -0.005849404       0.000186173       1.739628277
                        -----------------------------------------
Magnitude (a.u.)       :      1.739638121
Magnitude (Debye)      :      4.421808696

Rotational constants in cm-1:             0.009944             0.007701             0.006183
Rotational constants in MHz :           298.115232           230.859657           185.351559

                             ****ORCA TERMINATED NORMALLY****
TOTAL RUN TIME: 0 days 0 hours 0 minutes 20 seconds 659 msec
