                         Program Version 6.0.0  -   RELEASE  -
|  1> ! pbe def2-sv(p) def2/J RI DEFGRID1 loosescf d4 GCP(DFT/SV(P)) printgap
|  2> %output
|  3>     printlevel normal
|  4> end
|  5> * xyz 0 1
|  6> C -2.4511190563 0.6568180627 -1.3029941059
|  7> C -2.0461232427 0.4146271549 0.1603226684
|  8> H -2.9665357438 0.3735821975 0.7518171967
|  9> C -1.1191777717 1.5225777601 0.6952841916
| 10> C 0.3069624821 1.0438110374 0.9595104776
| 11> C 0.7928452682 0.1973467172 -0.222963616
| 12> H 0.5409111718 0.739799316 -1.1422003606
| 13> C 0.0116672508 -1.1143697509 -0.1793081967
| 14> C -1.4334254641 -0.9637526795 0.2118535022
| 15> O -2.1027299239 -1.9355072446 0.5171971556
| 16> C 2.2949920105 0.0147549606 -0.2413650845
| 17> C 2.9113281785 -1.1561195587 -0.288711273
| 18> C 3.0868755723 1.2925070262 -0.2496640069
| 19> H -3.107528497 -0.1404728231 -1.6461654102
| 20> H -2.9839369008 1.6007909976 -1.38112188
| 21> H -1.5790252696 0.6893974878 -1.949707512
| 22> H -1.0878310217 2.334619153 -0.0327785493
| 23> H -1.5348171265 1.9264862145 1.6189532533
| 24> H 0.9433746937 1.9133519122 1.1117749468
| 25> H 0.3426758756 0.4352584286 1.8661067052
| 26> H 0.0383340355 -1.6285264251 -1.143324194
| 27> H 0.4524849441 -1.7964211818 0.5520828924
| 28> H 3.9864823213 -1.2121928069 -0.3265461345
| 29> H 2.4013486447 -2.1020404554 -0.2937179511
| 30> H 4.0871530874 1.1180260038 -0.6357315051
| 31> H 2.5994300114 2.0471190645 -0.8623085753
| 32> H 3.1840898894 1.6857011776 0.7612245909
| 33> *
| 34>
| 35>                          ****END OF INPUT****

CARTESIAN COORDINATES (ANGSTROEM)
---------------------------------
  C     -2.451119    0.656818   -1.302994
  C     -2.046123    0.414627    0.160323
  H     -2.966536    0.373582    0.751817
  C     -1.119178    1.522578    0.695284
  C      0.306962    1.043811    0.959510
  C      0.792845    0.197347   -0.222964
  H      0.540911    0.739799   -1.142200
  C      0.011667   -1.114370   -0.179308
  C     -1.433425   -0.963753    0.211854
  O     -2.102730   -1.935507    0.517197
  C      2.294992    0.014755   -0.241365
  C      2.911328   -1.156120   -0.288711
  C      3.086876    1.292507   -0.249664
  H     -3.107528   -0.140473   -1.646165
  H     -2.983937    1.600791   -1.381122
  H     -1.579025    0.689397   -1.949708
  H     -1.087831    2.334619   -0.032779
  H     -1.534817    1.926486    1.618953
  H      0.943375    1.913352    1.111775
  H      0.342676    0.435258    1.866107
  H      0.038334   -1.628526   -1.143324
  H      0.452485   -1.796421    0.552083
  H      3.986482   -1.212193   -0.326546
  H      2.401349   -2.102040   -0.293718
  H      4.087153    1.118026   -0.635732
  H      2.599430    2.047119   -0.862309
  H      3.184090    1.685701    0.761225

 Total Charge           Charge          ....    0
 Multiplicity           Mult            ....    1
 Number of Electrons    NEL             ....   84
 Basis Dimension        Dim             ....  186

ORBITAL ENERGIES
----------------

  NO   OCC          E(Eh)            E(eV)
   0   2.0000     -18.729058      -509.6436
   1   2.0000      -9.967676      -271.2342
   2   2.0000      -9.909779      -269.6588
   3   2.0000      -9.904683      -269.5201
   4   2.0000      -9.901497      -269.4334
   5   2.0000      -9.895996      -269.2837
   6   2.0000      -9.895524      -269.2709
   7   2.0000      -9.892050      -269.1764
   8   2.0000      -9.890438      -269.1325
   9   2.0000      -9.884744      -268.9775
  10   2.0000      -9.872147      -268.6348
  11   2.0000      -0.927616       -25.2417
  12   2.0000      -0.773976       -21.0610
  13   2.0000      -0.729718       -19.8566
  14   2.0000      -0.685104       -18.6426
  15   2.0000      -0.666118       -18.1260
  16   2.0000      -0.615317       -16.7436
  17   2.0000      -0.604944       -16.4614
  18   2.0000      -0.558150       -15.1880
  19   2.0000      -0.540222       -14.7002
  20   2.0000      -0.478698       -13.0260
  21   2.0000      -0.465394       -12.6640
  22   2.0000      -0.439298       -11.9539
  23   2.0000      -0.419632       -11.4188
  24   2.0000      -0.414295       -11.2735
  25   2.0000      -0.403950       -10.9920
  26   2.0000      -0.387280       -10.5384
  27   2.0000      -0.377940       -10.2843
  28   2.0000      -0.370036       -10.0692
  29   2.0000      -0.363980        -9.9044
  30   2.0000      -0.359796        -9.7906
  31   2.0000      -0.346788        -9.4366
  32   2.0000      -0.343928        -9.3588
  33   2.0000      -0.328668        -8.9435
  34   2.0000      -0.323320        -8.7980
  35   2.0000      -0.307857        -8.3772
  36   2.0000      -0.304241        -8.2788
  37   2.0000      -0.288930        -7.8622
  38   2.0000      -0.279501        -7.6056
  39   2.0000      -0.277647        -7.5552
  40   2.0000      -0.222704        -6.0601
  41   2.0000      -0.186910        -5.0861
  42   0.0000      -0.049827        -1.3559
  43   0.0000      -0.017783        -0.4839
  44   0.0000       0.026320         0.7162
  45   0.0000       0.047156         1.2832
  46   0.0000       0.053604         1.4586

MULLIKEN ATOMIC CHARGES
-----------------------
   0 C :   -0.277305
   1 C :   -0.135213
   2 H :    0.074987
   3 C :   -0.084258
   4 C :   -0.153886
   5 C :   -0.133097
   6 H :    0.079362
   7 C :   -0.138930
   8 C :    0.004476
   9 O :   -0.165708
  10 C :   -0.036861
  11 C :   -0.233994
  12 C :   -0.235428
  13 H :    0.118669
  14 H :    0.117389
  15 H :    0.111024
  16 H :    0.073102
  17 H :    0.090656
  18 H :    0.091624
  19 H :    0.089533
  20 H :    0.120212
  21 H :    0.115886
  22 H :    0.079576
  23 H :    0.094848
  24 H :    0.103858
  25 H :    0.102916
  26 H :    0.126562
Sum of atomic charges:    0.0000000

LOEWDIN ATOMIC CHARGES
----------------------
   0 C :   -0.319425
   1 C :   -0.170986
   2 H :    0.130864
   3 C :   -0.214006
   4 C :   -0.213010
   5 C :   -0.135665
   6 H :    0.124722
   7 C :   -0.239562
   8 C :    0.052105
   9 O :   -0.136927
  10 C :   -0.051833
  11 C :   -0.268169
  12 C :   -0.325058
  13 H :    0.127035
  14 H :    0.124980
  15 H :    0.117371
  16 H :    0.116869
  17 H :    0.124193
  18 H :    0.119991
  19 H :    0.121987
  20 H :    0.146763
  21 H :    0.145325
  22 H :    0.119186
  23 H :    0.119846
  24 H :    0.127451
  25 H :    0.123211
  26 H :    0.132741

  Mayer bond orders larger than 0.100000
B(  0-C ,  1-C ) :   1.0857 B(  0-C , 13-H ) :   0.9434 B(  0-C , 14-H ) :   0.9427
B(  0-C , 15-H ) :   0.9450 B(  1-C ,  2-H ) :   0.8740 B(  1-C ,  3-C ) :   1.0276
B(  1-C ,  8-C ) :   1.0274 B(  3-C ,  4-C ) :   1.1800 B(  3-C , 16-H ) :   0.9070
B(  3-C , 17-H ) :   0.9109 B(  4-C ,  5-C ) :   1.1048 B(  4-C , 18-H ) :   0.9085
B(  4-C , 19-H ) :   0.8991 B(  5-C ,  6-H ) :   0.8445 B(  5-C ,  7-C ) :   1.0826
B(  5-C , 10-C ) :   1.0084 B(  7-C ,  8-C ) :   0.9920 B(  7-C , 20-H ) :   0.8766
B(  7-C , 21-H ) :   0.8746 B(  8-C ,  9-O ) :   2.1830 B( 10-C , 11-C ) :   2.0537
B( 10-C , 12-C ) :   1.1069 B( 11-C , 22-H ) :   0.8988 B( 11-C , 23-H ) :   0.8942
B( 12-C , 24-H ) :   0.9361 B( 12-C , 25-H ) :   0.9369 B( 12-C , 26-H ) :   0.9252

Dispersion correction           -0.028533399
FINAL SINGLE POINT ENERGY      -464.820382009913

DIPOLE MOMENT
-------------

Method             : SCF
Type of density    : Electron Density
Multiplicity       :   1
Irrep              :   0
Energy             :  -464.9063956125563664 Eh
Relativity type    :
Basis              : AO
                                X                 Y                 Z
Electronic contribution:     -4.425055620      -6.423400188       2.293073981
Nuclear contribution   :      4.956684837       7.462069189      -2.573829527
                        -----------------------------------------
Total Dipole Moment    :      0.531629217       1.038669001      -0.280755547
                        -----------------------------------------
Magnitude (a.u.)       :      1.200119409
Magnitude (Debye)      :      3.050461113

Rotational constants in cm-1:             0.062286             0.024682             0.020548
Rotational constants in MHz :          1867.278651           739.962416           616.022978

                             ****ORCA TERMINATED NORMALLY****
TOTAL RUN TIME: 0 days 0 hours 0 minutes 14 seconds 117 msec
