                         Program Version 6.0.0  -   RELEASE  -
|  1> ! r2scan-3c def2/J RI DEFGRID2 scfconv6 printgap
|  2> %output
|  3>     printlevel normal
|  4> end
|  5> * xyz 0 1
|  6> C -3.2100349221 -0.0464230791 1.20153e-05
|  7> C -1.7879382488 0.504812801 -1.50509e-05
|  8> C -0.7877763933 -0.634946818 -1.21785e-05
|  9> Br 1.067806438 0.0365167606 1.7444e-06
| 10> H -3.3840661308 -0.6567717465 0.8826829489
| 11> H -3.9235458127 0.7721416122 3.3975e-05
| 12> H -3.3841091469 -0.656784661 -0.882652784
| 13> H -1.6315603477 1.1281871796 0.8827828021
| 14> H -1.6315677508 1.1282187813 -0.8827958509
| 15> H -0.8754357903 -1.2529820753 -0.8919771017
| 16> H -0.8753915529 -1.2529656428 0.8919690156
| 17> *
| 18>
| 19>                          ****END OF INPUT****

CARTESIAN COORDINATES (ANGSTROEM)
---------------------------------
  C     -3.210035   -0.046423    0.000012
  C     -1.787938    0.504813   -0.000015
  C     -0.787776   -0.634947   -0.000012
  Br     1.067806    0.036517    0.000002
  H     -3.384066   -0.656772    0.882683
  H     -3.923546    0.772142    0.000034
  H     -3.384109   -0.656785   -0.882653
  H     -1.631560    1.128187    0.882783
  H     -1.631568    1.128219   -0.882796
  H     -0.875436   -1.252982   -0.891977
  H     -0.875392   -1.252966    0.891969

 Total Charge           Charge          ....    0
 Multiplicity           Mult            ....    1
 Number of Electrons    NEL             ....   60
 Basis Dimension        Dim             ....  128

ORBITAL ENERGIES
----------------

  NO   OCC          E(Eh)            E(eV)
   0   2.0000    -482.210190    -13121.6064
   1   2.0000     -62.282218     -1694.7853
   2   2.0000     -56.062718     -1525.5441
   3   2.0000     -56.059980     -1525.4696
   4   2.0000     -56.059863     -1525.4664
   5   2.0000     -10.092817      -274.6395
   6   2.0000     -10.046622      -273.3825
   7   2.0000     -10.034057      -273.0406
   8   2.0000      -8.614385      -234.4093
   9   2.0000      -6.421796      -174.7459
  10   2.0000      -6.408223      -174.3766
  11   2.0000      -6.408154      -174.3747
  12   2.0000      -2.519352       -68.5550
  13   2.0000      -2.515998       -68.4638
  14   2.0000      -2.515944       -68.4623
  15   2.0000      -2.505850       -68.1876
  16   2.0000      -2.505832       -68.1871
  17   2.0000      -0.792725       -21.5711
  18   2.0000      -0.728191       -19.8151
  19   2.0000      -0.638160       -17.3652
  20   2.0000      -0.569735       -15.5033
  21   2.0000      -0.458891       -12.4871
  22   2.0000      -0.416000       -11.3199
  23   2.0000      -0.391850       -10.6628
  24   2.0000      -0.385425       -10.4880
  25   2.0000      -0.336633        -9.1603
  26   2.0000      -0.324664        -8.8346
  27   2.0000      -0.321149        -8.7389
  28   2.0000      -0.249264        -6.7828
  29   2.0000      -0.248942        -6.7741
  30   0.0000      -0.025829        -0.7029
  31   0.0000       0.095458         2.5975
  32   0.0000       0.107657         2.9295
  33   0.0000       0.131193         3.5700
  34   0.0000       0.136525         3.7150

MULLIKEN ATOMIC CHARGES
-----------------------
   0 C :   -0.450076
   1 C :   -0.244822
   2 C :   -0.192656
   3 Br:   -0.182508
   4 H :    0.142631
   5 H :    0.154982
   6 H :    0.142630
   7 H :    0.152852
   8 H :    0.152854
   9 H :    0.162056
  10 H :    0.162057
Sum of atomic charges:   -0.0000000

LOEWDIN ATOMIC CHARGES
----------------------
   0 C :   -0.420443
   1 C :   -0.341858
   2 C :   -0.390350
   3 Br:    0.058967
   4 H :    0.151656
   5 H :    0.156867
   6 H :    0.151656
   7 H :    0.158946
   8 H :    0.158947
   9 H :    0.157806
  10 H :    0.157807

  Mayer bond orders larger than 0.100000
B(  0-C ,  1-C ) :   0.8945 B(  0-C ,  4-H ) :   0.9770 B(  0-C ,  5-H ) :   0.9669
B(  0-C ,  6-H ) :   0.9770 B(  1-C ,  2-C ) :   0.9442 B(  1-C ,  7-H ) :   0.9637
B(  1-C ,  8-H ) :   0.9637 B(  2-C ,  3-Br) :   0.9807 B(  2-C ,  9-H ) :   0.9571
B(  2-C , 10-H ) :   0.9571

Dispersion correction           -0.002290434
FINAL SINGLE POINT ENERGY     -2692.632720563211

DIPOLE MOMENT
-------------

Method             : SCF
Type of density    : Electron Density
Multiplicity       :   1
Irrep              :   0
Energy             : -2692.6358836372137375 Eh
Relativity type    :
Basis              : AO
                                X                 Y                 Z
Electronic contribution:     23.699142092       0.893378057      -0.000015135
Nuclear contribution   :    -24.649420366      -1.081119979       0.000024149
                        -----------------------------------------
Total Dipole Moment    :     -0.950278274      -0.187741922       0.000009014
                        -----------------------------------------
Magnitude (a.u.)       :      0.968646389
Magnitude (Debye)      :      2.462103454

Rotational constants in cm-1:             0.843601             0.054208             0.052439
Rotational constants in MHz :         25290.510367          1625.119862          1572.082653

                             ****ORCA TERMINATED NORMALLY****
TOTAL RUN TIME: 0 days 0 hours 0 minutes 7 seconds 484 msec
