                         Program Version 6.0.0  -   RELEASE  -
|  1> ! r2scan-3c def2/J RI DEFGRID2 scfconv6 printgap
|  2> %output
|  3>     printlevel normal
|  4> end
|  5> %cpcm
|  6>     smd true
|  7>     smdsolvent "water"
|  8> end
|  9> * xyz 0 1
| 10> C -3.2100349221 -0.0464230791 1.20153e-05
| 11> C -1.7879382488 0.504812801 -1.50509e-05
| 12> C -0.7877763933 -0.634946818 -1.21785e-05
| 13> Br 1.067806438 0.0365167606 1.7444e-06
| 14> H -3.3840661308 -0.6567717465 0.8826829489
| 15> H -3.9235458127 0.7721416122 3.3975e-05
| 16> H -3.3841091469 -0.656784661 -0.882652784
| 17> H -1.6315603477 1.1281871796 0.8827828021
| 18> H -1.6315677508 1.1282187813 -0.8827958509
| 19> H -0.8754357903 -1.2529820753 -0.8919771017
| 20> H -0.8753915529 -1.2529656428 0.8919690156
| 21> *
| 22>
| 23>                          ****END OF INPUT****

CARTESIAN COORDINATES (ANGSTROEM)
---------------------------------
  C     -3.210035   -0.046423    0.000012
  C     -1.787938    0.504813   -0.000015
  C     -0.787776   -0.634947   -0.000012
  Br     1.067806    0.036517    0.000002
  H     -3.384066   -0.656772    0.882683
  H     -3.923546    0.772142    0.000034
  H     -3.384109   -0.656785   -0.882653
  H     -1.631560    1.128187    0.882783
  H     -1.631568    1.128219   -0.882796
  H     -0.875436   -1.252982   -0.891977
  H     -0.875392   -1.252966    0.891969

 Total Charge           Charge          ....    0
 Multiplicity           Mult            ....    1
 Number of Electrons    NEL             ....   60
 Basis Dimension        Dim             ....  128

ORBITAL ENERGIES
----------------

  NO   OCC          E(Eh)            E(eV)
   0   2.0000    -482.208781    -13121.5680
   1   2.0000     -62.280787     -1694.7464
   2   2.0000     -56.061209     -1525.5030
   3   2.0000     -56.058617     -1525.4325
   4   2.0000     -56.058493     -1525.4291
   5   2.0000     -10.078409      -274.2475
   6   2.0000     -10.030811      -272.9522
   7   2.0000     -10.015056      -272.5235
   8   2.0000      -8.612719      -234.3640
   9   2.0000      -6.419624      -174.6868
  10   2.0000      -6.406815      -174.3383
  11   2.0000      -6.406750      -174.3365
  12   2.0000      -2.517333       -68.5001
  13   2.0000      -2.514156       -68.4137
  14   2.0000      -2.514104       -68.4123
  15   2.0000      -2.504565       -68.1527
  16   2.0000      -2.504548       -68.1522
  17   2.0000      -0.780825       -21.2473
  18   2.0000      -0.717783       -19.5319
  19   2.0000      -0.624935       -17.0053
  20   2.0000      -0.554039       -15.0762
  21   2.0000      -0.442305       -12.0357
  22   2.0000      -0.400650       -10.9022
  23   2.0000      -0.378643       -10.3034
  24   2.0000      -0.368194       -10.0191
  25   2.0000      -0.320421        -8.7191
  26   2.0000      -0.313025        -8.5178
  27   2.0000      -0.303633        -8.2623
  28   2.0000      -0.247497        -6.7347
  29   2.0000      -0.247228        -6.7274
  30   0.0000      -0.018666        -0.5079
  31   0.0000       0.112806         3.0696
  32   0.0000       0.120859         3.2887
  33   0.0000       0.144429         3.9301
  34   0.0000       0.154856         4.2139

MULLIKEN ATOMIC CHARGES
-----------------------
   0 C :   -0.490365
   1 C :   -0.243683
   2 C :   -0.199404
   3 Br:   -0.231047
   4 H :    0.157250
   5 H :    0.165767
   6 H :    0.157249
   7 H :    0.157692
   8 H :    0.157695
   9 H :    0.184424
  10 H :    0.184422
Sum of atomic charges:   -0.0000000

LOEWDIN ATOMIC CHARGES
----------------------
   0 C :   -0.424820
   1 C :   -0.341186
   2 C :   -0.383211
   3 Br:    0.026513
   4 H :    0.156008
   5 H :    0.159580
   6 H :    0.156008
   7 H :    0.159740
   8 H :    0.159741
   9 H :    0.165814
  10 H :    0.165814

  Mayer bond orders larger than 0.100000
B(  0-C ,  1-C ) :   0.8936 B(  0-C ,  4-H ) :   0.9745 B(  0-C ,  5-H ) :   0.9645
B(  0-C ,  6-H ) :   0.9745 B(  1-C ,  2-C ) :   0.9393 B(  1-C ,  7-H ) :   0.9650
B(  1-C ,  8-H ) :   0.9650 B(  2-C ,  3-Br) :   0.9371 B(  2-C ,  9-H ) :   0.9509
B(  2-C , 10-H ) :   0.9509

Dispersion correction           -0.002290434
FINAL SINGLE POINT ENERGY     -2692.635087507075

DIPOLE MOMENT
-------------

Method             : SCF
Type of density    : Electron Density
Multiplicity       :   1
Irrep              :   0
Energy             : -2692.6382505810775001 Eh
Relativity type    :
Basis              : AO
                                X                 Y                 Z
Electronic contribution:     23.458033732       0.793722094      -0.000014069
Nuclear contribution   :    -24.649420366      -1.081119979       0.000024149
                        -----------------------------------------
Total Dipole Moment    :     -1.191386634      -0.287397885       0.000010080
                        -----------------------------------------
Magnitude (a.u.)       :      1.225560956
Magnitude (Debye)      :      3.115128386

Rotational constants in cm-1:             0.843601             0.054208             0.052439
Rotational constants in MHz :         25290.510367          1625.119862          1572.082653

                             ****ORCA TERMINATED NORMALLY****
TOTAL RUN TIME: 0 days 0 hours 0 minutes 9 seconds 548 msec
