                         Program Version 6.0.0  -   RELEASE  -
|  1> ! pbe def2-sv(p) def2/J RI DEFGRID1 loosescf d4 GCP(DFT/SV(P)) printgap
|  2> %output
|  3>     printlevel normal
|  4> end
|  5> * xyz 0 1
|  6> C -2.4830680775 -0.4197889497 -0.3014231418
|  7> C -1.0757545368 -0.1871099512 0.2587292299
|  8> H -1.0834339269 -0.3735260286 1.3453208983
|  9> C -0.6138673311 1.2685120562 0.0320442158
| 10> H -1.2441635798 1.7306486611 -0.7371268947
| 11> C 0.8381317575 1.3000607906 -0.4921710181
| 12> H 1.2531025019 2.3051356023 -0.304627608
| 13> C 1.6824707519 0.294970664 0.30631798
| 14> H 2.7004792374 0.2411145244 -0.097153578
| 15> C 1.0859144651 -1.1278234766 0.1645877043
| 16> H 1.0620710248 -1.5857951925 1.1783004013
| 17> O -0.2206818531 -1.1255417547 -0.365005844
| 18> O 1.8950019463 -1.8477842929 -0.6926056157
| 19> O 1.8141459475 0.6926862474 1.6453037725
| 20> O 0.7943163554 1.0364080592 -1.86775867
| 21> O -0.730963041 1.9353771596 1.2676045967
| 22> O -3.0020802218 -1.6740264009 0.0523302601
| 23> H -2.4415404578 -0.3050715916 -1.3916860694
| 24> H -3.1622682156 0.3216855665 0.1221108654
| 25> H 1.4488573156 -2.6678853978 -0.9553654993
| 26> H 0.9632675691 1.0437783971 1.9647510267
| 27> H 1.68983209 0.9047894551 -2.2100570721
| 28> H -0.7493185123 2.8941400305 1.1338786056
| 29> H -2.4164393028 -2.3587656337 -0.3008906133
| 30> *
| 31>
| 32>                          ****END OF INPUT****

CARTESIAN COORDINATES (ANGSTROEM)
---------------------------------
  C     -2.483068   -0.419789   -0.301423
  C     -1.075755   -0.187110    0.258729
  H     -1.083434   -0.373526    1.345321
  C     -0.613867    1.268512    0.032044
  H     -1.244164    1.730649   -0.737127
  C      0.838132    1.300061   -0.492171
  H      1.253103    2.305136   -0.304628
  C      1.682471    0.294971    0.306318
  H      2.700479    0.241115   -0.097154
  C      1.085914   -1.127823    0.164588
  H      1.062071   -1.585795    1.178300
  O     -0.220682   -1.125542   -0.365006
  O      1.895002   -1.847784   -0.692606
  O      1.814146    0.692686    1.645304
  O      0.794316    1.036408   -1.867759
  O     -0.730963    1.935377    1.267605
  O     -3.002080   -1.674026    0.052330
  H     -2.441540   -0.305072   -1.391686
  H     -3.162268    0.321686    0.122111
  H      1.448857   -2.667885   -0.955365
  H      0.963268    1.043778    1.964751
  H      1.689832    0.904789   -2.210057
  H     -0.749319    2.894140    1.133879
  H     -2.416439   -2.358766   -0.300891

 Total Charge           Charge          ....    0
 Multiplicity           Mult            ....    1
 Number of Electrons    NEL             ....   96
 Basis Dimension        Dim             ....  192

ORBITAL ENERGIES
----------------

  NO   OCC          E(Eh)            E(eV)
   0   2.0000     -18.783363      -511.1213
   1   2.0000     -18.770449      -510.7699
   2   2.0000     -18.761290      -510.5207
   3   2.0000     -18.757587      -510.4199
   4   2.0000     -18.743801      -510.0448
   5   2.0000     -18.742642      -510.0132
   6   2.0000      -9.982546      -271.6389
   7   2.0000      -9.955301      -270.8975
   8   2.0000      -9.947921      -270.6967
   9   2.0000      -9.946499      -270.6580
  10   2.0000      -9.938747      -270.4471
  11   2.0000      -9.933766      -270.3115
  12   2.0000      -0.985708       -26.8225
  13   2.0000      -0.958597       -26.0847
  14   2.0000      -0.934868       -25.4391
  15   2.0000      -0.927331       -25.2340
  16   2.0000      -0.919136       -25.0110
  17   2.0000      -0.910887       -24.7865
  18   2.0000      -0.708083       -19.2679
  19   2.0000      -0.683931       -18.6107
  20   2.0000      -0.625287       -17.0149
  21   2.0000      -0.586755       -15.9664
  22   2.0000      -0.569621       -15.5002
  23   2.0000      -0.522854       -14.2276
  24   2.0000      -0.511271       -13.9124
  25   2.0000      -0.488608       -13.2957
  26   2.0000      -0.477931       -13.0052
  27   2.0000      -0.461997       -12.5716
  28   2.0000      -0.460418       -12.5286
  29   2.0000      -0.446058       -12.1379
  30   2.0000      -0.413105       -11.2412
  31   2.0000      -0.390546       -10.6273
  32   2.0000      -0.383071       -10.4239
  33   2.0000      -0.372240       -10.1292
  34   2.0000      -0.361931        -9.8486
  35   2.0000      -0.355122        -9.6634
  36   2.0000      -0.335522        -9.1300
  37   2.0000      -0.315197        -8.5769
  38   2.0000      -0.310996        -8.4626
  39   2.0000      -0.300217        -8.1693
  40   2.0000      -0.289707        -7.8833
  41   2.0000      -0.279830        -7.6146
  42   2.0000      -0.247342        -6.7305
  43   2.0000      -0.242818        -6.6074
  44   2.0000      -0.233339        -6.3495
  45   2.0000      -0.225808        -6.1445
  46   2.0000      -0.216103        -5.8805
  47   2.0000      -0.198496        -5.4013
  48   0.0000       0.003790         0.1031
  49   0.0000       0.018760         0.5105
  50   0.0000       0.036076         0.9817
  51   0.0000       0.047989         1.3058
  52   0.0000       0.060947         1.6584

MULLIKEN ATOMIC CHARGES
-----------------------
   0 C :    0.052744
   1 C :    0.042914
   2 H :    0.063120
   3 C :   -0.009889
   4 H :    0.075330
   5 C :    0.053159
   6 H :    0.055957
   7 C :   -0.013755
   8 H :    0.077620
   9 C :    0.241648
  10 H :    0.048418
  11 O :   -0.318836
  12 O :   -0.390004
  13 O :   -0.427550
  14 O :   -0.406030
  15 O :   -0.410938
  16 O :   -0.432194
  17 H :    0.085384
  18 H :    0.093128
  19 H :    0.302632
  20 H :    0.301491
  21 H :    0.305670
  22 H :    0.313739
  23 H :    0.296241
Sum of atomic charges:   -0.0000000

LOEWDIN ATOMIC CHARGES
----------------------
   0 C :   -0.125357
   1 C :   -0.070189
   2 H :    0.106926
   3 C :   -0.070347
   4 H :    0.111863
   5 C :   -0.081815
   6 H :    0.095133
   7 C :   -0.087769
   8 H :    0.117150
   9 C :    0.002432
  10 H :    0.081515
  11 O :   -0.158970
  12 O :   -0.298532
  13 O :   -0.318404
  14 O :   -0.313785
  15 O :   -0.303375
  16 O :   -0.333919
  17 H :    0.105435
  18 H :    0.119125
  19 H :    0.287233
  20 H :    0.270871
  21 H :    0.289086
  22 H :    0.294642
  23 H :    0.281049

  Mayer bond orders larger than 0.100000
B(  0-C ,  1-C ) :   1.0499 B(  0-C , 16-O ) :   1.0829 B(  0-C , 17-H ) :   0.9064
B(  0-C , 18-H ) :   0.9210 B(  1-C ,  2-H ) :   0.8665 B(  1-C ,  3-C ) :   0.9782
B(  1-C , 11-O ) :   1.0346 B(  3-C ,  4-H ) :   0.8876 B(  3-C ,  5-C ) :   0.9872
B(  3-C , 15-O ) :   1.0414 B(  5-C ,  6-H ) :   0.8970 B(  5-C ,  7-C ) :   1.0102
B(  5-C , 14-O ) :   1.0717 B(  7-C ,  8-H ) :   0.8936 B(  7-C ,  9-C ) :   0.9219
B(  7-C , 13-O ) :   1.0767 B(  9-C , 10-H ) :   0.9046 B(  9-C , 11-O ) :   1.0076
B(  9-C , 12-O ) :   1.1624 B( 12-O , 19-H ) :   0.8401 B( 13-O , 20-H ) :   0.8087
B( 14-O , 21-H ) :   0.8413 B( 15-O , 20-H ) :   0.1026 B( 15-O , 22-H ) :   0.8391
B( 16-O , 23-H ) :   0.8468

Dispersion correction           -0.024716414
FINAL SINGLE POINT ENERGY      -685.691209671041

DIPOLE MOMENT
-------------

Method             : SCF
Type of density    : Electron Density
Multiplicity       :   1
Irrep              :   0
Energy             :  -685.8215883370079382 Eh
Relativity type    :
Basis              : AO
                                X                 Y                 Z
Electronic contribution:      1.897874152      -1.462573632      -0.267194576
Nuclear contribution   :     -1.849014545       2.002737907      -0.236340045
                        -----------------------------------------
Total Dipole Moment    :      0.048859607       0.540164275      -0.503534621
                        -----------------------------------------
Magnitude (a.u.)       :      0.740075550
Magnitude (Debye)      :      1.881122552

Rotational constants in cm-1:             0.038245             0.027156             0.021686
Rotational constants in MHz :          1146.545576           814.114836           650.116181

                             ****ORCA TERMINATED NORMALLY****
TOTAL RUN TIME: 0 days 0 hours 0 minutes 12 seconds 121 msec
