                         Program Version 6.0.0  -   RELEASE  -
|  1> ! pbe def2-sv(p) def2/J RI DEFGRID1 loosescf d4 GCP(DFT/SV(P)) printgap
|  2> %output
|  3>     printlevel normal
|  4> end
|  5> * xyz 0 1
|  6> C -2.1881265879 -0.9167840369 -0.2028010877
|  7> C -1.1520901491 -0.3523494909 0.7833891038
|  8> H -1.6477930084 -0.3537391928 1.7631979291
|  9> C -0.7429425213 1.1099487861 0.5124383597
| 10> H -1.6017348934 1.6379817137 0.0842034612
| 11> C 0.4537738713 1.2641483387 -0.4498459729
| 12> H 0.8159916982 2.295212208 -0.3354223911
| 13> C 1.5883738332 0.3068045148 -0.0289361373
| 14> H 2.3297769826 0.2713091422 -0.8370203168
| 15> C 1.0734572793 -1.1291855294 0.1497930203
| 16> H 1.8436859288 -1.6935209232 0.702402416
| 17> O -0.0449567756 -1.228902866 0.9906242607
| 18> O 0.8668839301 -1.6671915741 -1.1153157623
| 19> O 2.1646708166 0.7002534358 1.1965703489
| 20> O 0.1231009609 1.1376958432 -1.801518336
| 21> O -0.4632347217 1.7646127856 1.7301372289
| 22> O -1.7410402837 -0.8709812672 -1.5387422867
| 23> H -3.1023612546 -0.3236259688 -0.0818922633
| 24> H -2.3905941176 -1.9531696978 0.0956324003
| 25> H 0.5973367331 -2.5946311668 -1.0415050845
| 26> H 2.7552750448 1.4531740367 1.0502238565
| 27> H -0.3335494515 0.2852246353 -1.939433485
| 28> H 0.3455739548 1.3760588344 2.1054104464
| 29> H -2.4540971303 -1.1562809838 -2.1266284439
| 30> *
| 31>
| 32>                          ****END OF INPUT****

CARTESIAN COORDINATES (ANGSTROEM)
---------------------------------
  C     -2.188127   -0.916784   -0.202801
  C     -1.152090   -0.352349    0.783389
  H     -1.647793   -0.353739    1.763198
  C     -0.742943    1.109949    0.512438
  H     -1.601735    1.637982    0.084203
  C      0.453774    1.264148   -0.449846
  H      0.815992    2.295212   -0.335422
  C      1.588374    0.306805   -0.028936
  H      2.329777    0.271309   -0.837020
  C      1.073457   -1.129186    0.149793
  H      1.843686   -1.693521    0.702402
  O     -0.044957   -1.228903    0.990624
  O      0.866884   -1.667192   -1.115316
  O      2.164671    0.700253    1.196570
  O      0.123101    1.137696   -1.801518
  O     -0.463235    1.764613    1.730137
  O     -1.741040   -0.870981   -1.538742
  H     -3.102361   -0.323626   -0.081892
  H     -2.390594   -1.953170    0.095632
  H      0.597337   -2.594631   -1.041505
  H      2.755275    1.453174    1.050224
  H     -0.333549    0.285225   -1.939433
  H      0.345574    1.376059    2.105410
  H     -2.454097   -1.156281   -2.126628

 Total Charge           Charge          ....    0
 Multiplicity           Mult            ....    1
 Number of Electrons    NEL             ....   96
 Basis Dimension        Dim             ....  192

ORBITAL ENERGIES
----------------

  NO   OCC          E(Eh)            E(eV)
   0   2.0000     -18.773762      -510.8600
   1   2.0000     -18.767467      -510.6887
   2   2.0000     -18.763145      -510.5711
   3   2.0000     -18.758673      -510.4494
   4   2.0000     -18.730863      -509.6927
   5   2.0000     -18.721025      -509.4250
   6   2.0000      -9.982238      -271.6305
   7   2.0000      -9.945110      -270.6202
   8   2.0000      -9.943804      -270.5847
   9   2.0000      -9.937677      -270.4179
  10   2.0000      -9.932585      -270.2794
  11   2.0000      -9.928038      -270.1556
  12   2.0000      -0.977555       -26.6006
  13   2.0000      -0.946102       -25.7447
  14   2.0000      -0.940316       -25.5873
  15   2.0000      -0.916585       -24.9415
  16   2.0000      -0.906350       -24.6630
  17   2.0000      -0.897692       -24.4274
  18   2.0000      -0.700851       -19.0711
  19   2.0000      -0.681714       -18.5504
  20   2.0000      -0.621256       -16.9052
  21   2.0000      -0.578980       -15.7548
  22   2.0000      -0.572185       -15.5700
  23   2.0000      -0.521877       -14.2010
  24   2.0000      -0.504065       -13.7163
  25   2.0000      -0.480005       -13.0616
  26   2.0000      -0.464127       -12.6295
  27   2.0000      -0.459708       -12.5093
  28   2.0000      -0.429302       -11.6819
  29   2.0000      -0.425378       -11.5751
  30   2.0000      -0.415154       -11.2969
  31   2.0000      -0.411169       -11.1885
  32   2.0000      -0.387176       -10.5356
  33   2.0000      -0.366231        -9.9657
  34   2.0000      -0.358297        -9.7498
  35   2.0000      -0.341130        -9.2826
  36   2.0000      -0.326739        -8.8910
  37   2.0000      -0.318500        -8.6668
  38   2.0000      -0.310562        -8.4508
  39   2.0000      -0.292392        -7.9564
  40   2.0000      -0.261266        -7.1094
  41   2.0000      -0.257500        -7.0069
  42   2.0000      -0.252108        -6.8602
  43   2.0000      -0.239507        -6.5173
  44   2.0000      -0.235926        -6.4199
  45   2.0000      -0.228314        -6.2127
  46   2.0000      -0.207225        -5.6389
  47   2.0000      -0.183057        -4.9812
  48   0.0000       0.004763         0.1296
  49   0.0000       0.015691         0.4270
  50   0.0000       0.037488         1.0201
  51   0.0000       0.059479         1.6185
  52   0.0000       0.065316         1.7773

MULLIKEN ATOMIC CHARGES
-----------------------
   0 C :    0.026290
   1 C :    0.041475
   2 H :    0.081469
   3 C :    0.053719
   4 H :    0.070074
   5 C :    0.062991
   6 H :    0.057563
   7 C :    0.002261
   8 H :    0.083295
   9 C :    0.194006
  10 H :    0.062965
  11 O :   -0.319565
  12 O :   -0.386325
  13 O :   -0.418423
  14 O :   -0.433129
  15 O :   -0.438774
  16 O :   -0.432566
  17 H :    0.079969
  18 H :    0.077242
  19 H :    0.298654
  20 H :    0.313748
  21 H :    0.313194
  22 H :    0.296126
  23 H :    0.313741
Sum of atomic charges:    0.0000000

LOEWDIN ATOMIC CHARGES
----------------------
   0 C :   -0.135413
   1 C :   -0.067858
   2 H :    0.127722
   3 C :   -0.068156
   4 H :    0.118007
   5 C :   -0.078205
   6 H :    0.108398
   7 C :   -0.090174
   8 H :    0.114986
   9 C :   -0.005744
  10 H :    0.097744
  11 O :   -0.149208
  12 O :   -0.301967
  13 O :   -0.309447
  14 O :   -0.326621
  15 O :   -0.327466
  16 O :   -0.322939
  17 H :    0.106043
  18 H :    0.101802
  19 H :    0.283862
  20 H :    0.294790
  21 H :    0.266264
  22 H :    0.270105
  23 H :    0.293476

  Mayer bond orders larger than 0.100000
B(  0-C ,  1-C ) :   1.0688 B(  0-C , 16-O ) :   1.0477 B(  0-C , 17-H ) :   0.9099
B(  0-C , 18-H ) :   0.9094 B(  1-C ,  2-H ) :   0.8845 B(  1-C ,  3-C ) :   0.9875
B(  1-C , 11-O ) :   0.9952 B(  3-C ,  4-H ) :   0.8920 B(  3-C ,  5-C ) :   0.9796
B(  3-C , 15-O ) :   1.0351 B(  5-C ,  6-H ) :   0.8986 B(  5-C ,  7-C ) :   0.9606
B(  5-C , 14-O ) :   1.1039 B(  7-C ,  8-H ) :   0.8930 B(  7-C ,  9-C ) :   0.9940
B(  7-C , 13-O ) :   1.0311 B(  9-C , 10-H ) :   0.8990 B(  9-C , 11-O ) :   1.0606
B(  9-C , 12-O ) :   1.1401 B( 12-O , 19-H ) :   0.8380 B( 13-O , 20-H ) :   0.8425
B( 14-O , 21-H ) :   0.7877 B( 15-O , 22-H ) :   0.8194 B( 16-O , 21-H ) :   0.1074
B( 16-O , 23-H ) :   0.8391

Dispersion correction           -0.026367819
FINAL SINGLE POINT ENERGY      -685.696560088837

DIPOLE MOMENT
-------------

Method             : SCF
Type of density    : Electron Density
Multiplicity       :   1
Irrep              :   0
Energy             :  -685.8289540366835126 Eh
Relativity type    :
Basis              : AO
                                X                 Y                 Z
Electronic contribution:      2.290594178      -0.255299628       0.273933080
Nuclear contribution   :     -2.653325327      -0.711700703      -0.534129150
                        -----------------------------------------
Total Dipole Moment    :     -0.362731149      -0.967000331      -0.260196070
                        -----------------------------------------
Magnitude (a.u.)       :      1.065065971
Magnitude (Debye)      :      2.707182554

Rotational constants in cm-1:             0.040149             0.031095             0.027414
Rotational constants in MHz :          1203.630431           932.216936           821.851083

                             ****ORCA TERMINATED NORMALLY****
TOTAL RUN TIME: 0 days 0 hours 0 minutes 12 seconds 299 msec
