                         Program Version 6.0.0  -   RELEASE  -
|  1> ! pbe def2-sv(p) def2/J RI DEFGRID1 loosescf d4 GCP(DFT/SV(P)) printgap
|  2> %output
|  3>     printlevel normal
|  4> end
|  5> * xyz 0 1
|  6> C -3.2827239951 0.3004007156 -0.2444238744
|  7> C -1.8905747463 0.3654981333 0.3955998402
|  8> H -2.0150146259 0.29947626 1.4822423062
|  9> C -1.1513212844 1.6531537829 0.0343933417
| 10> C 0.3313315314 1.4878975094 0.3476920922
| 11> C 0.9831541595 0.4620083307 -0.5997073085
| 12> H 1.3298088527 0.9864535 -1.4949406149
| 13> C -0.0449496942 -0.5959957596 -1.0573617589
| 14> C -1.1083026458 -0.856384231 -0.0333065405
| 15> O -1.361308948 -1.9668897092 0.3973666464
| 16> C 2.1889512522 -0.151557325 0.0760752236
| 17> C 2.1063322896 -1.2057411995 0.8721645611
| 18> C 3.4843301368 0.5543206414 -0.1865797361
| 19> H -3.7783664521 -0.6275466773 0.0310902608
| 20> H -3.8849185217 1.1376216241 0.0970238407
| 21> H -3.2058315933 0.3435098485 -1.3284802949
| 22> H -1.2827707854 1.881997939 -1.0240606787
| 23> H -1.5683264913 2.4814659409 0.6081761804
| 24> H 0.8476751782 2.4439798239 0.2624590418
| 25> H 0.435735255 1.1418059226 1.3791755395
| 26> H -0.5628735672 -0.2211767763 -1.9426547676
| 27> H 0.4565950513 -1.5283779306 -1.3181197193
| 28> H 2.9745662227 -1.6112390467 1.3636733131
| 29> H 1.1777519241 -1.7150811559 1.0677240922
| 30> H 3.7359264695 0.4924863994 -1.2444028077
| 31> H 3.3971685929 1.6074050112 0.0751111899
| 32> H 4.2919407078 0.1138275387 0.3907573901
| 33> *
| 34>
| 35>                          ****END OF INPUT****

CARTESIAN COORDINATES (ANGSTROEM)
---------------------------------
  C     -3.282724    0.300401   -0.244424
  C     -1.890575    0.365498    0.395600
  H     -2.015015    0.299476    1.482242
  C     -1.151321    1.653154    0.034393
  C      0.331332    1.487898    0.347692
  C      0.983154    0.462008   -0.599707
  H      1.329809    0.986453   -1.494941
  C     -0.044950   -0.595996   -1.057362
  C     -1.108303   -0.856384   -0.033307
  O     -1.361309   -1.966890    0.397367
  C      2.188951   -0.151557    0.076075
  C      2.106332   -1.205741    0.872165
  C      3.484330    0.554321   -0.186580
  H     -3.778366   -0.627547    0.031090
  H     -3.884919    1.137622    0.097024
  H     -3.205832    0.343510   -1.328480
  H     -1.282771    1.881998   -1.024061
  H     -1.568326    2.481466    0.608176
  H      0.847675    2.443980    0.262459
  H      0.435735    1.141806    1.379176
  H     -0.562874   -0.221177   -1.942655
  H      0.456595   -1.528378   -1.318120
  H      2.974566   -1.611239    1.363673
  H      1.177752   -1.715081    1.067724
  H      3.735926    0.492486   -1.244403
  H      3.397169    1.607405    0.075111
  H      4.291941    0.113828    0.390757

 Total Charge           Charge          ....    0
 Multiplicity           Mult            ....    1
 Number of Electrons    NEL             ....   84
 Basis Dimension        Dim             ....  186

ORBITAL ENERGIES
----------------

  NO   OCC          E(Eh)            E(eV)
   0   2.0000     -18.733684      -509.7695
   1   2.0000      -9.967660      -271.2338
   2   2.0000      -9.910190      -269.6700
   3   2.0000      -9.902158      -269.4514
   4   2.0000      -9.899117      -269.3687
   5   2.0000      -9.895509      -269.2705
   6   2.0000      -9.895028      -269.2574
   7   2.0000      -9.891570      -269.1633
   8   2.0000      -9.885826      -269.0070
   9   2.0000      -9.882137      -268.9066
  10   2.0000      -9.866063      -268.4692
  11   2.0000      -0.930424       -25.3181
  12   2.0000      -0.773916       -21.0593
  13   2.0000      -0.729745       -19.8574
  14   2.0000      -0.682508       -18.5720
  15   2.0000      -0.662669       -18.0321
  16   2.0000      -0.612576       -16.6691
  17   2.0000      -0.607684       -16.5359
  18   2.0000      -0.555447       -15.1145
  19   2.0000      -0.536788       -14.6068
  20   2.0000      -0.471000       -12.8166
  21   2.0000      -0.467224       -12.7138
  22   2.0000      -0.441995       -12.0273
  23   2.0000      -0.422347       -11.4927
  24   2.0000      -0.408363       -11.1121
  25   2.0000      -0.398928       -10.8554
  26   2.0000      -0.386358       -10.5133
  27   2.0000      -0.375301       -10.2125
  28   2.0000      -0.367643       -10.0041
  29   2.0000      -0.358407        -9.7528
  30   2.0000      -0.356340        -9.6965
  31   2.0000      -0.350811        -9.5460
  32   2.0000      -0.339910        -9.2494
  33   2.0000      -0.328690        -8.9441
  34   2.0000      -0.323476        -8.8022
  35   2.0000      -0.310977        -8.4621
  36   2.0000      -0.307694        -8.3728
  37   2.0000      -0.287597        -7.8259
  38   2.0000      -0.283178        -7.7057
  39   2.0000      -0.272260        -7.4086
  40   2.0000      -0.215871        -5.8742
  41   2.0000      -0.188874        -5.1395
  42   0.0000      -0.052604        -1.4314
  43   0.0000      -0.012830        -0.3491
  44   0.0000       0.022854         0.6219
  45   0.0000       0.045490         1.2379
  46   0.0000       0.050698         1.3796

MULLIKEN ATOMIC CHARGES
-----------------------
   0 C :   -0.221988
   1 C :   -0.197118
   2 H :    0.088474
   3 C :   -0.083885
   4 C :   -0.097321
   5 C :   -0.160837
   6 H :    0.059296
   7 C :   -0.049993
   8 C :   -0.008782
   9 O :   -0.169843
  10 C :   -0.059076
  11 C :   -0.251680
  12 C :   -0.211040
  13 H :    0.119429
  14 H :    0.108252
  15 H :    0.095136
  16 H :    0.068695
  17 H :    0.088097
  18 H :    0.086674
  19 H :    0.087125
  20 H :    0.095714
  21 H :    0.099439
  22 H :    0.082678
  23 H :    0.116470
  24 H :    0.109721
  25 H :    0.106989
  26 H :    0.099376
Sum of atomic charges:    0.0000000

LOEWDIN ATOMIC CHARGES
----------------------
   0 C :   -0.316545
   1 C :   -0.173460
   2 H :    0.135655
   3 C :   -0.219275
   4 C :   -0.212237
   5 C :   -0.125190
   6 H :    0.120084
   7 C :   -0.234564
   8 C :    0.051194
   9 O :   -0.133414
  10 C :   -0.053087
  11 C :   -0.268468
  12 C :   -0.322466
  13 H :    0.128134
  14 H :    0.122881
  15 H :    0.117523
  16 H :    0.115468
  17 H :    0.122738
  18 H :    0.120606
  19 H :    0.123768
  20 H :    0.140903
  21 H :    0.134937
  22 H :    0.119228
  23 H :    0.125438
  24 H :    0.128848
  25 H :    0.126622
  26 H :    0.124679

  Mayer bond orders larger than 0.100000
B(  0-C ,  1-C ) :   1.1011 B(  0-C , 13-H ) :   0.9436 B(  0-C , 14-H ) :   0.9475
B(  0-C , 15-H ) :   0.9446 B(  1-C ,  2-H ) :   0.8724 B(  1-C ,  3-C ) :   1.0762
B(  1-C ,  8-C ) :   0.9406 B(  3-C ,  4-C ) :   1.1774 B(  3-C , 16-H ) :   0.8876
B(  3-C , 17-H ) :   0.9070 B(  4-C ,  5-C ) :   1.0933 B(  4-C , 18-H ) :   0.9101
B(  4-C , 19-H ) :   0.8993 B(  5-C ,  6-H ) :   0.8727 B(  5-C ,  7-C ) :   1.0743
B(  5-C , 10-C ) :   0.9990 B(  7-C ,  8-C ) :   1.0895 B(  7-C , 20-H ) :   0.8603
B(  7-C , 21-H ) :   0.8930 B(  8-C ,  9-O ) :   2.1412 B( 10-C , 11-C ) :   2.0427
B( 10-C , 12-C ) :   1.1282 B( 11-C , 22-H ) :   0.9036 B( 11-C , 23-H ) :   0.8937
B( 12-C , 24-H ) :   0.9275 B( 12-C , 25-H ) :   0.9318 B( 12-C , 26-H ) :   0.9408

Dispersion correction           -0.028968501
FINAL SINGLE POINT ENERGY      -464.823945222132

DIPOLE MOMENT
-------------

Method             : SCF
Type of density    : Electron Density
Multiplicity       :   1
Irrep              :   0
Energy             :  -464.9096261156378205 Eh
Relativity type    :
Basis              : AO
                                X                 Y                 Z
Electronic contribution:     -1.995787475      -5.596200197       1.079372753
Nuclear contribution   :      2.183628793       6.750595508      -1.490694951
                        -----------------------------------------
Total Dipole Moment    :      0.187841318       1.154395311      -0.411322198
                        -----------------------------------------
Magnitude (a.u.)       :      1.239797905
Magnitude (Debye)      :      3.151315836

Rotational constants in cm-1:             0.068605             0.025521             0.021017
Rotational constants in MHz :          2056.725909           765.114710           630.069868

                             ****ORCA TERMINATED NORMALLY****
TOTAL RUN TIME: 0 days 0 hours 0 minutes 14 seconds 872 msec
