                         Program Version 6.0.0  -   RELEASE  -
|  1> ! pbe def2-sv(p) def2/J RI DEFGRID1 loosescf d4 GCP(DFT/SV(P)) printgap
|  2> %output
|  3>     printlevel normal
|  4> end
|  5> * xyz 0 1
|  6> C -1.823798296 -1.045738833 -0.6677418175
|  7> C -1.0395944787 -0.4890536246 0.5388803028
|  8> H -1.6749494317 -0.5888523976 1.4290130699
|  9> C -0.7056496166 1.0013889613 0.3536355435
| 10> H -1.5381058274 1.4626061313 -0.1949507832
| 11> C 0.5842604873 1.2382134128 -0.4670880795
| 12> H 0.8544417184 2.2931857474 -0.3260383101
| 13> C 1.7192149929 0.3663960088 0.0862084954
| 14> H 2.579832527 0.4213121935 -0.590126579
| 15> C 1.2640275471 -1.1082638188 0.133449848
| 16> H 2.0146666617 -1.6803902576 0.6972713181
| 17> O 0.0870097254 -1.296246605 0.8730110375
| 18> O 1.1506957711 -1.5659875098 -1.1829274924
| 19> O 2.1699645126 0.7953235303 1.3413343649
| 20> O 0.3934673705 1.0525779931 -1.8453132575
| 21> O -0.4991939857 1.6418016948 1.5966129829
| 22> O -3.1200844917 -0.5055210245 -0.7338283815
| 23> H -1.8511153944 -2.138731102 -0.5891375709
| 24> H -1.3389454798 -0.7664661835 -1.6036061427
| 25> H 1.0676185075 -2.5311727494 -1.2030694462
| 26> H 1.399456202 1.0282371015 1.8887506869
| 27> H 0.6167642412 0.1348534393 -2.0732358437
| 28> H -1.3374459327 1.730057266 2.071753407
| 29> H -3.6607007952 -0.8588288231 -0.0127067788
| 30> *
| 31>
| 32>                          ****END OF INPUT****

CARTESIAN COORDINATES (ANGSTROEM)
---------------------------------
  C     -1.823798   -1.045739   -0.667742
  C     -1.039594   -0.489054    0.538880
  H     -1.674949   -0.588852    1.429013
  C     -0.705650    1.001389    0.353636
  H     -1.538106    1.462606   -0.194951
  C      0.584260    1.238213   -0.467088
  H      0.854442    2.293186   -0.326038
  C      1.719215    0.366396    0.086208
  H      2.579833    0.421312   -0.590127
  C      1.264028   -1.108264    0.133450
  H      2.014667   -1.680390    0.697271
  O      0.087010   -1.296247    0.873011
  O      1.150696   -1.565988   -1.182927
  O      2.169965    0.795324    1.341334
  O      0.393467    1.052578   -1.845313
  O     -0.499194    1.641802    1.596613
  O     -3.120084   -0.505521   -0.733828
  H     -1.851115   -2.138731   -0.589138
  H     -1.338945   -0.766466   -1.603606
  H      1.067619   -2.531173   -1.203069
  H      1.399456    1.028237    1.888751
  H      0.616764    0.134853   -2.073236
  H     -1.337446    1.730057    2.071753
  H     -3.660701   -0.858829   -0.012707

 Total Charge           Charge          ....    0
 Multiplicity           Mult            ....    1
 Number of Electrons    NEL             ....   96
 Basis Dimension        Dim             ....  192

ORBITAL ENERGIES
----------------

  NO   OCC          E(Eh)            E(eV)
   0   2.0000     -18.785565      -511.1812
   1   2.0000     -18.771817      -510.8071
   2   2.0000     -18.771671      -510.8031
   3   2.0000     -18.758550      -510.4461
   4   2.0000     -18.743195      -510.0283
   5   2.0000     -18.737441      -509.8717
   6   2.0000      -9.988167      -271.7918
   7   2.0000      -9.949248      -270.7328
   8   2.0000      -9.945110      -270.6202
   9   2.0000      -9.938859      -270.4501
  10   2.0000      -9.937492      -270.4129
  11   2.0000      -9.935713      -270.3645
  12   2.0000      -0.990170       -26.9439
  13   2.0000      -0.949192       -25.8288
  14   2.0000      -0.934535       -25.4300
  15   2.0000      -0.924428       -25.1550
  16   2.0000      -0.922147       -25.0929
  17   2.0000      -0.911867       -24.8132
  18   2.0000      -0.704639       -19.1742
  19   2.0000      -0.686177       -18.6718
  20   2.0000      -0.627077       -17.0636
  21   2.0000      -0.586498       -15.9594
  22   2.0000      -0.577880       -15.7249
  23   2.0000      -0.525500       -14.2996
  24   2.0000      -0.515926       -14.0391
  25   2.0000      -0.489191       -13.3116
  26   2.0000      -0.472734       -12.8638
  27   2.0000      -0.468797       -12.7566
  28   2.0000      -0.442628       -12.0445
  29   2.0000      -0.419723       -11.4212
  30   2.0000      -0.414152       -11.2696
  31   2.0000      -0.402964       -10.9652
  32   2.0000      -0.394214       -10.7271
  33   2.0000      -0.377953       -10.2846
  34   2.0000      -0.364522        -9.9191
  35   2.0000      -0.355855        -9.6833
  36   2.0000      -0.334600        -9.1049
  37   2.0000      -0.326956        -8.8969
  38   2.0000      -0.301485        -8.2038
  39   2.0000      -0.295529        -8.0418
  40   2.0000      -0.279860        -7.6154
  41   2.0000      -0.273813        -7.4508
  42   2.0000      -0.258542        -7.0353
  43   2.0000      -0.250678        -6.8213
  44   2.0000      -0.242335        -6.5943
  45   2.0000      -0.222487        -6.0542
  46   2.0000      -0.209694        -5.7061
  47   2.0000      -0.202772        -5.5177
  48   0.0000       0.005075         0.1381
  49   0.0000       0.008372         0.2278
  50   0.0000       0.020114         0.5473
  51   0.0000       0.054241         1.4760
  52   0.0000       0.071137         1.9357

MULLIKEN ATOMIC CHARGES
-----------------------
   0 C :    0.029911
   1 C :    0.051778
   2 H :    0.037868
   3 C :    0.027924
   4 H :    0.089050
   5 C :    0.050191
   6 H :    0.085309
   7 C :    0.021352
   8 H :    0.084651
   9 C :    0.179073
  10 H :    0.074447
  11 O :   -0.311420
  12 O :   -0.411285
  13 O :   -0.426540
  14 O :   -0.419247
  15 O :   -0.427655
  16 O :   -0.428809
  17 H :    0.070581
  18 H :    0.079769
  19 H :    0.314506
  20 H :    0.304306
  21 H :    0.318096
  22 H :    0.309959
  23 H :    0.296185
Sum of atomic charges:   -0.0000000

LOEWDIN ATOMIC CHARGES
----------------------
   0 C :   -0.144688
   1 C :   -0.076185
   2 H :    0.103331
   3 C :   -0.079108
   4 H :    0.116790
   5 C :   -0.065674
   6 H :    0.118918
   7 C :   -0.083100
   8 H :    0.120012
   9 C :   -0.012401
  10 H :    0.104765
  11 O :   -0.144187
  12 O :   -0.308989
  13 O :   -0.316464
  14 O :   -0.315608
  15 O :   -0.313116
  16 O :   -0.328683
  17 H :    0.095288
  18 H :    0.112947
  19 H :    0.293388
  20 H :    0.274015
  21 H :    0.274466
  22 H :    0.291203
  23 H :    0.283079

  Mayer bond orders larger than 0.100000
B(  0-C ,  1-C ) :   1.0235 B(  0-C , 16-O ) :   1.0461 B(  0-C , 17-H ) :   0.9142
B(  0-C , 18-H ) :   0.9016 B(  1-C ,  2-H ) :   0.8947 B(  1-C ,  3-C ) :   0.9782
B(  1-C , 11-O ) :   0.9994 B(  3-C ,  4-H ) :   0.8873 B(  3-C ,  5-C ) :   0.9685
B(  3-C , 15-O ) :   0.9988 B(  5-C ,  6-H ) :   0.9012 B(  5-C ,  7-C ) :   1.0131
B(  5-C , 14-O ) :   1.0933 B(  7-C ,  8-H ) :   0.8947 B(  7-C ,  9-C ) :   0.9735
B(  7-C , 13-O ) :   1.0760 B(  9-C , 10-H ) :   0.9041 B(  9-C , 11-O ) :   1.0670
B(  9-C , 12-O ) :   1.0720 B( 12-O , 19-H ) :   0.8310 B( 13-O , 20-H ) :   0.8107
B( 14-O , 21-H ) :   0.7991 B( 15-O , 22-H ) :   0.8422 B( 16-O , 23-H ) :   0.8515

Dispersion correction           -0.025849330
FINAL SINGLE POINT ENERGY      -685.697834316682

DIPOLE MOMENT
-------------

Method             : SCF
Type of density    : Electron Density
Multiplicity       :   1
Irrep              :   0
Energy             :  -685.8304672823105648 Eh
Relativity type    :
Basis              : AO
                                X                 Y                 Z
Electronic contribution:      1.744200854       0.295780902       1.065855146
Nuclear contribution   :     -2.688430891      -1.399997467      -0.474067653
                        -----------------------------------------
Total Dipole Moment    :     -0.944230037      -1.104216565       0.591787493
                        -----------------------------------------
Magnitude (a.u.)       :      1.568782018
Magnitude (Debye)      :      3.987526997

Rotational constants in cm-1:             0.040906             0.028290             0.024435
Rotational constants in MHz :          1226.327416           848.098563           732.550760

                             ****ORCA TERMINATED NORMALLY****
TOTAL RUN TIME: 0 days 0 hours 0 minutes 12 seconds 526 msec
