                         Program Version 6.0.0  -   RELEASE  -
|  1> ! r2scan-3c def2/J RI DEFGRID2 scfconv6 printgap
|  2> %output
|  3>     printlevel normal
|  4> end
|  5> * xyz 0 1
|  6> C 2.8729179105 -0.7456332723 0.1164277848
|  7> C 1.9953984453 0.4796488207 -0.1046404687
|  8> C 0.5146319515 0.2312239978 -0.0470184793
|  9> C -0.3624485628 1.297796772 -0.2439990393
| 10> C -1.7254115666 1.0755422486 -0.1920717204
| 11> N -2.2662515228 -0.1136135836 0.0385989348
| 12> C -1.4360876485 -1.127103766 0.2261378084
| 13> C -0.0547850095 -1.0132985107 0.1943951208
| 14> H 3.9200459023 -0.4598296014 0.0540922646
| 15> H 2.6812217482 -1.5019048752 -0.6410170012
| 16> H 2.6966212634 -1.1768332949 1.0988890874
| 17> H 2.2242327443 0.916634986 -1.0807872189
| 18> H 2.2375143498 1.2376853227 0.6456817174
| 19> H 0.0189874419 2.2891631683 -0.4356296667
| 20> H -2.4294554887 1.8834801508 -0.3415263067
| 21> H -1.9080667056 -2.0830932604 0.4120847905
| 22> H 0.5522240692 -1.8880628265 0.3568130723
| 23> *
| 24>
| 25>                          ****END OF INPUT****

CARTESIAN COORDINATES (ANGSTROEM)
---------------------------------
  C      2.872918   -0.745633    0.116428
  C      1.995398    0.479649   -0.104640
  C      0.514632    0.231224   -0.047018
  C     -0.362449    1.297797   -0.243999
  C     -1.725412    1.075542   -0.192072
  N     -2.266252   -0.113614    0.038599
  C     -1.436088   -1.127104    0.226138
  C     -0.054785   -1.013299    0.194395
  H      3.920046   -0.459830    0.054092
  H      2.681222   -1.501905   -0.641017
  H      2.696621   -1.176833    1.098889
  H      2.224233    0.916635   -1.080787
  H      2.237514    1.237685    0.645682
  H      0.018987    2.289163   -0.435630
  H     -2.429455    1.883480   -0.341526
  H     -1.908067   -2.083093    0.412085
  H      0.552224   -1.888063    0.356813

 Total Charge           Charge          ....    0
 Multiplicity           Mult            ....    1
 Number of Electrons    NEL             ....   58
 Basis Dimension        Dim             ....  202

ORBITAL ENERGIES
----------------

  NO   OCC          E(Eh)            E(eV)
   0   2.0000     -14.147727      -384.9792
   1   2.0000     -10.063300      -273.8363
   2   2.0000     -10.062748      -273.8213
   3   2.0000     -10.061341      -273.7830
   4   2.0000     -10.047196      -273.3981
   5   2.0000     -10.039320      -273.1838
   6   2.0000     -10.038939      -273.1734
   7   2.0000     -10.031104      -272.9602
   8   2.0000      -0.910508       -24.7762
   9   2.0000      -0.799152       -21.7460
  10   2.0000      -0.730013       -19.8647
  11   2.0000      -0.724341       -19.7103
  12   2.0000      -0.627469       -17.0743
  13   2.0000      -0.598105       -16.2753
  14   2.0000      -0.559557       -15.2263
  15   2.0000      -0.481750       -13.1091
  16   2.0000      -0.455418       -12.3926
  17   2.0000      -0.436249       -11.8709
  18   2.0000      -0.435070       -11.8389
  19   2.0000      -0.399941       -10.8829
  20   2.0000      -0.388104       -10.5608
  21   2.0000      -0.372162       -10.1271
  22   2.0000      -0.356706        -9.7065
  23   2.0000      -0.336560        -9.1583
  24   2.0000      -0.330867        -9.0033
  25   2.0000      -0.317839        -8.6488
  26   2.0000      -0.256199        -6.9715
  27   2.0000      -0.245331        -6.6758
  28   2.0000      -0.220293        -5.9945
  29   0.0000      -0.049069        -1.3352
  30   0.0000      -0.037392        -1.0175
  31   0.0000       0.080612         2.1936
  32   0.0000       0.097798         2.6612
  33   0.0000       0.099338         2.7031

MULLIKEN ATOMIC CHARGES
-----------------------
   0 C :   -0.495215
   1 C :   -0.312255
   2 C :    0.125643
   3 C :   -0.127680
   4 C :   -0.121390
   5 N :   -0.172487
   6 C :   -0.144278
   7 C :   -0.105015
   8 H :    0.152629
   9 H :    0.157571
  10 H :    0.157141
  11 H :    0.162817
  12 H :    0.163031
  13 H :    0.148061
  14 H :    0.131405
  15 H :    0.131015
  16 H :    0.149007
Sum of atomic charges:    0.0000000

LOEWDIN ATOMIC CHARGES
----------------------
   0 C :   -0.417998
   1 C :   -0.286577
   2 C :   -0.055539
   3 C :   -0.145798
   4 C :    0.079564
   5 N :   -0.620010
   6 C :    0.081507
   7 C :   -0.151325
   8 H :    0.155005
   9 H :    0.154467
  10 H :    0.154373
  11 H :    0.169964
  12 H :    0.170050
  13 H :    0.171669
  14 H :    0.183768
  15 H :    0.183738
  16 H :    0.173141

  Mayer bond orders larger than 0.100000
B(  0-C ,  1-C ) :   0.8542 B(  0-C ,  8-H ) :   0.9693 B(  0-C ,  9-H ) :   0.9817
B(  0-C , 10-H ) :   0.9811 B(  1-C ,  2-C ) :   0.8608 B(  1-C , 11-H ) :   0.9763
B(  1-C , 12-H ) :   0.9753 B(  2-C ,  3-C ) :   1.3343 B(  2-C ,  5-N ) :   0.1017
B(  2-C ,  7-C ) :   1.4137 B(  3-C ,  4-C ) :   1.3842 B(  3-C , 13-H ) :   0.9467
B(  4-C ,  5-N ) :   1.4550 B(  4-C , 14-H ) :   0.9926 B(  5-N ,  6-C ) :   1.4817
B(  6-C ,  7-C ) :   1.3313 B(  6-C , 15-H ) :   0.9990 B(  7-C , 16-H ) :   0.9354

Dispersion correction           -0.005238495
FINAL SINGLE POINT ENERGY      -326.816186422157

DIPOLE MOMENT
-------------

Method             : SCF
Type of density    : Electron Density
Multiplicity       :   1
Irrep              :   0
Energy             :  -326.8187995216807167 Eh
Relativity type    :
Basis              : AO
                                X                 Y                 Z
Electronic contribution:     -8.236565097       0.882273866      -0.100428544
Nuclear contribution   :      9.362997490      -0.734983959       0.064570692
                        -----------------------------------------
Total Dipole Moment    :      1.126432393       0.147289906      -0.035857852
                        -----------------------------------------
Magnitude (a.u.)       :      1.136587013
Magnitude (Debye)      :      2.888974597

Rotational constants in cm-1:             0.169791             0.049642             0.038968
Rotational constants in MHz :          5090.195288          1488.241922          1168.239968

                             ****ORCA TERMINATED NORMALLY****
TOTAL RUN TIME: 0 days 0 hours 0 minutes 20 seconds 620 msec
