                         Program Version 6.0.0  -   RELEASE  -
|  1> ! r2scan-3c def2/J RI DEFGRID2 scfconv6 printgap
|  2> %output
|  3>     printlevel normal
|  4> end
|  5> %cpcm
|  6>     smd true
|  7>     smdsolvent "water"
|  8> end
|  9> * xyz 0 1
| 10> C 2.8729179105 -0.7456332723 0.1164277848
| 11> C 1.9953984453 0.4796488207 -0.1046404687
| 12> C 0.5146319515 0.2312239978 -0.0470184793
| 13> C -0.3624485628 1.297796772 -0.2439990393
| 14> C -1.7254115666 1.0755422486 -0.1920717204
| 15> N -2.2662515228 -0.1136135836 0.0385989348
| 16> C -1.4360876485 -1.127103766 0.2261378084
| 17> C -0.0547850095 -1.0132985107 0.1943951208
| 18> H 3.9200459023 -0.4598296014 0.0540922646
| 19> H 2.6812217482 -1.5019048752 -0.6410170012
| 20> H 2.6966212634 -1.1768332949 1.0988890874
| 21> H 2.2242327443 0.916634986 -1.0807872189
| 22> H 2.2375143498 1.2376853227 0.6456817174
| 23> H 0.0189874419 2.2891631683 -0.4356296667
| 24> H -2.4294554887 1.8834801508 -0.3415263067
| 25> H -1.9080667056 -2.0830932604 0.4120847905
| 26> H 0.5522240692 -1.8880628265 0.3568130723
| 27> *
| 28>
| 29>                          ****END OF INPUT****

CARTESIAN COORDINATES (ANGSTROEM)
---------------------------------
  C      2.872918   -0.745633    0.116428
  C      1.995398    0.479649   -0.104640
  C      0.514632    0.231224   -0.047018
  C     -0.362449    1.297797   -0.243999
  C     -1.725412    1.075542   -0.192072
  N     -2.266252   -0.113614    0.038599
  C     -1.436088   -1.127104    0.226138
  C     -0.054785   -1.013299    0.194395
  H      3.920046   -0.459830    0.054092
  H      2.681222   -1.501905   -0.641017
  H      2.696621   -1.176833    1.098889
  H      2.224233    0.916635   -1.080787
  H      2.237514    1.237685    0.645682
  H      0.018987    2.289163   -0.435630
  H     -2.429455    1.883480   -0.341526
  H     -1.908067   -2.083093    0.412085
  H      0.552224   -1.888063    0.356813

 Total Charge           Charge          ....    0
 Multiplicity           Mult            ....    1
 Number of Electrons    NEL             ....   58
 Basis Dimension        Dim             ....  202

ORBITAL ENERGIES
----------------

  NO   OCC          E(Eh)            E(eV)
   0   2.0000     -14.154055      -385.1514
   1   2.0000     -10.062545      -273.8158
   2   2.0000     -10.061801      -273.7955
   3   2.0000     -10.056614      -273.6544
   4   2.0000     -10.034760      -273.0597
   5   2.0000     -10.034442      -273.0511
   6   2.0000     -10.031442      -272.9694
   7   2.0000     -10.013444      -272.4797
   8   2.0000      -0.914332       -24.8802
   9   2.0000      -0.792630       -21.5686
  10   2.0000      -0.727985       -19.8095
  11   2.0000      -0.713450       -19.4140
  12   2.0000      -0.617464       -16.8020
  13   2.0000      -0.595594       -16.2069
  14   2.0000      -0.551606       -15.0100
  15   2.0000      -0.475744       -12.9457
  16   2.0000      -0.452432       -12.3113
  17   2.0000      -0.428463       -11.6591
  18   2.0000      -0.421064       -11.4577
  19   2.0000      -0.392803       -10.6887
  20   2.0000      -0.379229       -10.3193
  21   2.0000      -0.373648       -10.1675
  22   2.0000      -0.344974        -9.3872
  23   2.0000      -0.322065        -8.7638
  24   2.0000      -0.319423        -8.6919
  25   2.0000      -0.307828        -8.3764
  26   2.0000      -0.254847        -6.9347
  27   2.0000      -0.245315        -6.6754
  28   2.0000      -0.229377        -6.2417
  29   0.0000      -0.049192        -1.3386
  30   0.0000      -0.037178        -1.0117
  31   0.0000       0.088004         2.3947
  32   0.0000       0.104500         2.8436
  33   0.0000       0.110651         3.0110

MULLIKEN ATOMIC CHARGES
-----------------------
   0 C :   -0.521942
   1 C :   -0.311052
   2 C :    0.111486
   3 C :   -0.149254
   4 C :   -0.144367
   5 N :   -0.233244
   6 C :   -0.165080
   7 C :   -0.129238
   8 H :    0.164915
   9 H :    0.166342
  10 H :    0.166200
  11 H :    0.181590
  12 H :    0.181776
  13 H :    0.183141
  14 H :    0.158319
  15 H :    0.157819
  16 H :    0.182588
Sum of atomic charges:    0.0000000

LOEWDIN ATOMIC CHARGES
----------------------
   0 C :   -0.422767
   1 C :   -0.284863
   2 C :   -0.050213
   3 C :   -0.142399
   4 C :    0.068456
   5 N :   -0.674262
   6 C :    0.071757
   7 C :   -0.150212
   8 H :    0.158336
   9 H :    0.157232
  10 H :    0.157226
  11 H :    0.177825
  12 H :    0.177933
  13 H :    0.185105
  14 H :    0.192610
  15 H :    0.192590
  16 H :    0.185646

  Mayer bond orders larger than 0.100000
B(  0-C ,  1-C ) :   0.8424 B(  0-C ,  8-H ) :   0.9669 B(  0-C ,  9-H ) :   0.9784
B(  0-C , 10-H ) :   0.9778 B(  1-C ,  2-C ) :   0.8718 B(  1-C , 11-H ) :   0.9712
B(  1-C , 12-H ) :   0.9702 B(  2-C ,  3-C ) :   1.3216 B(  2-C ,  7-C ) :   1.3892
B(  3-C ,  4-C ) :   1.3956 B(  3-C , 13-H ) :   0.9471 B(  4-C ,  5-N ) :   1.4456
B(  4-C , 14-H ) :   0.9803 B(  5-N ,  6-C ) :   1.4742 B(  6-C ,  7-C ) :   1.3500
B(  6-C , 15-H ) :   0.9848 B(  7-C , 16-H ) :   0.9359

Dispersion correction           -0.005238495
FINAL SINGLE POINT ENERGY      -326.823268545956

DIPOLE MOMENT
-------------

Method             : SCF
Type of density    : Electron Density
Multiplicity       :   1
Irrep              :   0
Energy             :  -326.8258816454798534 Eh
Relativity type    :
Basis              : AO
                                X                 Y                 Z
Electronic contribution:     -7.775765653       0.966453554      -0.119004220
Nuclear contribution   :      9.362997490      -0.734983959       0.064570692
                        -----------------------------------------
Total Dipole Moment    :      1.587231837       0.231469594      -0.054433528
                        -----------------------------------------
Magnitude (a.u.)       :      1.604944263
Magnitude (Debye)      :      4.079444117

Rotational constants in cm-1:             0.169791             0.049642             0.038968
Rotational constants in MHz :          5090.195288          1488.241922          1168.239968

                             ****ORCA TERMINATED NORMALLY****
TOTAL RUN TIME: 0 days 0 hours 0 minutes 26 seconds 774 msec
