                         Program Version 6.0.0  -   RELEASE  -
|  1> ! r2scan-3c def2/J RI DEFGRID2 scfconv6 printgap
|  2> %output
|  3>     printlevel normal
|  4> end
|  5> * xyz 0 1
|  6> C -9.8336e-06 -1.3908500525 0.0001344057
|  7> C 1.1999029203 -0.6968082807 0.0001201109
|  8> C 1.1998859768 0.6968123492 0.0001919646
|  9> C -5.761e-06 1.3908454815 5.92898e-05
| 10> C -1.1998923729 0.6968089032 6.01686e-05
| 11> C -1.1999074009 -0.6968060598 3.73648e-05
| 12> Cl -2.686811042 -1.5665027344 -2.53603e-05
| 13> Cl -2.6867928329 1.5665004261 -6.02881e-05
| 14> Cl 2.6867934031 1.5664934719 -3.24703e-05
| 15> Cl 2.6868201921 -1.566491701 -8.56363e-05
| 16> H -1.69026e-05 -2.4682659422 9.94694e-05
| 17> H -9.5576e-06 2.4682569524 -0.0001217111
| 18> *
| 19>
| 20>                          ****END OF INPUT****

CARTESIAN COORDINATES (ANGSTROEM)
---------------------------------
  C     -0.000010   -1.390850    0.000134
  C      1.199903   -0.696808    0.000120
  C      1.199886    0.696812    0.000192
  C     -0.000006    1.390845    0.000059
  C     -1.199892    0.696809    0.000060
  C     -1.199907   -0.696806    0.000037
  Cl    -2.686811   -1.566503   -0.000025
  Cl    -2.686793    1.566500   -0.000060
  Cl     2.686793    1.566493   -0.000032
  Cl     2.686820   -1.566492   -0.000086
  H     -0.000017   -2.468266    0.000099
  H     -0.000010    2.468257   -0.000122

 Total Charge           Charge          ....    0
 Multiplicity           Mult            ....    1
 Number of Electrons    NEL             ....  106
 Basis Dimension        Dim             ....  232

ORBITAL ENERGIES
----------------

  NO   OCC          E(Eh)            E(eV)
   0   2.0000    -101.242228     -2754.9411
   1   2.0000    -101.242228     -2754.9411
   2   2.0000    -101.242224     -2754.9410
   3   2.0000    -101.242221     -2754.9409
   4   2.0000     -10.133595      -275.7491
   5   2.0000     -10.133590      -275.7490
   6   2.0000     -10.133174      -275.7377
   7   2.0000     -10.133167      -275.7375
   8   2.0000     -10.083808      -274.3944
   9   2.0000     -10.083799      -274.3941
  10   2.0000      -9.398007      -255.7328
  11   2.0000      -9.398007      -255.7328
  12   2.0000      -9.398003      -255.7327
  13   2.0000      -9.397999      -255.7326
  14   2.0000      -7.144532      -194.4126
  15   2.0000      -7.144532      -194.4126
  16   2.0000      -7.144531      -194.4126
  17   2.0000      -7.144531      -194.4126
  18   2.0000      -7.134246      -194.1327
  19   2.0000      -7.134246      -194.1327
  20   2.0000      -7.134245      -194.1327
  21   2.0000      -7.134245      -194.1327
  22   2.0000      -7.133509      -194.1126
  23   2.0000      -7.133509      -194.1126
  24   2.0000      -7.133507      -194.1126
  25   2.0000      -7.133507      -194.1126
  26   2.0000      -0.921178       -25.0665
  27   2.0000      -0.885203       -24.0876
  28   2.0000      -0.851332       -23.1659
  29   2.0000      -0.838356       -22.8128
  30   2.0000      -0.801727       -21.8161
  31   2.0000      -0.736999       -20.0548
  32   2.0000      -0.701939       -19.1007
  33   2.0000      -0.627120       -17.0648
  34   2.0000      -0.584592       -15.9076
  35   2.0000      -0.511193       -13.9103
  36   2.0000      -0.506819       -13.7912
  37   2.0000      -0.468411       -12.7461
  38   2.0000      -0.442230       -12.0337
  39   2.0000      -0.439898       -11.9702
  40   2.0000      -0.430325       -11.7097
  41   2.0000      -0.395925       -10.7737
  42   2.0000      -0.390033       -10.6133
  43   2.0000      -0.380868       -10.3639
  44   2.0000      -0.349964        -9.5230
  45   2.0000      -0.332407        -9.0453
  46   2.0000      -0.323226        -8.7954
  47   2.0000      -0.313176        -8.5220
  48   2.0000      -0.298936        -8.1345
  49   2.0000      -0.298378        -8.1193
  50   2.0000      -0.294072        -8.0021
  51   2.0000      -0.258272        -7.0279
  52   2.0000      -0.237107        -6.4520
  53   0.0000      -0.077551        -2.1103
  54   0.0000      -0.070581        -1.9206
  55   0.0000      -0.048377        -1.3164
  56   0.0000      -0.008646        -0.2353
  57   0.0000       0.013284         0.3615

MULLIKEN ATOMIC CHARGES
-----------------------
   0 C :   -0.293263
   1 C :    0.149136
   2 C :    0.149184
   3 C :   -0.293289
   4 C :    0.149177
   5 C :    0.149140
   6 Cl:   -0.093016
   7 Cl:   -0.093020
   8 Cl:   -0.093015
   9 Cl:   -0.093017
  10 H :    0.180992
  11 H :    0.180990
Sum of atomic charges:   -0.0000000

LOEWDIN ATOMIC CHARGES
----------------------
   0 C :   -0.164368
   1 C :   -0.182146
   2 C :   -0.182148
   3 C :   -0.164372
   4 C :   -0.182148
   5 C :   -0.182149
   6 Cl:    0.167697
   7 Cl:    0.167698
   8 Cl:    0.167697
   9 Cl:    0.167695
  10 H :    0.193272
  11 H :    0.193273

  Mayer bond orders larger than 0.100000
B(  0-C ,  1-C ) :   1.3209 B(  0-C ,  5-C ) :   1.3210 B(  0-C , 10-H ) :   0.9313
B(  1-C ,  2-C ) :   1.2593 B(  1-C ,  9-Cl) :   1.0599 B(  2-C ,  3-C ) :   1.3210
B(  2-C ,  8-Cl) :   1.0599 B(  3-C ,  4-C ) :   1.3210 B(  3-C , 11-H ) :   0.9313
B(  4-C ,  5-C ) :   1.2593 B(  4-C ,  7-Cl) :   1.0599 B(  5-C ,  6-Cl) :   1.0599

Dispersion correction           -0.006371115
FINAL SINGLE POINT ENERGY     -2070.493949201030

DIPOLE MOMENT
-------------

Method             : SCF
Type of density    : Electron Density
Multiplicity       :   1
Irrep              :   0
Energy             : -2070.4951606948748122 Eh
Relativity type    :
Basis              : AO
                                X                 Y                 Z
Electronic contribution:      0.000036252       0.000003619      -0.000293869
Nuclear contribution   :     -0.000037871      -0.000007713       0.000252617
                        -----------------------------------------
Total Dipole Moment    :     -0.000001619      -0.000004094      -0.000041251
                        -----------------------------------------
Magnitude (a.u.)       :      0.000041486
Magnitude (Debye)      :      0.000105448

Rotational constants in cm-1:             0.039197             0.015425             0.011069
Rotational constants in MHz :          1175.100576           462.420325           331.837225

                             ****ORCA TERMINATED NORMALLY****
TOTAL RUN TIME: 0 days 0 hours 0 minutes 26 seconds 665 msec
