                         Program Version 6.0.0  -   RELEASE  -
|  1> ! r2scan-3c def2/J RI DEFGRID2 scfconv6 printgap
|  2> %output
|  3>     printlevel normal
|  4> end
|  5> * xyz 0 1
|  6> C -3.487649188 0.2857543545 -3.83216e-05
|  7> C -2.7566544562 1.4630871487 1.73457e-05
|  8> C -1.3749841175 1.4105748538 0.0001060769
|  9> C -0.7336747294 0.1858163963 8.26577e-05
| 10> C -1.4484767498 -1.0084266984 3.50916e-05
| 11> C -2.8424134407 -0.9333438931 -2.54998e-05
| 12> O -0.8921592016 -2.2372720387 -1.4273e-06
| 13> I 1.4038535427 0.1412901085 -1.84863e-05
| 14> H -4.5652565013 0.3161999684 0.0001058417
| 15> H -3.2537499859 2.4192301352 4.2336e-05
| 16> H -0.7953424244 2.3201540203 0.000114043
| 17> H -3.388221844 -1.8628642193 -2.56283e-05
| 18> H 0.0779602871 -2.1926003102 2.427e-07
| 19> *
| 20>
| 21>                          ****END OF INPUT****

CARTESIAN COORDINATES (ANGSTROEM)
---------------------------------
  C     -3.487649    0.285754   -0.000038
  C     -2.756654    1.463087    0.000017
  C     -1.374984    1.410575    0.000106
  C     -0.733675    0.185816    0.000083
  C     -1.448477   -1.008427    0.000035
  C     -2.842413   -0.933344   -0.000025
  O     -0.892159   -2.237272   -0.000001
  I      1.403854    0.141290   -0.000018
  H     -4.565257    0.316200    0.000106
  H     -3.253750    2.419230    0.000042
  H     -0.795342    2.320154    0.000114
  H     -3.388222   -1.862864   -0.000026
  H      0.077960   -2.192600    0.000000

 Total Charge           Charge          ....    0
 Multiplicity           Mult            ....    1
 Number of Electrons    NEL             ....   74
 Basis Dimension        Dim             ....  199

ORBITAL ENERGIES
----------------

  NO   OCC          E(Eh)            E(eV)
   0   2.0000     -18.995206      -516.8858
   1   2.0000     -10.117223      -275.3036
   2   2.0000     -10.093985      -274.6713
   3   2.0000     -10.054971      -273.6097
   4   2.0000     -10.047915      -273.4177
   5   2.0000     -10.045032      -273.3392
   6   2.0000     -10.042548      -273.2716
   7   2.0000      -6.829747      -185.8469
   8   2.0000      -4.848414      -131.9321
   9   2.0000      -4.832508      -131.4992
  10   2.0000      -4.831517      -131.4723
  11   2.0000      -1.883829       -51.2616
  12   2.0000      -1.879817       -51.1524
  13   2.0000      -1.878865       -51.1265
  14   2.0000      -1.866177       -50.7813
  15   2.0000      -1.866172       -50.7811
  16   2.0000      -1.042865       -28.3778
  17   2.0000      -0.841371       -22.8949
  18   2.0000      -0.746146       -20.3037
  19   2.0000      -0.727043       -19.7839
  20   2.0000      -0.669426       -18.2160
  21   2.0000      -0.595498       -16.2043
  22   2.0000      -0.591317       -16.0906
  23   2.0000      -0.525203       -14.2915
  24   2.0000      -0.478609       -13.0236
  25   2.0000      -0.447742       -12.1837
  26   2.0000      -0.417883       -11.3712
  27   2.0000      -0.401008       -10.9120
  28   2.0000      -0.390106       -10.6153
  29   2.0000      -0.368753       -10.0343
  30   2.0000      -0.342303        -9.3145
  31   2.0000      -0.329091        -8.9550
  32   2.0000      -0.318262        -8.6604
  33   2.0000      -0.282801        -7.6954
  34   2.0000      -0.260882        -7.0990
  35   2.0000      -0.236204        -6.4275
  36   2.0000      -0.216072        -5.8796
  37   0.0000      -0.070178        -1.9096
  38   0.0000      -0.048141        -1.3100
  39   0.0000      -0.030569        -0.8318
  40   0.0000       0.054915         1.4943
  41   0.0000       0.096473         2.6252

MULLIKEN ATOMIC CHARGES
-----------------------
   0 C :   -0.112921
   1 C :   -0.165940
   2 C :   -0.114307
   3 C :   -0.157992
   4 C :    0.410816
   5 C :   -0.272984
   6 O :   -0.403138
   7 I :   -0.114574
   8 H :    0.151241
   9 H :    0.150886
  10 H :    0.157688
  11 H :    0.162543
  12 H :    0.308682
Sum of atomic charges:    0.0000000

LOEWDIN ATOMIC CHARGES
----------------------
   0 C :   -0.148928
   1 C :   -0.180332
   2 C :   -0.159867
   3 C :   -0.235141
   4 C :    0.175239
   5 C :   -0.131334
   6 O :   -0.493255
   7 I :    0.186384
   8 H :    0.170841
   9 H :    0.170626
  10 H :    0.177408
  11 H :    0.184157
  12 H :    0.284202

  Mayer bond orders larger than 0.100000
B(  0-C ,  1-C ) :   1.4021 B(  0-C ,  5-C ) :   1.4067 B(  0-C ,  8-H ) :   0.9453
B(  1-C ,  2-C ) :   1.4186 B(  1-C ,  9-H ) :   0.9446 B(  2-C ,  3-C ) :   1.3460
B(  2-C , 10-H ) :   0.9381 B(  3-C ,  4-C ) :   1.3489 B(  3-C ,  7-I ) :   1.0331
B(  4-C ,  5-C ) :   1.3684 B(  4-C ,  6-O ) :   1.0154 B(  5-C , 11-H ) :   0.9443
B(  6-O , 12-H ) :   0.8404

Dispersion correction           -0.004885420
FINAL SINGLE POINT ENERGY      -604.540112765185

DIPOLE MOMENT
-------------

Method             : SCF
Type of density    : Electron Density
Multiplicity       :   1
Irrep              :   0
Energy             :  -604.5391948177136783 Eh
Relativity type    :
Basis              : AO
                                X                 Y                 Z
Electronic contribution:    112.882236793       9.623179969      -0.001520431
Nuclear contribution   :   -113.053453076      -9.345201850       0.001563399
                        -----------------------------------------
Total Dipole Moment    :     -0.171216283       0.277978119       0.000042968
                        -----------------------------------------
Magnitude (a.u.)       :      0.326476419
Magnitude (Debye)      :      0.829837108

Rotational constants in cm-1:             0.096018             0.024220             0.019342
Rotational constants in MHz :          2878.533413           726.110258           579.844454

                             ****ORCA TERMINATED NORMALLY****
TOTAL RUN TIME: 0 days 0 hours 0 minutes 17 seconds 247 msec
