                         Program Version 6.0.0  -   RELEASE  -
|  1> ! r2scan-3c def2/J RI DEFGRID2 scfconv6 printgap
|  2> %output
|  3>     printlevel normal
|  4> end
|  5> %cpcm
|  6>     smd true
|  7>     smdsolvent "water"
|  8> end
|  9> * xyz 0 1
| 10> C -3.487649188 0.2857543545 -3.83216e-05
| 11> C -2.7566544562 1.4630871487 1.73457e-05
| 12> C -1.3749841175 1.4105748538 0.0001060769
| 13> C -0.7336747294 0.1858163963 8.26577e-05
| 14> C -1.4484767498 -1.0084266984 3.50916e-05
| 15> C -2.8424134407 -0.9333438931 -2.54998e-05
| 16> O -0.8921592016 -2.2372720387 -1.4273e-06
| 17> I 1.4038535427 0.1412901085 -1.84863e-05
| 18> H -4.5652565013 0.3161999684 0.0001058417
| 19> H -3.2537499859 2.4192301352 4.2336e-05
| 20> H -0.7953424244 2.3201540203 0.000114043
| 21> H -3.388221844 -1.8628642193 -2.56283e-05
| 22> H 0.0779602871 -2.1926003102 2.427e-07
| 23> *
| 24>
| 25>                          ****END OF INPUT****

CARTESIAN COORDINATES (ANGSTROEM)
---------------------------------
  C     -3.487649    0.285754   -0.000038
  C     -2.756654    1.463087    0.000017
  C     -1.374984    1.410575    0.000106
  C     -0.733675    0.185816    0.000083
  C     -1.448477   -1.008427    0.000035
  C     -2.842413   -0.933344   -0.000025
  O     -0.892159   -2.237272   -0.000001
  I      1.403854    0.141290   -0.000018
  H     -4.565257    0.316200    0.000106
  H     -3.253750    2.419230    0.000042
  H     -0.795342    2.320154    0.000114
  H     -3.388222   -1.862864   -0.000026
  H      0.077960   -2.192600    0.000000

 Total Charge           Charge          ....    0
 Multiplicity           Mult            ....    1
 Number of Electrons    NEL             ....   74
 Basis Dimension        Dim             ....  199

ORBITAL ENERGIES
----------------

  NO   OCC          E(Eh)            E(eV)
   0   2.0000     -18.990071      -516.7461
   1   2.0000     -10.111072      -275.1362
   2   2.0000     -10.085257      -274.4338
   3   2.0000     -10.045723      -273.3580
   4   2.0000     -10.039537      -273.1897
   5   2.0000     -10.037976      -273.1472
   6   2.0000     -10.033873      -273.0356
   7   2.0000      -6.817661      -185.5180
   8   2.0000      -4.836470      -131.6070
   9   2.0000      -4.819940      -131.1572
  10   2.0000      -4.819767      -131.1525
  11   2.0000      -1.871742       -50.9327
  12   2.0000      -1.867403       -50.8146
  13   2.0000      -1.867127       -50.8071
  14   2.0000      -1.854044       -50.4511
  15   2.0000      -1.854024       -50.4506
  16   2.0000      -1.037300       -28.2264
  17   2.0000      -0.834838       -22.7171
  18   2.0000      -0.737825       -20.0772
  19   2.0000      -0.719805       -19.5869
  20   2.0000      -0.658340       -17.9143
  21   2.0000      -0.587076       -15.9751
  22   2.0000      -0.582881       -15.8610
  23   2.0000      -0.515792       -14.0354
  24   2.0000      -0.469391       -12.7728
  25   2.0000      -0.439737       -11.9659
  26   2.0000      -0.407473       -11.0879
  27   2.0000      -0.397689       -10.8217
  28   2.0000      -0.379300       -10.3213
  29   2.0000      -0.363368        -9.8878
  30   2.0000      -0.333357        -9.0711
  31   2.0000      -0.325588        -8.8597
  32   2.0000      -0.307579        -8.3696
  33   2.0000      -0.275866        -7.5067
  34   2.0000      -0.247077        -6.7233
  35   2.0000      -0.230238        -6.2651
  36   2.0000      -0.211076        -5.7437
  37   0.0000      -0.055415        -1.5079
  38   0.0000      -0.042550        -1.1578
  39   0.0000      -0.025756        -0.7009
  40   0.0000       0.073220         1.9924
  41   0.0000       0.109706         2.9853

MULLIKEN ATOMIC CHARGES
-----------------------
   0 C :   -0.154485
   1 C :   -0.206456
   2 C :   -0.140589
   3 C :   -0.167335
   4 C :    0.404219
   5 C :   -0.303832
   6 O :   -0.445248
   7 I :   -0.097275
   8 H :    0.185548
   9 H :    0.184205
  10 H :    0.191201
  11 H :    0.190826
  12 H :    0.359222
Sum of atomic charges:    0.0000000

LOEWDIN ATOMIC CHARGES
----------------------
   0 C :   -0.158365
   1 C :   -0.190268
   2 C :   -0.166405
   3 C :   -0.242138
   4 C :    0.165076
   5 C :   -0.144950
   6 O :   -0.509763
   7 I :    0.203335
   8 H :    0.181785
   9 H :    0.181039
  10 H :    0.188465
  11 H :    0.192169
  12 H :    0.300020

  Mayer bond orders larger than 0.100000
B(  0-C ,  1-C ) :   1.3694 B(  0-C ,  5-C ) :   1.3852 B(  0-C ,  8-H ) :   0.9510
B(  1-C ,  2-C ) :   1.3892 B(  1-C ,  9-H ) :   0.9532 B(  2-C ,  3-C ) :   1.3171
B(  2-C , 10-H ) :   0.9466 B(  3-C ,  4-C ) :   1.3163 B(  3-C ,  7-I ) :   1.0499
B(  4-C ,  5-C ) :   1.3214 B(  4-C ,  6-O ) :   1.0113 B(  5-C , 11-H ) :   0.9549
B(  6-O , 12-H ) :   0.8278

Dispersion correction           -0.004885420
FINAL SINGLE POINT ENERGY      -604.547645509715

DIPOLE MOMENT
-------------

Method             : SCF
Type of density    : Electron Density
Multiplicity       :   1
Irrep              :   0
Energy             :  -604.5467275622439729 Eh
Relativity type    :
Basis              : AO
                                X                 Y                 Z
Electronic contribution:    113.080197278       9.692798304      -0.001506687
Nuclear contribution   :   -113.053453076      -9.345201850       0.001563399
                        -----------------------------------------
Total Dipole Moment    :      0.026744202       0.347596455       0.000056712
                        -----------------------------------------
Magnitude (a.u.)       :      0.348623796
Magnitude (Debye)      :      0.886131266

Rotational constants in cm-1:             0.096018             0.024220             0.019342
Rotational constants in MHz :          2878.533413           726.110258           579.844454

                             ****ORCA TERMINATED NORMALLY****
TOTAL RUN TIME: 0 days 0 hours 0 minutes 20 seconds 465 msec
