                         Program Version 6.0.0  -   RELEASE  -
|  1> ! pbe def2-sv(p) def2/J RI DEFGRID1 loosescf d4 GCP(DFT/SV(P)) printgap
|  2> %output
|  3>     printlevel normal
|  4> end
|  5> * xyz 0 1
|  6> C -3.0404406648 -0.9833077712 1.7610878934
|  7> N -2.1624063655 -0.2708708791 0.8594065275
|  8> C -2.3245490432 -0.2820514825 -0.4688254517
|  9> O -3.2380110864 -0.8398654486 -1.0510430762
| 10> O -1.4175436874 0.4041478196 -1.2026102293
| 11> C -0.2313799975 0.8766593407 -0.6293580304
| 12> C -0.0532244214 2.2300249464 -0.510374367
| 13> C 1.1499711481 2.7377684141 0.0022972526
| 14> C 2.1480832854 1.8897398019 0.3916055702
| 15> C 1.9968713853 0.4918378044 0.2713028425
| 16> C 0.7883872794 -0.0382727408 -0.2559183976
| 17> C 0.6525291961 -1.435445215 -0.3967785348
| 18> C 1.6651485699 -2.2732964977 -0.0199086523
| 19> C 2.8543522007 -1.7541451933 0.5149025387
| 20> C 3.0172451984 -0.4041477344 0.6544037216
| 21> H -3.4872090083 -0.2901020514 2.4720239572
| 22> H -2.4829568831 -1.7510568507 2.2967133016
| 23> H -3.8229916553 -1.449266153 1.1659237122
| 24> H -1.3797200181 0.2239807056 1.2617304344
| 25> H -0.8443383125 2.8943865934 -0.8200687474
| 26> H 1.2709901113 3.8057490957 0.0870406571
| 27> H 3.0725062807 2.2764536324 0.7916563891
| 28> H -0.2594612573 -1.8340647951 -0.8192389842
| 29> H 1.5536768869 -3.3403757663 -0.1353071837
| 30> H 3.6406177693 -2.4319502157 0.8091431224
| 31> H 3.9329308472 0.0004770825 1.057816483
| 32> *
| 33>
| 34>                          ****END OF INPUT****

CARTESIAN COORDINATES (ANGSTROEM)
---------------------------------
  C     -3.040441   -0.983308    1.761088
  N     -2.162406   -0.270871    0.859407
  C     -2.324549   -0.282051   -0.468825
  O     -3.238011   -0.839865   -1.051043
  O     -1.417544    0.404148   -1.202610
  C     -0.231380    0.876659   -0.629358
  C     -0.053224    2.230025   -0.510374
  C      1.149971    2.737768    0.002297
  C      2.148083    1.889740    0.391606
  C      1.996871    0.491838    0.271303
  C      0.788387   -0.038273   -0.255918
  C      0.652529   -1.435445   -0.396779
  C      1.665149   -2.273296   -0.019909
  C      2.854352   -1.754145    0.514903
  C      3.017245   -0.404148    0.654404
  H     -3.487209   -0.290102    2.472024
  H     -2.482957   -1.751057    2.296713
  H     -3.822992   -1.449266    1.165924
  H     -1.379720    0.223981    1.261730
  H     -0.844338    2.894387   -0.820069
  H      1.270990    3.805749    0.087041
  H      3.072506    2.276454    0.791656
  H     -0.259461   -1.834065   -0.819239
  H      1.553677   -3.340376   -0.135307
  H      3.640618   -2.431950    0.809143
  H      3.932931    0.000477    1.057816

 Total Charge           Charge          ....    0
 Multiplicity           Mult            ....    1
 Number of Electrons    NEL             ....  106
 Basis Dimension        Dim             ....  232

ORBITAL ENERGIES
----------------

  NO   OCC          E(Eh)            E(eV)
   0   2.0000     -18.803694      -511.6745
   1   2.0000     -18.709464      -509.1104
   2   2.0000     -14.022871      -381.5817
   3   2.0000     -10.021922      -272.7104
   4   2.0000      -9.967639      -271.2333
   5   2.0000      -9.922119      -269.9946
   6   2.0000      -9.920256      -269.9439
   7   2.0000      -9.918792      -269.9040
   8   2.0000      -9.909393      -269.6483
   9   2.0000      -9.907914      -269.6080
  10   2.0000      -9.906712      -269.5753
  11   2.0000      -9.906608      -269.5725
  12   2.0000      -9.906379      -269.5663
  13   2.0000      -9.906063      -269.5577
  14   2.0000      -9.905550      -269.5437
  15   2.0000      -1.010838       -27.5063
  16   2.0000      -0.911039       -24.7906
  17   2.0000      -0.841684       -22.9034
  18   2.0000      -0.808381       -21.9972
  19   2.0000      -0.759265       -20.6606
  20   2.0000      -0.709789       -19.3144
  21   2.0000      -0.683489       -18.5987
  22   2.0000      -0.665903       -18.1202
  23   2.0000      -0.644102       -17.5269
  24   2.0000      -0.587861       -15.9965
  25   2.0000      -0.570340       -15.5197
  26   2.0000      -0.565710       -15.3938
  27   2.0000      -0.537237       -14.6190
  28   2.0000      -0.516940       -14.0667
  29   2.0000      -0.476328       -12.9616
  30   2.0000      -0.463088       -12.6013
  31   2.0000      -0.458278       -12.4704
  32   2.0000      -0.438586       -11.9345
  33   2.0000      -0.426047       -11.5933
  34   2.0000      -0.410266       -11.1639
  35   2.0000      -0.395027       -10.7492
  36   2.0000      -0.392286       -10.6746
  37   2.0000      -0.382691       -10.4135
  38   2.0000      -0.372405       -10.1337
  39   2.0000      -0.366398        -9.9702
  40   2.0000      -0.361321        -9.8320
  41   2.0000      -0.354834        -9.6555
  42   2.0000      -0.350069        -9.5259
  43   2.0000      -0.336009        -9.1433
  44   2.0000      -0.316356        -8.6085
  45   2.0000      -0.311253        -8.4696
  46   2.0000      -0.304942        -8.2979
  47   2.0000      -0.273169        -7.4333
  48   2.0000      -0.253769        -6.9054
  49   2.0000      -0.241494        -6.5714
  50   2.0000      -0.219050        -5.9607
  51   2.0000      -0.215523        -5.8647
  52   2.0000      -0.206164        -5.6100
  53   0.0000      -0.083485        -2.2718
  54   0.0000      -0.055126        -1.5001
  55   0.0000      -0.017684        -0.4812
  56   0.0000       0.026621         0.7244
  57   0.0000       0.034874         0.9490

MULLIKEN ATOMIC CHARGES
-----------------------
   0 C :   -0.175965
   1 N :   -0.311646
   2 C :    0.179163
   3 O :   -0.215508
   4 O :   -0.207270
   5 C :    0.085869
   6 C :   -0.111836
   7 C :   -0.038563
   8 C :   -0.109506
   9 C :    0.138125
  10 C :    0.091591
  11 C :   -0.141598
  12 C :   -0.039582
  13 C :   -0.032983
  14 C :   -0.129263
  15 H :    0.115096
  16 H :    0.114542
  17 H :    0.141456
  18 H :    0.248281
  19 H :    0.052088
  20 H :    0.060770
  21 H :    0.042224
  22 H :    0.082547
  23 H :    0.059774
  24 H :    0.058328
  25 H :    0.043868
Sum of atomic charges:    0.0000000

LOEWDIN ATOMIC CHARGES
----------------------
   0 C :   -0.255488
   1 N :   -0.181832
   2 C :    0.021747
   3 O :   -0.202876
   4 O :   -0.040960
   5 C :    0.027335
   6 C :   -0.135549
   7 C :   -0.119247
   8 C :   -0.114891
   9 C :   -0.023555
  10 C :   -0.046250
  11 C :   -0.112495
  12 C :   -0.117320
  13 C :   -0.119504
  14 C :   -0.108280
  15 H :    0.118681
  16 H :    0.117939
  17 H :    0.139554
  18 H :    0.239280
  19 H :    0.136946
  20 H :    0.129306
  21 H :    0.126918
  22 H :    0.137961
  23 H :    0.128653
  24 H :    0.127293
  25 H :    0.126636

  Mayer bond orders larger than 0.100000
B(  0-C ,  1-N ) :   1.0211 B(  0-C , 15-H ) :   0.9594 B(  0-C , 16-H ) :   0.9578
B(  0-C , 17-H ) :   0.9353 B(  1-N ,  2-C ) :   1.2129 B(  1-N , 18-H ) :   0.8365
B(  2-C ,  3-O ) :   2.0729 B(  2-C ,  4-O ) :   1.0498 B(  4-O ,  5-C ) :   1.0525
B(  5-C ,  6-C ) :   1.4788 B(  5-C , 10-C ) :   1.2052 B(  6-C ,  7-C ) :   1.2120
B(  6-C , 19-H ) :   0.9659 B(  7-C ,  8-C ) :   1.4404 B(  7-C , 20-H ) :   0.9626
B(  8-C ,  9-C ) :   1.2359 B(  8-C , 21-H ) :   0.9678 B(  9-C , 10-C ) :   1.2498
B(  9-C , 14-C ) :   1.2407 B( 10-C , 11-C ) :   1.2610 B( 11-C , 12-C ) :   1.4494
B( 11-C , 22-H ) :   0.9485 B( 12-C , 13-C ) :   1.2541 B( 12-C , 23-H ) :   0.9627
B( 13-C , 14-C ) :   1.4600 B( 13-C , 24-H ) :   0.9627 B( 14-C , 25-H ) :   0.9658

Dispersion correction           -0.033603623
FINAL SINGLE POINT ENERGY      -667.730843581248

DIPOLE MOMENT
-------------

Method             : SCF
Type of density    : Electron Density
Multiplicity       :   1
Irrep              :   0
Energy             :  -667.8060653310336647 Eh
Relativity type    :
Basis              : AO
                                X                 Y                 Z
Electronic contribution:      0.149652515       2.145844618      -6.121431926
Nuclear contribution   :      1.039396035      -1.786496088       7.633793973
                        -----------------------------------------
Total Dipole Moment    :      1.189048550       0.359348531       1.512362047
                        -----------------------------------------
Magnitude (a.u.)       :      1.957091409
Magnitude (Debye)      :      4.974531028

Rotational constants in cm-1:             0.031547             0.016476             0.012827
Rotational constants in MHz :           945.740606           493.933819           384.536767

                             ****ORCA TERMINATED NORMALLY****
TOTAL RUN TIME: 0 days 0 hours 0 minutes 13 seconds 742 msec
