                         Program Version 6.0.0  -   RELEASE  -
|  1> ! pbe def2-sv(p) def2/J RI DEFGRID1 loosescf d4 GCP(DFT/SV(P)) printgap
|  2> %output
|  3>     printlevel normal
|  4> end
|  5> * xyz 0 1
|  6> C -1.7724215493 -0.6002461586 -1.109651178
|  7> C -1.2416426878 -0.5028035774 0.3389699453
|  8> H -2.0561868674 -0.7943963213 1.0162115545
|  9> C -0.8048840524 0.9274769657 0.6814209717
| 10> H -1.6019534894 1.6105468807 0.3576538166
| 11> C 0.4701171258 1.3321690302 -0.0800810875
| 12> H 1.0593262115 1.9645894399 0.5999002309
| 13> C 1.3378854079 0.1137006145 -0.4288807894
| 14> H 1.0395158627 -0.2818068654 -1.4123367193
| 15> C 1.112110935 -0.9989152185 0.599799974
| 16> H 1.3646303848 -0.6124773262 1.6067374139
| 17> O -0.2186689513 -1.4600340919 0.5926262266
| 18> O 1.9367749177 -2.0606796929 0.2587473281
| 19> O 2.6811329733 0.5212356994 -0.4508962294
| 20> O 0.094086261 2.0477185061 -1.2293604972
| 21> O -0.5346522553 1.0755708684 2.0564987829
| 22> O -3.1444678212 -0.3096706622 -1.1863021364
| 23> H -1.554055784 -1.605663739 -1.4880960047
| 24> H -1.2811394544 0.1385031916 -1.744980953
| 25> H 1.6978638771 -2.8386430085 0.7850878733
| 26> H 3.242664941 -0.2642585244 -0.5390526619
| 27> H 0.8869891762 2.4157250637 -1.6459695833
| 28> H -1.3571872058 1.0061519884 2.5632062555
| 29> H -3.6538702028 -1.0219562808 -0.7729739773
| 30> *
| 31>
| 32>                          ****END OF INPUT****

CARTESIAN COORDINATES (ANGSTROEM)
---------------------------------
  C     -1.772422   -0.600246   -1.109651
  C     -1.241643   -0.502804    0.338970
  H     -2.056187   -0.794396    1.016212
  C     -0.804884    0.927477    0.681421
  H     -1.601953    1.610547    0.357654
  C      0.470117    1.332169   -0.080081
  H      1.059326    1.964589    0.599900
  C      1.337885    0.113701   -0.428881
  H      1.039516   -0.281807   -1.412337
  C      1.112111   -0.998915    0.599800
  H      1.364630   -0.612477    1.606737
  O     -0.218669   -1.460034    0.592626
  O      1.936775   -2.060680    0.258747
  O      2.681133    0.521236   -0.450896
  O      0.094086    2.047719   -1.229360
  O     -0.534652    1.075571    2.056499
  O     -3.144468   -0.309671   -1.186302
  H     -1.554056   -1.605664   -1.488096
  H     -1.281139    0.138503   -1.744981
  H      1.697864   -2.838643    0.785088
  H      3.242665   -0.264259   -0.539053
  H      0.886989    2.415725   -1.645970
  H     -1.357187    1.006152    2.563206
  H     -3.653870   -1.021956   -0.772974

 Total Charge           Charge          ....    0
 Multiplicity           Mult            ....    1
 Number of Electrons    NEL             ....   96
 Basis Dimension        Dim             ....  192

ORBITAL ENERGIES
----------------

  NO   OCC          E(Eh)            E(eV)
   0   2.0000     -18.762292      -510.5479
   1   2.0000     -18.762083      -510.5422
   2   2.0000     -18.757334      -510.4130
   3   2.0000     -18.754108      -510.3252
   4   2.0000     -18.749550      -510.2012
   5   2.0000     -18.748333      -510.1681
   6   2.0000      -9.978384      -271.5256
   7   2.0000      -9.945304      -270.6255
   8   2.0000      -9.942880      -270.5595
   9   2.0000      -9.941575      -270.5240
  10   2.0000      -9.935009      -270.3453
  11   2.0000      -9.924743      -270.0660
  12   2.0000      -0.978734       -26.6327
  13   2.0000      -0.940894       -25.6030
  14   2.0000      -0.934002       -25.4155
  15   2.0000      -0.924192       -25.1486
  16   2.0000      -0.919184       -25.0123
  17   2.0000      -0.906909       -24.6783
  18   2.0000      -0.705008       -19.1842
  19   2.0000      -0.684539       -18.6273
  20   2.0000      -0.616137       -16.7659
  21   2.0000      -0.581522       -15.8240
  22   2.0000      -0.568235       -15.4625
  23   2.0000      -0.514121       -13.9899
  24   2.0000      -0.503723       -13.7070
  25   2.0000      -0.490960       -13.3597
  26   2.0000      -0.477218       -12.9858
  27   2.0000      -0.456892       -12.4327
  28   2.0000      -0.438311       -11.9270
  29   2.0000      -0.431134       -11.7318
  30   2.0000      -0.415818       -11.3150
  31   2.0000      -0.394541       -10.7360
  32   2.0000      -0.382987       -10.4216
  33   2.0000      -0.370061       -10.0699
  34   2.0000      -0.358646        -9.7593
  35   2.0000      -0.350421        -9.5355
  36   2.0000      -0.327738        -8.9182
  37   2.0000      -0.320532        -8.7221
  38   2.0000      -0.301204        -8.1962
  39   2.0000      -0.282528        -7.6880
  40   2.0000      -0.281080        -7.6486
  41   2.0000      -0.272439        -7.4135
  42   2.0000      -0.245690        -6.6856
  43   2.0000      -0.236072        -6.4238
  44   2.0000      -0.230579        -6.2744
  45   2.0000      -0.224431        -6.1071
  46   2.0000      -0.212296        -5.7769
  47   2.0000      -0.196207        -5.3391
  48   0.0000       0.016843         0.4583
  49   0.0000       0.025254         0.6872
  50   0.0000       0.028326         0.7708
  51   0.0000       0.042699         1.1619
  52   0.0000       0.056165         1.5283

MULLIKEN ATOMIC CHARGES
-----------------------
   0 C :    0.018246
   1 C :    0.040855
   2 H :    0.033485
   3 C :    0.012481
   4 H :    0.087790
   5 C :    0.097916
   6 H :    0.079806
   7 C :    0.007148
   8 H :    0.053863
   9 C :    0.202512
  10 H :    0.050406
  11 O :   -0.323842
  12 O :   -0.397438
  13 O :   -0.425394
  14 O :   -0.409134
  15 O :   -0.413777
  16 O :   -0.435394
  17 H :    0.080124
  18 H :    0.113505
  19 H :    0.309015
  20 H :    0.308416
  21 H :    0.310328
  22 H :    0.304066
  23 H :    0.295016
Sum of atomic charges:   -0.0000000

LOEWDIN ATOMIC CHARGES
----------------------
   0 C :   -0.145326
   1 C :   -0.072065
   2 H :    0.098795
   3 C :   -0.067873
   4 H :    0.118392
   5 C :   -0.056838
   6 H :    0.119279
   7 C :   -0.093039
   8 H :    0.106510
   9 C :   -0.007231
  10 H :    0.087777
  11 O :   -0.160514
  12 O :   -0.309528
  13 O :   -0.321295
  14 O :   -0.311900
  15 O :   -0.315413
  16 O :   -0.332023
  17 H :    0.099827
  18 H :    0.120553
  19 H :    0.291611
  20 H :    0.287381
  21 H :    0.293085
  22 H :    0.288386
  23 H :    0.281448

  Mayer bond orders larger than 0.100000
B(  0-C ,  1-C ) :   0.9884 B(  0-C , 16-O ) :   1.0520 B(  0-C , 17-H ) :   0.9168
B(  0-C , 18-H ) :   0.9036 B(  1-C ,  2-H ) :   0.8859 B(  1-C ,  3-C ) :   1.0324
B(  1-C , 11-O ) :   1.0047 B(  3-C ,  4-H ) :   0.8839 B(  3-C ,  5-C ) :   1.0195
B(  3-C , 15-O ) :   1.0244 B(  5-C ,  6-H ) :   0.8621 B(  5-C ,  7-C ) :   1.0328
B(  5-C , 14-O ) :   1.0618 B(  7-C ,  8-H ) :   0.8442 B(  7-C ,  9-C ) :   1.0594
B(  7-C , 13-O ) :   1.0726 B(  9-C , 10-H ) :   0.8832 B(  9-C , 11-O ) :   1.0226
B(  9-C , 12-O ) :   1.1458 B( 12-O , 19-H ) :   0.8395 B( 13-O , 20-H ) :   0.8347
B( 14-O , 21-H ) :   0.8438 B( 15-O , 22-H ) :   0.8476 B( 16-O , 23-H ) :   0.8526

Dispersion correction           -0.024626673
FINAL SINGLE POINT ENERGY      -685.685955861467

DIPOLE MOMENT
-------------

Method             : SCF
Type of density    : Electron Density
Multiplicity       :   1
Irrep              :   0
Energy             :  -685.8154533145217329 Eh
Relativity type    :
Basis              : AO
                                X                 Y                 Z
Electronic contribution:      1.841162941      -0.439027046       1.155842644
Nuclear contribution   :     -2.064486097      -0.268898672      -0.632289490
                        -----------------------------------------
Total Dipole Moment    :     -0.223323156      -0.707925718       0.523553155
                        -----------------------------------------
Magnitude (a.u.)       :      0.908372149
Magnitude (Debye)      :      2.308898511

Rotational constants in cm-1:             0.038407             0.025540             0.022013
Rotational constants in MHz :          1151.409083           765.655649           659.940127

                             ****ORCA TERMINATED NORMALLY****
TOTAL RUN TIME: 0 days 0 hours 0 minutes 11 seconds 773 msec
