                         Program Version 6.0.0  -   RELEASE  -
|  1> ! wb97x-v def2-tzvp def2/J RIJCOSX DEFGRID2 scfconv7 GCP(DFT/TZ) printgap
|  2> %output
|  3>     printlevel normal
|  4> end
|  5> * xyz 0 1
|  6> C -2.5710620255228704 0.49718443315190713 -0.3922987369459924
|  7> C -1.4002402790319262 -0.2654709308543956 0.17168480625876825
|  8> O -0.18564159485093007 0.43216836681208565 -0.2572928170044874
|  9> C 0.9828616458166806 -0.10794135295590593 0.13089070718016588
| 10> O 1.0578137639243534 -1.131071668102828 0.7942821584083118
| 11> C 2.161409938162333 0.6922358696199455 -0.3221783794583713
| 12> H -2.5361881630059973 0.518743405175771 -1.4852976960578343
| 13> H -3.498581981808666 0.003161186638520288 -0.08827328826603167
| 14> H -2.5899935908213405 1.5241030527587391 -0.01640151654738907
| 15> H -1.3583656970340408 -1.2915211018929822 -0.20517605683578335
| 16> H -1.4129574154219455 -0.2889110510636024 1.2654805308706558
| 17> H 2.571462611076392 1.2134450620630917 0.5498301717042686
| 18> H 1.893764498746839 1.4262492430502716 -1.082116351092636
| 19> H 2.932578156241907 0.016019950219895288 -0.6974998519656624
| 20> *
| 21>
| 22>                          ****END OF INPUT****

CARTESIAN COORDINATES (ANGSTROEM)
---------------------------------
  C     -2.571062    0.497184   -0.392299
  C     -1.400240   -0.265471    0.171685
  O     -0.185642    0.432168   -0.257293
  C      0.982862   -0.107941    0.130891
  O      1.057814   -1.131072    0.794282
  C      2.161410    0.692236   -0.322178
  H     -2.536188    0.518743   -1.485298
  H     -3.498582    0.003161   -0.088273
  H     -2.589994    1.524103   -0.016402
  H     -1.358366   -1.291521   -0.205176
  H     -1.412957   -0.288911    1.265481
  H      2.571463    1.213445    0.549830
  H      1.893764    1.426249   -1.082116
  H      2.932578    0.016020   -0.697500

 Total Charge           Charge          ....    0
 Multiplicity           Mult            ....    1
 Number of Electrons    NEL             ....   48
 Basis Dimension        Dim             ....  234

ORBITAL ENERGIES
----------------

  NO   OCC          E(Eh)            E(eV)
   0   2.0000     -21.716669      -590.9406
   1   2.0000     -21.651161      -589.1581
   2   2.0000     -12.176698      -331.3448
   3   2.0000     -12.107608      -329.4648
   4   2.0000     -12.056574      -328.0760
   5   2.0000     -12.048299      -327.8509
   6   2.0000      -1.754420       -47.7402
   7   2.0000      -1.686783       -45.8997
   8   2.0000      -1.320881       -35.9430
   9   2.0000      -1.253748       -34.1162
  10   2.0000      -1.168718       -31.8024
  11   2.0000      -1.107417       -30.1343
  12   2.0000      -1.056503       -28.7489
  13   2.0000      -0.995376       -27.0856
  14   2.0000      -0.993324       -27.0297
  15   2.0000      -0.933739       -25.4083
  16   2.0000      -0.904496       -24.6126
  17   2.0000      -0.864501       -23.5243
  18   2.0000      -0.861959       -23.4551
  19   2.0000      -0.841729       -22.9046
  20   2.0000      -0.838683       -22.8217
  21   2.0000      -0.835132       -22.7251
  22   2.0000      -0.820505       -22.3271
  23   2.0000      -0.784058       -21.3353
  24   0.0000      -0.301017        -8.1911
  25   0.0000      -0.186316        -5.0699
  26   0.0000      -0.101803        -2.7702
  27   0.0000      -0.013223        -0.3598
  28   0.0000      -0.006525        -0.1776

MULLIKEN ATOMIC CHARGES
-----------------------
   0 C :   -0.306962
   1 C :   -0.043465
   2 O :   -0.246596
   3 C :    0.319084
   4 O :   -0.366790
   5 C :   -0.329088
   6 H :    0.115127
   7 H :    0.113547
   8 H :    0.115065
   9 H :    0.114927
  10 H :    0.112687
  11 H :    0.133904
  12 H :    0.129710
  13 H :    0.138848
Sum of atomic charges:    0.0000000

LOEWDIN ATOMIC CHARGES
----------------------
   0 C :   -0.305068
   1 C :   -0.282378
   2 O :    0.237289
   3 C :   -0.493800
   4 O :    0.072995
   5 C :   -0.255724
   6 H :    0.121124
   7 H :    0.125033
   8 H :    0.121030
   9 H :    0.126951
  10 H :    0.126473
  11 H :    0.140742
  12 H :    0.128069
  13 H :    0.137263

  Mayer bond orders larger than 0.100000
B(  0-C ,  1-C ) :   0.9973 B(  0-C ,  6-H ) :   0.9740 B(  0-C ,  7-H ) :   0.9742
B(  0-C ,  8-H ) :   0.9740 B(  1-C ,  2-O ) :   0.8847 B(  1-C ,  9-H ) :   0.9737
B(  1-C , 10-H ) :   0.9732 B(  2-O ,  3-C ) :   1.2033 B(  3-C ,  4-O ) :   2.0238
B(  3-C ,  5-C ) :   0.9689 B(  5-C , 11-H ) :   0.9520 B(  5-C , 12-H ) :   0.9749
B(  5-C , 13-H ) :   0.9705

FINAL SINGLE POINT ENERGY      -307.724961544941

DIPOLE MOMENT
-------------

Method             : SCF
Type of density    : Electron Density
Multiplicity       :   1
Irrep              :   0
Energy             :  -307.7343954832405757 Eh
Relativity type    :
Basis              : AO
                                X                 Y                 Z
Electronic contribution:      3.352511260      -2.129744645       1.406749887
Nuclear contribution   :     -3.737352172       2.766988567      -1.802697794
                        -----------------------------------------
Total Dipole Moment    :     -0.384840911       0.637243922      -0.395947908
                        -----------------------------------------
Magnitude (a.u.)       :      0.843182714
Magnitude (Debye)      :      2.143200136

Rotational constants in cm-1:             0.283416             0.068950             0.057257
Rotational constants in MHz :          8496.585682          2067.076783          1716.506820

                             ****ORCA TERMINATED NORMALLY****
TOTAL RUN TIME: 0 days 0 hours 1 minutes 18 seconds 674 msec
