                         Program Version 6.0.0  -   RELEASE  -
|  1> ! wb97x-v def2-tzvp def2/J RIJCOSX DEFGRID2 scfconv7 GCP(DFT/TZ) printgap
|  2> %output
|  3>     printlevel normal
|  4> end
|  5> %cpcm
|  6>     smd true
|  7>     smdsolvent "water"
|  8> end
|  9> * xyz 0 1
| 10> C -2.5710620255228704 0.49718443315190713 -0.3922987369459924
| 11> C -1.4002402790319262 -0.2654709308543956 0.17168480625876825
| 12> O -0.18564159485093007 0.43216836681208565 -0.2572928170044874
| 13> C 0.9828616458166806 -0.10794135295590593 0.13089070718016588
| 14> O 1.0578137639243534 -1.131071668102828 0.7942821584083118
| 15> C 2.161409938162333 0.6922358696199455 -0.3221783794583713
| 16> H -2.5361881630059973 0.518743405175771 -1.4852976960578343
| 17> H -3.498581981808666 0.003161186638520288 -0.08827328826603167
| 18> H -2.5899935908213405 1.5241030527587391 -0.01640151654738907
| 19> H -1.3583656970340408 -1.2915211018929822 -0.20517605683578335
| 20> H -1.4129574154219455 -0.2889110510636024 1.2654805308706558
| 21> H 2.571462611076392 1.2134450620630917 0.5498301717042686
| 22> H 1.893764498746839 1.4262492430502716 -1.082116351092636
| 23> H 2.932578156241907 0.016019950219895288 -0.6974998519656624
| 24> *
| 25>
| 26>                          ****END OF INPUT****

CARTESIAN COORDINATES (ANGSTROEM)
---------------------------------
  C     -2.571062    0.497184   -0.392299
  C     -1.400240   -0.265471    0.171685
  O     -0.185642    0.432168   -0.257293
  C      0.982862   -0.107941    0.130891
  O      1.057814   -1.131072    0.794282
  C      2.161410    0.692236   -0.322178
  H     -2.536188    0.518743   -1.485298
  H     -3.498582    0.003161   -0.088273
  H     -2.589994    1.524103   -0.016402
  H     -1.358366   -1.291521   -0.205176
  H     -1.412957   -0.288911    1.265481
  H      2.571463    1.213445    0.549830
  H      1.893764    1.426249   -1.082116
  H      2.932578    0.016020   -0.697500

 Total Charge           Charge          ....    0
 Multiplicity           Mult            ....    1
 Number of Electrons    NEL             ....   48
 Basis Dimension        Dim             ....  234

ORBITAL ENERGIES
----------------

  NO   OCC          E(Eh)            E(eV)
   0   2.0000     -21.721589      -591.0745
   1   2.0000     -21.666048      -589.5631
   2   2.0000     -12.187188      -331.6302
   3   2.0000     -12.098942      -329.2290
   4   2.0000     -12.046588      -327.8043
   5   2.0000     -12.034134      -327.4654
   6   2.0000      -1.762308       -47.9548
   7   2.0000      -1.699967       -46.2585
   8   2.0000      -1.317262       -35.8445
   9   2.0000      -1.246462       -33.9179
  10   2.0000      -1.163463       -31.6594
  11   2.0000      -1.114138       -30.3172
  12   2.0000      -1.067253       -29.0414
  13   2.0000      -0.998469       -27.1697
  14   2.0000      -0.992166       -26.9982
  15   2.0000      -0.939272       -25.5589
  16   2.0000      -0.916803       -24.9475
  17   2.0000      -0.863692       -23.5022
  18   2.0000      -0.858218       -23.3533
  19   2.0000      -0.835944       -22.7472
  20   2.0000      -0.831245       -22.6193
  21   2.0000      -0.827559       -22.5190
  22   2.0000      -0.807835       -21.9823
  23   2.0000      -0.772779       -21.0284
  24   0.0000      -0.305717        -8.3190
  25   0.0000      -0.180802        -4.9199
  26   0.0000      -0.105041        -2.8583
  27   0.0000      -0.009570        -0.2604
  28   0.0000       0.000254         0.0069

MULLIKEN ATOMIC CHARGES
-----------------------
   0 C :   -0.365169
   1 C :   -0.050787
   2 O :   -0.270370
   3 C :    0.409911
   4 O :   -0.489834
   5 C :   -0.374602
   6 H :    0.131077
   7 H :    0.136799
   8 H :    0.131009
   9 H :    0.132809
  10 H :    0.132872
  11 H :    0.166241
  12 H :    0.150360
  13 H :    0.159684
Sum of atomic charges:   -0.0000000

LOEWDIN ATOMIC CHARGES
----------------------
   0 C :   -0.307068
   1 C :   -0.280270
   2 O :    0.234126
   3 C :   -0.474443
   4 O :    0.006785
   5 C :   -0.250749
   6 H :    0.123981
   7 H :    0.132096
   8 H :    0.123909
   9 H :    0.130882
  10 H :    0.131003
  11 H :    0.150646
  12 H :    0.135457
  13 H :    0.143644

  Mayer bond orders larger than 0.100000
B(  0-C ,  1-C ) :   1.0083 B(  0-C ,  6-H ) :   0.9716 B(  0-C ,  7-H ) :   0.9695
B(  0-C ,  8-H ) :   0.9716 B(  1-C ,  2-O ) :   0.8589 B(  1-C ,  9-H ) :   0.9666
B(  1-C , 10-H ) :   0.9658 B(  2-O ,  3-C ) :   1.2232 B(  3-C ,  4-O ) :   1.8929
B(  3-C ,  5-C ) :   0.9797 B(  5-C , 11-H ) :   0.9406 B(  5-C , 12-H ) :   0.9711
B(  5-C , 13-H ) :   0.9594

FINAL SINGLE POINT ENERGY      -307.731678269907

DIPOLE MOMENT
-------------

Method             : SCF
Type of density    : Electron Density
Multiplicity       :   1
Irrep              :   0
Energy             :  -307.7411122082068573 Eh
Relativity type    :
Basis              : AO
                                X                 Y                 Z
Electronic contribution:      3.247722029      -1.890501250       1.265985074
Nuclear contribution   :     -3.737352172       2.766988567      -1.802697794
                        -----------------------------------------
Total Dipole Moment    :     -0.489630143       0.876487317      -0.536712720
                        -----------------------------------------
Magnitude (a.u.)       :      1.138432360
Magnitude (Debye)      :      2.893665096

Rotational constants in cm-1:             0.283416             0.068950             0.057257
Rotational constants in MHz :          8496.585682          2067.076783          1716.506820

                             ****ORCA TERMINATED NORMALLY****
TOTAL RUN TIME: 0 days 0 hours 1 minutes 20 seconds 60 msec
