                         Program Version 6.0.0  -   RELEASE  -
|  1> ! pbe def2-sv(p) def2/J RI DEFGRID1 loosescf d4 GCP(DFT/SV(P)) printgap
|  2> %output
|  3>     printlevel normal
|  4> end
|  5> * xyz 0 1
|  6> C -2.6418236034 -0.0537257583 1.1457290871
|  7> C -1.7426177966 -0.0005531299 -0.054501825
|  8> O -2.1559896177 -0.1637000954 -1.1862811059
|  9> C -0.2804695479 0.2420448467 0.2492833962
| 10> C 0.4568737804 0.8522867467 -0.9413064333
| 11> C 1.8951361384 1.2128736145 -0.5544632925
| 12> C 2.4658344027 0.2235676207 0.4699350579
| 13> C 1.8455973496 -1.1547936946 0.2718554308
| 14> C 0.3517723881 -1.1225938712 0.6134271894
| 15> H -3.6277823061 -0.4137273835 0.865247373
| 16> H -2.208977698 -0.6927177279 1.9100151876
| 17> H -2.731182725 0.9498830579 1.5564578019
| 18> H -0.2036406999 0.9171544138 1.1046223416
| 19> H 0.443202122 0.1338455061 -1.7623392434
| 20> H -0.0749687169 1.7406883989 -1.2875864016
| 21> H 2.5116239723 1.2135311785 -1.4544718277
| 22> H 1.9229882537 2.2210979774 -0.1382586797
| 23> H 3.5498076399 0.1669193527 0.3652549936
| 24> H 2.251105802 0.564873191 1.4839510652
| 25> H 1.988977717 -1.4623099365 -0.7648336745
| 26> H 2.3431325212 -1.8897336373 0.9058475771
| 27> H -0.1609908199 -1.9184140134 0.0678869812
| 28> H 0.2126486013 -1.3052379722 1.6794924013
| 29> *
| 30>
| 31>                          ****END OF INPUT****

CARTESIAN COORDINATES (ANGSTROEM)
---------------------------------
  C     -2.641824   -0.053726    1.145729
  C     -1.742618   -0.000553   -0.054502
  O     -2.155990   -0.163700   -1.186281
  C     -0.280470    0.242045    0.249283
  C      0.456874    0.852287   -0.941306
  C      1.895136    1.212874   -0.554463
  C      2.465834    0.223568    0.469935
  C      1.845597   -1.154794    0.271855
  C      0.351772   -1.122594    0.613427
  H     -3.627782   -0.413727    0.865247
  H     -2.208978   -0.692718    1.910015
  H     -2.731183    0.949883    1.556458
  H     -0.203641    0.917154    1.104622
  H      0.443202    0.133846   -1.762339
  H     -0.074969    1.740688   -1.287586
  H      2.511624    1.213531   -1.454472
  H      1.922988    2.221098   -0.138259
  H      3.549808    0.166919    0.365255
  H      2.251106    0.564873    1.483951
  H      1.988978   -1.462310   -0.764834
  H      2.343133   -1.889734    0.905848
  H     -0.160991   -1.918414    0.067887
  H      0.212649   -1.305238    1.679492

 Total Charge           Charge          ....    0
 Multiplicity           Mult            ....    1
 Number of Electrons    NEL             ....   70
 Basis Dimension        Dim             ....  154

ORBITAL ENERGIES
----------------

  NO   OCC          E(Eh)            E(eV)
   0   2.0000     -18.733510      -509.7647
   1   2.0000      -9.969241      -271.2768
   2   2.0000      -9.898752      -269.3587
   3   2.0000      -9.896120      -269.2871
   4   2.0000      -9.887828      -269.0615
   5   2.0000      -9.885274      -268.9920
   6   2.0000      -9.884919      -268.9823
   7   2.0000      -9.883219      -268.9361
   8   2.0000      -9.881146      -268.8796
   9   2.0000      -0.931359       -25.3436
  10   2.0000      -0.762584       -20.7510
  11   2.0000      -0.693402       -18.8684
  12   2.0000      -0.667619       -18.1668
  13   2.0000      -0.654707       -17.8155
  14   2.0000      -0.565116       -15.3776
  15   2.0000      -0.549550       -14.9540
  16   2.0000      -0.489962       -13.3325
  17   2.0000      -0.463630       -12.6160
  18   2.0000      -0.445421       -12.1205
  19   2.0000      -0.424278       -11.5452
  20   2.0000      -0.403297       -10.9743
  21   2.0000      -0.396619       -10.7926
  22   2.0000      -0.383527       -10.4363
  23   2.0000      -0.374287       -10.1849
  24   2.0000      -0.354698        -9.6518
  25   2.0000      -0.338217        -9.2034
  26   2.0000      -0.333908        -9.0861
  27   2.0000      -0.329736        -8.9726
  28   2.0000      -0.319971        -8.7069
  29   2.0000      -0.316183        -8.6038
  30   2.0000      -0.302623        -8.2348
  31   2.0000      -0.273711        -7.4481
  32   2.0000      -0.265252        -7.2179
  33   2.0000      -0.264441        -7.1958
  34   2.0000      -0.191517        -5.2114
  35   0.0000      -0.044377        -1.2076
  36   0.0000       0.021844         0.5944
  37   0.0000       0.041373         1.1258
  38   0.0000       0.056657         1.5417
  39   0.0000       0.068075         1.8524

MULLIKEN ATOMIC CHARGES
-----------------------
   0 C :   -0.239024
   1 C :    0.023671
   2 O :   -0.172824
   3 C :   -0.200413
   4 C :   -0.107806
   5 C :   -0.138659
   6 C :   -0.161335
   7 C :   -0.141037
   8 C :   -0.145324
   9 H :    0.115573
  10 H :    0.119106
  11 H :    0.123962
  12 H :    0.068759
  13 H :    0.085496
  14 H :    0.088444
  15 H :    0.081980
  16 H :    0.079995
  17 H :    0.087506
  18 H :    0.076775
  19 H :    0.083480
  20 H :    0.088037
  21 H :    0.096840
  22 H :    0.086799
Sum of atomic charges:    0.0000000

LOEWDIN ATOMIC CHARGES
----------------------
   0 C :   -0.360808
   1 C :    0.050738
   2 O :   -0.132651
   3 C :   -0.172436
   4 C :   -0.216594
   5 C :   -0.228254
   6 C :   -0.230485
   7 C :   -0.225998
   8 C :   -0.209156
   9 H :    0.133266
  10 H :    0.136632
  11 H :    0.144490
  12 H :    0.121187
  13 H :    0.122324
  14 H :    0.121477
  15 H :    0.118363
  16 H :    0.115817
  17 H :    0.118894
  18 H :    0.113304
  19 H :    0.118883
  20 H :    0.120271
  21 H :    0.123712
  22 H :    0.117025

  Mayer bond orders larger than 0.100000
B(  0-C ,  1-C ) :   1.0874 B(  0-C ,  9-H ) :   0.9321 B(  0-C , 10-H ) :   0.9281
B(  0-C , 11-H ) :   0.9209 B(  1-C ,  2-O ) :   2.1885 B(  1-C ,  3-C ) :   0.9176
B(  3-C ,  4-C ) :   1.1397 B(  3-C ,  8-C ) :   1.0614 B(  3-C , 12-H ) :   0.8769
B(  4-C ,  5-C ) :   1.1446 B(  4-C , 13-H ) :   0.8900 B(  4-C , 14-H ) :   0.9247
B(  5-C ,  6-C ) :   1.1379 B(  5-C , 15-H ) :   0.9175 B(  5-C , 16-H ) :   0.9198
B(  6-C ,  7-C ) :   1.1837 B(  6-C , 17-H ) :   0.9219 B(  6-C , 18-H ) :   0.9119
B(  7-C ,  8-C ) :   1.1529 B(  7-C , 19-H ) :   0.9058 B(  7-C , 20-H ) :   0.9194
B(  8-C , 21-H ) :   0.9097 B(  8-C , 22-H ) :   0.9124

Dispersion correction           -0.021879569
FINAL SINGLE POINT ENERGY      -387.600702862072

DIPOLE MOMENT
-------------

Method             : SCF
Type of density    : Electron Density
Multiplicity       :   1
Irrep              :   0
Energy             :  -387.6783286470989083 Eh
Relativity type    :
Basis              : AO
                                X                 Y                 Z
Electronic contribution:     -5.322942425      -0.121023567      -3.329107676
Nuclear contribution   :      5.799611554       0.209459215       4.233504643
                        -----------------------------------------
Total Dipole Moment    :      0.476669129       0.088435648       0.904396967
                        -----------------------------------------
Magnitude (a.u.)       :      1.026142386
Magnitude (Debye)      :      2.608246666

Rotational constants in cm-1:             0.102151             0.035682             0.031531
Rotational constants in MHz :          3062.422808          1069.721490           945.273303

                             ****ORCA TERMINATED NORMALLY****
TOTAL RUN TIME: 0 days 0 hours 0 minutes 9 seconds 989 msec
