                         Program Version 6.0.0  -   RELEASE  -
|  1> ! pbe def2-sv(p) def2/J RI DEFGRID1 loosescf d4 GCP(DFT/SV(P)) printgap
|  2> %output
|  3>     printlevel normal
|  4> end
|  5> * xyz 0 1
|  6> C -3.4476667104 0.6023429872 -0.0036131848
|  7> C -1.9532312629 0.5123443928 -0.0116061651
|  8> C -1.1676917292 1.4168280578 -0.5769230992
|  9> C 0.3255405497 1.3451220861 -0.6331535487
| 10> C 0.8628859791 -0.0409110514 -0.2548712475
| 11> H 0.6047838394 -0.7347533164 -1.0667186625
| 12> C 0.1080051104 -0.5148992971 0.9890604423
| 13> C -1.3733054511 -0.7136159813 0.6526377501
| 14> H -1.9309856729 -0.9031944192 1.5860404074
| 15> O -1.57543438 -1.8119575471 -0.230175917
| 16> C 2.3731302753 -0.0399495699 -0.1082621177
| 17> C 3.1564838315 0.6347358279 -0.9375335492
| 18> C 2.9775194101 -0.8685897983 0.987056632
| 19> H -3.8661997419 -0.3030149911 -0.4409532383
| 20> H -3.7885592869 1.4633579544 -0.5712231565
| 21> H -3.8163544912 0.6827503388 1.0186109849
| 22> H -1.6067699682 2.2921691957 -1.0375932941
| 23> H 0.6416165702 1.6125859355 -1.6427056067
| 24> H 0.7462658595 2.0946559752 0.0460384917
| 25> H 0.5081335493 -1.4597348299 1.3562435571
| 26> H 0.187730643 0.2307075224 1.7818889449
| 27> H -1.2608718862 -2.6203032232 0.1960816427
| 28> H 4.2288146637 0.6125282475 -0.838179131
| 29> H 2.7784436722 1.2292755816 -1.7498734624
| 30> H 2.6952159953 -1.9140655445 0.8750467339
| 31> H 4.0617076826 -0.8012706757 0.9531736121
| 32> H 2.640211844 -0.525572856 1.9629771318
| 33> *
| 34>
| 35>                          ****END OF INPUT****

CARTESIAN COORDINATES (ANGSTROEM)
---------------------------------
  C     -3.447667    0.602343   -0.003613
  C     -1.953231    0.512344   -0.011606
  C     -1.167692    1.416828   -0.576923
  C      0.325541    1.345122   -0.633154
  C      0.862886   -0.040911   -0.254871
  H      0.604784   -0.734753   -1.066719
  C      0.108005   -0.514899    0.989060
  C     -1.373305   -0.713616    0.652638
  H     -1.930986   -0.903194    1.586040
  O     -1.575434   -1.811958   -0.230176
  C      2.373130   -0.039950   -0.108262
  C      3.156484    0.634736   -0.937534
  C      2.977519   -0.868590    0.987057
  H     -3.866200   -0.303015   -0.440953
  H     -3.788559    1.463358   -0.571223
  H     -3.816354    0.682750    1.018611
  H     -1.606770    2.292169   -1.037593
  H      0.641617    1.612586   -1.642706
  H      0.746266    2.094656    0.046038
  H      0.508134   -1.459735    1.356244
  H      0.187731    0.230708    1.781889
  H     -1.260872   -2.620303    0.196082
  H      4.228815    0.612528   -0.838179
  H      2.778444    1.229276   -1.749873
  H      2.695216   -1.914066    0.875047
  H      4.061708   -0.801271    0.953174
  H      2.640212   -0.525573    1.962977

 Total Charge           Charge          ....    0
 Multiplicity           Mult            ....    1
 Number of Electrons    NEL             ....   84
 Basis Dimension        Dim             ....  186

ORBITAL ENERGIES
----------------

  NO   OCC          E(Eh)            E(eV)
   0   2.0000     -18.743927      -510.0482
   1   2.0000      -9.938033      -270.4276
   2   2.0000      -9.895438      -269.2686
   3   2.0000      -9.894574      -269.2451
   4   2.0000      -9.887961      -269.0651
   5   2.0000      -9.885824      -269.0069
   6   2.0000      -9.885425      -268.9961
   7   2.0000      -9.879656      -268.8391
   8   2.0000      -9.879503      -268.8350
   9   2.0000      -9.873083      -268.6602
  10   2.0000      -9.863459      -268.3984
  11   2.0000      -0.920365       -25.0444
  12   2.0000      -0.761734       -20.7278
  13   2.0000      -0.720571       -19.6077
  14   2.0000      -0.674753       -18.3610
  15   2.0000      -0.660736       -17.9795
  16   2.0000      -0.611802       -16.6480
  17   2.0000      -0.600837       -16.3496
  18   2.0000      -0.553583       -15.0638
  19   2.0000      -0.539152       -14.6711
  20   2.0000      -0.472096       -12.8464
  21   2.0000      -0.465071       -12.6552
  22   2.0000      -0.441658       -12.0181
  23   2.0000      -0.430699       -11.7199
  24   2.0000      -0.398862       -10.8536
  25   2.0000      -0.396469       -10.7885
  26   2.0000      -0.382533       -10.4092
  27   2.0000      -0.376192       -10.2367
  28   2.0000      -0.367552       -10.0016
  29   2.0000      -0.360857        -9.8194
  30   2.0000      -0.353409        -9.6167
  31   2.0000      -0.351660        -9.5692
  32   2.0000      -0.323113        -8.7923
  33   2.0000      -0.322144        -8.7660
  34   2.0000      -0.315411        -8.5828
  35   2.0000      -0.298010        -8.1093
  36   2.0000      -0.285783        -7.7765
  37   2.0000      -0.282364        -7.6835
  38   2.0000      -0.255703        -6.9580
  39   2.0000      -0.219210        -5.9650
  40   2.0000      -0.209266        -5.6944
  41   2.0000      -0.208358        -5.6697
  42   0.0000      -0.012847        -0.3496
  43   0.0000      -0.009505        -0.2587
  44   0.0000       0.025205         0.6859
  45   0.0000       0.054198         1.4748
  46   0.0000       0.057983         1.5778

MULLIKEN ATOMIC CHARGES
-----------------------
   0 C :   -0.204107
   1 C :   -0.068605
   2 C :   -0.162760
   3 C :   -0.074250
   4 C :   -0.141841
   5 H :    0.093211
   6 C :   -0.141670
   7 C :    0.105407
   8 H :    0.050522
   9 O :   -0.422522
  10 C :   -0.043907
  11 C :   -0.235173
  12 C :   -0.215465
  13 H :    0.117026
  14 H :    0.095114
  15 H :    0.098493
  16 H :    0.040646
  17 H :    0.095117
  18 H :    0.091896
  19 H :    0.064544
  20 H :    0.083188
  21 H :    0.292510
  22 H :    0.078413
  23 H :    0.085266
  24 H :    0.110138
  25 H :    0.095394
  26 H :    0.113415
Sum of atomic charges:   -0.0000000

LOEWDIN ATOMIC CHARGES
----------------------
   0 C :   -0.321855
   1 C :   -0.070882
   2 C :   -0.135980
   3 C :   -0.207348
   4 C :   -0.132442
   5 H :    0.133559
   6 C :   -0.226488
   7 C :   -0.036854
   8 H :    0.098306
   9 O :   -0.328080
  10 C :   -0.050509
  11 C :   -0.269321
  12 C :   -0.323054
  13 H :    0.132211
  14 H :    0.121555
  15 H :    0.124008
  16 H :    0.116828
  17 H :    0.126733
  18 H :    0.127493
  19 H :    0.110460
  20 H :    0.122179
  21 H :    0.280591
  22 H :    0.115780
  23 H :    0.115557
  24 H :    0.126089
  25 H :    0.123695
  26 H :    0.127767

  Mayer bond orders larger than 0.100000
B(  0-C ,  1-C ) :   1.1235 B(  0-C , 13-H ) :   0.9276 B(  0-C , 14-H ) :   0.9446
B(  0-C , 15-H ) :   0.9297 B(  1-C ,  2-C ) :   1.9374 B(  1-C ,  7-C ) :   0.9968
B(  2-C ,  3-C ) :   1.0480 B(  2-C , 16-H ) :   0.9240 B(  3-C ,  4-C ) :   1.1154
B(  3-C , 17-H ) :   0.8893 B(  3-C , 18-H ) :   0.8901 B(  4-C ,  5-H ) :   0.8615
B(  4-C ,  6-C ) :   1.0933 B(  4-C , 10-C ) :   0.9861 B(  6-C ,  7-C ) :   1.0651
B(  6-C , 19-H ) :   0.8869 B(  6-C , 20-H ) :   0.8998 B(  7-C ,  8-H ) :   0.8920
B(  7-C ,  9-O ) :   1.0557 B(  9-O , 21-H ) :   0.8489 B( 10-C , 11-C ) :   2.0393
B( 10-C , 12-C ) :   1.1473 B( 11-C , 22-H ) :   0.8990 B( 11-C , 23-H ) :   0.9115
B( 12-C , 24-H ) :   0.9265 B( 12-C , 25-H ) :   0.9336 B( 12-C , 26-H ) :   0.9182

Dispersion correction           -0.028297000
FINAL SINGLE POINT ENERGY      -464.788875532503

DIPOLE MOMENT
-------------

Method             : SCF
Type of density    : Electron Density
Multiplicity       :   1
Irrep              :   0
Energy             :  -464.8789945198193436 Eh
Relativity type    :
Basis              : AO
                                X                 Y                 Z
Electronic contribution:     -2.543370621      -1.117746601      -1.715333299
Nuclear contribution   :      2.625254334       0.870131523       2.275257238
                        -----------------------------------------
Total Dipole Moment    :      0.081883713      -0.247615078       0.559923939
                        -----------------------------------------
Magnitude (a.u.)       :      0.617683565
Magnitude (Debye)      :      1.570026851

Rotational constants in cm-1:             0.071990             0.023157             0.019357
Rotational constants in MHz :          2158.191783           694.232351           580.305277

                             ****ORCA TERMINATED NORMALLY****
TOTAL RUN TIME: 0 days 0 hours 0 minutes 12 seconds 394 msec
