                         Program Version 6.0.0  -   RELEASE  -
|  1> ! pbe def2-sv(p) def2/J RI DEFGRID1 loosescf d4 GCP(DFT/SV(P)) printgap
|  2> %output
|  3>     printlevel normal
|  4> end
|  5> * xyz 0 1
|  6> C 1.8879259578 -1.4737240651 0.0002382565
|  7> C 2.5798661262 -0.2646341464 -0.0005143893
|  8> C 1.9001530199 0.9336367094 -0.0004235022
|  9> C 0.502187538 0.9761545492 -0.0001391164
| 10> C -0.1914318552 -0.2531412186 0.0007530217
| 11> C 0.514704145 -1.462808889 0.0008417733
| 12> N -1.6027381692 -0.3062885553 0.0014675709
| 13> O -2.2533076015 0.7288804053 -0.0018873932
| 14> O -2.1396798092 -1.4114425161 0.0001246982
| 15> O -0.1650122571 2.1285167915 -3.93349e-05
| 16> H 2.422208627 -2.4086868252 0.0002648373
| 17> H 3.6580924891 -0.2633182796 0.0006013403
| 18> H 2.4477060849 1.8634485121 2.69071e-05
| 19> H -0.0585119916 -2.3766134423 -0.0010620222
| 20> H 0.4360613057 2.8939475229 -0.0006297821
| 21> *
| 22>
| 23>                          ****END OF INPUT****

CARTESIAN COORDINATES (ANGSTROEM)
---------------------------------
  C      1.887926   -1.473724    0.000238
  C      2.579866   -0.264634   -0.000514
  C      1.900153    0.933637   -0.000424
  C      0.502188    0.976155   -0.000139
  C     -0.191432   -0.253141    0.000753
  C      0.514704   -1.462809    0.000842
  N     -1.602738   -0.306289    0.001468
  O     -2.253308    0.728880   -0.001887
  O     -2.139680   -1.411443    0.000125
  O     -0.165012    2.128517   -0.000039
  H      2.422209   -2.408687    0.000265
  H      3.658092   -0.263318    0.000601
  H      2.447706    1.863449    0.000027
  H     -0.058512   -2.376613   -0.001062
  H      0.436061    2.893948   -0.000630

 Total Charge           Charge          ....    0
 Multiplicity           Mult            ....    1
 Number of Electrons    NEL             ....   72
 Basis Dimension        Dim             ....  150

ORBITAL ENERGIES
----------------

  NO   OCC          E(Eh)            E(eV)
   0   2.0000     -18.812836      -511.9233
   1   2.0000     -18.759847      -510.4814
   2   2.0000     -18.757398      -510.4147
   3   2.0000     -14.197803      -386.3419
   4   2.0000      -9.991619      -271.8858
   5   2.0000      -9.950977      -270.7798
   6   2.0000      -9.927105      -270.1303
   7   2.0000      -9.920637      -269.9542
   8   2.0000      -9.920428      -269.9486
   9   2.0000      -9.914386      -269.7842
  10   2.0000      -1.113942       -30.3119
  11   2.0000      -1.001605       -27.2550
  12   2.0000      -0.938552       -25.5393
  13   2.0000      -0.809119       -22.0172
  14   2.0000      -0.741403       -20.1746
  15   2.0000      -0.694449       -18.8969
  16   2.0000      -0.637811       -17.3557
  17   2.0000      -0.597180       -16.2501
  18   2.0000      -0.541182       -14.7263
  19   2.0000      -0.523500       -14.2452
  20   2.0000      -0.478593       -13.0232
  21   2.0000      -0.471273       -12.8240
  22   2.0000      -0.456298       -12.4165
  23   2.0000      -0.444930       -12.1072
  24   2.0000      -0.423310       -11.5189
  25   2.0000      -0.410267       -11.1639
  26   2.0000      -0.393256       -10.7010
  27   2.0000      -0.369215       -10.0469
  28   2.0000      -0.344487        -9.3740
  29   2.0000      -0.329136        -8.9562
  30   2.0000      -0.328002        -8.9254
  31   2.0000      -0.260520        -7.0891
  32   2.0000      -0.251866        -6.8536
  33   2.0000      -0.243059        -6.6140
  34   2.0000      -0.227094        -6.1795
  35   2.0000      -0.212470        -5.7816
  36   0.0000      -0.108178        -2.9437
  37   0.0000      -0.049724        -1.3531
  38   0.0000      -0.027993        -0.7617
  39   0.0000       0.001643         0.0447
  40   0.0000       0.028701         0.7810

MULLIKEN ATOMIC CHARGES
-----------------------
   0 C :   -0.050947
   1 C :   -0.004829
   2 C :   -0.199161
   3 C :    0.161567
   4 C :    0.144065
   5 C :   -0.115826
   6 N :    0.199561
   7 O :   -0.207414
   8 O :   -0.237351
   9 O :   -0.261370
  10 H :    0.065190
  11 H :    0.067918
  12 H :    0.038450
  13 H :    0.073982
  14 H :    0.326165
Sum of atomic charges:    0.0000000

LOEWDIN ATOMIC CHARGES
----------------------
   0 C :   -0.138501
   1 C :   -0.091945
   2 C :   -0.169052
   3 C :    0.034975
   4 C :   -0.067604
   5 C :   -0.094368
   6 N :    0.253856
   7 O :   -0.182533
   8 O :   -0.210493
   9 O :   -0.176772
  10 H :    0.131653
  11 H :    0.132027
  12 H :    0.127916
  13 H :    0.146449
  14 H :    0.304392

  Mayer bond orders larger than 0.100000
B(  0-C ,  1-C ) :   1.3133 B(  0-C ,  5-C ) :   1.3424 B(  0-C , 10-H ) :   0.9693
B(  1-C ,  2-C ) :   1.3912 B(  1-C , 11-H ) :   0.9644 B(  2-C ,  3-C ) :   1.2759
B(  2-C ,  5-C ) :   0.1002 B(  2-C , 12-H ) :   0.9576 B(  3-C ,  4-C ) :   1.3104
B(  3-C ,  9-O ) :   1.3094 B(  4-C ,  5-C ) :   1.3809 B(  4-C ,  6-N ) :   0.9167
B(  5-C , 13-H ) :   0.9472 B(  6-N ,  7-O ) :   1.5373 B(  6-N ,  8-O ) :   1.5083
B(  7-O ,  8-O ) :   0.2971 B(  9-O , 14-H ) :   0.8269

Dispersion correction           -0.016443719
FINAL SINGLE POINT ENERGY      -510.961388823279

DIPOLE MOMENT
-------------

Method             : SCF
Type of density    : Electron Density
Multiplicity       :   1
Irrep              :   0
Energy             :  -511.0113563310438849 Eh
Relativity type    :
Basis              : AO
                                X                 Y                 Z
Electronic contribution:     -6.115627052       0.932501051       0.001991037
Nuclear contribution   :      8.278618347      -0.253482523      -0.000767954
                        -----------------------------------------
Total Dipole Moment    :      2.162991295       0.679018528       0.001223082
                        -----------------------------------------
Magnitude (a.u.)       :      2.267068371
Magnitude (Debye)      :      5.762429852

Rotational constants in cm-1:             0.079130             0.043302             0.027987
Rotational constants in MHz :          2372.260067          1298.158519           839.024353

                             ****ORCA TERMINATED NORMALLY****
TOTAL RUN TIME: 0 days 0 hours 0 minutes 8 seconds 32 msec
