                         Program Version 6.0.0  -   RELEASE  -
|  1> ! pbe def2-sv(p) def2/J RI DEFGRID1 loosescf d4 GCP(DFT/SV(P)) printgap
|  2> %output
|  3>     printlevel normal
|  4> end
|  5> * xyz 0 1
|  6> C -2.5794097868 -0.2642612898 7.855e-07
|  7> C -1.8720244434 -1.4763075569 -4.2655e-06
|  8> C -0.5070302235 -1.4533887198 -6.7755e-06
|  9> C 0.202374974 -0.2345205294 -4.3382e-06
| 10> C -0.5033716938 1.0027433253 -9.21e-07
| 11> C -1.9170545916 0.9307788985 6.0819e-06
| 12> N 0.0921676869 2.1954822111 1.7862e-06
| 13> N 1.5899003215 -0.3015552595 -5.324e-07
| 14> O 2.1431657114 -1.406424998 1.25604e-05
| 15> O 2.2645395145 0.7395403192 -8.2875e-06
| 16> H -3.6578018984 -0.2803359527 1.70611e-05
| 17> H -2.4016311152 -2.4140634783 -1.1861e-06
| 18> H 0.072671928 -2.3633265356 -7.387e-06
| 19> H -2.4671734484 1.8583426674 8.8261e-06
| 20> H 1.1008968582 2.2511214974 -9.506e-07
| 21> H -0.4704901565 3.0293419249 1.07895e-05
| 22> *
| 23>
| 24>                          ****END OF INPUT****

CARTESIAN COORDINATES (ANGSTROEM)
---------------------------------
  C     -2.579410   -0.264261    0.000001
  C     -1.872024   -1.476308   -0.000004
  C     -0.507030   -1.453389   -0.000007
  C      0.202375   -0.234521   -0.000004
  C     -0.503372    1.002743   -0.000001
  C     -1.917055    0.930779    0.000006
  N      0.092168    2.195482    0.000002
  N      1.589900   -0.301555   -0.000001
  O      2.143166   -1.406425    0.000013
  O      2.264540    0.739540   -0.000008
  H     -3.657802   -0.280336    0.000017
  H     -2.401631   -2.414063   -0.000001
  H      0.072672   -2.363327   -0.000007
  H     -2.467173    1.858343    0.000009
  H      1.100897    2.251121   -0.000001
  H     -0.470490    3.029342    0.000011

 Total Charge           Charge          ....    0
 Multiplicity           Mult            ....    1
 Number of Electrons    NEL             ....   72
 Basis Dimension        Dim             ....  152

ORBITAL ENERGIES
----------------

  NO   OCC          E(Eh)            E(eV)
   0   2.0000     -18.766420      -510.6602
   1   2.0000     -18.759018      -510.4588
   2   2.0000     -14.197403      -386.3310
   3   2.0000     -14.023205      -381.5908
   4   2.0000      -9.971507      -271.3385
   5   2.0000      -9.944899      -270.6144
   6   2.0000      -9.914891      -269.7979
   7   2.0000      -9.910127      -269.6683
   8   2.0000      -9.909897      -269.6620
   9   2.0000      -9.899875      -269.3893
  10   2.0000      -1.109284       -30.1851
  11   2.0000      -0.935662       -25.4606
  12   2.0000      -0.872274       -23.7358
  13   2.0000      -0.789755       -21.4903
  14   2.0000      -0.737974       -20.0813
  15   2.0000      -0.678612       -18.4660
  16   2.0000      -0.629392       -17.1266
  17   2.0000      -0.573491       -15.6055
  18   2.0000      -0.549173       -14.9437
  19   2.0000      -0.505711       -13.7611
  20   2.0000      -0.478860       -13.0305
  21   2.0000      -0.476027       -12.9533
  22   2.0000      -0.469833       -12.7848
  23   2.0000      -0.444593       -12.0980
  24   2.0000      -0.429093       -11.6762
  25   2.0000      -0.400168       -10.8891
  26   2.0000      -0.396488       -10.7890
  27   2.0000      -0.370038       -10.0693
  28   2.0000      -0.347058        -9.4439
  29   2.0000      -0.325541        -8.8584
  30   2.0000      -0.304234        -8.2786
  31   2.0000      -0.256853        -6.9893
  32   2.0000      -0.250103        -6.8057
  33   2.0000      -0.248908        -6.7731
  34   2.0000      -0.220138        -5.9903
  35   2.0000      -0.201388        -5.4801
  36   0.0000      -0.106918        -2.9094
  37   0.0000      -0.037690        -1.0256
  38   0.0000      -0.020066        -0.5460
  39   0.0000       0.024136         0.6568
  40   0.0000       0.042453         1.1552

MULLIKEN ATOMIC CHARGES
-----------------------
   0 C :   -0.015291
   1 C :   -0.045464
   2 C :   -0.127442
   3 C :    0.136582
   4 C :    0.051574
   5 C :   -0.156032
   6 N :   -0.251161
   7 N :    0.228424
   8 O :   -0.237969
   9 O :   -0.277648
  10 H :    0.063092
  11 H :    0.058947
  12 H :    0.067086
  13 H :    0.027118
  14 H :    0.249852
  15 H :    0.228331
Sum of atomic charges:   -0.0000000

LOEWDIN ATOMIC CHARGES
----------------------
   0 C :   -0.092523
   1 C :   -0.151395
   2 C :   -0.097127
   3 C :   -0.082933
   4 C :    0.019067
   5 C :   -0.155286
   6 N :   -0.261399
   7 N :    0.263258
   8 O :   -0.209680
   9 O :   -0.235206
  10 H :    0.130127
  11 H :    0.128809
  12 H :    0.143639
  13 H :    0.125101
  14 H :    0.240039
  15 H :    0.235511

  Mayer bond orders larger than 0.100000
B(  0-C ,  1-C ) :   1.2530 B(  0-C ,  5-C ) :   1.4410 B(  0-C , 10-H ) :   0.9634
B(  1-C ,  2-C ) :   1.3865 B(  1-C , 11-H ) :   0.9685 B(  2-C ,  3-C ) :   1.3264
B(  2-C ,  5-C ) :   0.1014 B(  2-C , 12-H ) :   0.9458 B(  3-C ,  4-C ) :   1.2492
B(  3-C ,  7-N ) :   0.9811 B(  4-C ,  5-C ) :   1.2425 B(  4-C ,  6-N ) :   1.4495
B(  5-C , 13-H ) :   0.9616 B(  6-N , 14-H ) :   0.8077 B(  6-N , 15-H ) :   0.8541
B(  7-N ,  8-O ) :   1.5115 B(  7-N ,  9-O ) :   1.4077 B(  8-O ,  9-O ) :   0.2623
B(  9-O , 14-H ) :   0.1040

Dispersion correction           -0.017716791
FINAL SINGLE POINT ENERGY      -491.134904632036

DIPOLE MOMENT
-------------

Method             : SCF
Type of density    : Electron Density
Multiplicity       :   1
Irrep              :   0
Energy             :  -491.1885910499985357 Eh
Relativity type    :
Basis              : AO
                                X                 Y                 Z
Electronic contribution:      5.657772804      -0.894913764      -0.000019839
Nuclear contribution   :     -7.265250282       1.952963724       0.000025545
                        -----------------------------------------
Total Dipole Moment    :     -1.607477478       1.058049959       0.000005706
                        -----------------------------------------
Magnitude (a.u.)       :      1.924435907
Magnitude (Debye)      :      4.891527339

Rotational constants in cm-1:             0.078722             0.043146             0.027871
Rotational constants in MHz :          2360.038519          1293.478808           835.539985

                             ****ORCA TERMINATED NORMALLY****
TOTAL RUN TIME: 0 days 0 hours 0 minutes 11 seconds 580 msec
