                         Program Version 6.0.0  -   RELEASE  -
|  1> ! r2scan-3c def2/J RI DEFGRID2 scfconv6 printgap
|  2> %output
|  3>     printlevel normal
|  4> end
|  5> * xyz 0 1
|  6> C -2.7680897586 -0.7620831815 0.0023871112
|  7> O -1.7973899184 0.2610915812 0.0139665564
|  8> C -0.4651570734 -0.1003427201 -0.0014278708
|  9> C 0.002052645 -1.4001590871 -0.0092279984
| 10> C 1.3684906573 -1.6541456379 -0.0082942166
| 11> C 2.2658207201 -0.605690492 0.0056462224
| 12> C 1.8055508851 0.7001348059 0.015653382
| 13> C 0.4436767823 0.9797605411 0.0074110368
| 14> N -0.0311461996 2.2716751751 -0.0612522775
| 15> H -3.7271977932 -0.248547843 0.0111261516
| 16> H -2.6844504657 -1.39934691 0.8876537888
| 17> H -2.6880932556 -1.3740816265 -0.9003657968
| 18> H -0.6856962763 -2.2307946316 -0.0139814274
| 19> H 1.7173708289 -2.6752253916 -0.0155699832
| 20> H 3.3278788128 -0.7986680634 0.0114094679
| 21> H 2.505223222 1.522497503 0.0269856728
| 22> H 0.5903645108 2.9868306827 0.2783448975
| 23> H -0.99841809 2.3774669716 0.1991478306
| 24> *
| 25>
| 26>                          ****END OF INPUT****

CARTESIAN COORDINATES (ANGSTROEM)
---------------------------------
  C     -2.768090   -0.762083    0.002387
  O     -1.797390    0.261092    0.013967
  C     -0.465157   -0.100343   -0.001428
  C      0.002053   -1.400159   -0.009228
  C      1.368491   -1.654146   -0.008294
  C      2.265821   -0.605690    0.005646
  C      1.805551    0.700135    0.015653
  C      0.443677    0.979761    0.007411
  N     -0.031146    2.271675   -0.061252
  H     -3.727198   -0.248548    0.011126
  H     -2.684450   -1.399347    0.887654
  H     -2.688093   -1.374082   -0.900366
  H     -0.685696   -2.230795   -0.013981
  H      1.717371   -2.675225   -0.015570
  H      3.327879   -0.798668    0.011409
  H      2.505223    1.522498    0.026986
  H      0.590365    2.986831    0.278345
  H     -0.998418    2.377467    0.199148

 Total Charge           Charge          ....    0
 Multiplicity           Mult            ....    1
 Number of Electrons    NEL             ....   66
 Basis Dimension        Dim             ....  226

ORBITAL ENERGIES
----------------

  NO   OCC          E(Eh)            E(eV)
   0   2.0000     -18.984353      -516.5905
   1   2.0000     -14.161426      -385.3520
   2   2.0000     -10.086260      -274.4611
   3   2.0000     -10.083854      -274.3956
   4   2.0000     -10.066905      -273.9344
   5   2.0000     -10.025620      -272.8110
   6   2.0000     -10.020761      -272.6788
   7   2.0000     -10.019198      -272.6362
   8   2.0000     -10.017100      -272.5791
   9   2.0000      -1.029104       -28.0033
  10   2.0000      -0.884094       -24.0574
  11   2.0000      -0.800972       -21.7955
  12   2.0000      -0.717172       -19.5153
  13   2.0000      -0.697115       -18.9695
  14   2.0000      -0.657893       -17.9022
  15   2.0000      -0.574964       -15.6456
  16   2.0000      -0.559070       -15.2131
  17   2.0000      -0.503887       -13.7115
  18   2.0000      -0.483839       -13.1659
  19   2.0000      -0.466490       -12.6938
  20   2.0000      -0.436489       -11.8775
  21   2.0000      -0.425403       -11.5758
  22   2.0000      -0.414080       -11.2677
  23   2.0000      -0.397520       -10.8171
  24   2.0000      -0.378926       -10.3111
  25   2.0000      -0.361197        -9.8287
  26   2.0000      -0.339580        -9.2404
  27   2.0000      -0.315751        -8.5920
  28   2.0000      -0.298684        -8.1276
  29   2.0000      -0.290420        -7.9027
  30   2.0000      -0.283033        -7.7017
  31   2.0000      -0.211102        -5.7444
  32   2.0000      -0.170991        -4.6529
  33   0.0000      -0.014509        -0.3948
  34   0.0000      -0.001525        -0.0415
  35   0.0000       0.053415         1.4535
  36   0.0000       0.089440         2.4338
  37   0.0000       0.098370         2.6768

MULLIKEN ATOMIC CHARGES
-----------------------
   0 C :   -0.328570
   1 O :   -0.207289
   2 C :    0.103806
   3 C :   -0.239457
   4 C :   -0.210288
   5 C :   -0.145754
   6 C :   -0.383027
   7 C :    0.372561
   8 N :   -0.512974
   9 H :    0.151144
  10 H :    0.152372
  11 H :    0.154123
  12 H :    0.144689
  13 H :    0.144066
  14 H :    0.144682
  15 H :    0.138939
  16 H :    0.253193
  17 H :    0.267785
Sum of atomic charges:   -0.0000000

LOEWDIN ATOMIC CHARGES
----------------------
   0 C :   -0.052629
   1 O :   -0.701686
   2 C :    0.193838
   3 C :   -0.167310
   4 C :   -0.193529
   5 C :   -0.176121
   6 C :   -0.163094
   7 C :    0.148947
   8 N :   -0.586219
   9 H :    0.178768
  10 H :    0.164330
  11 H :    0.165464
  12 H :    0.174137
  13 H :    0.165201
  14 H :    0.165824
  15 H :    0.168430
  16 H :    0.252811
  17 H :    0.262838

  Mayer bond orders larger than 0.100000
B(  0-C ,  1-O ) :   0.8620 B(  0-C ,  9-H ) :   0.9683 B(  0-C , 10-H ) :   0.9617
B(  0-C , 11-H ) :   0.9621 B(  1-O ,  2-C ) :   1.0729 B(  2-C ,  3-C ) :   1.3439
B(  2-C ,  7-C ) :   1.4786 B(  3-C ,  4-C ) :   1.3544 B(  3-C , 12-H ) :   0.9299
B(  4-C ,  5-C ) :   1.4576 B(  4-C , 13-H ) :   0.9520 B(  5-C ,  6-C ) :   1.3817
B(  5-C , 14-H ) :   0.9428 B(  6-C ,  7-C ) :   1.2806 B(  6-C , 15-H ) :   0.9640
B(  7-C ,  8-N ) :   0.9525 B(  8-N , 16-H ) :   0.9236 B(  8-N , 17-H ) :   0.9063

Dispersion correction           -0.005821016
FINAL SINGLE POINT ENERGY      -402.030100904045

DIPOLE MOMENT
-------------

Method             : SCF
Type of density    : Electron Density
Multiplicity       :   1
Irrep              :   0
Energy             :  -402.0346026907119494 Eh
Relativity type    :
Basis              : AO
                                X                 Y                 Z
Electronic contribution:      1.976724661       1.849440171      -0.144377568
Nuclear contribution   :     -2.506401881      -1.709778320       0.454649158
                        -----------------------------------------
Total Dipole Moment    :     -0.529677220       0.139661851       0.310271590
                        -----------------------------------------
Magnitude (a.u.)       :      0.629548926
Magnitude (Debye)      :      1.600186200

Rotational constants in cm-1:             0.086744             0.051926             0.032708
Rotational constants in MHz :          2600.527121          1556.713808           980.562648

                             ****ORCA TERMINATED NORMALLY****
TOTAL RUN TIME: 0 days 0 hours 0 minutes 26 seconds 853 msec
