                         Program Version 6.0.0  -   RELEASE  -
|  1> ! r2scan-3c def2/J RI DEFGRID2 scfconv6 printgap
|  2> %output
|  3>     printlevel normal
|  4> end
|  5> %cpcm
|  6>     smd true
|  7>     smdsolvent "water"
|  8> end
|  9> * xyz 0 1
| 10> C -2.7680897586 -0.7620831815 0.0023871112
| 11> O -1.7973899184 0.2610915812 0.0139665564
| 12> C -0.4651570734 -0.1003427201 -0.0014278708
| 13> C 0.002052645 -1.4001590871 -0.0092279984
| 14> C 1.3684906573 -1.6541456379 -0.0082942166
| 15> C 2.2658207201 -0.605690492 0.0056462224
| 16> C 1.8055508851 0.7001348059 0.015653382
| 17> C 0.4436767823 0.9797605411 0.0074110368
| 18> N -0.0311461996 2.2716751751 -0.0612522775
| 19> H -3.7271977932 -0.248547843 0.0111261516
| 20> H -2.6844504657 -1.39934691 0.8876537888
| 21> H -2.6880932556 -1.3740816265 -0.9003657968
| 22> H -0.6856962763 -2.2307946316 -0.0139814274
| 23> H 1.7173708289 -2.6752253916 -0.0155699832
| 24> H 3.3278788128 -0.7986680634 0.0114094679
| 25> H 2.505223222 1.522497503 0.0269856728
| 26> H 0.5903645108 2.9868306827 0.2783448975
| 27> H -0.99841809 2.3774669716 0.1991478306
| 28> *
| 29>
| 30>                          ****END OF INPUT****

CARTESIAN COORDINATES (ANGSTROEM)
---------------------------------
  C     -2.768090   -0.762083    0.002387
  O     -1.797390    0.261092    0.013967
  C     -0.465157   -0.100343   -0.001428
  C      0.002053   -1.400159   -0.009228
  C      1.368491   -1.654146   -0.008294
  C      2.265821   -0.605690    0.005646
  C      1.805551    0.700135    0.015653
  C      0.443677    0.979761    0.007411
  N     -0.031146    2.271675   -0.061252
  H     -3.727198   -0.248548    0.011126
  H     -2.684450   -1.399347    0.887654
  H     -2.688093   -1.374082   -0.900366
  H     -0.685696   -2.230795   -0.013981
  H      1.717371   -2.675225   -0.015570
  H      3.327879   -0.798668    0.011409
  H      2.505223    1.522498    0.026986
  H      0.590365    2.986831    0.278345
  H     -0.998418    2.377467    0.199148

 Total Charge           Charge          ....    0
 Multiplicity           Mult            ....    1
 Number of Electrons    NEL             ....   66
 Basis Dimension        Dim             ....  226

ORBITAL ENERGIES
----------------

  NO   OCC          E(Eh)            E(eV)
   0   2.0000     -18.986096      -516.6379
   1   2.0000     -14.158467      -385.2715
   2   2.0000     -10.088581      -274.5243
   3   2.0000     -10.072154      -274.0772
   4   2.0000     -10.071571      -274.0614
   5   2.0000     -10.028740      -272.8959
   6   2.0000     -10.024327      -272.7758
   7   2.0000     -10.023828      -272.7622
   8   2.0000     -10.021765      -272.7061
   9   2.0000      -1.030321       -28.0364
  10   2.0000      -0.883791       -24.0492
  11   2.0000      -0.806029       -21.9332
  12   2.0000      -0.718384       -19.5482
  13   2.0000      -0.699653       -19.0385
  14   2.0000      -0.655038       -17.8245
  15   2.0000      -0.575130       -15.6501
  16   2.0000      -0.559687       -15.2299
  17   2.0000      -0.502543       -13.6749
  18   2.0000      -0.481833       -13.1113
  19   2.0000      -0.464750       -12.6465
  20   2.0000      -0.431331       -11.7371
  21   2.0000      -0.420555       -11.4439
  22   2.0000      -0.415246       -11.2994
  23   2.0000      -0.396670       -10.7939
  24   2.0000      -0.377567       -10.2741
  25   2.0000      -0.364704        -9.9241
  26   2.0000      -0.338772        -9.2185
  27   2.0000      -0.316317        -8.6074
  28   2.0000      -0.298259        -8.1160
  29   2.0000      -0.291919        -7.9435
  30   2.0000      -0.289293        -7.8721
  31   2.0000      -0.217927        -5.9301
  32   2.0000      -0.177006        -4.8166
  33   0.0000      -0.021382        -0.5818
  34   0.0000      -0.009122        -0.2482
  35   0.0000       0.056504         1.5376
  36   0.0000       0.098903         2.6913
  37   0.0000       0.109234         2.9724

MULLIKEN ATOMIC CHARGES
-----------------------
   0 C :   -0.333623
   1 O :   -0.238830
   2 C :    0.089250
   3 C :   -0.245308
   4 C :   -0.266495
   5 C :   -0.180918
   6 C :   -0.399938
   7 C :    0.311391
   8 N :   -0.576290
   9 H :    0.172134
  10 H :    0.169329
  11 H :    0.169778
  12 H :    0.182452
  13 H :    0.174787
  14 H :    0.176015
  15 H :    0.178153
  16 H :    0.310428
  17 H :    0.307682
Sum of atomic charges:    0.0000000

LOEWDIN ATOMIC CHARGES
----------------------
   0 C :   -0.048693
   1 O :   -0.718168
   2 C :    0.182162
   3 C :   -0.173154
   4 C :   -0.214473
   5 C :   -0.195340
   6 C :   -0.174885
   7 C :    0.136893
   8 N :   -0.587492
   9 H :    0.186861
  10 H :    0.173199
  11 H :    0.173571
  12 H :    0.188587
  13 H :    0.174817
  14 H :    0.175499
  15 H :    0.182626
  16 H :    0.267769
  17 H :    0.270222

  Mayer bond orders larger than 0.100000
B(  0-C ,  1-O ) :   0.8552 B(  0-C ,  9-H ) :   0.9604 B(  0-C , 10-H ) :   0.9547
B(  0-C , 11-H ) :   0.9547 B(  1-O ,  2-C ) :   1.0487 B(  2-C ,  3-C ) :   1.3364
B(  2-C ,  7-C ) :   1.4261 B(  3-C ,  4-C ) :   1.3060 B(  3-C , 12-H ) :   0.9393
B(  4-C ,  5-C ) :   1.3972 B(  4-C , 13-H ) :   0.9704 B(  5-C ,  6-C ) :   1.3343
B(  5-C , 14-H ) :   0.9574 B(  6-C ,  7-C ) :   1.2709 B(  6-C , 15-H ) :   0.9778
B(  7-C ,  8-N ) :   0.9564 B(  8-N , 16-H ) :   0.8994 B(  8-N , 17-H ) :   0.8896

Dispersion correction           -0.005821016
FINAL SINGLE POINT ENERGY      -402.038489641715

DIPOLE MOMENT
-------------

Method             : SCF
Type of density    : Electron Density
Multiplicity       :   1
Irrep              :   0
Energy             :  -402.0429914283813559 Eh
Relativity type    :
Basis              : AO
                                X                 Y                 Z
Electronic contribution:      1.821222265       1.879529837      -0.023858822
Nuclear contribution   :     -2.506401881      -1.709778320       0.454649158
                        -----------------------------------------
Total Dipole Moment    :     -0.685179616       0.169751517       0.430790336
                        -----------------------------------------
Magnitude (a.u.)       :      0.826962512
Magnitude (Debye)      :      2.101971660

Rotational constants in cm-1:             0.086744             0.051926             0.032708
Rotational constants in MHz :          2600.527121          1556.713808           980.562648

                             ****ORCA TERMINATED NORMALLY****
TOTAL RUN TIME: 0 days 0 hours 0 minutes 32 seconds 807 msec
