                         Program Version 6.0.0  -   RELEASE  -
|  1> ! r2scan-3c def2/J RI DEFGRID2 scfconv6 printgap
|  2> %output
|  3>     printlevel normal
|  4> end
|  5> * xyz 0 1
|  6> C -0.8625376652 5.18019e-05 -3.16533e-05
|  7> F -1.3186498482 -0.5058610427 1.1304019015
|  8> F -1.3196942064 1.2316449465 -0.1271053276
|  9> F -1.3191683392 -0.7261911683 -1.0030071637
| 10> Br 1.0706176616 8.90473e-05 -6.40541e-05
| 11> *
| 12>
| 13>                          ****END OF INPUT****

CARTESIAN COORDINATES (ANGSTROEM)
---------------------------------
  C     -0.862538    0.000052   -0.000032
  F     -1.318650   -0.505861    1.130402
  F     -1.319694    1.231645   -0.127105
  F     -1.319168   -0.726191   -1.003007
  Br     1.070618    0.000089   -0.000064

 Total Charge           Charge          ....    0
 Multiplicity           Mult            ....    1
 Number of Electrons    NEL             ....   68
 Basis Dimension        Dim             ....  127

ORBITAL ENERGIES
----------------

  NO   OCC          E(Eh)            E(eV)
   0   2.0000    -482.258573    -13122.9229
   1   2.0000     -62.330489     -1696.0988
   2   2.0000     -56.111143     -1526.8618
   3   2.0000     -56.108106     -1526.7792
   4   2.0000     -56.108105     -1526.7792
   5   2.0000     -24.554202      -668.1538
   6   2.0000     -24.554201      -668.1538
   7   2.0000     -24.554174      -668.1531
   8   2.0000     -10.348927      -281.6086
   9   2.0000      -8.662512      -235.7189
  10   2.0000      -6.471050      -176.0862
  11   2.0000      -6.455764      -175.6703
  12   2.0000      -6.455763      -175.6702
  13   2.0000      -2.568441       -69.8908
  14   2.0000      -2.564581       -69.7858
  15   2.0000      -2.564580       -69.7858
  16   2.0000      -2.553172       -69.4753
  17   2.0000      -2.553166       -69.4752
  18   2.0000      -1.321987       -35.9731
  19   2.0000      -1.228977       -33.4422
  20   2.0000      -1.228975       -33.4421
  21   2.0000      -0.802044       -21.8247
  22   2.0000      -0.682326       -18.5670
  23   2.0000      -0.596203       -16.2235
  24   2.0000      -0.596195       -16.2233
  25   2.0000      -0.554531       -15.0896
  26   2.0000      -0.462352       -12.5812
  27   2.0000      -0.462346       -12.5811
  28   2.0000      -0.427493       -11.6327
  29   2.0000      -0.427489       -11.6326
  30   2.0000      -0.400727       -10.9043
  31   2.0000      -0.377656       -10.2765
  32   2.0000      -0.298043        -8.1102
  33   2.0000      -0.298029        -8.1098
  34   0.0000      -0.065510        -1.7826
  35   0.0000       0.092811         2.5255
  36   0.0000       0.092814         2.5256
  37   0.0000       0.108643         2.9563
  38   0.0000       0.161082         4.3833

MULLIKEN ATOMIC CHARGES
-----------------------
   0 C :    0.461949
   1 F :   -0.142164
   2 F :   -0.142140
   3 F :   -0.142174
   4 Br:   -0.035470
Sum of atomic charges:   -0.0000000

LOEWDIN ATOMIC CHARGES
----------------------
   0 C :    0.341891
   1 F :   -0.191326
   2 F :   -0.191234
   3 F :   -0.191277
   4 Br:    0.231946

  Mayer bond orders larger than 0.100000
B(  0-C ,  1-F ) :   1.0187 B(  0-C ,  2-F ) :   1.0189 B(  0-C ,  3-F ) :   1.0187
B(  0-C ,  4-Br) :   1.1750

Dispersion correction           -0.000915462
FINAL SINGLE POINT ENERGY     -2911.767982086970

DIPOLE MOMENT
-------------

Method             : SCF
Type of density    : Electron Density
Multiplicity       :   1
Irrep              :   0
Energy             : -2911.7759401655980582 Eh
Relativity type    :
Basis              : AO
                                X                 Y                 Z
Electronic contribution:      6.368829778       0.000486776      -0.000382813
Nuclear contribution   :     -6.274115984      -0.000449472       0.000326603
                        -----------------------------------------
Total Dipole Moment    :      0.094713794       0.000037304      -0.000056211
                        -----------------------------------------
Magnitude (a.u.)       :      0.094713818
Magnitude (Debye)      :      0.240743394

Rotational constants in cm-1:             0.192892             0.069260             0.069259
Rotational constants in MHz :          5782.748910          2076.369071          2076.334922

                             ****ORCA TERMINATED NORMALLY****
TOTAL RUN TIME: 0 days 0 hours 0 minutes 11 seconds 336 msec
