                         Program Version 6.0.0  -   RELEASE  -
|  1> ! r2scan-3c def2/J RI DEFGRID2 scfconv6 printgap
|  2> %output
|  3>     printlevel normal
|  4> end
|  5> %cpcm
|  6>     smd true
|  7>     smdsolvent "water"
|  8> end
|  9> * xyz 0 1
| 10> C -0.8625376652 5.18019e-05 -3.16533e-05
| 11> F -1.3186498482 -0.5058610427 1.1304019015
| 12> F -1.3196942064 1.2316449465 -0.1271053276
| 13> F -1.3191683392 -0.7261911683 -1.0030071637
| 14> Br 1.0706176616 8.90473e-05 -6.40541e-05
| 15> *
| 16>
| 17>                          ****END OF INPUT****

CARTESIAN COORDINATES (ANGSTROEM)
---------------------------------
  C     -0.862538    0.000052   -0.000032
  F     -1.318650   -0.505861    1.130402
  F     -1.319694    1.231645   -0.127105
  F     -1.319168   -0.726191   -1.003007
  Br     1.070618    0.000089   -0.000064

 Total Charge           Charge          ....    0
 Multiplicity           Mult            ....    1
 Number of Electrons    NEL             ....   68
 Basis Dimension        Dim             ....  127

ORBITAL ENERGIES
----------------

  NO   OCC          E(Eh)            E(eV)
   0   2.0000    -482.257650    -13122.8978
   1   2.0000     -62.329569     -1696.0738
   2   2.0000     -56.110220     -1526.8367
   3   2.0000     -56.107186     -1526.7542
   4   2.0000     -56.107186     -1526.7541
   5   2.0000     -24.552477      -668.1069
   6   2.0000     -24.552459      -668.1064
   7   2.0000     -24.552423      -668.1054
   8   2.0000     -10.347524      -281.5705
   9   2.0000      -8.661602      -235.6942
  10   2.0000      -6.470110      -176.0606
  11   2.0000      -6.454869      -175.6459
  12   2.0000      -6.454868      -175.6459
  13   2.0000      -2.567507       -69.8654
  14   2.0000      -2.563659       -69.7607
  15   2.0000      -2.563658       -69.7607
  16   2.0000      -2.552286       -69.4512
  17   2.0000      -2.552280       -69.4511
  18   2.0000      -1.320115       -35.9222
  19   2.0000      -1.227247       -33.3951
  20   2.0000      -1.227230       -33.3946
  21   2.0000      -0.801024       -21.7970
  22   2.0000      -0.680888       -18.5279
  23   2.0000      -0.594693       -16.1824
  24   2.0000      -0.594683       -16.1821
  25   2.0000      -0.552795       -15.0423
  26   2.0000      -0.460589       -12.5333
  27   2.0000      -0.460572       -12.5328
  28   2.0000      -0.425825       -11.5873
  29   2.0000      -0.425818       -11.5871
  30   2.0000      -0.399070       -10.8592
  31   2.0000      -0.376109       -10.2344
  32   2.0000      -0.297283        -8.0895
  33   2.0000      -0.297270        -8.0891
  34   0.0000      -0.064074        -1.7435
  35   0.0000       0.094086         2.5602
  36   0.0000       0.094089         2.5603
  37   0.0000       0.110715         3.0127
  38   0.0000       0.163472         4.4483

MULLIKEN ATOMIC CHARGES
-----------------------
   0 C :    0.463146
   1 F :   -0.142324
   2 F :   -0.142314
   3 F :   -0.142416
   4 Br:   -0.036091
Sum of atomic charges:    0.0000000

LOEWDIN ATOMIC CHARGES
----------------------
   0 C :    0.342701
   1 F :   -0.191398
   2 F :   -0.191320
   3 F :   -0.191392
   4 Br:    0.231409

  Mayer bond orders larger than 0.100000
B(  0-C ,  1-F ) :   1.0188 B(  0-C ,  2-F ) :   1.0189 B(  0-C ,  3-F ) :   1.0187
B(  0-C ,  4-Br) :   1.1747

Dispersion correction           -0.000915462
FINAL SINGLE POINT ENERGY     -2911.764467041387

DIPOLE MOMENT
-------------

Method             : SCF
Type of density    : Electron Density
Multiplicity       :   1
Irrep              :   0
Energy             : -2911.7724251200152139 Eh
Relativity type    :
Basis              : AO
                                X                 Y                 Z
Electronic contribution:      6.359253893       0.000482927      -0.000148397
Nuclear contribution   :     -6.274115984      -0.000449472       0.000326603
                        -----------------------------------------
Total Dipole Moment    :      0.085137909       0.000033456       0.000178206
                        -----------------------------------------
Magnitude (a.u.)       :      0.085138102
Magnitude (Debye)      :      0.216403858

Rotational constants in cm-1:             0.192892             0.069260             0.069259
Rotational constants in MHz :          5782.748910          2076.369071          2076.334922

                             ****ORCA TERMINATED NORMALLY****
TOTAL RUN TIME: 0 days 0 hours 0 minutes 12 seconds 838 msec
