                         Program Version 6.0.0  -   RELEASE  -
|  1> ! pbe def2-sv(p) def2/J RI DEFGRID1 loosescf d4 GCP(DFT/SV(P)) printgap
|  2> %output
|  3>     printlevel normal
|  4> end
|  5> * xyz 0 1
|  6> C 2.1248514846 -2.0974523719 -0.0403727664
|  7> C 1.1680925377 -0.9672359262 0.1091950613
|  8> C 1.5480360117 0.3139252615 -0.0225779945
|  9> C 0.6337487153 1.4295830973 0.1219372077
| 10> O 0.9888197992 2.593988135 -0.0498526318
| 11> C -0.776669948 1.0891124326 0.5367085542
| 12> C -1.253757349 -0.2599804893 -0.0114877558
| 13> C -0.2463688986 -1.3336236168 0.421427268
| 14> C -1.3416429223 -0.203048403 -1.5382189649
| 15> C -2.6340544259 -0.5888234399 0.5604491264
| 16> H 3.1474961526 -1.7433592831 -0.1298330243
| 17> H 1.8727662432 -2.6725614974 -0.9304416775
| 18> H 2.0472601341 -2.7678731678 0.8132230667
| 19> H 2.5709824925 0.5732514228 -0.2582607103
| 20> H -0.7770016894 1.0588467413 1.6309510617
| 21> H -1.4380368591 1.9019228635 0.2305425485
| 22> H -0.3227471313 -1.4760362816 1.5043901612
| 23> H -0.49173053 -2.2878993868 -0.0474481252
| 24> H -0.3723890749 0.0280691392 -1.9744538479
| 25> H -2.0434565697 0.5679983369 -1.847458681
| 26> H -1.6834761991 -1.1558808684 -1.9349121129
| 27> H -2.6056588353 -0.622237629 1.6469301674
| 28> H -2.9748183081 -1.5538626373 0.1940094549
| 29> H -3.3571990991 0.1655570409 0.2608009173
| 30> *
| 31>
| 32>                          ****END OF INPUT****

CARTESIAN COORDINATES (ANGSTROEM)
---------------------------------
  C      2.124851   -2.097452   -0.040373
  C      1.168093   -0.967236    0.109195
  C      1.548036    0.313925   -0.022578
  C      0.633749    1.429583    0.121937
  O      0.988820    2.593988   -0.049853
  C     -0.776670    1.089112    0.536709
  C     -1.253757   -0.259980   -0.011488
  C     -0.246369   -1.333624    0.421427
  C     -1.341643   -0.203048   -1.538219
  C     -2.634054   -0.588823    0.560449
  H      3.147496   -1.743359   -0.129833
  H      1.872766   -2.672561   -0.930442
  H      2.047260   -2.767873    0.813223
  H      2.570982    0.573251   -0.258261
  H     -0.777002    1.058847    1.630951
  H     -1.438037    1.901923    0.230543
  H     -0.322747   -1.476036    1.504390
  H     -0.491731   -2.287899   -0.047448
  H     -0.372389    0.028069   -1.974454
  H     -2.043457    0.567998   -1.847459
  H     -1.683476   -1.155881   -1.934912
  H     -2.605659   -0.622238    1.646930
  H     -2.974818   -1.553863    0.194009
  H     -3.357199    0.165557    0.260801

 Total Charge           Charge          ....    0
 Multiplicity           Mult            ....    1
 Number of Electrons    NEL             ....   76
 Basis Dimension        Dim             ....  168

ORBITAL ENERGIES
----------------

  NO   OCC          E(Eh)            E(eV)
   0   2.0000     -18.721219      -509.4303
   1   2.0000      -9.959310      -271.0066
   2   2.0000      -9.922242      -269.9979
   3   2.0000      -9.920491      -269.9503
   4   2.0000      -9.901736      -269.4399
   5   2.0000      -9.894509      -269.2433
   6   2.0000      -9.887508      -269.0528
   7   2.0000      -9.886781      -269.0330
   8   2.0000      -9.881516      -268.8897
   9   2.0000      -9.879508      -268.8351
  10   2.0000      -0.914446       -24.8833
  11   2.0000      -0.782804       -21.3012
  12   2.0000      -0.726364       -19.7654
  13   2.0000      -0.667604       -18.1664
  14   2.0000      -0.631710       -17.1897
  15   2.0000      -0.624111       -16.9829
  16   2.0000      -0.618556       -16.8318
  17   2.0000      -0.515492       -14.0273
  18   2.0000      -0.503585       -13.7032
  19   2.0000      -0.457027       -12.4363
  20   2.0000      -0.432594       -11.7715
  21   2.0000      -0.431311       -11.7366
  22   2.0000      -0.404471       -11.0062
  23   2.0000      -0.400026       -10.8853
  24   2.0000      -0.379484       -10.3263
  25   2.0000      -0.376624       -10.2484
  26   2.0000      -0.359698        -9.7879
  27   2.0000      -0.353003        -9.6057
  28   2.0000      -0.347014        -9.4427
  29   2.0000      -0.341816        -9.3013
  30   2.0000      -0.336325        -9.1519
  31   2.0000      -0.324555        -8.8316
  32   2.0000      -0.318378        -8.6635
  33   2.0000      -0.293629        -7.9900
  34   2.0000      -0.288666        -7.8550
  35   2.0000      -0.282364        -7.6835
  36   2.0000      -0.231218        -6.2918
  37   2.0000      -0.182628        -4.9696
  38   0.0000      -0.078149        -2.1265
  39   0.0000       0.014752         0.4014
  40   0.0000       0.029839         0.8120
  41   0.0000       0.051605         1.4042
  42   0.0000       0.069716         1.8971

MULLIKEN ATOMIC CHARGES
-----------------------
   0 C :   -0.211301
   1 C :   -0.066178
   2 C :   -0.145713
   3 C :    0.044251
   4 O :   -0.182396
   5 C :   -0.057113
   6 C :   -0.328094
   7 C :   -0.025570
   8 C :   -0.209534
   9 C :   -0.171167
  10 H :    0.111625
  11 H :    0.121148
  12 H :    0.117185
  13 H :    0.043185
  14 H :    0.098995
  15 H :    0.085670
  16 H :    0.095933
  17 H :    0.081801
  18 H :    0.119601
  19 H :    0.102392
  20 H :    0.093501
  21 H :    0.089594
  22 H :    0.093556
  23 H :    0.098628
Sum of atomic charges:    0.0000000

LOEWDIN ATOMIC CHARGES
----------------------
   0 C :   -0.320820
   1 C :   -0.013005
   2 C :   -0.174408
   3 C :    0.029692
   4 O :   -0.149054
   5 C :   -0.222104
   6 C :   -0.097595
   7 C :   -0.195466
   8 C :   -0.318264
   9 C :   -0.314806
  10 H :    0.129396
  11 H :    0.138324
  12 H :    0.134861
  13 H :    0.128640
  14 H :    0.137391
  15 H :    0.129903
  16 H :    0.136647
  17 H :    0.123932
  18 H :    0.123677
  19 H :    0.122215
  20 H :    0.117239
  21 H :    0.115470
  22 H :    0.117442
  23 H :    0.120692

  Mayer bond orders larger than 0.100000
B(  0-C ,  1-C ) :   1.1285 B(  0-C , 10-H ) :   0.9408 B(  0-C , 11-H ) :   0.9199
B(  0-C , 12-H ) :   0.9288 B(  1-C ,  2-C ) :   1.7077 B(  1-C ,  7-C ) :   1.0707
B(  2-C ,  3-C ) :   1.0525 B(  2-C , 13-H ) :   0.9411 B(  3-C ,  4-O ) :   2.0994
B(  3-C ,  5-C ) :   1.0367 B(  5-C ,  6-C ) :   1.0173 B(  5-C , 14-H ) :   0.8804
B(  5-C , 15-H ) :   0.8892 B(  6-C ,  7-C ) :   1.0305 B(  6-C ,  8-C ) :   1.0733
B(  6-C ,  9-C ) :   1.0868 B(  7-C , 16-H ) :   0.8671 B(  7-C , 17-H ) :   0.9018
B(  8-C , 18-H ) :   0.9384 B(  8-C , 19-H ) :   0.9469 B(  8-C , 20-H ) :   0.9464
B(  9-C , 21-H ) :   0.9410 B(  9-C , 22-H ) :   0.9442 B(  9-C , 23-H ) :   0.9437

Dispersion correction           -0.025327743
FINAL SINGLE POINT ENERGY      -425.633370263921

DIPOLE MOMENT
-------------

Method             : SCF
Type of density    : Electron Density
Multiplicity       :   1
Irrep              :   0
Energy             :  -425.7077170017322487 Eh
Relativity type    :
Basis              : AO
                                X                 Y                 Z
Electronic contribution:      5.671881802       7.775838998       0.955162082
Nuclear contribution   :     -6.015883968      -9.328257548      -0.790638940
                        -----------------------------------------
Total Dipole Moment    :     -0.344002166      -1.552418550       0.164523142
                        -----------------------------------------
Magnitude (a.u.)       :      1.598564578
Magnitude (Debye)      :      4.063228246

Rotational constants in cm-1:             0.050710             0.045285             0.028714
Rotational constants in MHz :          1520.246839          1357.598349           860.818656

                             ****ORCA TERMINATED NORMALLY****
TOTAL RUN TIME: 0 days 0 hours 0 minutes 11 seconds 905 msec
