                         Program Version 6.0.0  -   RELEASE  -
|  1> ! r2scan-3c def2/J RI DEFGRID2 scfconv6 printgap
|  2> %output
|  3>     printlevel normal
|  4> end
|  5> * xyz 0 1
|  6> C -1.0737097014 -1.8723668475 3.19215e-05
|  7> C 0.2533235054 -1.4882453955 8.32216e-05
|  8> C 0.5513981969 -0.1269598603 0.0001582868
|  9> C -0.4471517923 0.8393104951 0.0001754711
| 10> C -1.7801805003 0.4400480222 -3.89529e-05
| 11> C -2.0831026618 -0.9236944157 -0.0001411785
| 12> O -2.7251875144 1.3964495287 -6.54947e-05
| 13> N 1.9115595967 0.2895698678 0.0001294374
| 14> O 2.7838816912 -0.5662675052 -0.0001857065
| 15> O 2.1590858768 1.4857945151 -7.37412e-05
| 16> H -1.3269019881 -2.91986731 -0.000323582
| 17> H 1.0561531474 -2.2070492594 9.68514e-05
| 18> H -0.1948650214 1.8874966462 0.0001540198
| 19> H -3.1140281141 -1.2431143288 0.0002650738
| 20> H -3.6187666324 1.0164121096 -3.58331e-05
| 21> *
| 22>
| 23>                          ****END OF INPUT****

CARTESIAN COORDINATES (ANGSTROEM)
---------------------------------
  C     -1.073710   -1.872367    0.000032
  C      0.253324   -1.488245    0.000083
  C      0.551398   -0.126960    0.000158
  C     -0.447152    0.839310    0.000175
  C     -1.780181    0.440048   -0.000039
  C     -2.083103   -0.923694   -0.000141
  O     -2.725188    1.396450   -0.000065
  N      1.911560    0.289570    0.000129
  O      2.783882   -0.566268   -0.000186
  O      2.159086    1.485795   -0.000074
  H     -1.326902   -2.919867   -0.000324
  H      1.056153   -2.207049    0.000097
  H     -0.194865    1.887497    0.000154
  H     -3.114028   -1.243114    0.000265
  H     -3.618767    1.016412   -0.000036

 Total Charge           Charge          ....    0
 Multiplicity           Mult            ....    1
 Number of Electrons    NEL             ....   72
 Basis Dimension        Dim             ....  235

ORBITAL ENERGIES
----------------

  NO   OCC          E(Eh)            E(eV)
   0   2.0000     -19.013360      -517.3798
   1   2.0000     -18.979362      -516.4547
   2   2.0000     -18.978665      -516.4357
   3   2.0000     -14.391293      -391.6070
   4   2.0000     -10.130675      -275.6697
   5   2.0000     -10.105943      -274.9967
   6   2.0000     -10.069928      -274.0167
   7   2.0000     -10.068989      -273.9911
   8   2.0000     -10.065411      -273.8937
   9   2.0000     -10.063071      -273.8301
  10   2.0000      -1.199779       -32.6476
  11   2.0000      -1.061785       -28.8927
  12   2.0000      -1.019117       -27.7316
  13   2.0000      -0.866046       -23.5663
  14   2.0000      -0.788527       -21.4569
  15   2.0000      -0.746206       -20.3053
  16   2.0000      -0.685855       -18.6631
  17   2.0000      -0.611672       -16.6444
  18   2.0000      -0.599790       -16.3211
  19   2.0000      -0.539539       -14.6816
  20   2.0000      -0.509519       -13.8647
  21   2.0000      -0.500133       -13.6093
  22   2.0000      -0.488257       -13.2861
  23   2.0000      -0.487345       -13.2613
  24   2.0000      -0.457934       -12.4610
  25   2.0000      -0.430002       -11.7009
  26   2.0000      -0.413310       -11.2467
  27   2.0000      -0.387405       -10.5418
  28   2.0000      -0.374465       -10.1897
  29   2.0000      -0.344089        -9.3631
  30   2.0000      -0.343785        -9.3549
  31   2.0000      -0.288003        -7.8370
  32   2.0000      -0.279710        -7.6113
  33   2.0000      -0.272712        -7.4209
  34   2.0000      -0.253044        -6.8857
  35   2.0000      -0.236600        -6.4382
  36   0.0000      -0.124550        -3.3892
  37   0.0000      -0.051896        -1.4122
  38   0.0000      -0.025514        -0.6943
  39   0.0000       0.034070         0.9271
  40   0.0000       0.063415         1.7256

MULLIKEN ATOMIC CHARGES
-----------------------
   0 C :   -0.113459
   1 C :   -0.237914
   2 C :    0.045821
   3 C :   -0.369693
   4 C :    0.446992
   5 C :   -0.280283
   6 O :   -0.396536
   7 N :    0.356111
   8 O :   -0.228856
   9 O :   -0.223902
  10 H :    0.155422
  11 H :    0.185169
  12 H :    0.195802
  13 H :    0.143027
  14 H :    0.322301
Sum of atomic charges:   -0.0000000

LOEWDIN ATOMIC CHARGES
----------------------
   0 C :   -0.139620
   1 C :   -0.098718
   2 C :    0.198453
   3 C :   -0.050283
   4 C :    0.186749
   5 C :   -0.141288
   6 O :   -0.477162
   7 N :   -0.490077
   8 O :   -0.018530
   9 O :   -0.017418
  10 H :    0.174599
  11 H :    0.198921
  12 H :    0.211207
  13 H :    0.172516
  14 H :    0.290649

  Mayer bond orders larger than 0.100000
B(  0-C ,  1-C ) :   1.3566 B(  0-C ,  5-C ) :   1.4095 B(  0-C , 10-H ) :   0.9495
B(  1-C ,  2-C ) :   1.4122 B(  1-C ,  8-O ) :   0.1041 B(  1-C , 11-H ) :   0.9365
B(  2-C ,  3-C ) :   1.3977 B(  2-C ,  7-N ) :   0.9531 B(  3-C ,  4-C ) :   1.3258
B(  3-C ,  6-O ) :   0.1368 B(  3-C , 12-H ) :   0.9391 B(  4-C ,  5-C ) :   1.3153
B(  4-C ,  6-O ) :   0.8930 B(  5-C , 13-H ) :   0.9346 B(  6-O , 14-H ) :   0.8753
B(  7-N ,  8-O ) :   1.8451 B(  7-N ,  9-O ) :   1.8444 B(  8-O ,  9-O ) :   0.2506

Dispersion correction           -0.005155681
FINAL SINGLE POINT ENERGY      -511.892038297480

DIPOLE MOMENT
-------------

Method             : SCF
Type of density    : Electron Density
Multiplicity       :   1
Irrep              :   0
Energy             :  -511.8971699552620862 Eh
Relativity type    :
Basis              : AO
                                X                 Y                 Z
Electronic contribution:      4.472328116       2.395594471       0.000092945
Nuclear contribution   :     -6.709984465      -3.215923605       0.000142751
                        -----------------------------------------
Total Dipole Moment    :     -2.237656349      -0.820329134       0.000235696
                        -----------------------------------------
Magnitude (a.u.)       :      2.383284682
Magnitude (Debye)      :      6.057828239

Rotational constants in cm-1:             0.092401             0.033358             0.024510
Rotational constants in MHz :          2770.123029          1000.041770           734.779221

                             ****ORCA TERMINATED NORMALLY****
TOTAL RUN TIME: 0 days 0 hours 0 minutes 26 seconds 190 msec
