                         Program Version 6.0.0  -   RELEASE  -
|  1> ! r2scan-3c def2/J RI DEFGRID2 scfconv6 printgap
|  2> %output
|  3>     printlevel normal
|  4> end
|  5> %cpcm
|  6>     smd true
|  7>     smdsolvent "water"
|  8> end
|  9> * xyz 0 1
| 10> C -1.0737097014 -1.8723668475 3.19215e-05
| 11> C 0.2533235054 -1.4882453955 8.32216e-05
| 12> C 0.5513981969 -0.1269598603 0.0001582868
| 13> C -0.4471517923 0.8393104951 0.0001754711
| 14> C -1.7801805003 0.4400480222 -3.89529e-05
| 15> C -2.0831026618 -0.9236944157 -0.0001411785
| 16> O -2.7251875144 1.3964495287 -6.54947e-05
| 17> N 1.9115595967 0.2895698678 0.0001294374
| 18> O 2.7838816912 -0.5662675052 -0.0001857065
| 19> O 2.1590858768 1.4857945151 -7.37412e-05
| 20> H -1.3269019881 -2.91986731 -0.000323582
| 21> H 1.0561531474 -2.2070492594 9.68514e-05
| 22> H -0.1948650214 1.8874966462 0.0001540198
| 23> H -3.1140281141 -1.2431143288 0.0002650738
| 24> H -3.6187666324 1.0164121096 -3.58331e-05
| 25> *
| 26>
| 27>                          ****END OF INPUT****

CARTESIAN COORDINATES (ANGSTROEM)
---------------------------------
  C     -1.073710   -1.872367    0.000032
  C      0.253324   -1.488245    0.000083
  C      0.551398   -0.126960    0.000158
  C     -0.447152    0.839310    0.000175
  C     -1.780181    0.440048   -0.000039
  C     -2.083103   -0.923694   -0.000141
  O     -2.725188    1.396450   -0.000065
  N      1.911560    0.289570    0.000129
  O      2.783882   -0.566268   -0.000186
  O      2.159086    1.485795   -0.000074
  H     -1.326902   -2.919867   -0.000324
  H      1.056153   -2.207049    0.000097
  H     -0.194865    1.887497    0.000154
  H     -3.114028   -1.243114    0.000265
  H     -3.618767    1.016412   -0.000036

 Total Charge           Charge          ....    0
 Multiplicity           Mult            ....    1
 Number of Electrons    NEL             ....   72
 Basis Dimension        Dim             ....  235

ORBITAL ENERGIES
----------------

  NO   OCC          E(Eh)            E(eV)
   0   2.0000     -18.993532      -516.8403
   1   2.0000     -18.993017      -516.8263
   2   2.0000     -18.992863      -516.8221
   3   2.0000     -14.404516      -391.9668
   4   2.0000     -10.116980      -275.2970
   5   2.0000     -10.100636      -274.8523
   6   2.0000     -10.055967      -273.6368
   7   2.0000     -10.053439      -273.5680
   8   2.0000     -10.053114      -273.5591
   9   2.0000     -10.052631      -273.5460
  10   2.0000      -1.213616       -33.0242
  11   2.0000      -1.041870       -28.3507
  12   2.0000      -1.033789       -28.1308
  13   2.0000      -0.858736       -23.3674
  14   2.0000      -0.782746       -21.2996
  15   2.0000      -0.733943       -19.9716
  16   2.0000      -0.678675       -18.4677
  17   2.0000      -0.597785       -16.2666
  18   2.0000      -0.587475       -15.9860
  19   2.0000      -0.547301       -14.8928
  20   2.0000      -0.520620       -14.1668
  21   2.0000      -0.500623       -13.6226
  22   2.0000      -0.484857       -13.1936
  23   2.0000      -0.476190       -12.9578
  24   2.0000      -0.452427       -12.3112
  25   2.0000      -0.415031       -11.2936
  26   2.0000      -0.400053       -10.8860
  27   2.0000      -0.374163       -10.1815
  28   2.0000      -0.358028        -9.7424
  29   2.0000      -0.333527        -9.0757
  30   2.0000      -0.329644        -8.9701
  31   2.0000      -0.304693        -8.2911
  32   2.0000      -0.296020        -8.0551
  33   2.0000      -0.270138        -7.3508
  34   2.0000      -0.263733        -7.1765
  35   2.0000      -0.225053        -6.1240
  36   0.0000      -0.131104        -3.5675
  37   0.0000      -0.040997        -1.1156
  38   0.0000      -0.019347        -0.5265
  39   0.0000       0.073495         1.9999
  40   0.0000       0.082705         2.2505

MULLIKEN ATOMIC CHARGES
-----------------------
   0 C :   -0.149980
   1 C :   -0.256164
   2 C :    0.073087
   3 C :   -0.377053
   4 C :    0.378459
   5 C :   -0.254036
   6 O :   -0.431350
   7 N :    0.404620
   8 O :   -0.291180
   9 O :   -0.285772
  10 H :    0.194025
  11 H :    0.204753
  12 H :    0.212252
  13 H :    0.197601
  14 H :    0.380739
Sum of atomic charges:   -0.0000000

LOEWDIN ATOMIC CHARGES
----------------------
   0 C :   -0.137742
   1 C :   -0.099006
   2 C :    0.193774
   3 C :   -0.057203
   4 C :    0.185116
   5 C :   -0.112822
   6 O :   -0.485170
   7 N :   -0.490836
   8 O :   -0.056151
   9 O :   -0.054393
  10 H :    0.188444
  11 H :    0.203900
  12 H :    0.214426
  13 H :    0.194072
  14 H :    0.313591

  Mayer bond orders larger than 0.100000
B(  0-C ,  1-C ) :   1.3442 B(  0-C ,  5-C ) :   1.3746 B(  0-C , 10-H ) :   0.9555
B(  1-C ,  2-C ) :   1.3304 B(  1-C , 11-H ) :   0.9448 B(  2-C ,  3-C ) :   1.3511
B(  2-C ,  7-N ) :   0.9906 B(  3-C ,  4-C ) :   1.3336 B(  3-C ,  6-O ) :   0.1307
B(  3-C , 12-H ) :   0.9306 B(  4-C ,  5-C ) :   1.3231 B(  4-C ,  6-O ) :   0.9202
B(  5-C , 13-H ) :   0.9392 B(  6-O , 14-H ) :   0.8420 B(  7-N ,  8-O ) :   1.7868
B(  7-N ,  9-O ) :   1.7892 B(  8-O ,  9-O ) :   0.2311

Dispersion correction           -0.005155681
FINAL SINGLE POINT ENERGY      -511.904059557224

DIPOLE MOMENT
-------------

Method             : SCF
Type of density    : Electron Density
Multiplicity       :   1
Irrep              :   0
Energy             :  -511.9091912150058761 Eh
Relativity type    :
Basis              : AO
                                X                 Y                 Z
Electronic contribution:      3.493420802       2.001342401       0.000164258
Nuclear contribution   :     -6.709984465      -3.215923605       0.000142751
                        -----------------------------------------
Total Dipole Moment    :     -3.216563663      -1.214581204       0.000307009
                        -----------------------------------------
Magnitude (a.u.)       :      3.438239287
Magnitude (Debye)      :      8.739309743

Rotational constants in cm-1:             0.092401             0.033358             0.024510
Rotational constants in MHz :          2770.123029          1000.041770           734.779221

                             ****ORCA TERMINATED NORMALLY****
TOTAL RUN TIME: 0 days 0 hours 0 minutes 34 seconds 447 msec
