                         Program Version 6.0.0  -   RELEASE  -
|  1> ! pbe def2-sv(p) def2/J RI DEFGRID1 loosescf d4 GCP(DFT/SV(P)) printgap
|  2> %output
|  3>     printlevel normal
|  4> end
|  5> * xyz 0 1
|  6> C -2.2537782483 -0.9757855152 0.7695341144
|  7> C -0.8140980185 -0.4504757482 0.7455438035
|  8> H -0.5301298354 -0.1545433248 1.7650955035
|  9> C -0.6498719569 0.7576537549 -0.1926485697
| 10> H -0.8275656228 0.41233025 -1.2197019334
| 11> C 0.7885532253 1.2994407072 -0.0955092716
| 12> H 0.780515674 2.1108182357 0.6404055223
| 13> C 1.7715807032 0.195535616 0.3609091125
| 14> H 2.7423188118 0.3986788821 -0.1128457766
| 15> C 1.2856208136 -1.1590733904 -0.1695656903
| 16> H 1.9711330951 -1.9525500302 0.1676922237
| 17> O 0.0279133598 -1.5234430755 0.3298524729
| 18> O 1.2778360961 -1.0679947228 -1.5643029807
| 19> O 1.9022444459 0.0934131837 1.7543864625
| 20> O 1.2191042015 1.8826424813 -1.2973885958
| 21> O -1.5356720264 1.7972323944 0.140677388
| 22> O -2.838173319 -0.853847097 -0.5092013583
| 23> H -2.8234517893 -0.3963480755 1.5061340249
| 24> H -2.2058722162 -2.0219996955 1.0874839173
| 25> H 0.9839487955 -1.9106244963 -1.9437715801
| 26> H 2.3634455374 0.8744087832 2.0945364798
| 27> H 1.254446322 1.1938542431 -1.9801352209
| 28> H -2.4185448766 1.5652735845 -0.1820976501
| 29> H -3.6610132865 -1.3612262922 -0.5328110766
| 30> *
| 31>
| 32>                          ****END OF INPUT****

CARTESIAN COORDINATES (ANGSTROEM)
---------------------------------
  C     -2.253778   -0.975786    0.769534
  C     -0.814098   -0.450476    0.745544
  H     -0.530130   -0.154543    1.765096
  C     -0.649872    0.757654   -0.192649
  H     -0.827566    0.412330   -1.219702
  C      0.788553    1.299441   -0.095509
  H      0.780516    2.110818    0.640406
  C      1.771581    0.195536    0.360909
  H      2.742319    0.398679   -0.112846
  C      1.285621   -1.159073   -0.169566
  H      1.971133   -1.952550    0.167692
  O      0.027913   -1.523443    0.329852
  O      1.277836   -1.067995   -1.564303
  O      1.902244    0.093413    1.754386
  O      1.219104    1.882642   -1.297389
  O     -1.535672    1.797232    0.140677
  O     -2.838173   -0.853847   -0.509201
  H     -2.823452   -0.396348    1.506134
  H     -2.205872   -2.022000    1.087484
  H      0.983949   -1.910624   -1.943772
  H      2.363446    0.874409    2.094536
  H      1.254446    1.193854   -1.980135
  H     -2.418545    1.565274   -0.182098
  H     -3.661013   -1.361226   -0.532811

 Total Charge           Charge          ....    0
 Multiplicity           Mult            ....    1
 Number of Electrons    NEL             ....   96
 Basis Dimension        Dim             ....  192

ORBITAL ENERGIES
----------------

  NO   OCC          E(Eh)            E(eV)
   0   2.0000     -18.768777      -510.7244
   1   2.0000     -18.760560      -510.5008
   2   2.0000     -18.759800      -510.4801
   3   2.0000     -18.757289      -510.4118
   4   2.0000     -18.738537      -509.9015
   5   2.0000     -18.730112      -509.6723
   6   2.0000      -9.984107      -271.6814
   7   2.0000      -9.938615      -270.4435
   8   2.0000      -9.934863      -270.3414
   9   2.0000      -9.932006      -270.2636
  10   2.0000      -9.928553      -270.1697
  11   2.0000      -9.926493      -270.1136
  12   2.0000      -0.979244       -26.6466
  13   2.0000      -0.936333       -25.4789
  14   2.0000      -0.933782       -25.4095
  15   2.0000      -0.919408       -25.0184
  16   2.0000      -0.911573       -24.8052
  17   2.0000      -0.902796       -24.5663
  18   2.0000      -0.693508       -18.8713
  19   2.0000      -0.686276       -18.6745
  20   2.0000      -0.622958       -16.9516
  21   2.0000      -0.568965       -15.4823
  22   2.0000      -0.559855       -15.2344
  23   2.0000      -0.518658       -14.1134
  24   2.0000      -0.500093       -13.6082
  25   2.0000      -0.477597       -12.9961
  26   2.0000      -0.471534       -12.8311
  27   2.0000      -0.455617       -12.3980
  28   2.0000      -0.447788       -12.1849
  29   2.0000      -0.426532       -11.6065
  30   2.0000      -0.412062       -11.2128
  31   2.0000      -0.387900       -10.5553
  32   2.0000      -0.376868       -10.2551
  33   2.0000      -0.358351        -9.7512
  34   2.0000      -0.351533        -9.5657
  35   2.0000      -0.350214        -9.5298
  36   2.0000      -0.338859        -9.2208
  37   2.0000      -0.311286        -8.4705
  38   2.0000      -0.295296        -8.0354
  39   2.0000      -0.290254        -7.8982
  40   2.0000      -0.284370        -7.7381
  41   2.0000      -0.257286        -7.0011
  42   2.0000      -0.241565        -6.5733
  43   2.0000      -0.237425        -6.4607
  44   2.0000      -0.228840        -6.2271
  45   2.0000      -0.225286        -6.1303
  46   2.0000      -0.200777        -5.4634
  47   2.0000      -0.194194        -5.2843
  48   0.0000       0.013635         0.3710
  49   0.0000       0.018424         0.5013
  50   0.0000       0.030654         0.8341
  51   0.0000       0.063506         1.7281
  52   0.0000       0.070596         1.9210

MULLIKEN ATOMIC CHARGES
-----------------------
   0 C :    0.031910
   1 C :    0.049081
   2 H :    0.065899
   3 C :    0.044370
   4 H :    0.049481
   5 C :    0.120367
   6 H :    0.053758
   7 C :   -0.012026
   8 H :    0.074649
   9 C :    0.182609
  10 H :    0.064696
  11 O :   -0.317060
  12 O :   -0.403764
  13 O :   -0.408599
  14 O :   -0.430525
  15 O :   -0.415706
  16 O :   -0.440334
  17 H :    0.075076
  18 H :    0.087535
  19 H :    0.308386
  20 H :    0.309235
  21 H :    0.300803
  22 H :    0.304574
  23 H :    0.305584
Sum of atomic charges:   -0.0000000

LOEWDIN ATOMIC CHARGES
----------------------
   0 C :   -0.131963
   1 C :   -0.067502
   2 H :    0.111923
   3 C :   -0.078350
   4 H :    0.106425
   5 C :   -0.065380
   6 H :    0.116979
   7 C :   -0.091964
   8 H :    0.110052
   9 C :    0.002313
  10 H :    0.098318
  11 O :   -0.147082
  12 O :   -0.315106
  13 O :   -0.309841
  14 O :   -0.316720
  15 O :   -0.318951
  16 O :   -0.342498
  17 H :    0.098940
  18 H :    0.109649
  19 H :    0.289712
  20 H :    0.291962
  21 H :    0.275594
  22 H :    0.283081
  23 H :    0.290411

  Mayer bond orders larger than 0.100000
B(  0-C ,  1-C ) :   1.0441 B(  0-C , 16-O ) :   1.0736 B(  0-C , 17-H ) :   0.9133
B(  0-C , 18-H ) :   0.9171 B(  1-C ,  2-H ) :   0.8654 B(  1-C ,  3-C ) :   1.0614
B(  1-C , 11-O ) :   0.9660 B(  3-C ,  4-H ) :   0.8415 B(  3-C ,  5-C ) :   1.0341
B(  3-C , 15-O ) :   1.0943 B(  5-C ,  6-H ) :   0.8570 B(  5-C ,  7-C ) :   0.9775
B(  5-C , 14-O ) :   1.0440 B(  7-C ,  8-H ) :   0.8868 B(  7-C ,  9-C ) :   1.0365
B(  7-C , 13-O ) :   1.0422 B(  9-C , 10-H ) :   0.8931 B(  9-C , 11-O ) :   1.0842
B(  9-C , 12-O ) :   1.1035 B( 12-O , 19-H ) :   0.8381 B( 13-O , 20-H ) :   0.8467
B( 14-O , 21-H ) :   0.8351 B( 15-O , 22-H ) :   0.8373 B( 16-O , 23-H ) :   0.8484

Dispersion correction           -0.024996645
FINAL SINGLE POINT ENERGY      -685.690984924811

DIPOLE MOMENT
-------------

Method             : SCF
Type of density    : Electron Density
Multiplicity       :   1
Irrep              :   0
Energy             :  -685.8215791109116708 Eh
Relativity type    :
Basis              : AO
                                X                 Y                 Z
Electronic contribution:      1.674048605       0.135930332      -1.182597253
Nuclear contribution   :     -2.223396087      -1.160280478       1.193247788
                        -----------------------------------------
Total Dipole Moment    :     -0.549347481      -1.024350146       0.010650535
                        -----------------------------------------
Magnitude (a.u.)       :      1.162406689
Magnitude (Debye)      :      2.954602997

Rotational constants in cm-1:             0.041465             0.026709             0.023187
Rotational constants in MHz :          1243.085789           800.722298           695.139528

                             ****ORCA TERMINATED NORMALLY****
TOTAL RUN TIME: 0 days 0 hours 0 minutes 12 seconds 16 msec
