                         Program Version 6.0.0  -   RELEASE  -
|  1> ! wb97x-v def2-tzvp def2/J RIJCOSX DEFGRID2 scfconv7 GCP(DFT/TZ) printgap
|  2> %output
|  3>     printlevel normal
|  4> end
|  5> * xyz 0 1
|  6> C -3.492146050741436 0.2836822449923331 3.2830417151040506e-05
|  7> C -2.758276279245192 1.4682835864605082 5.86798829450139e-05
|  8> C -1.3676065563251611 1.416815807932878 5.862860374709492e-05
|  9> C -0.7188515300743432 0.18593481734747347 3.384339366346303e-05
| 10> C -1.4488268448848038 -1.0079299811734894 9.002884466064217e-06
| 11> C -2.8450151550901652 -0.9439112164816004 7.994987869652101e-06
| 12> O -0.8844431427775689 -2.252121484307413 -1.2285106877260074e-05
| 13> I 1.4007020671254249 0.12571596896429302 4.0500341720924136e-05
| 14> H -4.576802133650526 0.3130503796667238 2.7990740984853057e-05
| 15> H -3.259017037089457 2.4303133990608425 7.632758677401206e-05
| 16> H -0.7864913055770671 2.3320214381981015 8.049334368658732e-05
| 17> H -3.403655266028891 -1.8744862001796094 -1.3218081923881107e-05
| 18> H 0.08366057041479905 -2.1697698724983803 -6.745639068154205e-06
| 19> *
| 20>
| 21>                          ****END OF INPUT****

CARTESIAN COORDINATES (ANGSTROEM)
---------------------------------
  C     -3.492146    0.283682    0.000033
  C     -2.758276    1.468284    0.000059
  C     -1.367607    1.416816    0.000059
  C     -0.718852    0.185935    0.000034
  C     -1.448827   -1.007930    0.000009
  C     -2.845015   -0.943911    0.000008
  O     -0.884443   -2.252121   -0.000012
  I      1.400702    0.125716    0.000041
  H     -4.576802    0.313050    0.000028
  H     -3.259017    2.430313    0.000076
  H     -0.786491    2.332021    0.000080
  H     -3.403655   -1.874486   -0.000013
  H      0.083661   -2.169770   -0.000007

 Total Charge           Charge          ....    0
 Multiplicity           Mult            ....    1
 Number of Electrons    NEL             ....   74
 Basis Dimension        Dim             ....  297

ORBITAL ENERGIES
----------------

  NO   OCC          E(Eh)            E(eV)
   0   2.0000     -21.712162      -590.8180
   1   2.0000     -12.132901      -330.1530
   2   2.0000     -12.107875      -329.4720
   3   2.0000     -12.072836      -328.5186
   4   2.0000     -12.066504      -328.3463
   5   2.0000     -12.060135      -328.1730
   6   2.0000     -12.058624      -328.1318
   7   2.0000      -8.140862      -221.5241
   8   2.0000      -6.112266      -166.3232
   9   2.0000      -6.101894      -166.0410
  10   2.0000      -6.101576      -166.0323
  11   2.0000      -3.032723       -82.5246
  12   2.0000      -3.029546       -82.4381
  13   2.0000      -3.029248       -82.4300
  14   2.0000      -3.019717       -82.1707
  15   2.0000      -3.019701       -82.1702
  16   2.0000      -1.728651       -47.0390
  17   2.0000      -1.402019       -38.1509
  18   2.0000      -1.298932       -35.3457
  19   2.0000      -1.295675       -35.2571
  20   2.0000      -1.200125       -32.6571
  21   2.0000      -1.158563       -31.5261
  22   2.0000      -1.129503       -30.7353
  23   2.0000      -1.070785       -29.1375
  24   2.0000      -1.017059       -27.6756
  25   2.0000      -0.957952       -26.0672
  26   2.0000      -0.955267       -25.9941
  27   2.0000      -0.948243       -25.8030
  28   2.0000      -0.907190       -24.6859
  29   2.0000      -0.868597       -23.6357
  30   2.0000      -0.840224       -22.8637
  31   2.0000      -0.789912       -21.4946
  32   2.0000      -0.786619       -21.4050
  33   2.0000      -0.684919       -18.6376
  34   2.0000      -0.655492       -17.8368
  35   2.0000      -0.650961       -17.7136
  36   2.0000      -0.626269       -17.0417
  37   0.0000      -0.291831        -7.9411
  38   0.0000      -0.264106        -7.1867
  39   0.0000      -0.255895        -6.9633
  40   0.0000      -0.148508        -4.0411
  41   0.0000      -0.087283        -2.3751

MULLIKEN ATOMIC CHARGES
-----------------------
   0 C :   -0.099583
   1 C :   -0.124916
   2 C :   -0.212553
   3 C :    0.086178
   4 C :    0.116936
   5 C :   -0.196678
   6 O :   -0.363158
   7 I :   -0.039648
   8 H :    0.124269
   9 H :    0.123372
  10 H :    0.145365
  11 H :    0.129761
  12 H :    0.310655
Sum of atomic charges:    0.0000000

LOEWDIN ATOMIC CHARGES
----------------------
   0 C :   -0.129528
   1 C :   -0.152160
   2 C :   -0.150566
   3 C :   -0.351629
   4 C :   -0.278546
   5 C :   -0.114045
   6 O :    0.082209
   7 I :    0.337707
   8 H :    0.145420
   9 H :    0.143531
  10 H :    0.147322
  11 H :    0.151087
  12 H :    0.169197

  Mayer bond orders larger than 0.100000
B(  0-C ,  1-C ) :   1.4158 B(  0-C ,  5-C ) :   1.4559 B(  0-C ,  8-H ) :   0.9716
B(  1-C ,  2-C ) :   1.4398 B(  1-C ,  9-H ) :   0.9703 B(  2-C ,  3-C ) :   1.3535
B(  2-C , 10-H ) :   0.9553 B(  3-C ,  4-C ) :   1.3055 B(  3-C ,  7-I ) :   0.9867
B(  4-C ,  5-C ) :   1.3983 B(  4-C ,  6-O ) :   1.2259 B(  5-C , 11-H ) :   0.9662
B(  6-O , 12-H ) :   0.8580

FINAL SINGLE POINT ENERGY      -604.580857609819

DIPOLE MOMENT
-------------

Method             : SCF
Type of density    : Electron Density
Multiplicity       :   1
Irrep              :   0
Energy             :  -604.5895452015184901 Eh
Relativity type    :
Basis              : AO
                                X                 Y                 Z
Electronic contribution:    112.748037607       9.228664005       0.000471831
Nuclear contribution   :   -112.883424477      -8.861684002      -0.000463885
                        -----------------------------------------
Total Dipole Moment    :     -0.135386870       0.366980003       0.000007946
                        -----------------------------------------
Magnitude (a.u.)       :      0.391157164
Magnitude (Debye)      :      0.994242498

Rotational constants in cm-1:             0.095301             0.024258             0.019336
Rotational constants in MHz :          2857.056653           727.237491           579.684208

                             ****ORCA TERMINATED NORMALLY****
TOTAL RUN TIME: 0 days 0 hours 2 minutes 29 seconds 819 msec
