                         Program Version 6.0.0  -   RELEASE  -
|  1> ! wb97x-v def2-tzvp def2/J RIJCOSX DEFGRID2 scfconv7 GCP(DFT/TZ) printgap
|  2> %output
|  3>     printlevel normal
|  4> end
|  5> %cpcm
|  6>     smd true
|  7>     smdsolvent "water"
|  8> end
|  9> * xyz 0 1
| 10> C -3.492146050741436 0.2836822449923331 3.2830417151040506e-05
| 11> C -2.758276279245192 1.4682835864605082 5.86798829450139e-05
| 12> C -1.3676065563251611 1.416815807932878 5.862860374709492e-05
| 13> C -0.7188515300743432 0.18593481734747347 3.384339366346303e-05
| 14> C -1.4488268448848038 -1.0079299811734894 9.002884466064217e-06
| 15> C -2.8450151550901652 -0.9439112164816004 7.994987869652101e-06
| 16> O -0.8844431427775689 -2.252121484307413 -1.2285106877260074e-05
| 17> I 1.4007020671254249 0.12571596896429302 4.0500341720924136e-05
| 18> H -4.576802133650526 0.3130503796667238 2.7990740984853057e-05
| 19> H -3.259017037089457 2.4303133990608425 7.632758677401206e-05
| 20> H -0.7864913055770671 2.3320214381981015 8.049334368658732e-05
| 21> H -3.403655266028891 -1.8744862001796094 -1.3218081923881107e-05
| 22> H 0.08366057041479905 -2.1697698724983803 -6.745639068154205e-06
| 23> *
| 24>
| 25>                          ****END OF INPUT****

CARTESIAN COORDINATES (ANGSTROEM)
---------------------------------
  C     -3.492146    0.283682    0.000033
  C     -2.758276    1.468284    0.000059
  C     -1.367607    1.416816    0.000059
  C     -0.718852    0.185935    0.000034
  C     -1.448827   -1.007930    0.000009
  C     -2.845015   -0.943911    0.000008
  O     -0.884443   -2.252121   -0.000012
  I      1.400702    0.125716    0.000041
  H     -4.576802    0.313050    0.000028
  H     -3.259017    2.430313    0.000076
  H     -0.786491    2.332021    0.000080
  H     -3.403655   -1.874486   -0.000013
  H      0.083661   -2.169770   -0.000007

 Total Charge           Charge          ....    0
 Multiplicity           Mult            ....    1
 Number of Electrons    NEL             ....   74
 Basis Dimension        Dim             ....  297

ORBITAL ENERGIES
----------------

  NO   OCC          E(Eh)            E(eV)
   0   2.0000     -21.707927      -590.7027
   1   2.0000     -12.126177      -329.9701
   2   2.0000     -12.098112      -329.2064
   3   2.0000     -12.062608      -328.2403
   4   2.0000     -12.057314      -328.0962
   5   2.0000     -12.052439      -327.9635
   6   2.0000     -12.049274      -327.8774
   7   2.0000      -8.127429      -221.1586
   8   2.0000      -6.099114      -165.9653
   9   2.0000      -6.088137      -165.6666
  10   2.0000      -6.088102      -165.6657
  11   2.0000      -3.019510       -82.1651
  12   2.0000      -3.016066       -82.0713
  13   2.0000      -3.016053       -82.0710
  14   2.0000      -3.006034       -81.7983
  15   2.0000      -3.006024       -81.7981
  16   2.0000      -1.724457       -46.9249
  17   2.0000      -1.394785       -37.9540
  18   2.0000      -1.290617       -35.1195
  19   2.0000      -1.288339       -35.0575
  20   2.0000      -1.188523       -32.3414
  21   2.0000      -1.150816       -31.3153
  22   2.0000      -1.121337       -30.5131
  23   2.0000      -1.062590       -28.9145
  24   2.0000      -1.013255       -27.5721
  25   2.0000      -0.955974       -26.0134
  26   2.0000      -0.948511       -25.8103
  27   2.0000      -0.938979       -25.5509
  28   2.0000      -0.896596       -24.3976
  29   2.0000      -0.857623       -23.3371
  30   2.0000      -0.829908       -22.5829
  31   2.0000      -0.783604       -21.3230
  32   2.0000      -0.774819       -21.0839
  33   2.0000      -0.676061       -18.3966
  34   2.0000      -0.645132       -17.5549
  35   2.0000      -0.640317       -17.4239
  36   2.0000      -0.615756       -16.7556
  37   0.0000      -0.277030        -7.5384
  38   0.0000      -0.257218        -6.9993
  39   0.0000      -0.248972        -6.7749
  40   0.0000      -0.139906        -3.8070
  41   0.0000      -0.079842        -2.1726

MULLIKEN ATOMIC CHARGES
-----------------------
   0 C :   -0.146605
   1 C :   -0.171534
   2 C :   -0.243092
   3 C :    0.062369
   4 C :    0.151610
   5 C :   -0.242475
   6 O :   -0.429950
   7 I :   -0.019638
   8 H :    0.165724
   9 H :    0.165335
  10 H :    0.183663
  11 H :    0.160750
  12 H :    0.363842
Sum of atomic charges:    0.0000000

LOEWDIN ATOMIC CHARGES
----------------------
   0 C :   -0.137659
   1 C :   -0.160410
   2 C :   -0.154457
   3 C :   -0.356074
   4 C :   -0.288105
   5 C :   -0.127013
   6 O :    0.058790
   7 I :    0.355210
   8 H :    0.155003
   9 H :    0.152560
  10 H :    0.156939
  11 H :    0.157487
  12 H :    0.187731

  Mayer bond orders larger than 0.100000
B(  0-C ,  1-C ) :   1.3975 B(  0-C ,  5-C ) :   1.4423 B(  0-C ,  8-H ) :   0.9731
B(  1-C ,  2-C ) :   1.4177 B(  1-C ,  9-H ) :   0.9731 B(  2-C ,  3-C ) :   1.3230
B(  2-C , 10-H ) :   0.9582 B(  3-C ,  4-C ) :   1.3008 B(  3-C ,  7-I ) :   1.0035
B(  4-C ,  5-C ) :   1.3696 B(  4-C ,  6-O ) :   1.1831 B(  5-C , 11-H ) :   0.9750
B(  6-O , 12-H ) :   0.8326

FINAL SINGLE POINT ENERGY      -604.588879530240

DIPOLE MOMENT
-------------

Method             : SCF
Type of density    : Electron Density
Multiplicity       :   1
Irrep              :   0
Energy             :  -604.5975671219396190 Eh
Relativity type    :
Basis              : AO
                                X                 Y                 Z
Electronic contribution:    112.933005101       9.336090704       0.000475355
Nuclear contribution   :   -112.883424477      -8.861684002      -0.000463885
                        -----------------------------------------
Total Dipole Moment    :      0.049580624       0.474406702       0.000011470
                        -----------------------------------------
Magnitude (a.u.)       :      0.476990522
Magnitude (Debye)      :      1.212413554

Rotational constants in cm-1:             0.095301             0.024258             0.019336
Rotational constants in MHz :          2857.056653           727.237491           579.684208

                             ****ORCA TERMINATED NORMALLY****
TOTAL RUN TIME: 0 days 0 hours 2 minutes 34 seconds 887 msec
