                         Program Version 6.0.0  -   RELEASE  -
|  1> ! r2scan-3c def2/J RI DEFGRID2 scfconv6 printgap
|  2> %output
|  3>     printlevel normal
|  4> end
|  5> * xyz 0 1
|  6> C -2.6914522956 -0.475067411 0.6411701075
|  7> C -1.4689439776 -0.0283285271 -0.1105877669
|  8> O -1.4123056306 -0.0816621312 -1.3228982159
|  9> C -0.3496558896 0.4977496462 0.7665356025
| 10> C 0.5546033099 1.5162000594 0.0611269446
| 11> C 1.4441453959 0.8834730542 -1.0065366507
| 12> C 2.2632975997 -0.2622294233 -0.4225707336
| 13> C 1.3321794122 -1.3062592709 0.1846639583
| 14> C 0.4926125722 -0.6799728418 1.2925362414
| 15> H -3.2624462819 0.4125615718 0.908830129
| 16> H -3.3104076243 -1.108375745 0.0113213088
| 17> H -2.4227298906 -0.9922337021 1.5568347229
| 18> H -0.8210105119 0.9842980365 1.6266662542
| 19> H -0.0653962219 2.2906246173 -0.3961335126
| 20> H 1.1858910828 1.9901733252 0.8164885298
| 21> H 0.8192611392 0.5053681764 -1.8167214272
| 22> H 2.1066151096 1.6463865684 -1.4207807408
| 23> H 2.8750564295 -0.7159131505 -1.2042586482
| 24> H 2.9329507209 0.1216740754 0.3508975527
| 25> H 0.677517543 -1.7016472696 -0.5957497796
| 26> H 1.9117697731 -2.1370617351 0.5916503549
| 27> H -0.1556535163 -1.4345355326 1.7406956034
| 28> H 1.1571808543 -0.2996956092 2.0708148313
| 29> *
| 30>
| 31>                          ****END OF INPUT****

CARTESIAN COORDINATES (ANGSTROEM)
---------------------------------
  C     -2.691452   -0.475067    0.641170
  C     -1.468944   -0.028329   -0.110588
  O     -1.412306   -0.081662   -1.322898
  C     -0.349656    0.497750    0.766536
  C      0.554603    1.516200    0.061127
  C      1.444145    0.883473   -1.006537
  C      2.263298   -0.262229   -0.422571
  C      1.332179   -1.306259    0.184664
  C      0.492613   -0.679973    1.292536
  H     -3.262446    0.412562    0.908830
  H     -3.310408   -1.108376    0.011321
  H     -2.422730   -0.992234    1.556835
  H     -0.821011    0.984298    1.626666
  H     -0.065396    2.290625   -0.396134
  H      1.185891    1.990173    0.816489
  H      0.819261    0.505368   -1.816721
  H      2.106615    1.646387   -1.420781
  H      2.875056   -0.715913   -1.204259
  H      2.932951    0.121674    0.350898
  H      0.677518   -1.701647   -0.595750
  H      1.911770   -2.137062    0.591650
  H     -0.155654   -1.434536    1.740696
  H      1.157181   -0.299696    2.070815

 Total Charge           Charge          ....    0
 Multiplicity           Mult            ....    1
 Number of Electrons    NEL             ....   70
 Basis Dimension        Dim             ....  246

ORBITAL ENERGIES
----------------

  NO   OCC          E(Eh)            E(eV)
   0   2.0000     -18.937010      -515.3022
   1   2.0000     -10.116946      -275.2961
   2   2.0000     -10.042625      -273.2737
   3   2.0000     -10.037540      -273.1353
   4   2.0000     -10.033025      -273.0125
   5   2.0000     -10.025867      -272.8177
   6   2.0000     -10.023211      -272.7454
   7   2.0000     -10.019022      -272.6315
   8   2.0000     -10.012679      -272.4589
   9   2.0000      -1.004180       -27.3251
  10   2.0000      -0.805933       -21.9306
  11   2.0000      -0.737983       -20.0815
  12   2.0000      -0.709917       -19.3178
  13   2.0000      -0.697170       -18.9710
  14   2.0000      -0.594169       -16.1682
  15   2.0000      -0.575488       -15.6598
  16   2.0000      -0.536653       -14.6031
  17   2.0000      -0.478991       -13.0340
  18   2.0000      -0.456954       -12.4344
  19   2.0000      -0.434414       -11.8210
  20   2.0000      -0.429069       -11.6756
  21   2.0000      -0.411814       -11.2060
  22   2.0000      -0.396934       -10.8011
  23   2.0000      -0.392415       -10.6782
  24   2.0000      -0.375543       -10.2190
  25   2.0000      -0.354646        -9.6504
  26   2.0000      -0.346830        -9.4377
  27   2.0000      -0.341904        -9.3037
  28   2.0000      -0.330279        -8.9873
  29   2.0000      -0.324694        -8.8354
  30   2.0000      -0.310984        -8.4623
  31   2.0000      -0.290916        -7.9162
  32   2.0000      -0.270147        -7.3511
  33   2.0000      -0.268372        -7.3028
  34   2.0000      -0.208157        -5.6642
  35   0.0000      -0.045921        -1.2496
  36   0.0000       0.064851         1.7647
  37   0.0000       0.094478         2.5709
  38   0.0000       0.107835         2.9343
  39   0.0000       0.112897         3.0721

MULLIKEN ATOMIC CHARGES
-----------------------
   0 C :   -0.525444
   1 C :    0.232633
   2 O :   -0.353454
   3 C :    0.034507
   4 C :   -0.359553
   5 C :   -0.308058
   6 C :   -0.321480
   7 C :   -0.245879
   8 C :   -0.372577
   9 H :    0.175647
  10 H :    0.178648
  11 H :    0.153483
  12 H :    0.158656
  13 H :    0.146238
  14 H :    0.157142
  15 H :    0.197182
  16 H :    0.143899
  17 H :    0.149746
  18 H :    0.142084
  19 H :    0.163195
  20 H :    0.150140
  21 H :    0.142812
  22 H :    0.160432
Sum of atomic charges:   -0.0000000

LOEWDIN ATOMIC CHARGES
----------------------
   0 C :   -0.384449
   1 C :    0.222693
   2 O :   -0.474422
   3 C :   -0.207860
   4 C :   -0.278393
   5 C :   -0.299167
   6 C :   -0.300387
   7 C :   -0.297893
   8 C :   -0.273995
   9 H :    0.179170
  10 H :    0.174273
  11 H :    0.166062
  12 H :    0.171755
  13 H :    0.165176
  14 H :    0.158074
  15 H :    0.178567
  16 H :    0.152670
  17 H :    0.155927
  18 H :    0.151640
  19 H :    0.165769
  20 H :    0.155296
  21 H :    0.157608
  22 H :    0.161884

  Mayer bond orders larger than 0.100000
B(  0-C ,  1-C ) :   0.9064 B(  0-C ,  9-H ) :   0.9470 B(  0-C , 10-H ) :   0.9902
B(  0-C , 11-H ) :   0.9551 B(  1-C ,  2-O ) :   1.9144 B(  1-C ,  3-C ) :   0.8523
B(  3-C ,  4-C ) :   0.9367 B(  3-C ,  8-C ) :   0.8869 B(  3-C , 12-H ) :   0.9205
B(  4-C ,  5-C ) :   0.8948 B(  4-C , 13-H ) :   0.9495 B(  4-C , 14-H ) :   0.9910
B(  5-C ,  6-C ) :   0.9068 B(  5-C , 15-H ) :   0.9854 B(  5-C , 16-H ) :   0.9424
B(  6-C ,  7-C ) :   0.9031 B(  6-C , 17-H ) :   0.9444 B(  6-C , 18-H ) :   1.0089
B(  7-C ,  8-C ) :   0.9177 B(  7-C , 19-H ) :   0.9750 B(  7-C , 20-H ) :   0.9381
B(  8-C , 21-H ) :   0.9451 B(  8-C , 22-H ) :   0.9862

Dispersion correction           -0.007581345
FINAL SINGLE POINT ENERGY      -388.406321927289

DIPOLE MOMENT
-------------

Method             : SCF
Type of density    : Electron Density
Multiplicity       :   1
Irrep              :   0
Energy             :  -388.4087084418168274 Eh
Relativity type    :
Basis              : AO
                                X                 Y                 Z
Electronic contribution:     -3.380540329       0.437272029      -2.918816153
Nuclear contribution   :      3.383281957      -0.412480936       3.958724805
                        -----------------------------------------
Total Dipole Moment    :      0.002741628       0.024791093       1.039908652
                        -----------------------------------------
Magnitude (a.u.)       :      1.040207728
Magnitude (Debye)      :      2.643997924

Rotational constants in cm-1:             0.089011             0.042834             0.038468
Rotational constants in MHz :          2668.470228          1284.131569          1153.231137

                             ****ORCA TERMINATED NORMALLY****
TOTAL RUN TIME: 0 days 0 hours 0 minutes 35 seconds 936 msec
