                         Program Version 6.0.0  -   RELEASE  -
|  1> ! r2scan-3c def2/J RI DEFGRID2 scfconv6 printgap
|  2> %output
|  3>     printlevel normal
|  4> end
|  5> %cpcm
|  6>     smd true
|  7>     smdsolvent "water"
|  8> end
|  9> * xyz 0 1
| 10> C -2.6914522956 -0.475067411 0.6411701075
| 11> C -1.4689439776 -0.0283285271 -0.1105877669
| 12> O -1.4123056306 -0.0816621312 -1.3228982159
| 13> C -0.3496558896 0.4977496462 0.7665356025
| 14> C 0.5546033099 1.5162000594 0.0611269446
| 15> C 1.4441453959 0.8834730542 -1.0065366507
| 16> C 2.2632975997 -0.2622294233 -0.4225707336
| 17> C 1.3321794122 -1.3062592709 0.1846639583
| 18> C 0.4926125722 -0.6799728418 1.2925362414
| 19> H -3.2624462819 0.4125615718 0.908830129
| 20> H -3.3104076243 -1.108375745 0.0113213088
| 21> H -2.4227298906 -0.9922337021 1.5568347229
| 22> H -0.8210105119 0.9842980365 1.6266662542
| 23> H -0.0653962219 2.2906246173 -0.3961335126
| 24> H 1.1858910828 1.9901733252 0.8164885298
| 25> H 0.8192611392 0.5053681764 -1.8167214272
| 26> H 2.1066151096 1.6463865684 -1.4207807408
| 27> H 2.8750564295 -0.7159131505 -1.2042586482
| 28> H 2.9329507209 0.1216740754 0.3508975527
| 29> H 0.677517543 -1.7016472696 -0.5957497796
| 30> H 1.9117697731 -2.1370617351 0.5916503549
| 31> H -0.1556535163 -1.4345355326 1.7406956034
| 32> H 1.1571808543 -0.2996956092 2.0708148313
| 33> *
| 34>
| 35>                          ****END OF INPUT****

CARTESIAN COORDINATES (ANGSTROEM)
---------------------------------
  C     -2.691452   -0.475067    0.641170
  C     -1.468944   -0.028329   -0.110588
  O     -1.412306   -0.081662   -1.322898
  C     -0.349656    0.497750    0.766536
  C      0.554603    1.516200    0.061127
  C      1.444145    0.883473   -1.006537
  C      2.263298   -0.262229   -0.422571
  C      1.332179   -1.306259    0.184664
  C      0.492613   -0.679973    1.292536
  H     -3.262446    0.412562    0.908830
  H     -3.310408   -1.108376    0.011321
  H     -2.422730   -0.992234    1.556835
  H     -0.821011    0.984298    1.626666
  H     -0.065396    2.290625   -0.396134
  H      1.185891    1.990173    0.816489
  H      0.819261    0.505368   -1.816721
  H      2.106615    1.646387   -1.420781
  H      2.875056   -0.715913   -1.204259
  H      2.932951    0.121674    0.350898
  H      0.677518   -1.701647   -0.595750
  H      1.911770   -2.137062    0.591650
  H     -0.155654   -1.434536    1.740696
  H      1.157181   -0.299696    2.070815

 Total Charge           Charge          ....    0
 Multiplicity           Mult            ....    1
 Number of Electrons    NEL             ....   70
 Basis Dimension        Dim             ....  246

ORBITAL ENERGIES
----------------

  NO   OCC          E(Eh)            E(eV)
   0   2.0000     -18.944000      -515.4925
   1   2.0000     -10.121303      -275.4146
   2   2.0000     -10.033747      -273.0321
   3   2.0000     -10.025140      -272.7979
   4   2.0000     -10.020846      -272.6811
   5   2.0000     -10.018527      -272.6180
   6   2.0000     -10.015307      -272.5304
   7   2.0000     -10.012687      -272.4591
   8   2.0000     -10.010584      -272.4019
   9   2.0000      -1.013606       -27.5816
  10   2.0000      -0.798434       -21.7265
  11   2.0000      -0.730912       -19.8891
  12   2.0000      -0.702591       -19.1185
  13   2.0000      -0.688150       -18.7255
  14   2.0000      -0.586765       -15.9667
  15   2.0000      -0.568014       -15.4565
  16   2.0000      -0.531256       -14.4562
  17   2.0000      -0.477704       -12.9990
  18   2.0000      -0.450502       -12.2588
  19   2.0000      -0.427414       -11.6305
  20   2.0000      -0.423426       -11.5220
  21   2.0000      -0.409210       -11.1352
  22   2.0000      -0.392581       -10.6827
  23   2.0000      -0.386461       -10.5161
  24   2.0000      -0.368473       -10.0267
  25   2.0000      -0.346456        -9.4276
  26   2.0000      -0.338951        -9.2233
  27   2.0000      -0.334759        -9.1092
  28   2.0000      -0.327046        -8.8994
  29   2.0000      -0.323988        -8.8162
  30   2.0000      -0.303689        -8.2638
  31   2.0000      -0.288085        -7.8392
  32   2.0000      -0.262202        -7.1349
  33   2.0000      -0.261087        -7.1045
  34   2.0000      -0.214383        -5.8336
  35   0.0000      -0.046865        -1.2753
  36   0.0000       0.076770         2.0890
  37   0.0000       0.104606         2.8465
  38   0.0000       0.118397         3.2217
  39   0.0000       0.123205         3.3526

MULLIKEN ATOMIC CHARGES
-----------------------
   0 C :   -0.561648
   1 C :    0.266416
   2 O :   -0.446893
   3 C :    0.055784
   4 C :   -0.395274
   5 C :   -0.317299
   6 C :   -0.331009
   7 C :   -0.270233
   8 C :   -0.382023
   9 H :    0.205647
  10 H :    0.180416
  11 H :    0.183006
  12 H :    0.183966
  13 H :    0.157084
  14 H :    0.172832
  15 H :    0.175241
  16 H :    0.153076
  17 H :    0.156434
  18 H :    0.154093
  19 H :    0.159793
  20 H :    0.161030
  21 H :    0.164755
  22 H :    0.174807
Sum of atomic charges:   -0.0000000

LOEWDIN ATOMIC CHARGES
----------------------
   0 C :   -0.382551
   1 C :    0.238889
   2 O :   -0.543903
   3 C :   -0.201011
   4 C :   -0.281722
   5 C :   -0.304410
   6 C :   -0.304056
   7 C :   -0.300568
   8 C :   -0.271019
   9 H :    0.192070
  10 H :    0.173992
  11 H :    0.179554
  12 H :    0.183921
  13 H :    0.165358
  14 H :    0.164792
  15 H :    0.168739
  16 H :    0.154752
  17 H :    0.156268
  18 H :    0.156455
  19 H :    0.162312
  20 H :    0.158842
  21 H :    0.165560
  22 H :    0.167735

  Mayer bond orders larger than 0.100000
B(  0-C ,  1-C ) :   0.9215 B(  0-C ,  9-H ) :   0.9323 B(  0-C , 10-H ) :   0.9886
B(  0-C , 11-H ) :   0.9411 B(  1-C ,  2-O ) :   1.8440 B(  1-C ,  3-C ) :   0.8676
B(  3-C ,  4-C ) :   0.9130 B(  3-C ,  8-C ) :   0.8808 B(  3-C , 12-H ) :   0.9122
B(  4-C ,  5-C ) :   0.8930 B(  4-C , 13-H ) :   0.9579 B(  4-C , 14-H ) :   0.9833
B(  5-C ,  6-C ) :   0.9048 B(  5-C , 15-H ) :   0.9923 B(  5-C , 16-H ) :   0.9411
B(  6-C ,  7-C ) :   0.8981 B(  6-C , 17-H ) :   0.9461 B(  6-C , 18-H ) :   1.0031
B(  7-C ,  8-C ) :   0.9055 B(  7-C , 19-H ) :   0.9808 B(  7-C , 20-H ) :   0.9361
B(  8-C , 21-H ) :   0.9420 B(  8-C , 22-H ) :   0.9817

Dispersion correction           -0.007581345
FINAL SINGLE POINT ENERGY      -388.411819706697

DIPOLE MOMENT
-------------

Method             : SCF
Type of density    : Electron Density
Multiplicity       :   1
Irrep              :   0
Energy             :  -388.4142062212245605 Eh
Relativity type    :
Basis              : AO
                                X                 Y                 Z
Electronic contribution:     -3.376038048       0.470061172      -2.272806575
Nuclear contribution   :      3.383281957      -0.412480936       3.958724805
                        -----------------------------------------
Total Dipole Moment    :      0.007243909       0.057580236       1.685918230
                        -----------------------------------------
Magnitude (a.u.)       :      1.686916784
Magnitude (Debye)      :      4.287801707

Rotational constants in cm-1:             0.089011             0.042834             0.038468
Rotational constants in MHz :          2668.470228          1284.131569          1153.231137

                             ****ORCA TERMINATED NORMALLY****
TOTAL RUN TIME: 0 days 0 hours 0 minutes 39 seconds 24 msec
