                         Program Version 6.0.0  -   RELEASE  -
|  1> ! r2scan-3c def2/J RI DEFGRID2 scfconv6 printgap
|  2> %output
|  3>     printlevel normal
|  4> end
|  5> * xyz 0 1
|  6> C 2.1329228413 -0.5719101364 -0.5960791721
|  7> C 1.1636576372 -0.1403727734 0.506417605
|  8> H 1.6148661359 -0.3471065915 1.4827335888
|  9> C 0.7382421891 1.3337007709 0.3603770816
| 10> C -0.649601197 1.2631674085 -0.293520987
| 11> C -0.9502574815 -0.2452955876 -0.4083269285
| 12> H -0.7520387635 -0.5908187041 -1.4361326012
| 13> O -0.0404235191 -0.8935399358 0.4748073411
| 14> C -2.3722870227 -0.6210227772 -0.0201580888
| 15> H 2.2987078184 -1.6447082886 -0.537579658
| 16> H 1.7257369105 -0.3341723602 -1.5756552986
| 17> H 3.0818969988 -0.058601327 -0.4717254634
| 18> H 0.6810125598 1.8084933607 1.338218773
| 19> H 1.4530756764 1.8817490488 -0.2490237592
| 20> H -1.3993397123 1.7429827623 0.3336683525
| 21> H -0.6660267996 1.7362488904 -1.2727928222
| 22> H -2.5651301639 -0.3185064597 1.0058325046
| 23> H -2.5008776003 -1.6973024238 -0.0931723719
| 24> H -3.0771127385 -0.1287499659 -0.6834966543
| 25> *
| 26>
| 27>                          ****END OF INPUT****

CARTESIAN COORDINATES (ANGSTROEM)
---------------------------------
  C      2.132923   -0.571910   -0.596079
  C      1.163658   -0.140373    0.506418
  H      1.614866   -0.347107    1.482734
  C      0.738242    1.333701    0.360377
  C     -0.649601    1.263167   -0.293521
  C     -0.950257   -0.245296   -0.408327
  H     -0.752039   -0.590819   -1.436133
  O     -0.040424   -0.893540    0.474807
  C     -2.372287   -0.621023   -0.020158
  H      2.298708   -1.644708   -0.537580
  H      1.725737   -0.334172   -1.575655
  H      3.081897   -0.058601   -0.471725
  H      0.681013    1.808493    1.338219
  H      1.453076    1.881749   -0.249024
  H     -1.399340    1.742983    0.333668
  H     -0.666027    1.736249   -1.272793
  H     -2.565130   -0.318506    1.005833
  H     -2.500878   -1.697302   -0.093172
  H     -3.077113   -0.128750   -0.683497

 Total Charge           Charge          ....    0
 Multiplicity           Mult            ....    1
 Number of Electrons    NEL             ....   56
 Basis Dimension        Dim             ....  198

ORBITAL ENERGIES
----------------

  NO   OCC          E(Eh)            E(eV)
   0   2.0000     -18.940577      -515.3993
   1   2.0000     -10.076138      -274.1856
   2   2.0000     -10.076073      -274.1839
   3   2.0000     -10.027257      -272.8555
   4   2.0000     -10.027104      -272.8514
   5   2.0000     -10.015819      -272.5443
   6   2.0000     -10.015477      -272.5350
   7   2.0000      -0.995980       -27.1020
   8   2.0000      -0.748315       -20.3627
   9   2.0000      -0.743306       -20.2264
  10   2.0000      -0.676734       -18.4149
  11   2.0000      -0.614917       -16.7327
  12   2.0000      -0.554101       -15.0778
  13   2.0000      -0.523648       -14.2492
  14   2.0000      -0.459026       -12.4907
  15   2.0000      -0.451791       -12.2939
  16   2.0000      -0.418801       -11.3962
  17   2.0000      -0.387426       -10.5424
  18   2.0000      -0.380325       -10.3492
  19   2.0000      -0.369718       -10.0605
  20   2.0000      -0.359705        -9.7881
  21   2.0000      -0.343409        -9.3446
  22   2.0000      -0.333395        -9.0721
  23   2.0000      -0.310920        -8.4606
  24   2.0000      -0.294924        -8.0253
  25   2.0000      -0.287530        -7.8241
  26   2.0000      -0.278240        -7.5713
  27   2.0000      -0.213330        -5.8050
  28   0.0000       0.067018         1.8237
  29   0.0000       0.099475         2.7068
  30   0.0000       0.103574         2.8184
  31   0.0000       0.115251         3.1361
  32   0.0000       0.128699         3.5021

MULLIKEN ATOMIC CHARGES
-----------------------
   0 C :   -0.476049
   1 C :    0.039718
   2 H :    0.143833
   3 C :   -0.330096
   4 C :   -0.343018
   5 C :    0.051204
   6 H :    0.138577
   7 O :   -0.239723
   8 C :   -0.502513
   9 H :    0.156239
  10 H :    0.142502
  11 H :    0.143913
  12 H :    0.153634
  13 H :    0.157584
  14 H :    0.159251
  15 H :    0.155165
  16 H :    0.152955
  17 H :    0.153631
  18 H :    0.143195
Sum of atomic charges:    0.0000000

LOEWDIN ATOMIC CHARGES
----------------------
   0 C :   -0.394861
   1 C :    0.060752
   2 H :    0.177693
   3 C :   -0.265872
   4 C :   -0.267671
   5 C :    0.064523
   6 H :    0.162841
   7 O :   -0.753130
   8 C :   -0.383324
   9 H :    0.161399
  10 H :    0.155173
  11 H :    0.155845
  12 H :    0.161854
  13 H :    0.162238
  14 H :    0.163024
  15 H :    0.161415
  16 H :    0.159854
  17 H :    0.160936
  18 H :    0.157310

  Mayer bond orders larger than 0.100000
B(  0-C ,  1-C ) :   0.9450 B(  0-C ,  9-H ) :   0.9742 B(  0-C , 10-H ) :   0.9758
B(  0-C , 11-H ) :   0.9698 B(  1-C ,  2-H ) :   0.9244 B(  1-C ,  3-C ) :   0.9180
B(  1-C ,  7-O ) :   0.9077 B(  3-C ,  4-C ) :   0.9225 B(  3-C , 12-H ) :   0.9478
B(  3-C , 13-H ) :   0.9987 B(  4-C ,  5-C ) :   0.9085 B(  4-C , 14-H ) :   0.9784
B(  4-C , 15-H ) :   0.9703 B(  5-C ,  6-H ) :   0.9173 B(  5-C ,  7-O ) :   0.8234
B(  5-C ,  8-C ) :   0.9511 B(  8-C , 16-H ) :   0.9885 B(  8-C , 17-H ) :   0.9703
B(  8-C , 18-H ) :   0.9722

Dispersion correction           -0.005068092
FINAL SINGLE POINT ENERGY      -310.994711749225

DIPOLE MOMENT
-------------

Method             : SCF
Type of density    : Electron Density
Multiplicity       :   1
Irrep              :   0
Energy             :  -310.9998058265111922 Eh
Relativity type    :
Basis              : AO
                                X                 Y                 Z
Electronic contribution:      0.180686651      -1.407872017       1.766677588
Nuclear contribution   :     -0.099322473       1.909521894      -2.018572796
                        -----------------------------------------
Total Dipole Moment    :      0.081364177       0.501649878      -0.251895209
                        -----------------------------------------
Magnitude (a.u.)       :      0.567207127
Magnitude (Debye)      :      1.441725942

Rotational constants in cm-1:             0.153736             0.070830             0.057782
Rotational constants in MHz :          4608.903261          2123.444451          1732.265781

                             ****ORCA TERMINATED NORMALLY****
TOTAL RUN TIME: 0 days 0 hours 0 minutes 25 seconds 714 msec
