                         Program Version 6.0.0  -   RELEASE  -
|  1> ! r2scan-3c def2/J RI DEFGRID2 scfconv6 printgap
|  2> %output
|  3>     printlevel normal
|  4> end
|  5> %cpcm
|  6>     smd true
|  7>     smdsolvent "water"
|  8> end
|  9> * xyz 0 1
| 10> C 2.1329228413 -0.5719101364 -0.5960791721
| 11> C 1.1636576372 -0.1403727734 0.506417605
| 12> H 1.6148661359 -0.3471065915 1.4827335888
| 13> C 0.7382421891 1.3337007709 0.3603770816
| 14> C -0.649601197 1.2631674085 -0.293520987
| 15> C -0.9502574815 -0.2452955876 -0.4083269285
| 16> H -0.7520387635 -0.5908187041 -1.4361326012
| 17> O -0.0404235191 -0.8935399358 0.4748073411
| 18> C -2.3722870227 -0.6210227772 -0.0201580888
| 19> H 2.2987078184 -1.6447082886 -0.537579658
| 20> H 1.7257369105 -0.3341723602 -1.5756552986
| 21> H 3.0818969988 -0.058601327 -0.4717254634
| 22> H 0.6810125598 1.8084933607 1.338218773
| 23> H 1.4530756764 1.8817490488 -0.2490237592
| 24> H -1.3993397123 1.7429827623 0.3336683525
| 25> H -0.6660267996 1.7362488904 -1.2727928222
| 26> H -2.5651301639 -0.3185064597 1.0058325046
| 27> H -2.5008776003 -1.6973024238 -0.0931723719
| 28> H -3.0771127385 -0.1287499659 -0.6834966543
| 29> *
| 30>
| 31>                          ****END OF INPUT****

CARTESIAN COORDINATES (ANGSTROEM)
---------------------------------
  C      2.132923   -0.571910   -0.596079
  C      1.163658   -0.140373    0.506418
  H      1.614866   -0.347107    1.482734
  C      0.738242    1.333701    0.360377
  C     -0.649601    1.263167   -0.293521
  C     -0.950257   -0.245296   -0.408327
  H     -0.752039   -0.590819   -1.436133
  O     -0.040424   -0.893540    0.474807
  C     -2.372287   -0.621023   -0.020158
  H      2.298708   -1.644708   -0.537580
  H      1.725737   -0.334172   -1.575655
  H      3.081897   -0.058601   -0.471725
  H      0.681013    1.808493    1.338219
  H      1.453076    1.881749   -0.249024
  H     -1.399340    1.742983    0.333668
  H     -0.666027    1.736249   -1.272793
  H     -2.565130   -0.318506    1.005833
  H     -2.500878   -1.697302   -0.093172
  H     -3.077113   -0.128750   -0.683497

 Total Charge           Charge          ....    0
 Multiplicity           Mult            ....    1
 Number of Electrons    NEL             ....   56
 Basis Dimension        Dim             ....  198

ORBITAL ENERGIES
----------------

  NO   OCC          E(Eh)            E(eV)
   0   2.0000     -18.949445      -515.6406
   1   2.0000     -10.073255      -274.1072
   2   2.0000     -10.073164      -274.1047
   3   2.0000     -10.018503      -272.6173
   4   2.0000     -10.018362      -272.6135
   5   2.0000     -10.011389      -272.4237
   6   2.0000     -10.008800      -272.3533
   7   2.0000      -1.002640       -27.2832
   8   2.0000      -0.742622       -20.2078
   9   2.0000      -0.740207       -20.1421
  10   2.0000      -0.671477       -18.2718
  11   2.0000      -0.609759       -16.5924
  12   2.0000      -0.550745       -14.9865
  13   2.0000      -0.519847       -14.1458
  14   2.0000      -0.455194       -12.3865
  15   2.0000      -0.449729       -12.2377
  16   2.0000      -0.413635       -11.2556
  17   2.0000      -0.383462       -10.4345
  18   2.0000      -0.375468       -10.2170
  19   2.0000      -0.363329        -9.8867
  20   2.0000      -0.355383        -9.6705
  21   2.0000      -0.338328        -9.2064
  22   2.0000      -0.329006        -8.9527
  23   2.0000      -0.308011        -8.3814
  24   2.0000      -0.288507        -7.8507
  25   2.0000      -0.283572        -7.7164
  26   2.0000      -0.278562        -7.5801
  27   2.0000      -0.219700        -5.9783
  28   0.0000       0.073041         1.9876
  29   0.0000       0.106175         2.8892
  30   0.0000       0.111156         3.0247
  31   0.0000       0.121237         3.2990
  32   0.0000       0.136886         3.7249

MULLIKEN ATOMIC CHARGES
-----------------------
   0 C :   -0.517734
   1 C :    0.050705
   2 H :    0.156786
   3 C :   -0.353548
   4 C :   -0.351136
   5 C :    0.061953
   6 H :    0.153102
   7 O :   -0.316776
   8 C :   -0.543242
   9 H :    0.159364
  10 H :    0.162336
  11 H :    0.163463
  12 H :    0.168574
  13 H :    0.173382
  14 H :    0.171632
  15 H :    0.171244
  16 H :    0.163604
  17 H :    0.160903
  18 H :    0.165388
Sum of atomic charges:    0.0000000

LOEWDIN ATOMIC CHARGES
----------------------
   0 C :   -0.400315
   1 C :    0.060811
   2 H :    0.182330
   3 C :   -0.265135
   4 C :   -0.266169
   5 C :    0.065279
   6 H :    0.170113
   7 O :   -0.797796
   8 C :   -0.391457
   9 H :    0.160226
  10 H :    0.161003
  11 H :    0.163569
  12 H :    0.165625
  13 H :    0.168490
  14 H :    0.166801
  15 H :    0.167983
  16 H :    0.161443
  17 H :    0.160950
  18 H :    0.166248

  Mayer bond orders larger than 0.100000
B(  0-C ,  1-C ) :   0.9415 B(  0-C ,  9-H ) :   0.9718 B(  0-C , 10-H ) :   0.9711
B(  0-C , 11-H ) :   0.9644 B(  1-C ,  2-H ) :   0.9256 B(  1-C ,  3-C ) :   0.9143
B(  1-C ,  7-O ) :   0.8958 B(  3-C ,  4-C ) :   0.9061 B(  3-C , 12-H ) :   0.9501
B(  3-C , 13-H ) :   0.9926 B(  4-C ,  5-C ) :   0.9100 B(  4-C , 14-H ) :   0.9770
B(  4-C , 15-H ) :   0.9646 B(  5-C ,  6-H ) :   0.9154 B(  5-C ,  7-O ) :   0.8212
B(  5-C ,  8-C ) :   0.9432 B(  8-C , 16-H ) :   0.9845 B(  8-C , 17-H ) :   0.9679
B(  8-C , 18-H ) :   0.9658

Dispersion correction           -0.005068092
FINAL SINGLE POINT ENERGY      -310.998132578969

DIPOLE MOMENT
-------------

Method             : SCF
Type of density    : Electron Density
Multiplicity       :   1
Irrep              :   0
Energy             :  -311.0032266562544692 Eh
Relativity type    :
Basis              : AO
                                X                 Y                 Z
Electronic contribution:      0.229601960      -1.116356013       1.593621197
Nuclear contribution   :     -0.099322473       1.909521894      -2.018572796
                        -----------------------------------------
Total Dipole Moment    :      0.130279486       0.793165881      -0.424951599
                        -----------------------------------------
Magnitude (a.u.)       :      0.909213243
Magnitude (Debye)      :      2.311036402

Rotational constants in cm-1:             0.153736             0.070830             0.057782
Rotational constants in MHz :          4608.903261          2123.444451          1732.265781

                             ****ORCA TERMINATED NORMALLY****
TOTAL RUN TIME: 0 days 0 hours 0 minutes 30 seconds 768 msec
