                         Program Version 6.0.0  -   RELEASE  -
|  1> ! pbe def2-sv(p) def2/J RI DEFGRID1 loosescf d4 GCP(DFT/SV(P)) printgap
|  2> %output
|  3>     printlevel normal
|  4> end
|  5> * xyz 0 1
|  6> C 1.2203948325 0.8853959007 -1.3688100568
|  7> C 2.5921163971 0.995857883 -1.500218341
|  8> C 3.4272484994 0.4289490703 -0.5498096217
|  9> C 2.8820693602 -0.2516981786 0.5335716661
| 10> C 1.5087863586 -0.3670794827 0.6635661666
| 11> C 0.6718022619 0.2025102275 -0.2885919636
| 12> C -0.7948967457 0.073802299 -0.1478770574
| 13> C -1.5918503677 1.2021025334 0.0485081291
| 14> C -2.9729633425 1.0775521633 0.1798852951
| 15> C -3.5731079389 -0.1697038673 0.1135281703
| 16> C -2.7895056692 -1.2956708406 -0.0821849051
| 17> C -1.4075340801 -1.1781934899 -0.2108630314
| 18> Cl -0.4475967371 -2.5851396404 -0.4806210577
| 19> Cl -3.5344185392 -2.845080071 -0.1676836526
| 20> Cl -3.9447085312 2.4760140163 0.4297109291
| 21> Cl -0.8552913513 2.755432508 0.1649074299
| 22> Cl 3.9161060985 -0.9617440706 1.7286892325
| 23> Cl 5.1447377811 0.5692421124 -0.7135306097
| 24> H 0.5735037767 1.3208703683 -2.1126713979
| 25> H 3.0236026108 1.5195839074 -2.3369271354
| 26> H 1.0970729988 -0.8913079913 1.5103904584
| 27> H -4.6415229528 -0.2635177121 0.2139103346
| 28> *
| 29>
| 30>                          ****END OF INPUT****

CARTESIAN COORDINATES (ANGSTROEM)
---------------------------------
  C      1.220395    0.885396   -1.368810
  C      2.592116    0.995858   -1.500218
  C      3.427248    0.428949   -0.549810
  C      2.882069   -0.251698    0.533572
  C      1.508786   -0.367079    0.663566
  C      0.671802    0.202510   -0.288592
  C     -0.794897    0.073802   -0.147877
  C     -1.591850    1.202103    0.048508
  C     -2.972963    1.077552    0.179885
  C     -3.573108   -0.169704    0.113528
  C     -2.789506   -1.295671   -0.082185
  C     -1.407534   -1.178193   -0.210863
  Cl    -0.447597   -2.585140   -0.480621
  Cl    -3.534419   -2.845080   -0.167684
  Cl    -3.944709    2.476014    0.429711
  Cl    -0.855291    2.755433    0.164907
  Cl     3.916106   -0.961744    1.728689
  Cl     5.144738    0.569242   -0.713531
  H      0.573504    1.320870   -2.112671
  H      3.023603    1.519584   -2.336927
  H      1.097073   -0.891308    1.510390
  H     -4.641523   -0.263518    0.213910

 Total Charge           Charge          ....    0
 Multiplicity           Mult            ....    1
 Number of Electrons    NEL             ....  178
 Basis Dimension        Dim             ....  284

ORBITAL ENERGIES
----------------

  NO   OCC          E(Eh)            E(eV)
   0   2.0000    -100.662620     -2739.1692
   1   2.0000    -100.662539     -2739.1670
   2   2.0000    -100.660963     -2739.1241
   3   2.0000    -100.660884     -2739.1219
   4   2.0000    -100.649669     -2738.8167
   5   2.0000    -100.649258     -2738.8055
   6   2.0000      -9.982177      -271.6289
   7   2.0000      -9.981780      -271.6180
   8   2.0000      -9.980487      -271.5829
   9   2.0000      -9.980227      -271.5758
  10   2.0000      -9.969436      -271.2822
  11   2.0000      -9.968350      -271.2526
  12   2.0000      -9.951424      -270.7920
  13   2.0000      -9.936517      -270.3864
  14   2.0000      -9.934704      -270.3370
  15   2.0000      -9.924431      -270.0575
  16   2.0000      -9.920363      -269.9468
  17   2.0000      -9.920088      -269.9393
  18   2.0000      -9.198169      -250.2949
  19   2.0000      -9.198036      -250.2913
  20   2.0000      -9.196828      -250.2584
  21   2.0000      -9.196746      -250.2562
  22   2.0000      -9.185605      -249.9530
  23   2.0000      -9.185146      -249.9405
  24   2.0000      -7.029785      -191.2902
  25   2.0000      -7.029685      -191.2874
  26   2.0000      -7.028441      -191.2536
  27   2.0000      -7.028352      -191.2512
  28   2.0000      -7.018262      -190.9766
  29   2.0000      -7.018121      -190.9728
  30   2.0000      -7.017175      -190.9470
  31   2.0000      -7.017149      -190.9463
  32   2.0000      -7.017033      -190.9432
  33   2.0000      -7.016816      -190.9373
  34   2.0000      -7.016743      -190.9353
  35   2.0000      -7.016716      -190.9346
  36   2.0000      -7.015927      -190.9131
  37   2.0000      -7.015846      -190.9109
  38   2.0000      -7.005638      -190.6331
  39   2.0000      -7.005149      -190.6198
  40   2.0000      -7.004729      -190.6084
  41   2.0000      -7.004297      -190.5966
  42   2.0000      -0.871829       -23.7237
  43   2.0000      -0.845181       -22.9986
  44   2.0000      -0.839463       -22.8430
  45   2.0000      -0.811928       -22.0937
  46   2.0000      -0.796440       -21.6722
  47   2.0000      -0.787891       -21.4396
  48   2.0000      -0.777793       -21.1648
  49   2.0000      -0.759202       -20.6589
  50   2.0000      -0.710538       -19.3347
  51   2.0000      -0.685071       -18.6417
  52   2.0000      -0.663192       -18.0464
  53   2.0000      -0.658268       -17.9124
  54   2.0000      -0.596110       -16.2210
  55   2.0000      -0.575418       -15.6579
  56   2.0000      -0.552981       -15.0474
  57   2.0000      -0.541550       -14.7363
  58   2.0000      -0.493317       -13.4238
  59   2.0000      -0.491433       -13.3726
  60   2.0000      -0.474067       -12.9000
  61   2.0000      -0.457741       -12.4558
  62   2.0000      -0.438939       -11.9441
  63   2.0000      -0.428397       -11.6573
  64   2.0000      -0.422265       -11.4904
  65   2.0000      -0.411470       -11.1967
  66   2.0000      -0.411056       -11.1854
  67   2.0000      -0.403697       -10.9851
  68   2.0000      -0.389722       -10.6049
  69   2.0000      -0.383724       -10.4417
  70   2.0000      -0.377227       -10.2649
  71   2.0000      -0.363292        -9.8857
  72   2.0000      -0.350934        -9.5494
  73   2.0000      -0.346851        -9.4383
  74   2.0000      -0.330190        -8.9849
  75   2.0000      -0.314034        -8.5453
  76   2.0000      -0.313036        -8.5181
  77   2.0000      -0.311233        -8.4691
  78   2.0000      -0.303161        -8.2494
  79   2.0000      -0.294114        -8.0033
  80   2.0000      -0.288262        -7.8440
  81   2.0000      -0.280768        -7.6401
  82   2.0000      -0.279968        -7.6183
  83   2.0000      -0.271682        -7.3928
  84   2.0000      -0.265001        -7.2110
  85   2.0000      -0.248628        -6.7655
  86   2.0000      -0.238538        -6.4909
  87   2.0000      -0.224673        -6.1137
  88   2.0000      -0.222545        -6.0558
  89   0.0000      -0.084758        -2.3064
  90   0.0000      -0.071694        -1.9509
  91   0.0000      -0.060010        -1.6329
  92   0.0000      -0.053039        -1.4433
  93   0.0000      -0.044684        -1.2159

MULLIKEN ATOMIC CHARGES
-----------------------
   0 C :   -0.056795
   1 C :   -0.100446
   2 C :    0.081199
   3 C :    0.090307
   4 C :   -0.122271
   5 C :    0.033910
   6 C :    0.010314
   7 C :    0.032945
   8 C :    0.079265
   9 C :   -0.155851
  10 C :    0.078811
  11 C :    0.032825
  12 Cl:   -0.019593
  13 Cl:   -0.039659
  14 Cl:   -0.040047
  15 Cl:   -0.021188
  16 Cl:   -0.052207
  17 Cl:   -0.050610
  18 H :    0.057440
  19 H :    0.057092
  20 H :    0.050045
  21 H :    0.054514
Sum of atomic charges:    0.0000000

LOEWDIN ATOMIC CHARGES
----------------------
   0 C :   -0.107221
   1 C :   -0.129461
   2 C :   -0.150593
   3 C :   -0.150921
   4 C :   -0.118901
   5 C :   -0.046403
   6 C :   -0.054463
   7 C :   -0.151119
   8 C :   -0.156781
   9 C :   -0.146972
  10 C :   -0.156658
  11 C :   -0.150605
  12 Cl:    0.178011
  13 Cl:    0.161405
  14 Cl:    0.161191
  15 Cl:    0.177651
  16 Cl:    0.145398
  17 Cl:    0.147337
  18 H :    0.131876
  19 H :    0.136859
  20 H :    0.135810
  21 H :    0.144561

  Mayer bond orders larger than 0.100000
B(  0-C ,  1-C ) :   1.3383 B(  0-C ,  5-C ) :   1.3545 B(  0-C , 18-H ) :   0.9642
B(  1-C ,  2-C ) :   1.3783 B(  1-C , 19-H ) :   0.9657 B(  2-C ,  3-C ) :   1.4058
B(  2-C , 17-Cl) :   1.0410 B(  3-C ,  4-C ) :   1.3647 B(  3-C , 16-Cl) :   1.0354
B(  4-C ,  5-C ) :   1.3275 B(  4-C , 20-H ) :   0.9671 B(  5-C ,  6-C ) :   0.9542
B(  6-C ,  7-C ) :   1.4191 B(  6-C ,  9-C ) :   0.1031 B(  6-C , 11-C ) :   1.4190
B(  7-C ,  8-C ) :   1.3711 B(  7-C , 15-Cl) :   1.1098 B(  8-C ,  9-C ) :   1.3309
B(  8-C , 14-Cl) :   1.0340 B(  9-C , 10-C ) :   1.3312 B(  9-C , 21-H ) :   0.9808
B( 10-C , 11-C ) :   1.3714 B( 10-C , 13-Cl) :   1.0344 B( 11-C , 12-Cl) :   1.1101

Dispersion correction           -0.045954142
FINAL SINGLE POINT ENERGY     -3217.960333101733

DIPOLE MOMENT
-------------

Method             : SCF
Type of density    : Electron Density
Multiplicity       :   1
Irrep              :   0
Energy             : -3217.9845027987039430 Eh
Relativity type    :
Basis              : AO
                                X                 Y                 Z
Electronic contribution:     -0.231583533      -2.220442238       3.563074153
Nuclear contribution   :     -0.324844899       2.375032885      -3.847308558
                        -----------------------------------------
Total Dipole Moment    :     -0.556428432       0.154590647      -0.284234405
                        -----------------------------------------
Magnitude (a.u.)       :      0.643661452
Magnitude (Debye)      :      1.636057393

Rotational constants in cm-1:             0.012287             0.004753             0.003760
Rotational constants in MHz :           368.353999           142.500290           112.713035

                             ****ORCA TERMINATED NORMALLY****
TOTAL RUN TIME: 0 days 0 hours 0 minutes 20 seconds 368 msec
