                         Program Version 6.0.0  -   RELEASE  -
|  1> ! pbe def2-sv(p) def2/J RI DEFGRID1 loosescf d4 GCP(DFT/SV(P)) printgap
|  2> %output
|  3>     printlevel normal
|  4> end
|  5> * xyz 0 1
|  6> C -2.3466841141 -0.8388226507 0.6134606789
|  7> C -0.8846830461 -0.3785875975 0.6553485915
|  8> H -0.5573401967 -0.3213758605 1.7010903782
|  9> C -0.7228801384 1.004355235 0.0092130106
| 10> H -1.2673288513 0.9945163593 -0.9447363261
| 11> C 0.7656807145 1.2848970999 -0.3126962973
| 12> H 1.0003710681 2.2869463814 0.0727399657
| 13> C 1.6946894755 0.2616351468 0.3727631075
| 14> H 2.7174588834 0.3874230329 -0.016870712
| 15> C 1.2724077051 -1.1678118979 -0.0258845539
| 16> H 1.7110529416 -1.8726526439 0.6981406781
| 17> O -0.1263843998 -1.3452818214 -0.0542905789
| 18> O 1.7829483407 -1.5153255582 -1.2653802856
| 19> O 1.6892916709 0.3565348042 1.772944064
| 20> O 0.9300570453 1.2306170955 -1.7127019228
| 21> O -1.2540576522 1.9548589725 0.8981845504
| 22> O -2.8293130213 -0.9749507417 -0.6976550547
| 23> H -2.9644504645 -0.0830126018 1.1005978552
| 24> H -2.4303996695 -1.7866281482 1.1580306145
| 25> H 1.3744166944 -0.9421147153 -1.9397007129
| 26> H 2.0398341867 1.2164989634 2.0494495147
| 27> H 1.7458768217 1.6833836512 -1.9706719495
| 28> H -1.5072552736 2.7535056267 0.4139521944
| 29> H -2.2794275351 -1.6309324384 -1.1504135961
| 30> *
| 31>
| 32>                          ****END OF INPUT****

CARTESIAN COORDINATES (ANGSTROEM)
---------------------------------
  C     -2.346684   -0.838823    0.613461
  C     -0.884683   -0.378588    0.655349
  H     -0.557340   -0.321376    1.701090
  C     -0.722880    1.004355    0.009213
  H     -1.267329    0.994516   -0.944736
  C      0.765681    1.284897   -0.312696
  H      1.000371    2.286946    0.072740
  C      1.694689    0.261635    0.372763
  H      2.717459    0.387423   -0.016871
  C      1.272408   -1.167812   -0.025885
  H      1.711053   -1.872653    0.698141
  O     -0.126384   -1.345282   -0.054291
  O      1.782948   -1.515326   -1.265380
  O      1.689292    0.356535    1.772944
  O      0.930057    1.230617   -1.712702
  O     -1.254058    1.954859    0.898185
  O     -2.829313   -0.974951   -0.697655
  H     -2.964450   -0.083013    1.100598
  H     -2.430400   -1.786628    1.158031
  H      1.374417   -0.942115   -1.939701
  H      2.039834    1.216499    2.049450
  H      1.745877    1.683384   -1.970672
  H     -1.507255    2.753506    0.413952
  H     -2.279428   -1.630932   -1.150414

 Total Charge           Charge          ....    0
 Multiplicity           Mult            ....    1
 Number of Electrons    NEL             ....   96
 Basis Dimension        Dim             ....  192

ORBITAL ENERGIES
----------------

  NO   OCC          E(Eh)            E(eV)
   0   2.0000     -18.777585      -510.9641
   1   2.0000     -18.765401      -510.6325
   2   2.0000     -18.762716      -510.5595
   3   2.0000     -18.757732      -510.4238
   4   2.0000     -18.744733      -510.0701
   5   2.0000     -18.737969      -509.8861
   6   2.0000      -9.980863      -271.5931
   7   2.0000      -9.951870      -270.8042
   8   2.0000      -9.946662      -270.6624
   9   2.0000      -9.939033      -270.4548
  10   2.0000      -9.931505      -270.2500
  11   2.0000      -9.920843      -269.9599
  12   2.0000      -0.977151       -26.5896
  13   2.0000      -0.950880       -25.8748
  14   2.0000      -0.938522       -25.5385
  15   2.0000      -0.933779       -25.4094
  16   2.0000      -0.917261       -24.9599
  17   2.0000      -0.899135       -24.4667
  18   2.0000      -0.701397       -19.0860
  19   2.0000      -0.683153       -18.5895
  20   2.0000      -0.621835       -16.9210
  21   2.0000      -0.580716       -15.8021
  22   2.0000      -0.567450       -15.4411
  23   2.0000      -0.513998       -13.9866
  24   2.0000      -0.507622       -13.8131
  25   2.0000      -0.487658       -13.2698
  26   2.0000      -0.480768       -13.0824
  27   2.0000      -0.461498       -12.5580
  28   2.0000      -0.439419       -11.9572
  29   2.0000      -0.432971       -11.7817
  30   2.0000      -0.421666       -11.4741
  31   2.0000      -0.390971       -10.6389
  32   2.0000      -0.381866       -10.3911
  33   2.0000      -0.366096        -9.9620
  34   2.0000      -0.361731        -9.8432
  35   2.0000      -0.356367        -9.6972
  36   2.0000      -0.331470        -9.0198
  37   2.0000      -0.307972        -8.3804
  38   2.0000      -0.298243        -8.1156
  39   2.0000      -0.294822        -8.0225
  40   2.0000      -0.279056        -7.5935
  41   2.0000      -0.269510        -7.3337
  42   2.0000      -0.255663        -6.9569
  43   2.0000      -0.248459        -6.7609
  44   2.0000      -0.237517        -6.4632
  45   2.0000      -0.214907        -5.8479
  46   2.0000      -0.208816        -5.6822
  47   2.0000      -0.200547        -5.4572
  48   0.0000       0.000498         0.0136
  49   0.0000       0.012728         0.3463
  50   0.0000       0.024640         0.6705
  51   0.0000       0.051238         1.3943
  52   0.0000       0.068515         1.8644

MULLIKEN ATOMIC CHARGES
-----------------------
   0 C :    0.096667
   1 C :   -0.007434
   2 H :    0.079758
   3 C :    0.061226
   4 H :    0.061315
   5 C :    0.057911
   6 H :    0.036944
   7 C :   -0.036618
   8 H :    0.062270
   9 C :    0.231598
  10 H :    0.071707
  11 O :   -0.322463
  12 O :   -0.399824
  13 O :   -0.397973
  14 O :   -0.413780
  15 O :   -0.414939
  16 O :   -0.441550
  17 H :    0.086572
  18 H :    0.078077
  19 H :    0.290244
  20 H :    0.306027
  21 H :    0.307964
  22 H :    0.305466
  23 H :    0.300833
Sum of atomic charges:   -0.0000000

LOEWDIN ATOMIC CHARGES
----------------------
   0 C :   -0.124051
   1 C :   -0.077677
   2 H :    0.115015
   3 C :   -0.070178
   4 H :    0.110356
   5 C :   -0.081332
   6 H :    0.094937
   7 C :   -0.104788
   8 H :    0.101165
   9 C :    0.016256
  10 H :    0.104399
  11 O :   -0.154340
  12 O :   -0.304533
  13 O :   -0.305758
  14 O :   -0.310588
  15 O :   -0.315372
  16 O :   -0.333992
  17 H :    0.118717
  18 H :    0.101560
  19 H :    0.268682
  20 H :    0.289133
  21 H :    0.290105
  22 H :    0.289990
  23 H :    0.282296

  Mayer bond orders larger than 0.100000
B(  0-C ,  1-C ) :   1.0404 B(  0-C , 16-O ) :   1.0640 B(  0-C , 17-H ) :   0.9176
B(  0-C , 18-H ) :   0.9159 B(  1-C ,  2-H ) :   0.8532 B(  1-C ,  3-C ) :   1.0536
B(  1-C , 11-O ) :   1.0020 B(  3-C ,  4-H ) :   0.8625 B(  3-C ,  5-C ) :   0.9694
B(  3-C , 15-O ) :   1.0765 B(  5-C ,  6-H ) :   0.8807 B(  5-C ,  7-C ) :   1.0019
B(  5-C , 14-O ) :   1.0342 B(  7-C ,  8-H ) :   0.8987 B(  7-C ,  9-C ) :   0.9569
B(  7-C , 13-O ) :   1.0553 B(  9-C , 10-H ) :   0.9020 B(  9-C , 11-O ) :   1.0335
B(  9-C , 12-O ) :   1.1443 B( 12-O , 19-H ) :   0.8198 B( 13-O , 20-H ) :   0.8431
B( 14-O , 21-H ) :   0.8402 B( 15-O , 22-H ) :   0.8479 B( 16-O , 23-H ) :   0.8416

Dispersion correction           -0.024891756
FINAL SINGLE POINT ENERGY      -685.691650335100

DIPOLE MOMENT
-------------

Method             : SCF
Type of density    : Electron Density
Multiplicity       :   1
Irrep              :   0
Energy             :  -685.8220070823839478 Eh
Relativity type    :
Basis              : AO
                                X                 Y                 Z
Electronic contribution:      1.273613175      -0.925105454      -1.212139436
Nuclear contribution   :     -0.388544089       2.515161144       1.083480472
                        -----------------------------------------
Total Dipole Moment    :      0.885069087       1.590055689      -0.128658964
                        -----------------------------------------
Magnitude (a.u.)       :      1.824329332
Magnitude (Debye)      :      4.637076648

Rotational constants in cm-1:             0.039241             0.027377             0.023301
Rotational constants in MHz :          1176.419167           820.749578           698.542227

                             ****ORCA TERMINATED NORMALLY****
TOTAL RUN TIME: 0 days 0 hours 0 minutes 12 seconds 265 msec
