                         Program Version 6.0.0  -   RELEASE  -
|  1> ! wb97x-v def2-tzvp def2/J RIJCOSX DEFGRID2 scfconv7 GCP(DFT/TZ) printgap
|  2> %output
|  3>     printlevel normal
|  4> end
|  5> * xyz 0 1
|  6> C -2.081643498814594 0.06736439462509346 0.015679791770387547
|  7> C -0.7145132708234616 0.6972241575221918 0.0015392278594207921
|  8> C 0.45361550446847004 0.039988461383038854 -0.005348385744432336
|  9> C 1.7680852016295858 0.7662495368321002 -0.02248578389968831
| 10> C 0.5571736362241382 -1.4570212204498758 0.0017079321977718123
| 11> H -2.2539225105603653 -0.5248722301739088 0.9225170432218932
| 12> H -2.85945815681285 0.833793910869971 -0.025632144158262555
| 13> H -2.2362683733748843 -0.6041136810992015 -0.8369530629652798
| 14> H -0.6806445471665433 1.7862560274994672 -0.0024000050865737015
| 15> H 2.37326883590587 0.49795318462294264 0.8531076412529426
| 16> H 2.3578932808968283 0.4837047547200134 -0.9041576037510521
| 17> H 1.6335014866049318 1.8515632268642697 -0.030289476587456624
| 18> H -0.41611843288850087 -1.950434547493011 0.041510644182936964
| 19> H 1.0856271094555139 -1.8090975897127444 -0.8937410565129909
| 20> H 1.1499548015630352 -1.794899613525862 0.8613444792413675
| 21> *
| 22>
| 23>                          ****END OF INPUT****

CARTESIAN COORDINATES (ANGSTROEM)
---------------------------------
  C     -2.081643    0.067364    0.015680
  C     -0.714513    0.697224    0.001539
  C      0.453616    0.039988   -0.005348
  C      1.768085    0.766250   -0.022486
  C      0.557174   -1.457021    0.001708
  H     -2.253923   -0.524872    0.922517
  H     -2.859458    0.833794   -0.025632
  H     -2.236268   -0.604114   -0.836953
  H     -0.680645    1.786256   -0.002400
  H      2.373269    0.497953    0.853108
  H      2.357893    0.483705   -0.904158
  H      1.633501    1.851563   -0.030289
  H     -0.416118   -1.950435    0.041511
  H      1.085627   -1.809098   -0.893741
  H      1.149955   -1.794900    0.861344

 Total Charge           Charge          ....    0
 Multiplicity           Mult            ....    1
 Number of Electrons    NEL             ....   40
 Basis Dimension        Dim             ....  215

ORBITAL ENERGIES
----------------

  NO   OCC          E(Eh)            E(eV)
   0   2.0000     -12.047288      -327.8234
   1   2.0000     -12.037019      -327.5439
   2   2.0000     -12.035952      -327.5149
   3   2.0000     -12.035768      -327.5099
   4   2.0000     -12.033262      -327.4417
   5   2.0000      -1.327730       -36.1294
   6   2.0000      -1.231434       -33.5090
   7   2.0000      -1.184704       -32.2374
   8   2.0000      -1.135610       -30.9015
   9   2.0000      -0.975707       -26.5503
  10   2.0000      -0.904291       -24.6070
  11   2.0000      -0.884749       -24.0752
  12   2.0000      -0.847118       -23.0512
  13   2.0000      -0.820021       -22.3139
  14   2.0000      -0.816194       -22.2098
  15   2.0000      -0.805971       -21.9316
  16   2.0000      -0.804814       -21.9001
  17   2.0000      -0.796876       -21.6841
  18   2.0000      -0.774617       -21.0784
  19   2.0000      -0.627149       -17.0656
  20   0.0000      -0.191179        -5.2023
  21   0.0000      -0.034116        -0.9284
  22   0.0000      -0.010571        -0.2876
  23   0.0000      -0.002025        -0.0551
  24   0.0000       0.010743         0.2923

MULLIKEN ATOMIC CHARGES
-----------------------
   0 C :   -0.350311
   1 C :   -0.157575
   2 C :    0.022454
   3 C :   -0.322297
   4 C :   -0.334759
   5 H :    0.123149
   6 H :    0.116515
   7 H :    0.123059
   8 H :    0.103932
   9 H :    0.110077
  10 H :    0.109676
  11 H :    0.109072
  12 H :    0.118326
  13 H :    0.114794
  14 H :    0.113888
Sum of atomic charges:   -0.0000000

LOEWDIN ATOMIC CHARGES
----------------------
   0 C :   -0.300331
   1 C :   -0.191310
   2 C :   -0.236113
   3 C :   -0.261316
   4 C :   -0.257576
   5 H :    0.123177
   6 H :    0.120061
   7 H :    0.122899
   8 H :    0.136138
   9 H :    0.122760
  10 H :    0.122909
  11 H :    0.122672
  12 H :    0.123651
  13 H :    0.126264
  14 H :    0.126116

  Mayer bond orders larger than 0.100000
B(  0-C ,  1-C ) :   0.9576 B(  0-C ,  5-H ) :   0.9759 B(  0-C ,  6-H ) :   0.9868
B(  0-C ,  7-H ) :   0.9778 B(  1-C ,  2-C ) :   1.9081 B(  1-C ,  8-H ) :   0.9671
B(  2-C ,  3-C ) :   0.9682 B(  2-C ,  4-C ) :   0.9530 B(  3-C ,  9-H ) :   0.9727
B(  3-C , 10-H ) :   0.9721 B(  3-C , 11-H ) :   0.9866 B(  4-C , 12-H ) :   0.9892
B(  4-C , 13-H ) :   0.9723 B(  4-C , 14-H ) :   0.9728

FINAL SINGLE POINT ENERGY      -196.540608941601

DIPOLE MOMENT
-------------

Method             : SCF
Type of density    : Electron Density
Multiplicity       :   1
Irrep              :   0
Energy             :  -196.5503652953010487 Eh
Relativity type    :
Basis              : AO
                                X                 Y                 Z
Electronic contribution:     -0.106797314       1.072643453      -0.002219994
Nuclear contribution   :      0.151347751      -1.171073307       0.002507136
                        -----------------------------------------
Total Dipole Moment    :      0.044550437      -0.098429854       0.000287142
                        -----------------------------------------
Magnitude (a.u.)       :      0.108042862
Magnitude (Debye)      :      0.274623130

Rotational constants in cm-1:             0.271792             0.118591             0.086528
Rotational constants in MHz :          8148.116950          3555.261536          2594.029243

                             ****ORCA TERMINATED NORMALLY****
TOTAL RUN TIME: 0 days 0 hours 0 minutes 53 seconds 29 msec
