                         Program Version 6.0.0  -   RELEASE  -
|  1> ! wb97x-v def2-tzvp def2/J RIJCOSX DEFGRID2 scfconv7 GCP(DFT/TZ) printgap
|  2> %output
|  3>     printlevel normal
|  4> end
|  5> %cpcm
|  6>     smd true
|  7>     smdsolvent "water"
|  8> end
|  9> * xyz 0 1
| 10> C -2.081643498814594 0.06736439462509346 0.015679791770387547
| 11> C -0.7145132708234616 0.6972241575221918 0.0015392278594207921
| 12> C 0.45361550446847004 0.039988461383038854 -0.005348385744432336
| 13> C 1.7680852016295858 0.7662495368321002 -0.02248578389968831
| 14> C 0.5571736362241382 -1.4570212204498758 0.0017079321977718123
| 15> H -2.2539225105603653 -0.5248722301739088 0.9225170432218932
| 16> H -2.85945815681285 0.833793910869971 -0.025632144158262555
| 17> H -2.2362683733748843 -0.6041136810992015 -0.8369530629652798
| 18> H -0.6806445471665433 1.7862560274994672 -0.0024000050865737015
| 19> H 2.37326883590587 0.49795318462294264 0.8531076412529426
| 20> H 2.3578932808968283 0.4837047547200134 -0.9041576037510521
| 21> H 1.6335014866049318 1.8515632268642697 -0.030289476587456624
| 22> H -0.41611843288850087 -1.950434547493011 0.041510644182936964
| 23> H 1.0856271094555139 -1.8090975897127444 -0.8937410565129909
| 24> H 1.1499548015630352 -1.794899613525862 0.8613444792413675
| 25> *
| 26>
| 27>                          ****END OF INPUT****

CARTESIAN COORDINATES (ANGSTROEM)
---------------------------------
  C     -2.081643    0.067364    0.015680
  C     -0.714513    0.697224    0.001539
  C      0.453616    0.039988   -0.005348
  C      1.768085    0.766250   -0.022486
  C      0.557174   -1.457021    0.001708
  H     -2.253923   -0.524872    0.922517
  H     -2.859458    0.833794   -0.025632
  H     -2.236268   -0.604114   -0.836953
  H     -0.680645    1.786256   -0.002400
  H      2.373269    0.497953    0.853108
  H      2.357893    0.483705   -0.904158
  H      1.633501    1.851563   -0.030289
  H     -0.416118   -1.950435    0.041511
  H      1.085627   -1.809098   -0.893741
  H      1.149955   -1.794900    0.861344

 Total Charge           Charge          ....    0
 Multiplicity           Mult            ....    1
 Number of Electrons    NEL             ....   40
 Basis Dimension        Dim             ....  215

ORBITAL ENERGIES
----------------

  NO   OCC          E(Eh)            E(eV)
   0   2.0000     -12.045249      -327.7679
   1   2.0000     -12.030531      -327.3674
   2   2.0000     -12.029007      -327.3259
   3   2.0000     -12.028704      -327.3177
   4   2.0000     -12.028405      -327.3096
   5   2.0000      -1.324550       -36.0428
   6   2.0000      -1.226283       -33.3689
   7   2.0000      -1.178376       -32.0652
   8   2.0000      -1.130960       -30.7750
   9   2.0000      -0.970655       -26.4129
  10   2.0000      -0.899334       -24.4721
  11   2.0000      -0.879796       -23.9405
  12   2.0000      -0.841140       -22.8886
  13   2.0000      -0.814052       -22.1515
  14   2.0000      -0.809400       -22.0249
  15   2.0000      -0.798859       -21.7381
  16   2.0000      -0.798734       -21.7346
  17   2.0000      -0.789982       -21.4965
  18   2.0000      -0.769222       -20.9316
  19   2.0000      -0.625548       -17.0220
  20   0.0000      -0.189274        -5.1504
  21   0.0000      -0.028816        -0.7841
  22   0.0000      -0.002460        -0.0669
  23   0.0000       0.004381         0.1192
  24   0.0000       0.018568         0.5052

MULLIKEN ATOMIC CHARGES
-----------------------
   0 C :   -0.375276
   1 C :   -0.231011
   2 C :    0.000917
   3 C :   -0.368154
   4 C :   -0.377957
   5 H :    0.137263
   6 H :    0.136780
   7 H :    0.137747
   8 H :    0.141727
   9 H :    0.130545
  10 H :    0.130156
  11 H :    0.130188
  12 H :    0.137601
  13 H :    0.134974
  14 H :    0.134499
Sum of atomic charges:   -0.0000000

LOEWDIN ATOMIC CHARGES
----------------------
   0 C :   -0.305918
   1 C :   -0.208777
   2 C :   -0.243860
   3 C :   -0.267424
   4 C :   -0.261777
   5 H :    0.126564
   6 H :    0.123498
   7 H :    0.126403
   8 H :    0.141410
   9 H :    0.127431
  10 H :    0.127558
  11 H :    0.125825
  12 H :    0.127056
  13 H :    0.131073
  14 H :    0.130938

  Mayer bond orders larger than 0.100000
B(  0-C ,  1-C ) :   0.9621 B(  0-C ,  5-H ) :   0.9707 B(  0-C ,  6-H ) :   0.9830
B(  0-C ,  7-H ) :   0.9727 B(  1-C ,  2-C ) :   1.8861 B(  1-C ,  8-H ) :   0.9705
B(  2-C ,  3-C ) :   0.9664 B(  2-C ,  4-C ) :   0.9529 B(  3-C ,  9-H ) :   0.9683
B(  3-C , 10-H ) :   0.9679 B(  3-C , 11-H ) :   0.9839 B(  4-C , 12-H ) :   0.9858
B(  4-C , 13-H ) :   0.9678 B(  4-C , 14-H ) :   0.9687

FINAL SINGLE POINT ENERGY      -196.538896946600

DIPOLE MOMENT
-------------

Method             : SCF
Type of density    : Electron Density
Multiplicity       :   1
Irrep              :   0
Energy             :  -196.5486533003000602 Eh
Relativity type    :
Basis              : AO
                                X                 Y                 Z
Electronic contribution:     -0.060358084       1.009169366      -0.002294654
Nuclear contribution   :      0.151347751      -1.171073307       0.002507136
                        -----------------------------------------
Total Dipole Moment    :      0.090989667      -0.161903941       0.000212482
                        -----------------------------------------
Magnitude (a.u.)       :      0.185720356
Magnitude (Debye)      :      0.472063630

Rotational constants in cm-1:             0.271792             0.118591             0.086528
Rotational constants in MHz :          8148.116950          3555.261536          2594.029243

                             ****ORCA TERMINATED NORMALLY****
TOTAL RUN TIME: 0 days 0 hours 0 minutes 49 seconds 127 msec
