                         Program Version 6.0.0  -   RELEASE  -
|  1> ! r2scan-3c def2/J RI DEFGRID2 scfconv6 printgap
|  2> %output
|  3>     printlevel normal
|  4> end
|  5> * xyz 0 1
|  6> C -2.4880731122 -1.1826670201 -0.0132425448
|  7> C -1.7169127179 0.1011101562 0.0016108807
|  8> O -2.2672038965 1.1887708201 0.0119970256
|  9> C -0.2288736604 0.0058471446 0.0003902812
| 10> C 0.5155245607 1.1861198049 -0.0064155251
| 11> C 1.8980683226 1.1057203271 -0.0073040734
| 12> N 2.5573077486 -0.0422367835 -0.0006866235
| 13> C 1.8527345613 -1.1630408759 0.006759792
| 14> C 0.4668465809 -1.2024231104 0.0069731746
| 15> H -3.5525404411 -0.9646048442 -0.0216733792
| 16> H -2.2433985346 -1.7686199443 0.869379098
| 17> H -2.2262302631 -1.7609455491 -0.8959135697
| 18> H 0.0036738038 2.1358943887 -0.0105015096
| 19> H 2.5099329754 1.996969037 -0.0118481576
| 20> H 2.4340544924 -2.0745439186 0.0095906526
| 21> H -0.0412756801 -2.1514084932 0.0138696334
| 22> *
| 23>
| 24>                          ****END OF INPUT****

CARTESIAN COORDINATES (ANGSTROEM)
---------------------------------
  C     -2.488073   -1.182667   -0.013243
  C     -1.716913    0.101110    0.001611
  O     -2.267204    1.188771    0.011997
  C     -0.228874    0.005847    0.000390
  C      0.515525    1.186120   -0.006416
  C      1.898068    1.105720   -0.007304
  N      2.557308   -0.042237   -0.000687
  C      1.852735   -1.163041    0.006760
  C      0.466847   -1.202423    0.006973
  H     -3.552540   -0.964605   -0.021673
  H     -2.243399   -1.768620    0.869379
  H     -2.226230   -1.760946   -0.895914
  H      0.003674    2.135894   -0.010502
  H      2.509933    1.996969   -0.011848
  H      2.434054   -2.074544    0.009591
  H     -0.041276   -2.151408    0.013870

 Total Charge           Charge          ....    0
 Multiplicity           Mult            ....    1
 Number of Electrons    NEL             ....   64
 Basis Dimension        Dim             ....  216

ORBITAL ENERGIES
----------------

  NO   OCC          E(Eh)            E(eV)
   0   2.0000     -18.951414      -515.6942
   1   2.0000     -14.169274      -385.5656
   2   2.0000     -10.136127      -275.8180
   3   2.0000     -10.081045      -274.3192
   4   2.0000     -10.078772      -274.2573
   5   2.0000     -10.072291      -274.0810
   6   2.0000     -10.064060      -273.8570
   7   2.0000     -10.056550      -273.6526
   8   2.0000     -10.046541      -273.3803
   9   2.0000      -1.017749       -27.6944
  10   2.0000      -0.929093       -25.2819
  11   2.0000      -0.801318       -21.8050
  12   2.0000      -0.747912       -20.3517
  13   2.0000      -0.727745       -19.8030
  14   2.0000      -0.632005       -17.1977
  15   2.0000      -0.615375       -16.7452
  16   2.0000      -0.544414       -14.8143
  17   2.0000      -0.486245       -13.2314
  18   2.0000      -0.472581       -12.8596
  19   2.0000      -0.447106       -12.1664
  20   2.0000      -0.434945       -11.8354
  21   2.0000      -0.421907       -11.4807
  22   2.0000      -0.411604       -11.2003
  23   2.0000      -0.403756       -10.9867
  24   2.0000      -0.390396       -10.6232
  25   2.0000      -0.367089        -9.9890
  26   2.0000      -0.349978        -9.5234
  27   2.0000      -0.342183        -9.3113
  28   2.0000      -0.283549        -7.7158
  29   2.0000      -0.262320        -7.1381
  30   2.0000      -0.240557        -6.5459
  31   2.0000      -0.230335        -6.2677
  32   0.0000      -0.109007        -2.9662
  33   0.0000      -0.054517        -1.4835
  34   0.0000      -0.010466        -0.2848
  35   0.0000       0.065457         1.7812
  36   0.0000       0.097964         2.6657

MULLIKEN ATOMIC CHARGES
-----------------------
   0 C :   -0.556375
   1 C :    0.261619
   2 O :   -0.336726
   3 C :    0.117593
   4 C :   -0.097018
   5 C :   -0.127949
   6 N :   -0.158489
   7 C :   -0.135345
   8 C :   -0.107422
   9 H :    0.185467
  10 H :    0.172393
  11 H :    0.173158
  12 H :    0.186556
  13 H :    0.136310
  14 H :    0.135143
  15 H :    0.151084
Sum of atomic charges:   -0.0000000

LOEWDIN ATOMIC CHARGES
----------------------
   0 C :   -0.379026
   1 C :    0.242831
   2 O :   -0.457534
   3 C :   -0.046114
   4 C :   -0.082682
   5 C :    0.086461
   6 N :   -0.599157
   7 C :    0.084151
   8 C :   -0.122908
   9 H :    0.178721
  10 H :    0.176115
  11 H :    0.175853
  12 H :    0.193344
  13 H :    0.187520
  14 H :    0.186777
  15 H :    0.175648

  Mayer bond orders larger than 0.100000
B(  0-C ,  1-C ) :   0.8860 B(  0-C ,  9-H ) :   0.9780 B(  0-C , 10-H ) :   0.9556
B(  0-C , 11-H ) :   0.9589 B(  1-C ,  2-O ) :   1.9198 B(  1-C ,  3-C ) :   0.8906
B(  2-O ,  3-C ) :  -0.1089 B(  3-C ,  4-C ) :   1.3447 B(  3-C ,  8-C ) :   1.3462
B(  4-C ,  5-C ) :   1.3083 B(  4-C , 12-H ) :   0.9539 B(  5-C ,  6-N ) :   1.4354
B(  5-C , 13-H ) :   0.9972 B(  6-N ,  7-C ) :   1.4793 B(  7-C ,  8-C ) :   1.3370
B(  7-C , 14-H ) :   0.9967 B(  8-C , 15-H ) :   0.9214

Dispersion correction           -0.005279344
FINAL SINGLE POINT ENERGY      -400.831522489079

DIPOLE MOMENT
-------------

Method             : SCF
Type of density    : Electron Density
Multiplicity       :   1
Irrep              :   0
Energy             :  -400.8336930686820097 Eh
Relativity type    :
Basis              : AO
                                X                 Y                 Z
Electronic contribution:      2.732863602       3.345365497       0.034523268
Nuclear contribution   :     -2.942688338      -4.286251866      -0.044011278
                        -----------------------------------------
Total Dipole Moment    :     -0.209824736      -0.940886369      -0.009488010
                        -----------------------------------------
Magnitude (a.u.)       :      0.964045436
Magnitude (Debye)      :      2.450408760

Rotational constants in cm-1:             0.128517             0.040993             0.031261
Rotational constants in MHz :          3852.848741          1228.932615           937.193965

                             ****ORCA TERMINATED NORMALLY****
TOTAL RUN TIME: 0 days 0 hours 0 minutes 31 seconds 360 msec
