                         Program Version 6.0.0  -   RELEASE  -
|  1> ! r2scan-3c def2/J RI DEFGRID2 scfconv6 printgap
|  2> %output
|  3>     printlevel normal
|  4> end
|  5> %cpcm
|  6>     smd true
|  7>     smdsolvent "water"
|  8> end
|  9> * xyz 0 1
| 10> C -2.4880731122 -1.1826670201 -0.0132425448
| 11> C -1.7169127179 0.1011101562 0.0016108807
| 12> O -2.2672038965 1.1887708201 0.0119970256
| 13> C -0.2288736604 0.0058471446 0.0003902812
| 14> C 0.5155245607 1.1861198049 -0.0064155251
| 15> C 1.8980683226 1.1057203271 -0.0073040734
| 16> N 2.5573077486 -0.0422367835 -0.0006866235
| 17> C 1.8527345613 -1.1630408759 0.006759792
| 18> C 0.4668465809 -1.2024231104 0.0069731746
| 19> H -3.5525404411 -0.9646048442 -0.0216733792
| 20> H -2.2433985346 -1.7686199443 0.869379098
| 21> H -2.2262302631 -1.7609455491 -0.8959135697
| 22> H 0.0036738038 2.1358943887 -0.0105015096
| 23> H 2.5099329754 1.996969037 -0.0118481576
| 24> H 2.4340544924 -2.0745439186 0.0095906526
| 25> H -0.0412756801 -2.1514084932 0.0138696334
| 26> *
| 27>
| 28>                          ****END OF INPUT****

CARTESIAN COORDINATES (ANGSTROEM)
---------------------------------
  C     -2.488073   -1.182667   -0.013243
  C     -1.716913    0.101110    0.001611
  O     -2.267204    1.188771    0.011997
  C     -0.228874    0.005847    0.000390
  C      0.515525    1.186120   -0.006416
  C      1.898068    1.105720   -0.007304
  N      2.557308   -0.042237   -0.000687
  C      1.852735   -1.163041    0.006760
  C      0.466847   -1.202423    0.006973
  H     -3.552540   -0.964605   -0.021673
  H     -2.243399   -1.768620    0.869379
  H     -2.226230   -1.760946   -0.895914
  H      0.003674    2.135894   -0.010502
  H      2.509933    1.996969   -0.011848
  H      2.434054   -2.074544    0.009591
  H     -0.041276   -2.151408    0.013870

 Total Charge           Charge          ....    0
 Multiplicity           Mult            ....    1
 Number of Electrons    NEL             ....   64
 Basis Dimension        Dim             ....  216

ORBITAL ENERGIES
----------------

  NO   OCC          E(Eh)            E(eV)
   0   2.0000     -18.955121      -515.7951
   1   2.0000     -14.168294      -385.5389
   2   2.0000     -10.136523      -275.8288
   3   2.0000     -10.072391      -274.0837
   4   2.0000     -10.072174      -274.0778
   5   2.0000     -10.065474      -273.8955
   6   2.0000     -10.052700      -273.5479
   7   2.0000     -10.050192      -273.4796
   8   2.0000     -10.027365      -272.8585
   9   2.0000      -1.023042       -27.8384
  10   2.0000      -0.925758       -25.1912
  11   2.0000      -0.794525       -21.6201
  12   2.0000      -0.740059       -20.1380
  13   2.0000      -0.713786       -19.4231
  14   2.0000      -0.624260       -16.9870
  15   2.0000      -0.607858       -16.5407
  16   2.0000      -0.535978       -14.5847
  17   2.0000      -0.479813       -13.0564
  18   2.0000      -0.466722       -12.7002
  19   2.0000      -0.436316       -11.8728
  20   2.0000      -0.423559       -11.5256
  21   2.0000      -0.414883       -11.2895
  22   2.0000      -0.404377       -11.0037
  23   2.0000      -0.401182       -10.9167
  24   2.0000      -0.384362       -10.4590
  25   2.0000      -0.354120        -9.6361
  26   2.0000      -0.344869        -9.3844
  27   2.0000      -0.332433        -9.0460
  28   2.0000      -0.280801        -7.6410
  29   2.0000      -0.255526        -6.9532
  30   2.0000      -0.244589        -6.6556
  31   2.0000      -0.233008        -6.3405
  32   0.0000      -0.105973        -2.8837
  33   0.0000      -0.047376        -1.2892
  34   0.0000      -0.006474        -0.1762
  35   0.0000       0.079117         2.1529
  36   0.0000       0.112449         3.0599

MULLIKEN ATOMIC CHARGES
-----------------------
   0 C :   -0.581217
   1 C :    0.302313
   2 O :   -0.428282
   3 C :    0.123879
   4 C :   -0.119357
   5 C :   -0.151746
   6 N :   -0.211641
   7 C :   -0.152587
   8 C :   -0.104832
   9 H :    0.188088
  10 H :    0.204640
  11 H :    0.204904
  12 H :    0.202004
  13 H :    0.165278
  14 H :    0.165629
  15 H :    0.192929
Sum of atomic charges:    0.0000000

LOEWDIN ATOMIC CHARGES
----------------------
   0 C :   -0.374473
   1 C :    0.260219
   2 O :   -0.524342
   3 C :   -0.044513
   4 C :   -0.087024
   5 C :    0.082268
   6 N :   -0.641261
   7 C :    0.083551
   8 C :   -0.101210
   9 H :    0.178875
  10 H :    0.191387
  11 H :    0.190968
  12 H :    0.197144
  13 H :    0.197435
  14 H :    0.197787
  15 H :    0.193191

  Mayer bond orders larger than 0.100000
B(  0-C ,  1-C ) :   0.9028 B(  0-C ,  9-H ) :   0.9775 B(  0-C , 10-H ) :   0.9375
B(  0-C , 11-H ) :   0.9408 B(  1-C ,  2-O ) :   1.8637 B(  1-C ,  3-C ) :   0.8995
B(  2-O ,  3-C ) :  -0.1004 B(  3-C ,  4-C ) :   1.2957 B(  3-C ,  8-C ) :   1.3582
B(  4-C ,  5-C ) :   1.3375 B(  4-C , 12-H ) :   0.9542 B(  5-C ,  6-N ) :   1.4389
B(  5-C , 13-H ) :   0.9827 B(  6-N ,  7-C ) :   1.4717 B(  7-C ,  8-C ) :   1.3490
B(  7-C , 14-H ) :   0.9809 B(  8-C , 15-H ) :   0.9166

Dispersion correction           -0.005279344
FINAL SINGLE POINT ENERGY      -400.843522541401

DIPOLE MOMENT
-------------

Method             : SCF
Type of density    : Electron Density
Multiplicity       :   1
Irrep              :   0
Energy             :  -400.8456931210039897 Eh
Relativity type    :
Basis              : AO
                                X                 Y                 Z
Electronic contribution:      2.683175762       2.805615461       0.031047952
Nuclear contribution   :     -2.942688338      -4.286251866      -0.044011278
                        -----------------------------------------
Total Dipole Moment    :     -0.259512576      -1.480636406      -0.012963326
                        -----------------------------------------
Magnitude (a.u.)       :      1.503262782
Magnitude (Debye)      :      3.820990332

Rotational constants in cm-1:             0.128517             0.040993             0.031261
Rotational constants in MHz :          3852.848741          1228.932615           937.193965

                             ****ORCA TERMINATED NORMALLY****
TOTAL RUN TIME: 0 days 0 hours 0 minutes 32 seconds 243 msec
