                         Program Version 6.0.0  -   RELEASE  -
|  1> ! pbe def2-sv(p) def2/J RI DEFGRID1 loosescf d4 GCP(DFT/SV(P)) printgap
|  2> %output
|  3>     printlevel normal
|  4> end
|  5> * xyz 0 1
|  6> C 3.6889925858 0.3685492735 0.042280624
|  7> C 2.2147182942 0.2960618368 -0.346652115
|  8> H 2.1379380674 0.3296016044 -1.4393405199
|  9> C 1.4316981519 1.4746168199 0.2309937965
| 10> C -0.0396993177 1.3872228395 -0.1625309205
| 11> C -0.669412314 0.0901699605 0.3475260782
| 12> H -0.5435338181 0.0566626573 1.4376430618
| 13> C 0.1072220826 -1.1064508956 -0.23249836
| 14> H 0.0079312985 -1.11424636 -1.3236048158
| 15> C 1.589136048 -1.0093058375 0.1420062894
| 16> O -0.4357173371 -2.3495385067 0.1757798893
| 17> C -2.18163997 -0.0245679277 0.0642691891
| 18> C -2.99020114 0.8345364909 1.0358275879
| 19> C -2.5620023141 0.3233813805 -1.3738499913
| 20> H 4.1327560559 1.2919118477 -0.3217444804
| 21> H 3.7981408828 0.3382644038 1.1241641101
| 22> H 4.2379004861 -0.468535537 -0.3822250166
| 23> H 1.5232334527 1.4701597756 1.3196032486
| 24> H 1.8539330067 2.4121469265 -0.13575842
| 25> H -0.5788126832 2.2421370554 0.2476029692
| 26> H -0.114751794 1.4265759158 -1.2500021198
| 27> H 1.6824178917 -1.0660364587 1.230326767
| 28> H 2.1163843723 -1.8651998952 -0.2853089577
| 29> H -0.3134100411 -2.4398138178 1.1313400101
| 30> H -2.4496847556 -1.0744913788 0.2327568523
| 31> H -2.7659261302 1.8893750155 0.896424725
| 32> H -2.7698570575 0.5679696166 2.0669484287
| 33> H -4.0543464898 0.6895861129 0.8658410296
| 34> H -3.609727468 0.0843789269 -1.5419592179
| 35> H -1.9693404102 -0.2486407133 -2.0829736601
| 36> H -2.4214594225 1.3832074393 -1.5695335694
| 37> *
| 38>
| 39>                          ****END OF INPUT****

CARTESIAN COORDINATES (ANGSTROEM)
---------------------------------
  C      3.688993    0.368549    0.042281
  C      2.214718    0.296062   -0.346652
  H      2.137938    0.329602   -1.439341
  C      1.431698    1.474617    0.230994
  C     -0.039699    1.387223   -0.162531
  C     -0.669412    0.090170    0.347526
  H     -0.543534    0.056663    1.437643
  C      0.107222   -1.106451   -0.232498
  H      0.007931   -1.114246   -1.323605
  C      1.589136   -1.009306    0.142006
  O     -0.435717   -2.349539    0.175780
  C     -2.181640   -0.024568    0.064269
  C     -2.990201    0.834536    1.035828
  C     -2.562002    0.323381   -1.373850
  H      4.132756    1.291912   -0.321744
  H      3.798141    0.338264    1.124164
  H      4.237900   -0.468536   -0.382225
  H      1.523233    1.470160    1.319603
  H      1.853933    2.412147   -0.135758
  H     -0.578813    2.242137    0.247603
  H     -0.114752    1.426576   -1.250002
  H      1.682418   -1.066036    1.230327
  H      2.116384   -1.865200   -0.285309
  H     -0.313410   -2.439814    1.131340
  H     -2.449685   -1.074491    0.232757
  H     -2.765926    1.889375    0.896425
  H     -2.769857    0.567970    2.066948
  H     -4.054346    0.689586    0.865841
  H     -3.609727    0.084379   -1.541959
  H     -1.969340   -0.248641   -2.082974
  H     -2.421459    1.383207   -1.569534

 Total Charge           Charge          ....    0
 Multiplicity           Mult            ....    1
 Number of Electrons    NEL             ....   88
 Basis Dimension        Dim             ....  194

ORBITAL ENERGIES
----------------

  NO   OCC          E(Eh)            E(eV)
   0   2.0000     -18.738691      -509.9057
   1   2.0000      -9.930957      -270.2351
   2   2.0000      -9.894635      -269.2467
   3   2.0000      -9.887412      -269.0501
   4   2.0000      -9.884330      -268.9663
   5   2.0000      -9.881985      -268.9025
   6   2.0000      -9.881752      -268.8962
   7   2.0000      -9.880836      -268.8712
   8   2.0000      -9.873178      -268.6628
   9   2.0000      -9.868054      -268.5234
  10   2.0000      -9.867166      -268.4992
  11   2.0000      -0.917394       -24.9636
  12   2.0000      -0.759988       -20.6803
  13   2.0000      -0.720805       -19.6141
  14   2.0000      -0.668936       -18.2027
  15   2.0000      -0.655408       -17.8345
  16   2.0000      -0.606149       -16.4941
  17   2.0000      -0.602517       -16.3953
  18   2.0000      -0.549949       -14.9649
  19   2.0000      -0.539903       -14.6915
  20   2.0000      -0.504597       -13.7308
  21   2.0000      -0.488112       -13.2822
  22   2.0000      -0.441126       -12.0036
  23   2.0000      -0.418654       -11.3922
  24   2.0000      -0.411835       -11.2066
  25   2.0000      -0.402174       -10.9437
  26   2.0000      -0.398703       -10.8492
  27   2.0000      -0.373555       -10.1649
  28   2.0000      -0.365780        -9.9534
  29   2.0000      -0.358846        -9.7647
  30   2.0000      -0.353500        -9.6192
  31   2.0000      -0.339271        -9.2320
  32   2.0000      -0.331941        -9.0326
  33   2.0000      -0.325950        -8.8695
  34   2.0000      -0.317988        -8.6529
  35   2.0000      -0.302180        -8.2227
  36   2.0000      -0.301013        -8.1910
  37   2.0000      -0.289207        -7.8697
  38   2.0000      -0.284358        -7.7378
  39   2.0000      -0.283457        -7.7133
  40   2.0000      -0.272453        -7.4138
  41   2.0000      -0.261743        -7.1224
  42   2.0000      -0.246631        -6.7112
  43   2.0000      -0.207353        -5.6424
  44   0.0000       0.026353         0.7171
  45   0.0000       0.036204         0.9852
  46   0.0000       0.043360         1.1799
  47   0.0000       0.047795         1.3006
  48   0.0000       0.074763         2.0344

MULLIKEN ATOMIC CHARGES
-----------------------
   0 C :   -0.195178
   1 C :   -0.218662
   2 H :    0.066295
   3 C :   -0.096589
   4 C :   -0.116768
   5 C :   -0.169150
   6 H :    0.032476
   7 C :    0.070744
   8 H :    0.059795
   9 C :   -0.078131
  10 O :   -0.414950
  11 C :   -0.097711
  12 C :   -0.236163
  13 C :   -0.265176
  14 H :    0.095889
  15 H :    0.089009
  16 H :    0.096704
  17 H :    0.064491
  18 H :    0.077897
  19 H :    0.084259
  20 H :    0.077428
  21 H :    0.047050
  22 H :    0.084004
  23 H :    0.292066
  24 H :    0.066409
  25 H :    0.094076
  26 H :    0.090646
  27 H :    0.096284
  28 H :    0.097787
  29 H :    0.105516
  30 H :    0.099652
Sum of atomic charges:    0.0000000

LOEWDIN ATOMIC CHARGES
----------------------
   0 C :   -0.326491
   1 C :   -0.152729
   2 H :    0.115146
   3 C :   -0.214510
   4 C :   -0.216374
   5 C :   -0.149538
   6 H :    0.106332
   7 C :   -0.049024
   8 H :    0.111198
   9 C :   -0.225450
  10 O :   -0.316636
  11 C :   -0.153683
  12 C :   -0.328729
  13 C :   -0.330171
  14 H :    0.117357
  15 H :    0.116215
  16 H :    0.117710
  17 H :    0.112700
  18 H :    0.115395
  19 H :    0.116741
  20 H :    0.117811
  21 H :    0.108086
  22 H :    0.118147
  23 H :    0.279865
  24 H :    0.115662
  25 H :    0.112978
  26 H :    0.113438
  27 H :    0.117504
  28 H :    0.119593
  29 H :    0.116424
  30 H :    0.115036

  Mayer bond orders larger than 0.100000
B(  0-C ,  1-C ) :   1.1115 B(  0-C , 14-H ) :   0.9481 B(  0-C , 15-H ) :   0.9459
B(  0-C , 16-H ) :   0.9487 B(  1-C ,  2-H ) :   0.8919 B(  1-C ,  3-C ) :   1.0929
B(  1-C ,  9-C ) :   1.0792 B(  3-C ,  4-C ) :   1.1414 B(  3-C , 17-H ) :   0.9043
B(  3-C , 18-H ) :   0.9131 B(  4-C ,  5-C ) :   1.0771 B(  4-C , 19-H ) :   0.9073
B(  4-C , 20-H ) :   0.8914 B(  5-C ,  6-H ) :   0.8713 B(  5-C ,  7-C ) :   1.0236
B(  5-C , 11-C ) :   1.0323 B(  7-C ,  8-H ) :   0.8759 B(  7-C ,  9-C ) :   1.1027
B(  7-C , 10-O ) :   1.0298 B(  9-C , 21-H ) :   0.8866 B(  9-C , 22-H ) :   0.9069
B( 10-O , 23-H ) :   0.8515 B( 11-C , 12-C ) :   1.1134 B( 11-C , 13-C ) :   1.1104
B( 11-C , 24-H ) :   0.8807 B( 12-C , 25-H ) :   0.9428 B( 12-C , 26-H ) :   0.9480
B( 12-C , 27-H ) :   0.9503 B( 13-C , 28-H ) :   0.9466 B( 13-C , 29-H ) :   0.9464
B( 13-C , 30-H ) :   0.9399

Dispersion correction           -0.031442316
FINAL SINGLE POINT ENERGY      -467.200500569910

DIPOLE MOMENT
-------------

Method             : SCF
Type of density    : Electron Density
Multiplicity       :   1
Irrep              :   0
Energy             :  -467.3127442798753464 Eh
Relativity type    :
Basis              : AO
                                X                 Y                 Z
Electronic contribution:      0.376234441      -5.185821191       0.128142030
Nuclear contribution   :     -0.100482626       5.505012145       0.209192309
                        -----------------------------------------
Total Dipole Moment    :      0.275751815       0.319190955       0.337334340
                        -----------------------------------------
Magnitude (a.u.)       :      0.540107754
Magnitude (Debye)      :      1.372844809

Rotational constants in cm-1:             0.059466             0.023140             0.019324
Rotational constants in MHz :          1782.752256           693.708576           579.321295

                             ****ORCA TERMINATED NORMALLY****
TOTAL RUN TIME: 0 days 0 hours 0 minutes 14 seconds 453 msec
