                         Program Version 6.0.0  -   RELEASE  -
|  1> ! pbe def2-sv(p) def2/J RI DEFGRID1 loosescf d4 GCP(DFT/SV(P)) printgap
|  2> %output
|  3>     printlevel normal
|  4> end
|  5> * xyz 0 1
|  6> C -3.4283640023 0.5473221115 0.0881943489
|  7> C -1.9326209348 0.4761240636 0.1091152647
|  8> C -1.150570358 1.5158013551 -0.1458560455
|  9> C 0.3457719682 1.477814998 -0.1507519892
| 10> C 0.8542760546 0.0388537767 -0.2600519364
| 11> H 0.5601350315 -0.3482826615 -1.242381856
| 12> C 0.1191548479 -0.8020250432 0.7895812551
| 13> C -1.3616941847 -0.8919582176 0.4122189409
| 14> H -1.9249749546 -1.3273614832 1.2559772885
| 15> O -1.5712710202 -1.7001456457 -0.7400724118
| 16> C 2.3520267582 -0.0766295756 -0.132523404
| 17> C 3.067783179 -0.6895436725 -1.0635056666
| 18> C 2.9932926314 0.5139313261 1.0870557766
| 19> H -3.8304486889 0.3366758683 1.0788638084
| 20> H -3.8159561677 -0.2045994722 -0.5976701778
| 21> H -3.7672124405 1.5291692993 -0.2294283429
| 22> H -1.5972097365 2.4792951995 -0.352985014
| 23> H 0.7247750341 2.0731370297 -0.98463774
| 24> H 0.7079994158 1.9376497672 0.7733358411
| 25> H 0.551170902 -1.8039062287 0.8424585608
| 26> H 0.1980319916 -0.3372960291 1.7729916235
| 27> H -1.2396855562 -2.5906235507 -0.5641395191
| 28> H 4.1367525195 -0.7964553472 -0.9829434741
| 29> H 2.6154012302 -1.1080824546 -1.947086931
| 30> H 2.4601651435 0.2172620317 1.9872633855
| 31> H 4.0271479735 0.1892581416 1.1675886212
| 32> H 2.9821535957 1.6013770527 1.0299650441
| 33> *
| 34>
| 35>                          ****END OF INPUT****

CARTESIAN COORDINATES (ANGSTROEM)
---------------------------------
  C     -3.428364    0.547322    0.088194
  C     -1.932621    0.476124    0.109115
  C     -1.150570    1.515801   -0.145856
  C      0.345772    1.477815   -0.150752
  C      0.854276    0.038854   -0.260052
  H      0.560135   -0.348283   -1.242382
  C      0.119155   -0.802025    0.789581
  C     -1.361694   -0.891958    0.412219
  H     -1.924975   -1.327361    1.255977
  O     -1.571271   -1.700146   -0.740072
  C      2.352027   -0.076630   -0.132523
  C      3.067783   -0.689544   -1.063506
  C      2.993293    0.513931    1.087056
  H     -3.830449    0.336676    1.078864
  H     -3.815956   -0.204599   -0.597670
  H     -3.767212    1.529169   -0.229428
  H     -1.597210    2.479295   -0.352985
  H      0.724775    2.073137   -0.984638
  H      0.707999    1.937650    0.773336
  H      0.551171   -1.803906    0.842459
  H      0.198032   -0.337296    1.772992
  H     -1.239686   -2.590624   -0.564140
  H      4.136753   -0.796455   -0.982943
  H      2.615401   -1.108082   -1.947087
  H      2.460165    0.217262    1.987263
  H      4.027148    0.189258    1.167589
  H      2.982154    1.601377    1.029965

 Total Charge           Charge          ....    0
 Multiplicity           Mult            ....    1
 Number of Electrons    NEL             ....   84
 Basis Dimension        Dim             ....  186

ORBITAL ENERGIES
----------------

  NO   OCC          E(Eh)            E(eV)
   0   2.0000     -18.743389      -510.0335
   1   2.0000      -9.938859      -270.4501
   2   2.0000      -9.895599      -269.2730
   3   2.0000      -9.892505      -269.1887
   4   2.0000      -9.889347      -269.1028
   5   2.0000      -9.887443      -269.0510
   6   2.0000      -9.886666      -269.0299
   7   2.0000      -9.880978      -268.8751
   8   2.0000      -9.879761      -268.8420
   9   2.0000      -9.873020      -268.6585
  10   2.0000      -9.864695      -268.4320
  11   2.0000      -0.920106       -25.0374
  12   2.0000      -0.763403       -20.7733
  13   2.0000      -0.720936       -19.6177
  14   2.0000      -0.675090       -18.3701
  15   2.0000      -0.659891       -17.9565
  16   2.0000      -0.613493       -16.6940
  17   2.0000      -0.600744       -16.3471
  18   2.0000      -0.557361       -15.1666
  19   2.0000      -0.536285       -14.5931
  20   2.0000      -0.473484       -12.8842
  21   2.0000      -0.464984       -12.6528
  22   2.0000      -0.442328       -12.0364
  23   2.0000      -0.426096       -11.5947
  24   2.0000      -0.401642       -10.9292
  25   2.0000      -0.397197       -10.8083
  26   2.0000      -0.385618       -10.4932
  27   2.0000      -0.372041       -10.1237
  28   2.0000      -0.367332        -9.9956
  29   2.0000      -0.363060        -9.8794
  30   2.0000      -0.355630        -9.6772
  31   2.0000      -0.353349        -9.6151
  32   2.0000      -0.322801        -8.7839
  33   2.0000      -0.322578        -8.7778
  34   2.0000      -0.314931        -8.5697
  35   2.0000      -0.299466        -8.1489
  36   2.0000      -0.282583        -7.6895
  37   2.0000      -0.280500        -7.6328
  38   2.0000      -0.259020        -7.0483
  39   2.0000      -0.221933        -6.0391
  40   2.0000      -0.209955        -5.7132
  41   2.0000      -0.208504        -5.6737
  42   0.0000      -0.017120        -0.4659
  43   0.0000      -0.004018        -0.1093
  44   0.0000       0.028727         0.7817
  45   0.0000       0.050733         1.3805
  46   0.0000       0.058884         1.6023

MULLIKEN ATOMIC CHARGES
-----------------------
   0 C :   -0.204579
   1 C :   -0.067592
   2 C :   -0.170738
   3 C :   -0.054315
   4 C :   -0.168307
   5 H :    0.069433
   6 C :   -0.123085
   7 C :    0.099119
   8 H :    0.052571
   9 O :   -0.423588
  10 C :   -0.008782
  11 C :   -0.233926
  12 C :   -0.231792
  13 H :    0.098337
  14 H :    0.118168
  15 H :    0.095095
  16 H :    0.040559
  17 H :    0.091364
  18 H :    0.092248
  19 H :    0.068991
  20 H :    0.082067
  21 H :    0.294207
  22 H :    0.075933
  23 H :    0.083760
  24 H :    0.109220
  25 H :    0.096766
  26 H :    0.118865
Sum of atomic charges:    0.0000000

LOEWDIN ATOMIC CHARGES
----------------------
   0 C :   -0.322037
   1 C :   -0.068852
   2 C :   -0.136298
   3 C :   -0.209746
   4 C :   -0.129717
   5 H :    0.124011
   6 C :   -0.220429
   7 C :   -0.037381
   8 H :    0.098932
   9 O :   -0.328117
  10 C :   -0.049445
  11 C :   -0.268768
  12 C :   -0.325644
  13 H :    0.124244
  14 H :    0.132608
  15 H :    0.121386
  16 H :    0.116977
  17 H :    0.127268
  18 H :    0.124952
  19 H :    0.113117
  20 H :    0.119708
  21 H :    0.281646
  22 H :    0.114226
  23 H :    0.116637
  24 H :    0.124424
  25 H :    0.125325
  26 H :    0.130973

  Mayer bond orders larger than 0.100000
B(  0-C ,  1-C ) :   1.1226 B(  0-C , 13-H ) :   0.9295 B(  0-C , 14-H ) :   0.9272
B(  0-C , 15-H ) :   0.9447 B(  1-C ,  2-C ) :   1.9392 B(  1-C ,  7-C ) :   0.9929
B(  2-C ,  3-C ) :   1.0496 B(  2-C , 16-H ) :   0.9240 B(  3-C ,  4-C ) :   1.0844
B(  3-C , 17-H ) :   0.9046 B(  3-C , 18-H ) :   0.8749 B(  4-C ,  5-H ) :   0.8790
B(  4-C ,  6-C ) :   1.0464 B(  4-C , 10-C ) :   1.0111 B(  6-C ,  7-C ) :   1.0729
B(  6-C , 19-H ) :   0.9097 B(  6-C , 20-H ) :   0.8921 B(  7-C ,  8-H ) :   0.8912
B(  7-C ,  9-O ) :   1.0530 B(  9-O , 21-H ) :   0.8485 B( 10-C , 11-C ) :   2.0385
B( 10-C , 12-C ) :   1.1064 B( 11-C , 22-H ) :   0.9023 B( 11-C , 23-H ) :   0.9102
B( 12-C , 24-H ) :   0.9322 B( 12-C , 25-H ) :   0.9348 B( 12-C , 26-H ) :   0.9230

Dispersion correction           -0.028348429
FINAL SINGLE POINT ENERGY      -464.793318066562

DIPOLE MOMENT
-------------

Method             : SCF
Type of density    : Electron Density
Multiplicity       :   1
Irrep              :   0
Energy             :  -464.8831364158684210 Eh
Relativity type    :
Basis              : AO
                                X                 Y                 Z
Electronic contribution:     -2.493253453      -1.867610424      -2.259573456
Nuclear contribution   :      2.592538429       1.707786265       2.810252973
                        -----------------------------------------
Total Dipole Moment    :      0.099284976      -0.159824159       0.550679517
                        -----------------------------------------
Magnitude (a.u.)       :      0.581935734
Magnitude (Debye)      :      1.479163086

Rotational constants in cm-1:             0.071505             0.022930             0.020050
Rotational constants in MHz :          2143.662749           687.414675           601.085930

                             ****ORCA TERMINATED NORMALLY****
TOTAL RUN TIME: 0 days 0 hours 0 minutes 12 seconds 683 msec
