                         Program Version 6.0.0  -   RELEASE  -
|  1> ! wb97x-v def2-tzvp def2/J RIJCOSX DEFGRID2 scfconv7 GCP(DFT/TZ) printgap
|  2> %output
|  3>     printlevel normal
|  4> end
|  5> * xyz 0 1
|  6> C -4.355550491888483 -1.3529958430712388 -0.3425946506014307
|  7> N -3.3001283300720248 -0.7824635213250524 0.48461619871820794
|  8> C -2.2260490180215413 -0.21073868541429402 -0.07054761935972668
|  9> O -1.9663575530422253 -0.16704112157888162 -1.2674281399285336
| 10> O -1.410482259009782 0.34637473484983433 0.9020434086444188
| 11> C -0.18848225512852954 0.8669095347985595 0.4571767824180245
| 12> C -0.06327780554154092 2.2231757483967356 0.3171898477773712
| 13> C 1.183122989577208 2.769091578917226 -0.05573968148035251
| 14> C 2.263678750099258 1.9508836683204878 -0.2813808607281312
| 15> C 2.147900448807623 0.5459619809526914 -0.14213531428528375
| 16> C 0.8905819956682806 -0.023411267407012038 0.23988886113901936
| 17> C 0.7765740647129131 -1.4266248940182382 0.38451828874798283
| 18> C 1.8640973393724096 -2.2365197928413774 0.1557528007218252
| 19> C 3.1058766834051004 -1.6819486637219807 -0.22297319652844752
| 20> C 3.244338880534914 -0.32218292682613764 -0.36716252799938015
| 21> H -4.881855091352319 -0.5804400856838808 -0.9135205902984458
| 22> H -5.068312042775476 -1.854651545684573 0.31268058003287963
| 23> H -3.9420739985824493 -2.0875568664107864 -1.0387416242204752
| 24> H -3.4329055283713186 -0.6984031161574598 1.4809824361861508
| 25> H -0.921401549410027 2.862328176137754 0.4955314371380306
| 26> H 1.2779193314839061 3.844466633349192 -0.1637448403540026
| 27> H 3.2234679144204854 2.3693482515301234 -0.569136780637725
| 28> H -0.1733516794505049 -1.8599716253515004 0.6804615045867218
| 29> H 1.7699642406874385 -3.3117925242988893 0.2685961016688538
| 30> H 3.953438356672401 -2.3367011630325702 -0.3985005129900055
| 31> H 4.19798658682917 0.10989376712686212 -0.6564478780137517
| 32> *
| 33>
| 34>                          ****END OF INPUT****

CARTESIAN COORDINATES (ANGSTROEM)
---------------------------------
  C     -4.355550   -1.352996   -0.342595
  N     -3.300128   -0.782464    0.484616
  C     -2.226049   -0.210739   -0.070548
  O     -1.966358   -0.167041   -1.267428
  O     -1.410482    0.346375    0.902043
  C     -0.188482    0.866910    0.457177
  C     -0.063278    2.223176    0.317190
  C      1.183123    2.769092   -0.055740
  C      2.263679    1.950884   -0.281381
  C      2.147900    0.545962   -0.142135
  C      0.890582   -0.023411    0.239889
  C      0.776574   -1.426625    0.384518
  C      1.864097   -2.236520    0.155753
  C      3.105877   -1.681949   -0.222973
  C      3.244339   -0.322183   -0.367163
  H     -4.881855   -0.580440   -0.913521
  H     -5.068312   -1.854652    0.312681
  H     -3.942074   -2.087557   -1.038742
  H     -3.432906   -0.698403    1.480982
  H     -0.921402    2.862328    0.495531
  H      1.277919    3.844467   -0.163745
  H      3.223468    2.369348   -0.569137
  H     -0.173352   -1.859972    0.680462
  H      1.769964   -3.311793    0.268596
  H      3.953438   -2.336701   -0.398501
  H      4.197987    0.109894   -0.656448

 Total Charge           Charge          ....    0
 Multiplicity           Mult            ....    1
 Number of Electrons    NEL             ....  106
 Basis Dimension        Dim             ....  531

ORBITAL ENERGIES
----------------

  NO   OCC          E(Eh)            E(eV)
   0   2.0000     -21.719654      -591.0218
   1   2.0000     -21.641568      -588.8970
   2   2.0000     -16.564208      -450.7350
   3   2.0000     -12.197642      -331.9147
   4   2.0000     -12.112833      -329.6070
   5   2.0000     -12.089650      -328.9761
   6   2.0000     -12.064597      -328.2944
   7   2.0000     -12.062693      -328.2426
   8   2.0000     -12.056244      -328.0671
   9   2.0000     -12.054851      -328.0292
  10   2.0000     -12.054493      -328.0194
  11   2.0000     -12.053250      -327.9856
  12   2.0000     -12.052914      -327.9765
  13   2.0000     -12.052040      -327.9527
  14   2.0000     -12.051494      -327.9378
  15   2.0000      -1.757567       -47.8258
  16   2.0000      -1.687714       -45.9250
  17   2.0000      -1.534466       -41.7549
  18   2.0000      -1.406429       -38.2709
  19   2.0000      -1.354752       -36.8647
  20   2.0000      -1.314801       -35.7776
  21   2.0000      -1.275614       -34.7112
  22   2.0000      -1.272155       -34.6171
  23   2.0000      -1.240592       -33.7582
  24   2.0000      -1.177158       -32.0321
  25   2.0000      -1.135565       -30.9003
  26   2.0000      -1.130526       -30.7632
  27   2.0000      -1.117305       -30.4034
  28   2.0000      -1.079692       -29.3799
  29   2.0000      -1.052379       -28.6367
  30   2.0000      -1.022785       -27.8314
  31   2.0000      -1.002628       -27.2829
  32   2.0000      -0.992347       -27.0031
  33   2.0000      -0.972100       -26.4522
  34   2.0000      -0.961984       -26.1769
  35   2.0000      -0.957885       -26.0654
  36   2.0000      -0.919693       -25.0261
  37   2.0000      -0.912839       -24.8396
  38   2.0000      -0.901396       -24.5282
  39   2.0000      -0.889105       -24.1938
  40   2.0000      -0.873659       -23.7735
  41   2.0000      -0.872588       -23.7443
  42   2.0000      -0.862800       -23.4780
  43   2.0000      -0.844877       -22.9903
  44   2.0000      -0.843453       -22.9515
  45   2.0000      -0.821877       -22.3644
  46   2.0000      -0.806935       -21.9578
  47   2.0000      -0.800306       -21.7774
  48   2.0000      -0.766470       -20.8567
  49   2.0000      -0.729974       -19.8636
  50   2.0000      -0.684838       -18.6354
  51   2.0000      -0.631360       -17.1802
  52   2.0000      -0.603242       -16.4150
  53   0.0000      -0.289613        -7.8808
  54   0.0000      -0.278486        -7.5780
  55   0.0000      -0.258384        -7.0310
  56   0.0000      -0.209452        -5.6995
  57   0.0000      -0.196199        -5.3389

MULLIKEN ATOMIC CHARGES
-----------------------
   0 C :   -0.224285
   1 N :   -0.308373
   2 C :    0.380676
   3 O :   -0.379766
   4 O :   -0.298924
   5 C :    0.276834
   6 C :   -0.198995
   7 C :   -0.095233
   8 C :   -0.230902
   9 C :    0.113403
  10 C :    0.120411
  11 C :   -0.194080
  12 C :   -0.109996
  13 C :   -0.111794
  14 C :   -0.183175
  15 H :    0.130274
  16 H :    0.119192
  17 H :    0.141312
  18 H :    0.239074
  19 H :    0.119603
  20 H :    0.117828
  21 H :    0.113403
  22 H :    0.115749
  23 H :    0.116614
  24 H :    0.117512
  25 H :    0.113637
Sum of atomic charges:   -0.0000000

LOEWDIN ATOMIC CHARGES
----------------------
   0 C :   -0.290752
   1 N :    0.091729
   2 C :   -0.558566
   3 O :    0.059407
   4 O :    0.273390
   5 C :   -0.175244
   6 C :   -0.106550
   7 C :   -0.133951
   8 C :   -0.103039
   9 C :   -0.085939
  10 C :   -0.064139
  11 C :   -0.089186
  12 C :   -0.136090
  13 C :   -0.137991
  14 C :   -0.098358
  15 H :    0.115488
  16 H :    0.114762
  17 H :    0.121543
  18 H :    0.186533
  19 H :    0.148766
  20 H :    0.143428
  21 H :    0.145614
  22 H :    0.149020
  23 H :    0.142259
  24 H :    0.142232
  25 H :    0.145631

  Mayer bond orders larger than 0.100000
B(  0-C ,  1-N ) :   0.9292 B(  0-C , 15-H ) :   0.9794 B(  0-C , 16-H ) :   0.9694
B(  0-C , 17-H ) :   0.9747 B(  1-N ,  2-C ) :   1.2625 B(  1-N , 18-H ) :   0.9139
B(  2-C ,  3-O ) :   2.0273 B(  2-C ,  4-O ) :   1.0581 B(  4-O ,  5-C ) :   0.9253
B(  5-C ,  6-C ) :   1.5942 B(  5-C , 10-C ) :   1.1880 B(  6-C ,  7-C ) :   1.2476
B(  6-C , 19-H ) :   0.9732 B(  7-C ,  8-C ) :   1.5663 B(  7-C , 20-H ) :   0.9772
B(  8-C ,  9-C ) :   1.2181 B(  8-C , 21-H ) :   0.9819 B(  9-C , 10-C ) :   1.2889
B(  9-C , 14-C ) :   1.2272 B( 10-C , 11-C ) :   1.2135 B( 11-C , 12-C ) :   1.5790
B( 11-C , 22-H ) :   0.9655 B( 12-C , 13-C ) :   1.2661 B( 12-C , 23-H ) :   0.9772
B( 13-C , 14-C ) :   1.5676 B( 13-C , 24-H ) :   0.9760 B( 14-C , 25-H ) :   0.9795

FINAL SINGLE POINT ENERGY      -669.169909364226

DIPOLE MOMENT
-------------

Method             : SCF
Type of density    : Electron Density
Multiplicity       :   1
Irrep              :   0
Energy             :  -669.1845118499255705 Eh
Relativity type    :
Basis              : AO
                                X                 Y                 Z
Electronic contribution:      3.200513242       3.126879288       1.354531489
Nuclear contribution   :     -3.793870313      -3.406790524      -0.540503201
                        -----------------------------------------
Total Dipole Moment    :     -0.593357071      -0.279911236       0.814028288
                        -----------------------------------------
Magnitude (a.u.)       :      1.045497474
Magnitude (Debye)      :      2.657443388

Rotational constants in cm-1:             0.036074             0.014440             0.011114
Rotational constants in MHz :          1081.460648           432.912610           333.201881

                             ****ORCA TERMINATED NORMALLY****
TOTAL RUN TIME: 0 days 0 hours 8 minutes 14 seconds 92 msec
