                         Program Version 6.0.0  -   RELEASE  -
|  1> ! wb97x-v def2-tzvp def2/J RIJCOSX DEFGRID2 scfconv7 GCP(DFT/TZ) printgap
|  2> %output
|  3>     printlevel normal
|  4> end
|  5> %cpcm
|  6>     smd true
|  7>     smdsolvent "water"
|  8> end
|  9> * xyz 0 1
| 10> C -4.355550491888483 -1.3529958430712388 -0.3425946506014307
| 11> N -3.3001283300720248 -0.7824635213250524 0.48461619871820794
| 12> C -2.2260490180215413 -0.21073868541429402 -0.07054761935972668
| 13> O -1.9663575530422253 -0.16704112157888162 -1.2674281399285336
| 14> O -1.410482259009782 0.34637473484983433 0.9020434086444188
| 15> C -0.18848225512852954 0.8669095347985595 0.4571767824180245
| 16> C -0.06327780554154092 2.2231757483967356 0.3171898477773712
| 17> C 1.183122989577208 2.769091578917226 -0.05573968148035251
| 18> C 2.263678750099258 1.9508836683204878 -0.2813808607281312
| 19> C 2.147900448807623 0.5459619809526914 -0.14213531428528375
| 20> C 0.8905819956682806 -0.023411267407012038 0.23988886113901936
| 21> C 0.7765740647129131 -1.4266248940182382 0.38451828874798283
| 22> C 1.8640973393724096 -2.2365197928413774 0.1557528007218252
| 23> C 3.1058766834051004 -1.6819486637219807 -0.22297319652844752
| 24> C 3.244338880534914 -0.32218292682613764 -0.36716252799938015
| 25> H -4.881855091352319 -0.5804400856838808 -0.9135205902984458
| 26> H -5.068312042775476 -1.854651545684573 0.31268058003287963
| 27> H -3.9420739985824493 -2.0875568664107864 -1.0387416242204752
| 28> H -3.4329055283713186 -0.6984031161574598 1.4809824361861508
| 29> H -0.921401549410027 2.862328176137754 0.4955314371380306
| 30> H 1.2779193314839061 3.844466633349192 -0.1637448403540026
| 31> H 3.2234679144204854 2.3693482515301234 -0.569136780637725
| 32> H -0.1733516794505049 -1.8599716253515004 0.6804615045867218
| 33> H 1.7699642406874385 -3.3117925242988893 0.2685961016688538
| 34> H 3.953438356672401 -2.3367011630325702 -0.3985005129900055
| 35> H 4.19798658682917 0.10989376712686212 -0.6564478780137517
| 36> *
| 37>
| 38>                          ****END OF INPUT****

CARTESIAN COORDINATES (ANGSTROEM)
---------------------------------
  C     -4.355550   -1.352996   -0.342595
  N     -3.300128   -0.782464    0.484616
  C     -2.226049   -0.210739   -0.070548
  O     -1.966358   -0.167041   -1.267428
  O     -1.410482    0.346375    0.902043
  C     -0.188482    0.866910    0.457177
  C     -0.063278    2.223176    0.317190
  C      1.183123    2.769092   -0.055740
  C      2.263679    1.950884   -0.281381
  C      2.147900    0.545962   -0.142135
  C      0.890582   -0.023411    0.239889
  C      0.776574   -1.426625    0.384518
  C      1.864097   -2.236520    0.155753
  C      3.105877   -1.681949   -0.222973
  C      3.244339   -0.322183   -0.367163
  H     -4.881855   -0.580440   -0.913521
  H     -5.068312   -1.854652    0.312681
  H     -3.942074   -2.087557   -1.038742
  H     -3.432906   -0.698403    1.480982
  H     -0.921402    2.862328    0.495531
  H      1.277919    3.844467   -0.163745
  H      3.223468    2.369348   -0.569137
  H     -0.173352   -1.859972    0.680462
  H      1.769964   -3.311793    0.268596
  H      3.953438   -2.336701   -0.398501
  H      4.197987    0.109894   -0.656448

 Total Charge           Charge          ....    0
 Multiplicity           Mult            ....    1
 Number of Electrons    NEL             ....  106
 Basis Dimension        Dim             ....  531

ORBITAL ENERGIES
----------------

  NO   OCC          E(Eh)            E(eV)
   0   2.0000     -21.728660      -591.2669
   1   2.0000     -21.660525      -589.4128
   2   2.0000     -16.559065      -450.5951
   3   2.0000     -12.209839      -332.2466
   4   2.0000     -12.118440      -329.7595
   5   2.0000     -12.073502      -328.5367
   6   2.0000     -12.069839      -328.4370
   7   2.0000     -12.067763      -328.3805
   8   2.0000     -12.057649      -328.1053
   9   2.0000     -12.056622      -328.0774
  10   2.0000     -12.055987      -328.0601
  11   2.0000     -12.055301      -328.0414
  12   2.0000     -12.054238      -328.0125
  13   2.0000     -12.053646      -327.9964
  14   2.0000     -12.052291      -327.9595
  15   2.0000      -1.768779       -48.1309
  16   2.0000      -1.706180       -46.4275
  17   2.0000      -1.530258       -41.6404
  18   2.0000      -1.411696       -38.4142
  19   2.0000      -1.358562       -36.9684
  20   2.0000      -1.318797       -35.8863
  21   2.0000      -1.279378       -34.8136
  22   2.0000      -1.273457       -34.6525
  23   2.0000      -1.238434       -33.6995
  24   2.0000      -1.176866       -32.0242
  25   2.0000      -1.139202       -30.9993
  26   2.0000      -1.133587       -30.8465
  27   2.0000      -1.120912       -30.5016
  28   2.0000      -1.086739       -29.5717
  29   2.0000      -1.061838       -28.8941
  30   2.0000      -1.028591       -27.9894
  31   2.0000      -1.013227       -27.5713
  32   2.0000      -0.995690       -27.0941
  33   2.0000      -0.968247       -26.3473
  34   2.0000      -0.965574       -26.2746
  35   2.0000      -0.956333       -26.0232
  36   2.0000      -0.925965       -25.1968
  37   2.0000      -0.914041       -24.8723
  38   2.0000      -0.905697       -24.6453
  39   2.0000      -0.895706       -24.3734
  40   2.0000      -0.888920       -24.1887
  41   2.0000      -0.873494       -23.7690
  42   2.0000      -0.862487       -23.4695
  43   2.0000      -0.844159       -22.9707
  44   2.0000      -0.827919       -22.5288
  45   2.0000      -0.822385       -22.3782
  46   2.0000      -0.807295       -21.9676
  47   2.0000      -0.807165       -21.9641
  48   2.0000      -0.759840       -20.6763
  49   2.0000      -0.734761       -19.9939
  50   2.0000      -0.690884       -18.7999
  51   2.0000      -0.636641       -17.3239
  52   2.0000      -0.608122       -16.5478
  53   0.0000      -0.294341        -8.0094
  54   0.0000      -0.285784        -7.7766
  55   0.0000      -0.263647        -7.1742
  56   0.0000      -0.214314        -5.8318
  57   0.0000      -0.202046        -5.4979

MULLIKEN ATOMIC CHARGES
-----------------------
   0 C :   -0.282413
   1 N :   -0.293046
   2 C :    0.455177
   3 O :   -0.521305
   4 O :   -0.303241
   5 C :    0.250666
   6 C :   -0.232852
   7 C :   -0.132179
   8 C :   -0.270894
   9 C :    0.100281
  10 C :    0.104082
  11 C :   -0.257781
  12 C :   -0.146570
  13 C :   -0.149674
  14 C :   -0.219833
  15 H :    0.147149
  16 H :    0.159724
  17 H :    0.148951
  18 H :    0.292207
  19 H :    0.167224
  20 H :    0.165397
  21 H :    0.162870
  22 H :    0.165600
  23 H :    0.164043
  24 H :    0.163723
  25 H :    0.162694
Sum of atomic charges:   -0.0000000

LOEWDIN ATOMIC CHARGES
----------------------
   0 C :   -0.288565
   1 N :    0.114512
   2 C :   -0.545757
   3 O :   -0.017707
   4 O :    0.273112
   5 C :   -0.193725
   6 C :   -0.110419
   7 C :   -0.137474
   8 C :   -0.104426
   9 C :   -0.097412
  10 C :   -0.081375
  11 C :   -0.102972
  12 C :   -0.138818
  13 C :   -0.141524
  14 C :   -0.100884
  15 H :    0.119056
  16 H :    0.128013
  17 H :    0.121773
  18 H :    0.207082
  19 H :    0.160603
  20 H :    0.155017
  21 H :    0.158074
  22 H :    0.159070
  23 H :    0.153629
  24 H :    0.153236
  25 H :    0.157880

  Mayer bond orders larger than 0.100000
B(  0-C ,  1-N ) :   0.9159 B(  0-C , 15-H ) :   0.9743 B(  0-C , 16-H ) :   0.9647
B(  0-C , 17-H ) :   0.9704 B(  1-N ,  2-C ) :   1.3372 B(  1-N , 18-H ) :   0.8892
B(  2-C ,  3-O ) :   1.8643 B(  2-C ,  4-O ) :   1.0743 B(  4-O ,  5-C ) :   0.9319
B(  5-C ,  6-C ) :   1.5793 B(  5-C , 10-C ) :   1.1704 B(  6-C ,  7-C ) :   1.2308
B(  6-C , 19-H ) :   0.9803 B(  7-C ,  8-C ) :   1.5413 B(  7-C , 20-H ) :   0.9801
B(  8-C ,  9-C ) :   1.2030 B(  8-C , 21-H ) :   0.9887 B(  9-C , 10-C ) :   1.2604
B(  9-C , 14-C ) :   1.2164 B( 10-C , 11-C ) :   1.1884 B( 11-C , 12-C ) :   1.5644
B( 11-C , 22-H ) :   0.9703 B( 12-C , 13-C ) :   1.2499 B( 12-C , 23-H ) :   0.9787
B( 13-C , 14-C ) :   1.5426 B( 13-C , 24-H ) :   0.9788 B( 14-C , 25-H ) :   0.9849

FINAL SINGLE POINT ENERGY      -669.186836884721

DIPOLE MOMENT
-------------

Method             : SCF
Type of density    : Electron Density
Multiplicity       :   1
Irrep              :   0
Energy             :  -669.2014393704206441 Eh
Relativity type    :
Basis              : AO
                                X                 Y                 Z
Electronic contribution:      3.116768343       3.047591985       1.826439394
Nuclear contribution   :     -3.793870313      -3.406790524      -0.540503201
                        -----------------------------------------
Total Dipole Moment    :     -0.677101970      -0.359198539       1.285936193
                        -----------------------------------------
Magnitude (a.u.)       :      1.497037929
Magnitude (Debye)      :      3.805168014

Rotational constants in cm-1:             0.036074             0.014440             0.011114
Rotational constants in MHz :          1081.460648           432.912610           333.201881

                             ****ORCA TERMINATED NORMALLY****
TOTAL RUN TIME: 0 days 0 hours 8 minutes 24 seconds 298 msec
