                         Program Version 6.0.0  -   RELEASE  -
|  1> ! pbe def2-sv(p) def2/J RI DEFGRID1 loosescf d4 GCP(DFT/SV(P)) printgap
|  2> %output
|  3>     printlevel normal
|  4> end
|  5> * xyz 0 1
|  6> C 2.0903610133 2.7288066994 0.9715688653
|  7> C 2.1697594151 1.703375305 -0.1569099399
|  8> C 3.0087977264 0.4637812524 0.2441033909
|  9> C 2.0129416636 -0.653333916 0.1813162514
| 10> C 2.1399943106 -2.0001677652 0.4375839989
| 11> C 1.0224765275 -2.8143793322 0.3054296614
| 12> C -0.1964549942 -2.2852520057 -0.0799575541
| 13> C -0.3270389454 -0.9280818001 -0.3445468404
| 14> C 0.7859170126 -0.1123606283 -0.2018281186
| 15> O 0.8165423357 1.2215581149 -0.4072733798
| 16> O -1.5408964239 -0.3804052815 -0.7766619373
| 17> C -2.5482652242 -0.2944889215 0.1330643183
| 18> O -2.4470454655 -0.660057407 1.2904732373
| 19> N -3.635668558 0.2347823461 -0.4320894652
| 20> C -4.8643069348 0.4770552308 0.2896881597
| 21> C 2.6762999322 2.3432883371 -1.4473173079
| 22> H 1.4319232238 3.5439643036 0.683578602
| 23> H 1.6889658564 2.263019948 1.8689347398
| 24> H 3.0789368025 3.1247611102 1.1825963272
| 25> H 3.8330530156 0.3001903807 -0.450548169
| 26> H 3.4220916052 0.5712986773 1.2472483712
| 27> H 3.0888836819 -2.4135443095 0.7393402236
| 28> H 1.099207073 -3.8705768363 0.5061901634
| 29> H -1.066987424 -2.9154357492 -0.1750247936
| 30> H -3.5745868423 0.5119167191 -1.4000644061
| 31> H -5.0905514494 1.5426308129 0.3045144697
| 32> H -4.7269694675 0.1215281127 1.3089202853
| 33> H -5.6856294696 -0.0648375162 -0.1773319922
| 34> H 3.6781134164 2.7337180947 -1.2973354756
| 35> H 2.0157955996 3.1550345511 -1.7397550523
| 36> H 2.6920241274 1.6059118291 -2.2464543359
| 37> *
| 38>
| 39>                          ****END OF INPUT****

CARTESIAN COORDINATES (ANGSTROEM)
---------------------------------
  C      2.090361    2.728807    0.971569
  C      2.169759    1.703375   -0.156910
  C      3.008798    0.463781    0.244103
  C      2.012942   -0.653334    0.181316
  C      2.139994   -2.000168    0.437584
  C      1.022477   -2.814379    0.305430
  C     -0.196455   -2.285252   -0.079958
  C     -0.327039   -0.928082   -0.344547
  C      0.785917   -0.112361   -0.201828
  O      0.816542    1.221558   -0.407273
  O     -1.540896   -0.380405   -0.776662
  C     -2.548265   -0.294489    0.133064
  O     -2.447045   -0.660057    1.290473
  N     -3.635669    0.234782   -0.432089
  C     -4.864307    0.477055    0.289688
  C      2.676300    2.343288   -1.447317
  H      1.431923    3.543964    0.683579
  H      1.688966    2.263020    1.868935
  H      3.078937    3.124761    1.182596
  H      3.833053    0.300190   -0.450548
  H      3.422092    0.571299    1.247248
  H      3.088884   -2.413544    0.739340
  H      1.099207   -3.870577    0.506190
  H     -1.066987   -2.915436   -0.175025
  H     -3.574587    0.511917   -1.400064
  H     -5.090551    1.542631    0.304514
  H     -4.726969    0.121528    1.308920
  H     -5.685629   -0.064838   -0.177332
  H      3.678113    2.733718   -1.297335
  H      2.015796    3.155035   -1.739755
  H      2.692024    1.605912   -2.246454

 Total Charge           Charge          ....    0
 Multiplicity           Mult            ....    1
 Number of Electrons    NEL             ....  118
 Basis Dimension        Dim             ....  254

ORBITAL ENERGIES
----------------

  NO   OCC          E(Eh)            E(eV)
   0   2.0000     -18.794075      -511.4128
   1   2.0000     -18.781182      -511.0619
   2   2.0000     -18.705944      -509.0146
   3   2.0000     -14.018191      -381.4544
   4   2.0000     -10.015854      -272.5452
   5   2.0000      -9.962392      -271.0905
   6   2.0000      -9.942279      -270.5432
   7   2.0000      -9.940094      -270.4837
   8   2.0000      -9.919301      -269.9179
   9   2.0000      -9.897950      -269.3369
  10   2.0000      -9.893783      -269.2235
  11   2.0000      -9.888185      -269.0712
  12   2.0000      -9.885932      -269.0099
  13   2.0000      -9.882987      -268.9298
  14   2.0000      -9.882818      -268.9251
  15   2.0000      -9.881584      -268.8916
  16   2.0000      -1.000774       -27.2324
  17   2.0000      -0.972326       -26.4583
  18   2.0000      -0.901075       -24.5195
  19   2.0000      -0.840663       -22.8756
  20   2.0000      -0.769999       -20.9527
  21   2.0000      -0.736362       -20.0374
  22   2.0000      -0.691074       -18.8051
  23   2.0000      -0.672733       -18.3060
  24   2.0000      -0.636308       -17.3148
  25   2.0000      -0.626889       -17.0585
  26   2.0000      -0.614756       -16.7284
  27   2.0000      -0.562937       -15.3183
  28   2.0000      -0.548535       -14.9264
  29   2.0000      -0.527020       -14.3409
  30   2.0000      -0.511637       -13.9224
  31   2.0000      -0.497286       -13.5318
  32   2.0000      -0.453483       -12.3399
  33   2.0000      -0.430941       -11.7265
  34   2.0000      -0.429388       -11.6842
  35   2.0000      -0.426334       -11.6011
  36   2.0000      -0.422170       -11.4878
  37   2.0000      -0.412819       -11.2334
  38   2.0000      -0.393339       -10.7033
  39   2.0000      -0.385742       -10.4966
  40   2.0000      -0.371904       -10.1200
  41   2.0000      -0.369704       -10.0602
  42   2.0000      -0.361613        -9.8400
  43   2.0000      -0.358268        -9.7490
  44   2.0000      -0.355384        -9.6705
  45   2.0000      -0.345127        -9.3914
  46   2.0000      -0.337631        -9.1874
  47   2.0000      -0.332653        -9.0520
  48   2.0000      -0.324173        -8.8212
  49   2.0000      -0.316913        -8.6236
  50   2.0000      -0.313096        -8.5198
  51   2.0000      -0.301195        -8.1959
  52   2.0000      -0.284893        -7.7523
  53   2.0000      -0.274044        -7.4571
  54   2.0000      -0.252131        -6.8608
  55   2.0000      -0.212924        -5.7940
  56   2.0000      -0.212480        -5.7819
  57   2.0000      -0.211283        -5.7493
  58   2.0000      -0.180827        -4.9205
  59   0.0000      -0.029812        -0.8112
  60   0.0000      -0.011974        -0.3258
  61   0.0000       0.030492         0.8297
  62   0.0000       0.033935         0.9234
  63   0.0000       0.039910         1.0860

MULLIKEN ATOMIC CHARGES
-----------------------
   0 C :   -0.198537
   1 C :   -0.086868
   2 C :   -0.001237
   3 C :   -0.053544
   4 C :   -0.147715
   5 C :   -0.053612
   6 C :   -0.115747
   7 C :    0.136543
   8 C :    0.194799
   9 O :   -0.251184
  10 O :   -0.257704
  11 C :    0.189612
  12 O :   -0.240023
  13 N :   -0.279922
  14 C :   -0.173371
  15 C :   -0.197077
  16 H :    0.107190
  17 H :    0.112304
  18 H :    0.102023
  19 H :    0.089693
  20 H :    0.091970
  21 H :    0.029301
  22 H :    0.047821
  23 H :    0.040079
  24 H :    0.231883
  25 H :    0.113763
  26 H :    0.139705
  27 H :    0.113030
  28 H :    0.102769
  29 H :    0.107317
  30 H :    0.106738
Sum of atomic charges:    0.0000000

LOEWDIN ATOMIC CHARGES
----------------------
   0 C :   -0.327228
   1 C :    0.020065
   2 C :   -0.199201
   3 C :   -0.069987
   4 C :   -0.126874
   5 C :   -0.139719
   6 C :   -0.121540
   7 C :    0.012900
   8 C :    0.024588
   9 O :   -0.073493
  10 O :   -0.067367
  11 C :    0.030155
  12 O :   -0.210964
  13 N :   -0.170983
  14 C :   -0.256126
  15 C :   -0.327290
  16 H :    0.125056
  17 H :    0.127269
  18 H :    0.124200
  19 H :    0.130989
  20 H :    0.131941
  21 H :    0.122845
  22 H :    0.123375
  23 H :    0.132565
  24 H :    0.237405
  25 H :    0.117140
  26 H :    0.138869
  27 H :    0.117023
  28 H :    0.124570
  29 H :    0.125032
  30 H :    0.124785

  Mayer bond orders larger than 0.100000
B(  0-C ,  1-C ) :   1.1023 B(  0-C , 16-H ) :   0.9404 B(  0-C , 17-H ) :   0.9378
B(  0-C , 18-H ) :   0.9402 B(  1-C ,  2-C ) :   1.0571 B(  1-C ,  9-O ) :   0.9366
B(  1-C , 15-C ) :   1.1016 B(  2-C ,  3-C ) :   1.0650 B(  2-C , 19-H ) :   0.8792
B(  2-C , 20-H ) :   0.8790 B(  3-C ,  4-C ) :   1.3895 B(  3-C ,  6-C ) :   0.1009
B(  3-C ,  8-C ) :   1.3307 B(  4-C ,  5-C ) :   1.3048 B(  4-C , 21-H ) :   0.9843
B(  5-C ,  6-C ) :   1.3346 B(  5-C , 22-H ) :   0.9633 B(  6-C ,  7-C ) :   1.3911
B(  6-C , 23-H ) :   0.9709 B(  7-C ,  8-C ) :   1.3759 B(  7-C , 10-O ) :   0.9956
B(  8-C ,  9-O ) :   1.1589 B( 10-O , 11-C ) :   1.0801 B( 11-C , 12-O ) :   2.0196
B( 11-C , 13-N ) :   1.2354 B( 13-N , 14-C ) :   1.0222 B( 13-N , 24-H ) :   0.8587
B( 14-C , 25-H ) :   0.9591 B( 14-C , 26-H ) :   0.9372 B( 14-C , 27-H ) :   0.9593
B( 15-C , 28-H ) :   0.9405 B( 15-C , 29-H ) :   0.9408 B( 15-C , 30-H ) :   0.9380

Dispersion correction           -0.035525929
FINAL SINGLE POINT ENERGY      -745.175067233639

DIPOLE MOMENT
-------------

Method             : SCF
Type of density    : Electron Density
Multiplicity       :   1
Irrep              :   0
Energy             :  -745.2765908620774553 Eh
Relativity type    :
Basis              : AO
                                X                 Y                 Z
Electronic contribution:     -5.294714085      -8.886028480      -1.020177954
Nuclear contribution   :      5.453511055       9.582293398       0.332078380
                        -----------------------------------------
Total Dipole Moment    :      0.158796970       0.696264918      -0.688099574
                        -----------------------------------------
Magnitude (a.u.)       :      0.991706780
Magnitude (Debye)      :      2.520718310

Rotational constants in cm-1:             0.027726             0.011810             0.009204
Rotational constants in MHz :           831.207135           354.043132           275.917010

                             ****ORCA TERMINATED NORMALLY****
TOTAL RUN TIME: 0 days 0 hours 0 minutes 18 seconds 543 msec
