                         Program Version 6.0.0  -   RELEASE  -
|  1> ! pbe def2-sv(p) def2/J RI DEFGRID1 loosescf d4 GCP(DFT/SV(P)) printgap
|  2> %output
|  3>     printlevel normal
|  4> end
|  5> * xyz 0 1
|  6> C 0.8501620035 -1.8329138459 7.65287e-05
|  7> C 1.8678315712 -0.9009515859 -2.44469e-05
|  8> C 1.5673226937 0.4602943392 1.51381e-05
|  9> C 0.2377886566 0.8723660255 0.0001638667
| 10> C -0.762112789 -0.0831976676 3.09177e-05
| 11> C -0.4784702631 -1.4361486185 -0.000101423
| 12> Cl -2.423587114 0.443285924 -2.69227e-05
| 13> O 2.5931438064 1.3405401928 -6.22858e-05
| 14> H 1.0888130916 -2.8841715058 0.0002292856
| 15> H 2.9032415325 -1.1998335095 -0.0002910145
| 16> H -0.0177946271 1.920527976 0.0002129253
| 17> H -1.2753183483 -2.1608628589 3.24057e-05
| 18> H 2.270617918 2.2551085835 -0.0001614533
| 19> *
| 20>
| 21>                          ****END OF INPUT****

CARTESIAN COORDINATES (ANGSTROEM)
---------------------------------
  C      0.850162   -1.832914    0.000077
  C      1.867832   -0.900952   -0.000024
  C      1.567323    0.460294    0.000015
  C      0.237789    0.872366    0.000164
  C     -0.762113   -0.083198    0.000031
  C     -0.478470   -1.436149   -0.000101
  Cl    -2.423587    0.443286   -0.000027
  O      2.593144    1.340540   -0.000062
  H      1.088813   -2.884172    0.000229
  H      2.903242   -1.199834   -0.000291
  H     -0.017795    1.920528    0.000213
  H     -1.275318   -2.160863    0.000032
  H      2.270618    2.255109   -0.000161

 Total Charge           Charge          ....    0
 Multiplicity           Mult            ....    1
 Number of Electrons    NEL             ....   66
 Basis Dimension        Dim             ....  126

ORBITAL ENERGIES
----------------

  NO   OCC          E(Eh)            E(eV)
   0   2.0000    -100.638152     -2738.5033
   1   2.0000     -18.792410      -511.3675
   2   2.0000      -9.965112      -271.1645
   3   2.0000      -9.953362      -270.8447
   4   2.0000      -9.904645      -269.5191
   5   2.0000      -9.903121      -269.4776
   6   2.0000      -9.897053      -269.3125
   7   2.0000      -9.894221      -269.2354
   8   2.0000      -9.173953      -249.6359
   9   2.0000      -7.005290      -190.6236
  10   2.0000      -6.993961      -190.3153
  11   2.0000      -6.993394      -190.2999
  12   2.0000      -0.976223       -26.5644
  13   2.0000      -0.811389       -22.0790
  14   2.0000      -0.757653       -20.6168
  15   2.0000      -0.678865       -18.4728
  16   2.0000      -0.663031       -18.0420
  17   2.0000      -0.577401       -15.7119
  18   2.0000      -0.541591       -14.7375
  19   2.0000      -0.504523       -13.7288
  20   2.0000      -0.460462       -12.5298
  21   2.0000      -0.432105       -11.7582
  22   2.0000      -0.403098       -10.9689
  23   2.0000      -0.389921       -10.6103
  24   2.0000      -0.379656       -10.3310
  25   2.0000      -0.350204        -9.5295
  26   2.0000      -0.336065        -9.1448
  27   2.0000      -0.332330        -9.0432
  28   2.0000      -0.310537        -8.4501
  29   2.0000      -0.281134        -7.6500
  30   2.0000      -0.266656        -7.2561
  31   2.0000      -0.225754        -6.1431
  32   2.0000      -0.203552        -5.5389
  33   0.0000      -0.043829        -1.1927
  34   0.0000      -0.028989        -0.7888
  35   0.0000       0.005250         0.1429
  36   0.0000       0.018533         0.5043
  37   0.0000       0.066928         1.8212

MULLIKEN ATOMIC CHARGES
-----------------------
   0 C :   -0.066289
   1 C :   -0.104750
   2 C :    0.228542
   3 C :   -0.175236
   4 C :    0.097199
   5 C :   -0.070535
   6 Cl:   -0.093003
   7 O :   -0.325984
   8 H :    0.063200
   9 H :    0.050506
  10 H :    0.027857
  11 H :    0.047207
  12 H :    0.321286
Sum of atomic charges:    0.0000000

LOEWDIN ATOMIC CHARGES
----------------------
   0 C :   -0.106316
   1 C :   -0.153474
   2 C :    0.027640
   3 C :   -0.195578
   4 C :   -0.119552
   5 C :   -0.166712
   6 Cl:    0.117289
   7 O :   -0.224170
   8 H :    0.129747
   9 H :    0.133104
  10 H :    0.126728
  11 H :    0.129957
  12 H :    0.301336

  Mayer bond orders larger than 0.100000
B(  0-C ,  1-C ) :   1.3791 B(  0-C ,  5-C ) :   1.3393 B(  0-C ,  8-H ) :   0.9602
B(  1-C ,  2-C ) :   1.3599 B(  1-C ,  9-H ) :   0.9650 B(  2-C ,  3-C ) :   1.2889
B(  2-C ,  7-O ) :   1.1937 B(  3-C ,  4-C ) :   1.3750 B(  3-C , 10-H ) :   0.9552
B(  4-C ,  5-C ) :   1.4068 B(  4-C ,  6-Cl) :   0.9554 B(  5-C , 11-H ) :   0.9669
B(  7-O , 12-H ) :   0.8398

Dispersion correction           -0.014426117
FINAL SINGLE POINT ENERGY      -766.085873868891

DIPOLE MOMENT
-------------

Method             : SCF
Type of density    : Electron Density
Multiplicity       :   1
Irrep              :   0
Energy             :  -766.1232344235628489 Eh
Relativity type    :
Basis              : AO
                                X                 Y                 Z
Electronic contribution:     -7.629479078       2.861821940      -0.000106013
Nuclear contribution   :      7.953632079      -2.516423174       0.000055992
                        -----------------------------------------
Total Dipole Moment    :      0.324153001       0.345398766      -0.000050021
                        -----------------------------------------
Magnitude (a.u.)       :      0.473682888
Magnitude (Debye)      :      1.204006217

Rotational constants in cm-1:             0.115663             0.039867             0.029648
Rotational constants in MHz :          3467.503762          1195.175147           888.818298

                             ****ORCA TERMINATED NORMALLY****
TOTAL RUN TIME: 0 days 0 hours 0 minutes 7 seconds 112 msec
