                         Program Version 6.0.0  -   RELEASE  -
|  1> ! r2scan-3c def2/J RI DEFGRID2 scfconv6 printgap
|  2> %output
|  3>     printlevel normal
|  4> end
|  5> * xyz 0 1
|  6> C -2.7817511656 0.8120298578 0.8008198568
|  7> C -1.5124374885 0.5163537251 0.0619048351
|  8> C -0.9009544223 1.4104100897 -0.7030790407
|  9> C 0.3955342333 1.1925384328 -1.4191315301
| 10> C 1.1493751864 -0.0453116848 -0.924219714
| 11> H 1.8657368665 -0.3450210407 -1.6980380363
| 12> C 0.1389736558 -1.1873262223 -0.7584917576
| 13> C -0.9136722052 -0.8547969185 0.3009058471
| 14> H -0.4494890566 -0.8599253254 1.2973092443
| 15> O -1.8974315725 -1.8751302338 0.3744846657
| 16> C 1.936217419 0.1755454392 0.3481177164
| 17> C 1.6624504194 1.1194128435 1.234511613
| 18> C 3.0857385842 -0.7697277725 0.5394552316
| 19> H -3.2099945385 1.7561670169 0.4762508522
| 20> H -2.5751330421 0.8663087832 1.8698370356
| 21> H -3.5076632607 0.0151455097 0.6536302561
| 22> H -1.3499033857 2.3857345832 -0.8433911651
| 23> H 0.1861532478 1.0788914592 -2.4881607667
| 24> H 1.024399984 2.0791199197 -1.3105809367
| 25> H -0.3670046981 -1.3435586065 -1.7147816332
| 26> H 0.6387401589 -2.1178032624 -0.4846886885
| 27> H -2.2907007623 -1.985352943 -0.5025250572
| 28> H 2.2524611272 1.2348717591 2.1287258237
| 29> H 0.8427990372 1.8057692094 1.1182834681
| 30> H 3.5714395034 -0.6030848282 1.4967112798
| 31> H 2.74214448 -1.801734294 0.4976211403
| 32> H 3.8200037102 -0.6322758523 -0.2534558921
| 33> *
| 34>
| 35>                          ****END OF INPUT****

CARTESIAN COORDINATES (ANGSTROEM)
---------------------------------
  C     -2.781751    0.812030    0.800820
  C     -1.512437    0.516354    0.061905
  C     -0.900954    1.410410   -0.703079
  C      0.395534    1.192538   -1.419132
  C      1.149375   -0.045312   -0.924220
  H      1.865737   -0.345021   -1.698038
  C      0.138974   -1.187326   -0.758492
  C     -0.913672   -0.854797    0.300906
  H     -0.449489   -0.859925    1.297309
  O     -1.897432   -1.875130    0.374485
  C      1.936217    0.175545    0.348118
  C      1.662450    1.119413    1.234512
  C      3.085739   -0.769728    0.539455
  H     -3.209995    1.756167    0.476251
  H     -2.575133    0.866309    1.869837
  H     -3.507663    0.015146    0.653630
  H     -1.349903    2.385735   -0.843391
  H      0.186153    1.078891   -2.488161
  H      1.024400    2.079120   -1.310581
  H     -0.367005   -1.343559   -1.714782
  H      0.638740   -2.117803   -0.484689
  H     -2.290701   -1.985353   -0.502525
  H      2.252461    1.234872    2.128726
  H      0.842799    1.805769    1.118283
  H      3.571440   -0.603085    1.496711
  H      2.742144   -1.801734    0.497621
  H      3.820004   -0.632276   -0.253456

 Total Charge           Charge          ....    0
 Multiplicity           Mult            ....    1
 Number of Electrons    NEL             ....   84
 Basis Dimension        Dim             ....  294

ORBITAL ENERGIES
----------------

  NO   OCC          E(Eh)            E(eV)
   0   2.0000     -18.947145      -515.5780
   1   2.0000     -10.079116      -274.2667
   2   2.0000     -10.042754      -273.2772
   3   2.0000     -10.038776      -273.1690
   4   2.0000     -10.031566      -272.9728
   5   2.0000     -10.031520      -272.9715
   6   2.0000     -10.028733      -272.8957
   7   2.0000     -10.024845      -272.7899
   8   2.0000     -10.022422      -272.7240
   9   2.0000     -10.016949      -272.5750
  10   2.0000     -10.009248      -272.3655
  11   2.0000      -0.985369       -26.8132
  12   2.0000      -0.816386       -22.2150
  13   2.0000      -0.766283       -20.8516
  14   2.0000      -0.722375       -19.6568
  15   2.0000      -0.702544       -19.1172
  16   2.0000      -0.652631       -17.7590
  17   2.0000      -0.646952       -17.6045
  18   2.0000      -0.590001       -16.0548
  19   2.0000      -0.573105       -15.5950
  20   2.0000      -0.513793       -13.9810
  21   2.0000      -0.482797       -13.1376
  22   2.0000      -0.457027       -12.4363
  23   2.0000      -0.434902       -11.8343
  24   2.0000      -0.425279       -11.5724
  25   2.0000      -0.415384       -11.3032
  26   2.0000      -0.407926       -11.1002
  27   2.0000      -0.392431       -10.6786
  28   2.0000      -0.385994       -10.5034
  29   2.0000      -0.375237       -10.2107
  30   2.0000      -0.372568       -10.1381
  31   2.0000      -0.354868        -9.6564
  32   2.0000      -0.348443        -9.4816
  33   2.0000      -0.337235        -9.1766
  34   2.0000      -0.331445        -9.0191
  35   2.0000      -0.318058        -8.6548
  36   2.0000      -0.297466        -8.0944
  37   2.0000      -0.292708        -7.9650
  38   2.0000      -0.280522        -7.6334
  39   2.0000      -0.235072        -6.3966
  40   2.0000      -0.225088        -6.1250
  41   2.0000      -0.212066        -5.7706
  42   0.0000      -0.016531        -0.4498
  43   0.0000      -0.000638        -0.0174
  44   0.0000       0.068730         1.8702
  45   0.0000       0.069877         1.9015
  46   0.0000       0.096781         2.6335

MULLIKEN ATOMIC CHARGES
-----------------------
   0 C :   -0.522610
   1 C :    0.068194
   2 C :   -0.205957
   3 C :   -0.387294
   4 C :    0.026120
   5 H :    0.162209
   6 C :   -0.395265
   7 C :    0.006456
   8 H :    0.174804
   9 O :   -0.410583
  10 C :    0.000653
  11 C :   -0.336410
  12 C :   -0.527848
  13 H :    0.147804
  14 H :    0.158136
  15 H :    0.164474
  16 H :    0.157378
  17 H :    0.163821
  18 H :    0.172672
  19 H :    0.153457
  20 H :    0.176857
  21 H :    0.292032
  22 H :    0.139689
  23 H :    0.154906
  24 H :    0.151728
  25 H :    0.154479
  26 H :    0.160098
Sum of atomic charges:   -0.0000000

LOEWDIN ATOMIC CHARGES
----------------------
   0 C :   -0.383347
   1 C :   -0.113806
   2 C :   -0.199634
   3 C :   -0.277695
   4 C :   -0.199113
   5 H :    0.168959
   6 C :   -0.246195
   7 C :    0.080270
   8 H :    0.198652
   9 O :   -0.601197
  10 C :   -0.120481
  11 C :   -0.315624
  12 C :   -0.391588
  13 H :    0.156389
  14 H :    0.165131
  15 H :    0.168290
  16 H :    0.164496
  17 H :    0.168248
  18 H :    0.169965
  19 H :    0.165412
  20 H :    0.166063
  21 H :    0.268811
  22 H :    0.156341
  23 H :    0.170255
  24 H :    0.159381
  25 H :    0.160480
  26 H :    0.161536

  Mayer bond orders larger than 0.100000
B(  0-C ,  1-C ) :   0.8625 B(  0-C , 13-H ) :   0.9989 B(  0-C , 14-H ) :   0.9660
B(  0-C , 15-H ) :   0.9681 B(  1-C ,  2-C ) :   1.8215 B(  1-C ,  7-C ) :   0.8829
B(  2-C ,  3-C ) :   0.9153 B(  2-C , 16-H ) :   0.9175 B(  3-C ,  4-C ) :   0.9413
B(  3-C , 17-H ) :   0.9561 B(  3-C , 18-H ) :   0.9940 B(  4-C ,  5-H ) :   0.9807
B(  4-C ,  6-C ) :   0.8294 B(  4-C , 10-C ) :   0.9090 B(  6-C ,  7-C ) :   0.9334
B(  6-C , 19-H ) :   0.9920 B(  6-C , 20-H ) :   0.9938 B(  7-C ,  8-H ) :   0.9441
B(  7-C ,  9-O ) :   0.9929 B(  9-O , 21-H ) :   0.8936 B( 10-C , 11-C ) :   1.8613
B( 10-C , 12-C ) :   0.8834 B( 11-C , 22-H ) :   0.9711 B( 11-C , 23-H ) :   0.9660
B( 12-C , 24-H ) :   0.9894 B( 12-C , 25-H ) :   0.9687 B( 12-C , 26-H ) :   0.9735

Dispersion correction           -0.010078126
FINAL SINGLE POINT ENERGY      -465.757064558337

DIPOLE MOMENT
-------------

Method             : SCF
Type of density    : Electron Density
Multiplicity       :   1
Irrep              :   0
Energy             :  -465.7586948572402434 Eh
Relativity type    :
Basis              : AO
                                X                 Y                 Z
Electronic contribution:     -2.733008782      -1.278569266      -0.805451640
Nuclear contribution   :      2.968357387       1.410639927       0.233290193
                        -----------------------------------------
Total Dipole Moment    :      0.235348606       0.132070661      -0.572161447
                        -----------------------------------------
Magnitude (a.u.)       :      0.632613900
Magnitude (Debye)      :      1.607976746

Rotational constants in cm-1:             0.055699             0.028079             0.024606
Rotational constants in MHz :          1669.807390           841.798928           737.680530

                             ****ORCA TERMINATED NORMALLY****
TOTAL RUN TIME: 0 days 0 hours 0 minutes 44 seconds 625 msec
