                         Program Version 6.0.0  -   RELEASE  -
|  1> ! r2scan-3c def2/J RI DEFGRID2 scfconv6 printgap
|  2> %output
|  3>     printlevel normal
|  4> end
|  5> %cpcm
|  6>     smd true
|  7>     smdsolvent "water"
|  8> end
|  9> * xyz 0 1
| 10> C -2.7817511656 0.8120298578 0.8008198568
| 11> C -1.5124374885 0.5163537251 0.0619048351
| 12> C -0.9009544223 1.4104100897 -0.7030790407
| 13> C 0.3955342333 1.1925384328 -1.4191315301
| 14> C 1.1493751864 -0.0453116848 -0.924219714
| 15> H 1.8657368665 -0.3450210407 -1.6980380363
| 16> C 0.1389736558 -1.1873262223 -0.7584917576
| 17> C -0.9136722052 -0.8547969185 0.3009058471
| 18> H -0.4494890566 -0.8599253254 1.2973092443
| 19> O -1.8974315725 -1.8751302338 0.3744846657
| 20> C 1.936217419 0.1755454392 0.3481177164
| 21> C 1.6624504194 1.1194128435 1.234511613
| 22> C 3.0857385842 -0.7697277725 0.5394552316
| 23> H -3.2099945385 1.7561670169 0.4762508522
| 24> H -2.5751330421 0.8663087832 1.8698370356
| 25> H -3.5076632607 0.0151455097 0.6536302561
| 26> H -1.3499033857 2.3857345832 -0.8433911651
| 27> H 0.1861532478 1.0788914592 -2.4881607667
| 28> H 1.024399984 2.0791199197 -1.3105809367
| 29> H -0.3670046981 -1.3435586065 -1.7147816332
| 30> H 0.6387401589 -2.1178032624 -0.4846886885
| 31> H -2.2907007623 -1.985352943 -0.5025250572
| 32> H 2.2524611272 1.2348717591 2.1287258237
| 33> H 0.8427990372 1.8057692094 1.1182834681
| 34> H 3.5714395034 -0.6030848282 1.4967112798
| 35> H 2.74214448 -1.801734294 0.4976211403
| 36> H 3.8200037102 -0.6322758523 -0.2534558921
| 37> *
| 38>
| 39>                          ****END OF INPUT****

CARTESIAN COORDINATES (ANGSTROEM)
---------------------------------
  C     -2.781751    0.812030    0.800820
  C     -1.512437    0.516354    0.061905
  C     -0.900954    1.410410   -0.703079
  C      0.395534    1.192538   -1.419132
  C      1.149375   -0.045312   -0.924220
  H      1.865737   -0.345021   -1.698038
  C      0.138974   -1.187326   -0.758492
  C     -0.913672   -0.854797    0.300906
  H     -0.449489   -0.859925    1.297309
  O     -1.897432   -1.875130    0.374485
  C      1.936217    0.175545    0.348118
  C      1.662450    1.119413    1.234512
  C      3.085739   -0.769728    0.539455
  H     -3.209995    1.756167    0.476251
  H     -2.575133    0.866309    1.869837
  H     -3.507663    0.015146    0.653630
  H     -1.349903    2.385735   -0.843391
  H      0.186153    1.078891   -2.488161
  H      1.024400    2.079120   -1.310581
  H     -0.367005   -1.343559   -1.714782
  H      0.638740   -2.117803   -0.484689
  H     -2.290701   -1.985353   -0.502525
  H      2.252461    1.234872    2.128726
  H      0.842799    1.805769    1.118283
  H      3.571440   -0.603085    1.496711
  H      2.742144   -1.801734    0.497621
  H      3.820004   -0.632276   -0.253456

 Total Charge           Charge          ....    0
 Multiplicity           Mult            ....    1
 Number of Electrons    NEL             ....   84
 Basis Dimension        Dim             ....  294

ORBITAL ENERGIES
----------------

  NO   OCC          E(Eh)            E(eV)
   0   2.0000     -18.950600      -515.6720
   1   2.0000     -10.076772      -274.2029
   2   2.0000     -10.036321      -273.1022
   3   2.0000     -10.033706      -273.0310
   4   2.0000     -10.025440      -272.8061
   5   2.0000     -10.022449      -272.7247
   6   2.0000     -10.022140      -272.7163
   7   2.0000     -10.017599      -272.5927
   8   2.0000     -10.014545      -272.5096
   9   2.0000     -10.012891      -272.4646
  10   2.0000     -10.003871      -272.2192
  11   2.0000      -0.988016       -26.8853
  12   2.0000      -0.810223       -22.0473
  13   2.0000      -0.762031       -20.7359
  14   2.0000      -0.716520       -19.4975
  15   2.0000      -0.696401       -18.9500
  16   2.0000      -0.646624       -17.5955
  17   2.0000      -0.641973       -17.4690
  18   2.0000      -0.585478       -15.9317
  19   2.0000      -0.566218       -15.4076
  20   2.0000      -0.509257       -13.8576
  21   2.0000      -0.477851       -13.0030
  22   2.0000      -0.451416       -12.2837
  23   2.0000      -0.428625       -11.6635
  24   2.0000      -0.420912       -11.4536
  25   2.0000      -0.411612       -11.2005
  26   2.0000      -0.403143       -10.9701
  27   2.0000      -0.385132       -10.4800
  28   2.0000      -0.380204       -10.3459
  29   2.0000      -0.369088       -10.0434
  30   2.0000      -0.366606        -9.9759
  31   2.0000      -0.348303        -9.4778
  32   2.0000      -0.342784        -9.3276
  33   2.0000      -0.331738        -9.0270
  34   2.0000      -0.325533        -8.8582
  35   2.0000      -0.313180        -8.5221
  36   2.0000      -0.293907        -7.9976
  37   2.0000      -0.288583        -7.8528
  38   2.0000      -0.275807        -7.5051
  39   2.0000      -0.236645        -6.4394
  40   2.0000      -0.223561        -6.0834
  41   2.0000      -0.208990        -5.6869
  42   0.0000      -0.013214        -0.3596
  43   0.0000       0.002456         0.0668
  44   0.0000       0.077224         2.1014
  45   0.0000       0.080891         2.2012
  46   0.0000       0.107526         2.9259

MULLIKEN ATOMIC CHARGES
-----------------------
   0 C :   -0.575146
   1 C :    0.041172
   2 C :   -0.230489
   3 C :   -0.392167
   4 C :    0.044730
   5 H :    0.181316
   6 C :   -0.413409
   7 C :    0.025931
   8 H :    0.179822
   9 O :   -0.491582
  10 C :   -0.011022
  11 C :   -0.411805
  12 C :   -0.563455
  13 H :    0.166837
  14 H :    0.174817
  15 H :    0.172130
  16 H :    0.177837
  17 H :    0.182116
  18 H :    0.179393
  19 H :    0.180634
  20 H :    0.185776
  21 H :    0.348346
  22 H :    0.164010
  23 H :    0.166145
  24 H :    0.165969
  25 H :    0.173920
  26 H :    0.178171
Sum of atomic charges:   -0.0000000

LOEWDIN ATOMIC CHARGES
----------------------
   0 C :   -0.393366
   1 C :   -0.121371
   2 C :   -0.202112
   3 C :   -0.278513
   4 C :   -0.197092
   5 H :    0.176954
   6 C :   -0.245367
   7 C :    0.077894
   8 H :    0.197815
   9 O :   -0.634036
  10 C :   -0.117954
  11 C :   -0.344429
  12 C :   -0.398803
  13 H :    0.162847
  14 H :    0.168074
  15 H :    0.168035
  16 H :    0.171178
  17 H :    0.175173
  18 H :    0.171747
  19 H :    0.174751
  20 H :    0.169590
  21 H :    0.287484
  22 H :    0.161866
  23 H :    0.171184
  24 H :    0.162361
  25 H :    0.167770
  26 H :    0.168322

  Mayer bond orders larger than 0.100000
B(  0-C ,  1-C ) :   0.8475 B(  0-C , 13-H ) :   0.9890 B(  0-C , 14-H ) :   0.9655
B(  0-C , 15-H ) :   0.9714 B(  1-C ,  2-C ) :   1.8305 B(  1-C ,  7-C ) :   0.8540
B(  2-C ,  3-C ) :   0.9014 B(  2-C , 16-H ) :   0.9233 B(  3-C ,  4-C ) :   0.9292
B(  3-C , 17-H ) :   0.9506 B(  3-C , 18-H ) :   0.9960 B(  4-C ,  5-H ) :   0.9749
B(  4-C ,  6-C ) :   0.8258 B(  4-C , 10-C ) :   0.8942 B(  6-C ,  7-C ) :   0.9166
B(  6-C , 19-H ) :   0.9926 B(  6-C , 20-H ) :   0.9850 B(  7-C ,  8-H ) :   0.9538
B(  7-C ,  9-O ) :   0.9746 B(  9-O , 21-H ) :   0.8657 B( 10-C , 11-C ) :   1.8311
B( 10-C , 12-C ) :   0.8872 B( 11-C , 22-H ) :   0.9711 B( 11-C , 23-H ) :   0.9706
B( 12-C , 24-H ) :   0.9864 B( 12-C , 25-H ) :   0.9626 B( 12-C , 26-H ) :   0.9655

Dispersion correction           -0.010078126
FINAL SINGLE POINT ENERGY      -465.763599805397

DIPOLE MOMENT
-------------

Method             : SCF
Type of density    : Electron Density
Multiplicity       :   1
Irrep              :   0
Energy             :  -465.7652301042999738 Eh
Relativity type    :
Basis              : AO
                                X                 Y                 Z
Electronic contribution:     -2.630708620      -1.271732023      -1.176806504
Nuclear contribution   :      2.968357387       1.410639927       0.233290193
                        -----------------------------------------
Total Dipole Moment    :      0.337648767       0.138907904      -0.943516311
                        -----------------------------------------
Magnitude (a.u.)       :      1.011694185
Magnitude (Debye)      :      2.571522256

Rotational constants in cm-1:             0.055699             0.028079             0.024606
Rotational constants in MHz :          1669.807390           841.798928           737.680530

                             ****ORCA TERMINATED NORMALLY****
TOTAL RUN TIME: 0 days 0 hours 0 minutes 57 seconds 555 msec
