                         Program Version 6.0.0  -   RELEASE  -
|  1> ! pbe def2-sv(p) def2/J RI DEFGRID1 loosescf d4 GCP(DFT/SV(P)) printgap
|  2> %output
|  3>     printlevel normal
|  4> end
|  5> * xyz 0 1
|  6> C -1.9099713977 -1.0147992775 -0.7530284767
|  7> C -1.2860625462 -0.1551026445 0.3591408366
|  8> H -2.0502136599 0.0557257587 1.114169331
|  9> C -0.7615346447 1.1892852475 -0.1817767477
| 10> H -0.8426804608 1.1984349175 -1.282115739
| 11> C 0.7210569223 1.3572491587 0.1949649267
| 12> H 0.7949918173 1.4353573915 1.2865678089
| 13> C 1.4810196025 0.1172510281 -0.2884041682
| 14> H 1.3113531581 -0.0163737903 -1.3644744893
| 15> C 0.9175898189 -1.1274982765 0.4496266439
| 16> H 1.5991661735 -1.3957145937 1.2696130996
| 17> O -0.2937759794 -0.8670234966 1.0943235464
| 18> O 0.7557336874 -2.2150125735 -0.4251574841
| 19> O 2.8717296664 0.2279281647 -0.1415498463
| 20> O 1.2476022433 2.5581486737 -0.3049106967
| 21> O -1.5479654768 2.2231907761 0.3530224625
| 22> O -2.4170926634 -2.2259991679 -0.2580048664
| 23> H -1.16481852 -1.2077278378 -1.5355142573
| 24> H -2.7570447335 -0.4757832784 -1.1805871176
| 25> H 1.5974798789 -2.6702816051 -0.5643535183
| 26> H 3.0893549876 0.6079697248 0.721883129
| 27> H 1.401292073 2.4839124782 -1.2582851475
| 28> H -1.0917949374 3.0681484227 0.2097796077
| 29> H -1.6839803457 -2.7071920971 0.1552578229
| 30> *
| 31>
| 32>                          ****END OF INPUT****

CARTESIAN COORDINATES (ANGSTROEM)
---------------------------------
  C     -1.909971   -1.014799   -0.753028
  C     -1.286063   -0.155103    0.359141
  H     -2.050214    0.055726    1.114169
  C     -0.761535    1.189285   -0.181777
  H     -0.842680    1.198435   -1.282116
  C      0.721057    1.357249    0.194965
  H      0.794992    1.435357    1.286568
  C      1.481020    0.117251   -0.288404
  H      1.311353   -0.016374   -1.364474
  C      0.917590   -1.127498    0.449627
  H      1.599166   -1.395715    1.269613
  O     -0.293776   -0.867023    1.094324
  O      0.755734   -2.215013   -0.425157
  O      2.871730    0.227928   -0.141550
  O      1.247602    2.558149   -0.304911
  O     -1.547965    2.223191    0.353022
  O     -2.417093   -2.225999   -0.258005
  H     -1.164819   -1.207728   -1.535514
  H     -2.757045   -0.475783   -1.180587
  H      1.597480   -2.670282   -0.564354
  H      3.089355    0.607970    0.721883
  H      1.401292    2.483912   -1.258285
  H     -1.091795    3.068148    0.209780
  H     -1.683980   -2.707192    0.155258

 Total Charge           Charge          ....    0
 Multiplicity           Mult            ....    1
 Number of Electrons    NEL             ....   96
 Basis Dimension        Dim             ....  192

ORBITAL ENERGIES
----------------

  NO   OCC          E(Eh)            E(eV)
   0   2.0000     -18.776860      -510.9443
   1   2.0000     -18.773011      -510.8396
   2   2.0000     -18.770156      -510.7619
   3   2.0000     -18.766285      -510.6566
   4   2.0000     -18.751135      -510.2443
   5   2.0000     -18.731408      -509.7075
   6   2.0000      -9.997195      -272.0375
   7   2.0000      -9.952677      -270.8261
   8   2.0000      -9.952210      -270.8134
   9   2.0000      -9.946837      -270.6672
  10   2.0000      -9.940848      -270.5042
  11   2.0000      -9.922728      -270.0112
  12   2.0000      -0.989038       -26.9131
  13   2.0000      -0.957875       -26.0651
  14   2.0000      -0.939990       -25.5784
  15   2.0000      -0.926374       -25.2079
  16   2.0000      -0.920892       -25.0588
  17   2.0000      -0.905809       -24.6483
  18   2.0000      -0.710931       -19.3454
  19   2.0000      -0.694868       -18.9083
  20   2.0000      -0.620170       -16.8757
  21   2.0000      -0.590902       -16.0793
  22   2.0000      -0.576320       -15.6825
  23   2.0000      -0.525136       -14.2897
  24   2.0000      -0.517171       -14.0729
  25   2.0000      -0.503795       -13.7090
  26   2.0000      -0.469039       -12.7632
  27   2.0000      -0.464982       -12.6528
  28   2.0000      -0.447035       -12.1644
  29   2.0000      -0.436920       -11.8892
  30   2.0000      -0.418528       -11.3887
  31   2.0000      -0.401826       -10.9342
  32   2.0000      -0.391786       -10.6610
  33   2.0000      -0.380710       -10.3596
  34   2.0000      -0.363797        -9.8994
  35   2.0000      -0.354941        -9.6584
  36   2.0000      -0.327622        -8.9151
  37   2.0000      -0.312487        -8.5032
  38   2.0000      -0.310122        -8.4389
  39   2.0000      -0.296219        -8.0605
  40   2.0000      -0.284590        -7.7441
  41   2.0000      -0.273584        -7.4446
  42   2.0000      -0.269445        -7.3320
  43   2.0000      -0.254168        -6.9163
  44   2.0000      -0.235352        -6.4042
  45   2.0000      -0.226801        -6.1716
  46   2.0000      -0.210892        -5.7387
  47   2.0000      -0.200608        -5.4588
  48   0.0000       0.011169         0.3039
  49   0.0000       0.015015         0.4086
  50   0.0000       0.023289         0.6337
  51   0.0000       0.045325         1.2333
  52   0.0000       0.051827         1.4103

MULLIKEN ATOMIC CHARGES
-----------------------
   0 C :    0.032740
   1 C :    0.041265
   2 H :    0.087484
   3 C :    0.061533
   4 H :    0.037133
   5 C :    0.024857
   6 H :    0.065138
   7 C :    0.009151
   8 H :    0.054664
   9 C :    0.217950
  10 H :    0.054680
  11 O :   -0.305691
  12 O :   -0.408091
  13 O :   -0.409024
  14 O :   -0.409329
  15 O :   -0.410289
  16 O :   -0.441330
  17 H :    0.081008
  18 H :    0.095230
  19 H :    0.311589
  20 H :    0.306856
  21 H :    0.303474
  22 H :    0.300618
  23 H :    0.298384
Sum of atomic charges:   -0.0000000

LOEWDIN ATOMIC CHARGES
----------------------
   0 C :   -0.140895
   1 C :   -0.064522
   2 H :    0.129634
   3 C :   -0.072672
   4 H :    0.094032
   5 C :   -0.093469
   6 H :    0.118233
   7 C :   -0.102271
   8 H :    0.111459
   9 C :    0.000816
  10 H :    0.099567
  11 O :   -0.129237
  12 O :   -0.321426
  13 O :   -0.312591
  14 O :   -0.309019
  15 O :   -0.319246
  16 O :   -0.336844
  17 H :    0.096520
  18 H :    0.119215
  19 H :    0.297605
  20 H :    0.288773
  21 H :    0.288532
  22 H :    0.281677
  23 H :    0.276129

  Mayer bond orders larger than 0.100000
B(  0-C ,  1-C ) :   1.0511 B(  0-C , 16-O ) :   1.0786 B(  0-C , 17-H ) :   0.8956
B(  0-C , 18-H ) :   0.9148 B(  1-C ,  2-H ) :   0.8810 B(  1-C ,  3-C ) :   0.9633
B(  1-C , 11-O ) :   1.0108 B(  3-C ,  4-H ) :   0.8761 B(  3-C ,  5-C ) :   1.0153
B(  3-C , 15-O ) :   1.0850 B(  5-C ,  6-H ) :   0.8553 B(  5-C ,  7-C ) :   1.0125
B(  5-C , 14-O ) :   1.0562 B(  7-C ,  8-H ) :   0.8605 B(  7-C ,  9-C ) :   0.9561
B(  7-C , 13-O ) :   1.0645 B(  9-C , 10-H ) :   0.8998 B(  9-C , 11-O ) :   1.0832
B(  9-C , 12-O ) :   1.0526 B( 12-O , 19-H ) :   0.8378 B( 13-O , 20-H ) :   0.8451
B( 14-O , 21-H ) :   0.8458 B( 15-O , 22-H ) :   0.8330 B( 16-O , 23-H ) :   0.8375

Dispersion correction           -0.024693075
FINAL SINGLE POINT ENERGY      -685.688336103177

DIPOLE MOMENT
-------------

Method             : SCF
Type of density    : Electron Density
Multiplicity       :   1
Irrep              :   0
Energy             :  -685.8184329396790417 Eh
Relativity type    :
Basis              : AO
                                X                 Y                 Z
Electronic contribution:      1.234496529      -0.094912523       1.973857322
Nuclear contribution   :      0.199676602       0.348771966      -2.273225933
                        -----------------------------------------
Total Dipole Moment    :      1.434173131       0.253859443      -0.299368611
                        -----------------------------------------
Magnitude (a.u.)       :      1.486915852
Magnitude (Debye)      :      3.779439738

Rotational constants in cm-1:             0.040194             0.028227             0.018535
Rotational constants in MHz :          1204.971188           846.238694           555.653449

                             ****ORCA TERMINATED NORMALLY****
TOTAL RUN TIME: 0 days 0 hours 0 minutes 12 seconds 225 msec
