                         Program Version 6.0.0  -   RELEASE  -
|  1> ! pbe def2-sv(p) def2/J RI DEFGRID1 loosescf d4 GCP(DFT/SV(P)) printgap
|  2> %output
|  3>     printlevel normal
|  4> end
|  5> * xyz 0 1
|  6> C -1.7041703838 -1.3746827521 -0.5078895299
|  7> C -1.1234652756 -0.4994998437 0.6227686846
|  8> H -1.8442802989 -0.4642281232 1.4479953279
|  9> C -0.8703905087 0.9529289395 0.1418171768
| 10> H -1.21801242 1.0394709625 -0.8949249112
| 11> C 0.6279422238 1.2657375574 0.2063746516
| 12> H 0.9399571724 1.3662516535 1.2539042376
| 13> C 1.4226345061 0.1040145709 -0.4124832935
| 14> H 1.0787724267 -0.0798765129 -1.4428678992
| 15> C 1.1848031771 -1.1704683996 0.4128561582
| 16> H 2.008934224 -1.2631235585 1.1348721786
| 17> O 0.0286854471 -1.0890177005 1.2146763
| 18> O 1.15186407 -2.2576658527 -0.4542362497
| 19> O 2.7984781227 0.3806034246 -0.4108781547
| 20> O 0.9713884267 2.4835231574 -0.4030284575
| 21> O -1.6404167814 1.8912249214 0.8495157499
| 22> O -2.8261442502 -0.7907165313 -1.1160781331
| 23> H -1.9402169066 -2.3644701169 -0.0994809656
| 24> H -0.9614321986 -1.498153327 -1.2986507938
| 25> H 1.2204722944 -3.0883562783 0.0402741076
| 26> H 2.9137854029 1.3239556656 -0.6191542413
| 27> H 0.4995244802 2.5796369606 -1.2432242507
| 28> H -1.3133123753 1.974369132 1.756922233
| 29> H -3.55161516 -0.7312221984 -0.4783209921
| 30> *
| 31>
| 32>                          ****END OF INPUT****

CARTESIAN COORDINATES (ANGSTROEM)
---------------------------------
  C     -1.704170   -1.374683   -0.507890
  C     -1.123465   -0.499500    0.622769
  H     -1.844280   -0.464228    1.447995
  C     -0.870391    0.952929    0.141817
  H     -1.218012    1.039471   -0.894925
  C      0.627942    1.265738    0.206375
  H      0.939957    1.366252    1.253904
  C      1.422635    0.104015   -0.412483
  H      1.078772   -0.079877   -1.442868
  C      1.184803   -1.170468    0.412856
  H      2.008934   -1.263124    1.134872
  O      0.028685   -1.089018    1.214676
  O      1.151864   -2.257666   -0.454236
  O      2.798478    0.380603   -0.410878
  O      0.971388    2.483523   -0.403028
  O     -1.640417    1.891225    0.849516
  O     -2.826144   -0.790717   -1.116078
  H     -1.940217   -2.364470   -0.099481
  H     -0.961432   -1.498153   -1.298651
  H      1.220472   -3.088356    0.040274
  H      2.913785    1.323956   -0.619154
  H      0.499524    2.579637   -1.243224
  H     -1.313312    1.974369    1.756922
  H     -3.551615   -0.731222   -0.478321

 Total Charge           Charge          ....    0
 Multiplicity           Mult            ....    1
 Number of Electrons    NEL             ....   96
 Basis Dimension        Dim             ....  192

ORBITAL ENERGIES
----------------

  NO   OCC          E(Eh)            E(eV)
   0   2.0000     -18.770816      -510.7799
   1   2.0000     -18.765605      -510.6381
   2   2.0000     -18.763990      -510.5941
   3   2.0000     -18.755225      -510.3556
   4   2.0000     -18.751708      -510.2599
   5   2.0000     -18.745568      -510.0928
   6   2.0000      -9.985971      -271.7321
   7   2.0000      -9.947045      -270.6729
   8   2.0000      -9.944856      -270.6133
   9   2.0000      -9.944754      -270.6105
  10   2.0000      -9.940739      -270.5013
  11   2.0000      -9.930806      -270.2310
  12   2.0000      -0.981041       -26.6955
  13   2.0000      -0.951495       -25.8915
  14   2.0000      -0.933782       -25.4095
  15   2.0000      -0.927312       -25.2334
  16   2.0000      -0.915583       -24.9143
  17   2.0000      -0.913823       -24.8664
  18   2.0000      -0.703634       -19.1469
  19   2.0000      -0.691295       -18.8111
  20   2.0000      -0.623015       -16.9531
  21   2.0000      -0.587844       -15.9961
  22   2.0000      -0.575257       -15.6536
  23   2.0000      -0.525587       -14.3019
  24   2.0000      -0.505487       -13.7550
  25   2.0000      -0.494891       -13.4667
  26   2.0000      -0.475187       -12.9305
  27   2.0000      -0.460923       -12.5423
  28   2.0000      -0.441392       -12.0109
  29   2.0000      -0.435375       -11.8471
  30   2.0000      -0.412700       -11.2301
  31   2.0000      -0.401716       -10.9312
  32   2.0000      -0.387233       -10.5371
  33   2.0000      -0.373246       -10.1565
  34   2.0000      -0.359871        -9.7926
  35   2.0000      -0.354919        -9.6578
  36   2.0000      -0.332749        -9.0546
  37   2.0000      -0.315480        -8.5846
  38   2.0000      -0.302766        -8.2387
  39   2.0000      -0.288669        -7.8551
  40   2.0000      -0.285796        -7.7769
  41   2.0000      -0.265354        -7.2207
  42   2.0000      -0.259723        -7.0674
  43   2.0000      -0.243342        -6.6217
  44   2.0000      -0.237178        -6.4539
  45   2.0000      -0.235321        -6.4034
  46   2.0000      -0.214017        -5.8237
  47   2.0000      -0.199995        -5.4421
  48   0.0000       0.018855         0.5131
  49   0.0000       0.023211         0.6316
  50   0.0000       0.027451         0.7470
  51   0.0000       0.029245         0.7958
  52   0.0000       0.047944         1.3046

MULLIKEN ATOMIC CHARGES
-----------------------
   0 C :    0.006863
   1 C :    0.011843
   2 H :    0.055116
   3 C :    0.053661
   4 H :    0.067776
   5 C :    0.051616
   6 H :    0.054075
   7 C :    0.006762
   8 H :    0.057881
   9 C :    0.219401
  10 H :    0.071295
  11 O :   -0.312638
  12 O :   -0.383957
  13 O :   -0.414029
  14 O :   -0.412187
  15 O :   -0.412891
  16 O :   -0.423168
  17 H :    0.075993
  18 H :    0.115922
  19 H :    0.303853
  20 H :    0.301344
  21 H :    0.304192
  22 H :    0.300073
  23 H :    0.301203
Sum of atomic charges:   -0.0000000

LOEWDIN ATOMIC CHARGES
----------------------
   0 C :   -0.145998
   1 C :   -0.077231
   2 H :    0.109993
   3 C :   -0.082795
   4 H :    0.116541
   5 C :   -0.086030
   6 H :    0.114337
   7 C :   -0.086313
   8 H :    0.102665
   9 C :    0.000167
  10 H :    0.106437
  11 O :   -0.150617
  12 O :   -0.298859
  13 O :   -0.319278
  14 O :   -0.306737
  15 O :   -0.313689
  16 O :   -0.326937
  17 H :    0.098545
  18 H :    0.118056
  19 H :    0.287915
  20 H :    0.279789
  21 H :    0.289051
  22 H :    0.284432
  23 H :    0.286557

  Mayer bond orders larger than 0.100000
B(  0-C ,  1-C ) :   1.0233 B(  0-C , 16-O ) :   1.0497 B(  0-C , 17-H ) :   0.9161
B(  0-C , 18-H ) :   0.9071 B(  1-C ,  2-H ) :   0.8928 B(  1-C ,  3-C ) :   0.9563
B(  1-C , 11-O ) :   1.0276 B(  3-C ,  4-H ) :   0.8657 B(  3-C ,  5-C ) :   1.0204
B(  3-C , 15-O ) :   1.0454 B(  5-C ,  6-H ) :   0.8526 B(  5-C ,  7-C ) :   0.9959
B(  5-C , 14-O ) :   1.0512 B(  7-C ,  8-H ) :   0.8756 B(  7-C ,  9-C ) :   0.9817
B(  7-C , 13-O ) :   1.0975 B(  9-C , 10-H ) :   0.8854 B(  9-C , 11-O ) :   1.0459
B(  9-C , 12-O ) :   1.1391 B( 12-O , 19-H ) :   0.8407 B( 13-O , 20-H ) :   0.8247
B( 14-O , 21-H ) :   0.8447 B( 15-O , 22-H ) :   0.8500 B( 16-O , 23-H ) :   0.8495

Dispersion correction           -0.024590725
FINAL SINGLE POINT ENERGY      -685.689420855225

DIPOLE MOMENT
-------------

Method             : SCF
Type of density    : Electron Density
Multiplicity       :   1
Irrep              :   0
Energy             :  -685.8194029168968200 Eh
Relativity type    :
Basis              : AO
                                X                 Y                 Z
Electronic contribution:      1.651507922       0.835282477       0.940804409
Nuclear contribution   :     -2.026243762      -1.122039988      -0.420027669
                        -----------------------------------------
Total Dipole Moment    :     -0.374735840      -0.286757511       0.520776740
                        -----------------------------------------
Magnitude (a.u.)       :      0.702755458
Magnitude (Debye)      :      1.786262417

Rotational constants in cm-1:             0.036502             0.029395             0.019693
Rotational constants in MHz :          1094.305781           881.227142           590.369037

                             ****ORCA TERMINATED NORMALLY****
TOTAL RUN TIME: 0 days 0 hours 0 minutes 12 seconds 267 msec
