                         Program Version 6.0.0  -   RELEASE  -
|  1> ! wb97x-v def2-tzvp def2/J RIJCOSX DEFGRID2 scfconv7 GCP(DFT/TZ) printgap
|  2> %output
|  3>     printlevel normal
|  4> end
|  5> * xyz 0 1
|  6> C 0.009476630459507104 1.4202492923555257 -7.717057678115613e-05
|  7> C 0.7944917460958155 0.3180012563203994 -5.04800682463385e-05
|  8> C 0.21289143366422597 -1.0073718805539753 -1.1280542959544176e-05
|  9> O 0.8297229724044745 -2.0705729518172764 1.2202528313150849e-05
| 10> N -1.1826200953085375 -0.9937798758362668 2.9042411522306474e-06
| 11> C -2.0163784988625086 0.10490975068444872 -3.0804004848002545e-05
| 12> O -3.2407936651242535 0.017828318129828307 -2.0217620768059074e-05
| 13> N -1.3489977118682588 1.310328406446037 -6.588289534275076e-05
| 14> Cl 2.5245317115349657 0.44849503489968756 -6.430417741118954e-05
| 15> H 0.4034605669877662 2.4298839538500747 -0.00010577680825657866
| 16> H -1.6441785768987656 -1.8979476775135953 2.4175063229827534e-05
| 17> H -1.9177839387194293 2.1483549626633027 -9.48122255792978e-05
| 18> *
| 19>
| 20>                          ****END OF INPUT****

CARTESIAN COORDINATES (ANGSTROEM)
---------------------------------
  C      0.009477    1.420249   -0.000077
  C      0.794492    0.318001   -0.000050
  C      0.212891   -1.007372   -0.000011
  O      0.829723   -2.070573    0.000012
  N     -1.182620   -0.993780    0.000003
  C     -2.016378    0.104910   -0.000031
  O     -3.240794    0.017828   -0.000020
  N     -1.348998    1.310328   -0.000066
  Cl     2.524532    0.448495   -0.000064
  H      0.403461    2.429884   -0.000106
  H     -1.644179   -1.897948    0.000024
  H     -1.917784    2.148355   -0.000095

 Total Charge           Charge          ....    0
 Multiplicity           Mult            ....    1
 Number of Electrons    NEL             ....   74
 Basis Dimension        Dim             ....  303

ORBITAL ENERGIES
----------------

  NO   OCC          E(Eh)            E(eV)
   0   2.0000    -107.162543     -2916.0410
   1   2.0000     -21.668183      -589.6212
   2   2.0000     -21.665998      -589.5618
   3   2.0000     -16.620658      -452.2711
   4   2.0000     -16.602979      -451.7900
   5   2.0000     -12.221802      -332.5721
   6   2.0000     -12.191853      -331.7572
   7   2.0000     -12.156090      -330.7840
   8   2.0000     -12.136622      -330.2543
   9   2.0000     -11.315223      -307.9029
  10   2.0000      -9.106951      -247.8127
  11   2.0000      -9.104013      -247.7328
  12   2.0000      -9.103986      -247.7320
  13   2.0000      -1.736893       -47.2633
  14   2.0000      -1.720800       -46.8254
  15   2.0000      -1.612183       -43.8697
  16   2.0000      -1.552846       -42.2551
  17   2.0000      -1.449104       -39.4321
  18   2.0000      -1.349539       -36.7228
  19   2.0000      -1.251972       -34.0679
  20   2.0000      -1.247268       -33.9399
  21   2.0000      -1.127344       -30.6766
  22   2.0000      -1.121973       -30.5304
  23   2.0000      -1.075803       -29.2741
  24   2.0000      -1.059701       -28.8359
  25   2.0000      -1.039414       -28.2839
  26   2.0000      -0.981141       -26.6982
  27   2.0000      -0.970521       -26.4092
  28   2.0000      -0.954057       -25.9612
  29   2.0000      -0.928650       -25.2699
  30   2.0000      -0.892930       -24.2979
  31   2.0000      -0.885902       -24.1066
  32   2.0000      -0.873604       -23.7720
  33   2.0000      -0.839788       -22.8518
  34   2.0000      -0.830718       -22.6050
  35   2.0000      -0.808280       -21.9944
  36   2.0000      -0.708527       -19.2800
  37   0.0000      -0.358814        -9.7638
  38   0.0000      -0.323173        -8.7940
  39   0.0000      -0.290967        -7.9176
  40   0.0000      -0.190822        -5.1925
  41   0.0000      -0.160048        -4.3551

MULLIKEN ATOMIC CHARGES
-----------------------
   0 C :   -0.007281
   1 C :   -0.009101
   2 C :    0.189765
   3 O :   -0.321688
   4 N :   -0.209551
   5 C :    0.296229
   6 O :   -0.355440
   7 N :   -0.220904
   8 Cl:   -0.047273
   9 H :    0.168113
  10 H :    0.260519
  11 H :    0.256610
Sum of atomic charges:    0.0000000

LOEWDIN ATOMIC CHARGES
----------------------
   0 C :   -0.166186
   1 C :   -0.450988
   2 C :   -0.418045
   3 O :    0.080917
   4 N :    0.205728
   5 C :   -0.483486
   6 O :    0.049019
   7 N :    0.183199
   8 Cl:    0.422752
   9 H :    0.153684
  10 H :    0.213746
  11 H :    0.209659

  Mayer bond orders larger than 0.100000
B(  0-C ,  1-C ) :   1.7149 B(  0-C ,  7-N ) :   1.1504 B(  0-C ,  9-H ) :   0.9280
B(  1-C ,  2-C ) :   1.0222 B(  1-C ,  8-Cl) :   1.0946 B(  2-C ,  3-O ) :   2.1800
B(  2-C ,  4-N ) :   1.1210 B(  4-N ,  5-C ) :   1.1557 B(  4-N , 10-H ) :   0.8860
B(  5-C ,  6-O ) :   2.1246 B(  5-C ,  7-N ) :   1.1176 B(  7-N , 11-H ) :   0.9035

FINAL SINGLE POINT ENERGY      -874.394539364738

DIPOLE MOMENT
-------------

Method             : SCF
Type of density    : Electron Density
Multiplicity       :   1
Irrep              :   0
Energy             :  -874.4014544817381420 Eh
Relativity type    :
Basis              : AO
                                X                 Y                 Z
Electronic contribution:      6.181626874      -0.188454826      -0.000030287
Nuclear contribution   :     -6.404147841       1.881592323      -0.000022808
                        -----------------------------------------
Total Dipole Moment    :     -0.222520967       1.693137497      -0.000053096
                        -----------------------------------------
Magnitude (a.u.)       :      1.707697329
Magnitude (Debye)      :      4.340621656

Rotational constants in cm-1:             0.101796             0.032820             0.024818
Rotational constants in MHz :          3051.764137           983.913455           744.031635

                             ****ORCA TERMINATED NORMALLY****
TOTAL RUN TIME: 0 days 0 hours 2 minutes 37 seconds 828 msec
