                         Program Version 6.0.0  -   RELEASE  -
|  1> ! wb97x-v def2-tzvp def2/J RIJCOSX DEFGRID2 scfconv7 GCP(DFT/TZ) printgap
|  2> %output
|  3>     printlevel normal
|  4> end
|  5> %cpcm
|  6>     smd true
|  7>     smdsolvent "water"
|  8> end
|  9> * xyz 0 1
| 10> C 0.009476630459507104 1.4202492923555257 -7.717057678115613e-05
| 11> C 0.7944917460958155 0.3180012563203994 -5.04800682463385e-05
| 12> C 0.21289143366422597 -1.0073718805539753 -1.1280542959544176e-05
| 13> O 0.8297229724044745 -2.0705729518172764 1.2202528313150849e-05
| 14> N -1.1826200953085375 -0.9937798758362668 2.9042411522306474e-06
| 15> C -2.0163784988625086 0.10490975068444872 -3.0804004848002545e-05
| 16> O -3.2407936651242535 0.017828318129828307 -2.0217620768059074e-05
| 17> N -1.3489977118682588 1.310328406446037 -6.588289534275076e-05
| 18> Cl 2.5245317115349657 0.44849503489968756 -6.430417741118954e-05
| 19> H 0.4034605669877662 2.4298839538500747 -0.00010577680825657866
| 20> H -1.6441785768987656 -1.8979476775135953 2.4175063229827534e-05
| 21> H -1.9177839387194293 2.1483549626633027 -9.48122255792978e-05
| 22> *
| 23>
| 24>                          ****END OF INPUT****

CARTESIAN COORDINATES (ANGSTROEM)
---------------------------------
  C      0.009477    1.420249   -0.000077
  C      0.794492    0.318001   -0.000050
  C      0.212891   -1.007372   -0.000011
  O      0.829723   -2.070573    0.000012
  N     -1.182620   -0.993780    0.000003
  C     -2.016378    0.104910   -0.000031
  O     -3.240794    0.017828   -0.000020
  N     -1.348998    1.310328   -0.000066
  Cl     2.524532    0.448495   -0.000064
  H      0.403461    2.429884   -0.000106
  H     -1.644179   -1.897948    0.000024
  H     -1.917784    2.148355   -0.000095

 Total Charge           Charge          ....    0
 Multiplicity           Mult            ....    1
 Number of Electrons    NEL             ....   74
 Basis Dimension        Dim             ....  303

ORBITAL ENERGIES
----------------

  NO   OCC          E(Eh)            E(eV)
   0   2.0000    -107.158265     -2915.9246
   1   2.0000     -21.669157      -589.6477
   2   2.0000     -21.668443      -589.6283
   3   2.0000     -16.601286      -451.7440
   4   2.0000     -16.593787      -451.5399
   5   2.0000     -12.217025      -332.4421
   6   2.0000     -12.192029      -331.7620
   7   2.0000     -12.137876      -330.2884
   8   2.0000     -12.121722      -329.8488
   9   2.0000     -11.311099      -307.7907
  10   2.0000      -9.102804      -247.6999
  11   2.0000      -9.099976      -247.6229
  12   2.0000      -9.099920      -247.6214
  13   2.0000      -1.737535       -47.2807
  14   2.0000      -1.726822       -46.9892
  15   2.0000      -1.596699       -43.4484
  16   2.0000      -1.539328       -41.8872
  17   2.0000      -1.442429       -39.2505
  18   2.0000      -1.337242       -36.3882
  19   2.0000      -1.238968       -33.7140
  20   2.0000      -1.235357       -33.6158
  21   2.0000      -1.113753       -30.3067
  22   2.0000      -1.110821       -30.2270
  23   2.0000      -1.080200       -29.3937
  24   2.0000      -1.060413       -28.8553
  25   2.0000      -1.026855       -27.9422
  26   2.0000      -0.975059       -26.5327
  27   2.0000      -0.953461       -25.9450
  28   2.0000      -0.948078       -25.7985
  29   2.0000      -0.935899       -25.4671
  30   2.0000      -0.892690       -24.2913
  31   2.0000      -0.876642       -23.8546
  32   2.0000      -0.874558       -23.7979
  33   2.0000      -0.833213       -22.6729
  34   2.0000      -0.825944       -22.4751
  35   2.0000      -0.805282       -21.9128
  36   2.0000      -0.696439       -18.9511
  37   0.0000      -0.345197        -9.3933
  38   0.0000      -0.312987        -8.5168
  39   0.0000      -0.281824        -7.6688
  40   0.0000      -0.177722        -4.8361
  41   0.0000      -0.153533        -4.1778

MULLIKEN ATOMIC CHARGES
-----------------------
   0 C :   -0.003198
   1 C :   -0.000241
   2 C :    0.247768
   3 O :   -0.462210
   4 N :   -0.197426
   5 C :    0.349280
   6 O :   -0.479031
   7 N :   -0.200539
   8 Cl:   -0.083559
   9 H :    0.219531
  10 H :    0.298372
  11 H :    0.311253
Sum of atomic charges:    0.0000000

LOEWDIN ATOMIC CHARGES
----------------------
   0 C :   -0.117692
   1 C :   -0.456607
   2 C :   -0.407851
   3 O :   -0.003921
   4 N :    0.223184
   5 C :   -0.463013
   6 O :   -0.020300
   7 N :    0.214093
   8 Cl:    0.396877
   9 H :    0.174610
  10 H :    0.228033
  11 H :    0.232587

  Mayer bond orders larger than 0.100000
B(  0-C ,  1-C ) :   1.6504 B(  0-C ,  7-N ) :   1.1952 B(  0-C ,  9-H ) :   0.9297
B(  1-C ,  2-C ) :   1.0569 B(  1-C ,  8-Cl) :   1.0517 B(  2-C ,  3-O ) :   2.0528
B(  2-C ,  4-N ) :   1.1505 B(  4-N ,  5-C ) :   1.1705 B(  4-N , 10-H ) :   0.8630
B(  5-C ,  6-O ) :   2.0086 B(  5-C ,  7-N ) :   1.1577 B(  7-N , 11-H ) :   0.8710

FINAL SINGLE POINT ENERGY      -874.419474889729

DIPOLE MOMENT
-------------

Method             : SCF
Type of density    : Electron Density
Multiplicity       :   1
Irrep              :   0
Energy             :  -874.4263900067288660 Eh
Relativity type    :
Basis              : AO
                                X                 Y                 Z
Electronic contribution:      5.971904644       0.645592994      -0.000054560
Nuclear contribution   :     -6.404147841       1.881592323      -0.000022808
                        -----------------------------------------
Total Dipole Moment    :     -0.432243197       2.527185318      -0.000077369
                        -----------------------------------------
Magnitude (a.u.)       :      2.563883737
Magnitude (Debye)      :      6.516874555

Rotational constants in cm-1:             0.101796             0.032820             0.024818
Rotational constants in MHz :          3051.764137           983.913455           744.031635

                             ****ORCA TERMINATED NORMALLY****
TOTAL RUN TIME: 0 days 0 hours 2 minutes 40 seconds 83 msec
