                         Program Version 6.0.0  -   RELEASE  -
|  1> ! r2scan-3c def2/J RI DEFGRID2 scfconv6 printgap
|  2> %output
|  3>     printlevel normal
|  4> end
|  5> * xyz 0 1
|  6> C -2.6419853111 0.6160959318 0.760682233
|  7> C -1.8466530232 0.6277919247 -0.5485954076
|  8> C -0.381643573 0.3856352588 -0.2949960114
|  9> C 0.4974768785 1.4571154894 -0.2138809115
| 10> C 1.8418422485 1.2758017549 0.0548680669
| 11> C 2.3327485223 -0.0037490492 0.2502172894
| 12> C 1.4787533302 -1.0860379478 0.1748970782
| 13> C 0.1257627864 -0.9014694109 -0.0921541786
| 14> O -0.6490971844 -2.0233358073 -0.140372099
| 15> H -2.3022522825 1.4209773502 1.4082459174
| 16> H -2.5061417674 -0.321977368 1.2942813385
| 17> H -3.7019172188 0.7543978341 0.5622785097
| 18> H -1.9654087255 1.6007830888 -1.0277798353
| 19> H -2.2509791727 -0.1208553491 -1.2355225148
| 20> H 0.1137936321 2.4556482508 -0.3663075928
| 21> H 2.502197107 2.1273916496 0.111243514
| 22> H 3.3794168776 -0.1615621615 0.4606558102
| 23> H 1.8346694852 -2.0937710623 0.3234810071
| 24> H -1.5583101021 -1.7996685356 -0.3871987948
| 25> *
| 26>
| 27>                          ****END OF INPUT****

CARTESIAN COORDINATES (ANGSTROEM)
---------------------------------
  C     -2.641985    0.616096    0.760682
  C     -1.846653    0.627792   -0.548595
  C     -0.381644    0.385635   -0.294996
  C      0.497477    1.457115   -0.213881
  C      1.841842    1.275802    0.054868
  C      2.332749   -0.003749    0.250217
  C      1.478753   -1.086038    0.174897
  C      0.125763   -0.901469   -0.092154
  O     -0.649097   -2.023336   -0.140372
  H     -2.302252    1.420977    1.408246
  H     -2.506142   -0.321977    1.294281
  H     -3.701917    0.754398    0.562279
  H     -1.965409    1.600783   -1.027780
  H     -2.250979   -0.120855   -1.235523
  H      0.113794    2.455648   -0.366308
  H      2.502197    2.127392    0.111244
  H      3.379417   -0.161562    0.460656
  H      1.834669   -2.093771    0.323481
  H     -1.558310   -1.799669   -0.387199

 Total Charge           Charge          ....    0
 Multiplicity           Mult            ....    1
 Number of Electrons    NEL             ....   66
 Basis Dimension        Dim             ....  226

ORBITAL ENERGIES
----------------

  NO   OCC          E(Eh)            E(eV)
   0   2.0000     -18.984387      -516.5914
   1   2.0000     -10.092818      -274.6395
   2   2.0000     -10.047708      -273.4120
   3   2.0000     -10.040013      -273.2027
   4   2.0000     -10.031715      -272.9768
   5   2.0000     -10.030769      -272.9511
   6   2.0000     -10.030348      -272.9396
   7   2.0000     -10.026540      -272.8360
   8   2.0000     -10.024112      -272.7699
   9   2.0000      -1.027463       -27.9587
  10   2.0000      -0.823809       -22.4170
  11   2.0000      -0.763681       -20.7808
  12   2.0000      -0.708981       -19.2924
  13   2.0000      -0.694398       -18.8955
  14   2.0000      -0.613145       -16.6845
  15   2.0000      -0.573350       -15.6016
  16   2.0000      -0.567610       -15.4455
  17   2.0000      -0.508854       -13.8466
  18   2.0000      -0.466005       -12.6806
  19   2.0000      -0.440959       -11.9991
  20   2.0000      -0.417191       -11.3524
  21   2.0000      -0.407573       -11.0906
  22   2.0000      -0.395167       -10.7531
  23   2.0000      -0.384080       -10.4513
  24   2.0000      -0.360283        -9.8038
  25   2.0000      -0.355076        -9.6621
  26   2.0000      -0.347540        -9.4570
  27   2.0000      -0.331514        -9.0210
  28   2.0000      -0.314832        -8.5670
  29   2.0000      -0.308038        -8.3822
  30   2.0000      -0.299071        -8.1381
  31   2.0000      -0.229368        -6.2414
  32   2.0000      -0.202045        -5.4979
  33   0.0000      -0.028307        -0.7703
  34   0.0000      -0.014031        -0.3818
  35   0.0000       0.041398         1.1265
  36   0.0000       0.084783         2.3071
  37   0.0000       0.105167         2.8617

MULLIKEN ATOMIC CHARGES
-----------------------
   0 C :   -0.444971
   1 C :   -0.337222
   2 C :    0.020650
   3 C :   -0.203530
   4 C :   -0.189875
   5 C :   -0.122794
   6 C :   -0.294767
   7 C :    0.339572
   8 O :   -0.413054
   9 H :    0.153538
  10 H :    0.148143
  11 H :    0.151588
  12 H :    0.156199
  13 H :    0.131162
  14 H :    0.146158
  15 H :    0.144718
  16 H :    0.147243
  17 H :    0.156367
  18 H :    0.310875
Sum of atomic charges:   -0.0000000

LOEWDIN ATOMIC CHARGES
----------------------
   0 C :   -0.406170
   1 C :   -0.286899
   2 C :   -0.098053
   3 C :   -0.153657
   4 C :   -0.187557
   5 C :   -0.159348
   6 C :   -0.139517
   7 C :    0.188735
   8 O :   -0.503317
   9 H :    0.157954
  10 H :    0.153165
  11 H :    0.150358
  12 H :    0.166680
  13 H :    0.152948
  14 H :    0.168301
  15 H :    0.166165
  16 H :    0.167526
  17 H :    0.179698
  18 H :    0.282985

  Mayer bond orders larger than 0.100000
B(  0-C ,  1-C ) :   0.9316 B(  0-C ,  9-H ) :   0.9742 B(  0-C , 10-H ) :   0.9749
B(  0-C , 11-H ) :   0.9746 B(  1-C ,  2-C ) :   0.8001 B(  1-C , 12-H ) :   0.9745
B(  1-C , 13-H ) :   0.9944 B(  2-C ,  3-C ) :   1.3507 B(  2-C ,  7-C ) :   1.4319
B(  3-C ,  4-C ) :   1.4560 B(  3-C , 14-H ) :   0.9352 B(  4-C ,  5-C ) :   1.4194
B(  4-C , 15-H ) :   0.9444 B(  5-C ,  6-C ) :   1.3929 B(  5-C , 16-H ) :   0.9473
B(  6-C ,  7-C ) :   1.3938 B(  6-C , 17-H ) :   0.9472 B(  7-C ,  8-O ) :   0.9459
B(  8-O , 18-H ) :   0.8675

Dispersion correction           -0.006282847
FINAL SINGLE POINT ENERGY      -386.001226089096

DIPOLE MOMENT
-------------

Method             : SCF
Type of density    : Electron Density
Multiplicity       :   1
Irrep              :   0
Energy             :  -386.0019214606039100 Eh
Relativity type    :
Basis              : AO
                                X                 Y                 Z
Electronic contribution:      5.487702919      -3.251948779      -1.175213346
Nuclear contribution   :     -6.065435142       3.592624689       1.070600555
                        -----------------------------------------
Total Dipole Moment    :     -0.577732223       0.340675910      -0.104612791
                        -----------------------------------------
Magnitude (a.u.)       :      0.678806624
Magnitude (Debye)      :      1.725389320

Rotational constants in cm-1:             0.088656             0.048445             0.033973
Rotational constants in MHz :          2657.827816          1452.338060          1018.490543

                             ****ORCA TERMINATED NORMALLY****
TOTAL RUN TIME: 0 days 0 hours 0 minutes 27 seconds 754 msec
