                         Program Version 6.0.0  -   RELEASE  -
|  1> ! r2scan-3c def2/J RI DEFGRID2 scfconv6 printgap
|  2> %output
|  3>     printlevel normal
|  4> end
|  5> %cpcm
|  6>     smd true
|  7>     smdsolvent "water"
|  8> end
|  9> * xyz 0 1
| 10> C -2.6419853111 0.6160959318 0.760682233
| 11> C -1.8466530232 0.6277919247 -0.5485954076
| 12> C -0.381643573 0.3856352588 -0.2949960114
| 13> C 0.4974768785 1.4571154894 -0.2138809115
| 14> C 1.8418422485 1.2758017549 0.0548680669
| 15> C 2.3327485223 -0.0037490492 0.2502172894
| 16> C 1.4787533302 -1.0860379478 0.1748970782
| 17> C 0.1257627864 -0.9014694109 -0.0921541786
| 18> O -0.6490971844 -2.0233358073 -0.140372099
| 19> H -2.3022522825 1.4209773502 1.4082459174
| 20> H -2.5061417674 -0.321977368 1.2942813385
| 21> H -3.7019172188 0.7543978341 0.5622785097
| 22> H -1.9654087255 1.6007830888 -1.0277798353
| 23> H -2.2509791727 -0.1208553491 -1.2355225148
| 24> H 0.1137936321 2.4556482508 -0.3663075928
| 25> H 2.502197107 2.1273916496 0.111243514
| 26> H 3.3794168776 -0.1615621615 0.4606558102
| 27> H 1.8346694852 -2.0937710623 0.3234810071
| 28> H -1.5583101021 -1.7996685356 -0.3871987948
| 29> *
| 30>
| 31>                          ****END OF INPUT****

CARTESIAN COORDINATES (ANGSTROEM)
---------------------------------
  C     -2.641985    0.616096    0.760682
  C     -1.846653    0.627792   -0.548595
  C     -0.381644    0.385635   -0.294996
  C      0.497477    1.457115   -0.213881
  C      1.841842    1.275802    0.054868
  C      2.332749   -0.003749    0.250217
  C      1.478753   -1.086038    0.174897
  C      0.125763   -0.901469   -0.092154
  O     -0.649097   -2.023336   -0.140372
  H     -2.302252    1.420977    1.408246
  H     -2.506142   -0.321977    1.294281
  H     -3.701917    0.754398    0.562279
  H     -1.965409    1.600783   -1.027780
  H     -2.250979   -0.120855   -1.235523
  H      0.113794    2.455648   -0.366308
  H      2.502197    2.127392    0.111244
  H      3.379417   -0.161562    0.460656
  H      1.834669   -2.093771    0.323481
  H     -1.558310   -1.799669   -0.387199

 Total Charge           Charge          ....    0
 Multiplicity           Mult            ....    1
 Number of Electrons    NEL             ....   66
 Basis Dimension        Dim             ....  226

ORBITAL ENERGIES
----------------

  NO   OCC          E(Eh)            E(eV)
   0   2.0000     -18.983101      -516.5565
   1   2.0000     -10.094046      -274.6729
   2   2.0000     -10.038700      -273.1669
   3   2.0000     -10.031596      -272.9736
   4   2.0000     -10.031451      -272.9697
   5   2.0000     -10.030134      -272.9338
   6   2.0000     -10.028311      -272.8842
   7   2.0000     -10.024420      -272.7783
   8   2.0000     -10.015122      -272.5253
   9   2.0000      -1.026153       -27.9230
  10   2.0000      -0.824548       -22.4371
  11   2.0000      -0.755579       -20.5603
  12   2.0000      -0.709526       -19.3072
  13   2.0000      -0.688869       -18.7451
  14   2.0000      -0.604922       -16.4608
  15   2.0000      -0.572305       -15.5732
  16   2.0000      -0.561211       -15.2713
  17   2.0000      -0.504060       -13.7162
  18   2.0000      -0.462768       -12.5926
  19   2.0000      -0.436526       -11.8785
  20   2.0000      -0.410424       -11.1682
  21   2.0000      -0.398536       -10.8447
  22   2.0000      -0.390115       -10.6156
  23   2.0000      -0.382405       -10.4058
  24   2.0000      -0.359039        -9.7699
  25   2.0000      -0.351788        -9.5726
  26   2.0000      -0.336520        -9.1572
  27   2.0000      -0.322128        -8.7656
  28   2.0000      -0.313622        -8.5341
  29   2.0000      -0.301984        -8.2174
  30   2.0000      -0.294350        -8.0097
  31   2.0000      -0.232267        -6.3203
  32   2.0000      -0.205324        -5.5871
  33   0.0000      -0.030736        -0.8364
  34   0.0000      -0.017070        -0.4645
  35   0.0000       0.063002         1.7144
  36   0.0000       0.095122         2.5884
  37   0.0000       0.107846         2.9346

MULLIKEN ATOMIC CHARGES
-----------------------
   0 C :   -0.496523
   1 C :   -0.297884
   2 C :   -0.019785
   3 C :   -0.227060
   4 C :   -0.232647
   5 C :   -0.167265
   6 C :   -0.330045
   7 C :    0.327846
   8 O :   -0.461845
   9 H :    0.159667
  10 H :    0.162084
  11 H :    0.164375
  12 H :    0.170187
  13 H :    0.162432
  14 H :    0.179471
  15 H :    0.175475
  16 H :    0.179852
  17 H :    0.182767
  18 H :    0.368898
Sum of atomic charges:   -0.0000000

LOEWDIN ATOMIC CHARGES
----------------------
   0 C :   -0.409793
   1 C :   -0.284171
   2 C :   -0.096207
   3 C :   -0.161924
   4 C :   -0.203422
   5 C :   -0.174912
   6 C :   -0.157973
   7 C :    0.176753
   8 O :   -0.519645
   9 H :    0.156698
  10 H :    0.156353
  11 H :    0.155844
  12 H :    0.171711
  13 H :    0.166598
  14 H :    0.180718
  15 H :    0.175851
  16 H :    0.177796
  17 H :    0.187176
  18 H :    0.302547

  Mayer bond orders larger than 0.100000
B(  0-C ,  1-C ) :   0.9016 B(  0-C ,  9-H ) :   0.9759 B(  0-C , 10-H ) :   0.9769
B(  0-C , 11-H ) :   0.9701 B(  1-C ,  2-C ) :   0.8297 B(  1-C , 12-H ) :   0.9678
B(  1-C , 13-H ) :   0.9851 B(  2-C ,  3-C ) :   1.3393 B(  2-C ,  7-C ) :   1.3912
B(  3-C ,  4-C ) :   1.4052 B(  3-C , 14-H ) :   0.9491 B(  4-C ,  5-C ) :   1.3785
B(  4-C , 15-H ) :   0.9583 B(  5-C ,  6-C ) :   1.3679 B(  5-C , 16-H ) :   0.9552
B(  6-C ,  7-C ) :   1.3392 B(  6-C , 17-H ) :   0.9617 B(  7-C ,  8-O ) :   0.9406
B(  8-O , 18-H ) :   0.8410

Dispersion correction           -0.006282847
FINAL SINGLE POINT ENERGY      -386.009470911577

DIPOLE MOMENT
-------------

Method             : SCF
Type of density    : Electron Density
Multiplicity       :   1
Irrep              :   0
Energy             :  -386.0101662830847999 Eh
Relativity type    :
Basis              : AO
                                X                 Y                 Z
Electronic contribution:      5.172406307      -3.129407260      -1.275143299
Nuclear contribution   :     -6.065435142       3.592624689       1.070600555
                        -----------------------------------------
Total Dipole Moment    :     -0.893028834       0.463217429      -0.204542743
                        -----------------------------------------
Magnitude (a.u.)       :      1.026600516
Magnitude (Debye)      :      2.609411138

Rotational constants in cm-1:             0.088656             0.048445             0.033973
Rotational constants in MHz :          2657.827816          1452.338060          1018.490543

                             ****ORCA TERMINATED NORMALLY****
TOTAL RUN TIME: 0 days 0 hours 0 minutes 33 seconds 536 msec
