                         Program Version 6.0.0  -   RELEASE  -
|  1> ! r2scan-3c def2/J RI DEFGRID2 scfconv6 printgap
|  2> %output
|  3>     printlevel normal
|  4> end
|  5> * xyz 0 1
|  6> C -1.8941730666 8.6584e-06 -0.7901184945
|  7> N -1.1010511344 -4.15239e-05 0.4215465303
|  8> C -0.2919402939 1.1942807584 0.5941578873
|  9> C 0.9428749499 1.2489393407 -0.314634209
| 10> C 1.7948857015 5.41909e-05 -0.099313696
| 11> C 0.9428958804 -1.2488587558 -0.3145107335
| 12> C -0.2921005318 -1.1943793978 0.5940863032
| 13> H -2.5307337435 0.8839119605 -0.7870695361
| 14> H -2.5301787801 -0.8843388885 -0.7874807865
| 15> H -1.3069875348 0.00030812 -1.71892509
| 16> H -0.9278918292 2.065866043 0.4239341703
| 17> H 0.0354617094 1.2102628315 1.6390393478
| 18> H 0.629373937 1.3051542881 -1.3593115531
| 19> H 1.5190576306 2.147216361 -0.0887725697
| 20> H 2.6477312276 0.0001536634 -0.7816388346
| 21> H 2.1804838101 4.01202e-05 0.9233680566
| 22> H 0.6294137901 -1.3051654689 -1.3591646227
| 23> H 1.5189680096 -2.1471717649 -0.0884713315
| 24> H -0.928140246 -2.065917256 0.4238967452
| 25> H 0.0353185759 -1.2102767668 1.6389303496
| 26> *
| 27>
| 28>                          ****END OF INPUT****

CARTESIAN COORDINATES (ANGSTROEM)
---------------------------------
  C     -1.894173    0.000009   -0.790118
  N     -1.101051   -0.000042    0.421547
  C     -0.291940    1.194281    0.594158
  C      0.942875    1.248939   -0.314634
  C      1.794886    0.000054   -0.099314
  C      0.942896   -1.248859   -0.314511
  C     -0.292101   -1.194379    0.594086
  H     -2.530734    0.883912   -0.787070
  H     -2.530179   -0.884339   -0.787481
  H     -1.306988    0.000308   -1.718925
  H     -0.927892    2.065866    0.423934
  H      0.035462    1.210263    1.639039
  H      0.629374    1.305154   -1.359312
  H      1.519058    2.147216   -0.088773
  H      2.647731    0.000154   -0.781639
  H      2.180484    0.000040    0.923368
  H      0.629414   -1.305165   -1.359165
  H      1.518968   -2.147172   -0.088471
  H     -0.928140   -2.065917    0.423897
  H      0.035319   -1.210277    1.638930

 Total Charge           Charge          ....    0
 Multiplicity           Mult            ....    1
 Number of Electrons    NEL             ....   56
 Basis Dimension        Dim             ....  203

ORBITAL ENERGIES
----------------

  NO   OCC          E(Eh)            E(eV)
   0   2.0000     -14.141549      -384.8111
   1   2.0000     -10.044688      -273.3299
   2   2.0000     -10.044677      -273.3296
   3   2.0000     -10.040442      -273.2143
   4   2.0000     -10.022749      -272.7329
   5   2.0000     -10.019953      -272.6568
   6   2.0000     -10.019941      -272.6564
   7   2.0000      -0.888724       -24.1834
   8   2.0000      -0.755936       -20.5701
   9   2.0000      -0.713186       -19.4068
  10   2.0000      -0.661150       -17.9908
  11   2.0000      -0.587410       -15.9842
  12   2.0000      -0.575803       -15.6684
  13   2.0000      -0.514432       -13.9984
  14   2.0000      -0.453731       -12.3467
  15   2.0000      -0.434094       -11.8123
  16   2.0000      -0.415803       -11.3146
  17   2.0000      -0.406985       -11.0746
  18   2.0000      -0.381010       -10.3678
  19   2.0000      -0.378161       -10.2903
  20   2.0000      -0.348513        -9.4835
  21   2.0000      -0.336438        -9.1549
  22   2.0000      -0.329314        -8.9611
  23   2.0000      -0.308431        -8.3928
  24   2.0000      -0.308296        -8.3891
  25   2.0000      -0.287959        -7.8358
  26   2.0000      -0.279934        -7.6174
  27   2.0000      -0.168616        -4.5883
  28   0.0000       0.080587         2.1929
  29   0.0000       0.105873         2.8810
  30   0.0000       0.112767         3.0685
  31   0.0000       0.114346         3.1115
  32   0.0000       0.119085         3.2405

MULLIKEN ATOMIC CHARGES
-----------------------
   0 C :   -0.360071
   1 N :   -0.132293
   2 C :   -0.290691
   3 C :   -0.288532
   4 C :   -0.287120
   5 C :   -0.288544
   6 C :   -0.290702
   7 H :    0.147654
   8 H :    0.147634
   9 H :    0.131440
  10 H :    0.145149
  11 H :    0.158978
  12 H :    0.154915
  13 H :    0.146484
  14 H :    0.147824
  15 H :    0.152360
  16 H :    0.154907
  17 H :    0.146483
  18 H :    0.145152
  19 H :    0.158976
Sum of atomic charges:   -0.0000000

LOEWDIN ATOMIC CHARGES
----------------------
   0 C :   -0.144781
   1 N :   -0.992940
   2 C :   -0.058298
   3 C :   -0.291227
   4 C :   -0.302426
   5 C :   -0.291217
   6 C :   -0.058297
   7 H :    0.174337
   8 H :    0.174344
   9 H :    0.146090
  10 H :    0.177636
  11 H :    0.177913
  12 H :    0.155641
  13 H :    0.156243
  14 H :    0.154112
  15 H :    0.155437
  16 H :    0.155635
  17 H :    0.156242
  18 H :    0.177645
  19 H :    0.177912

  Mayer bond orders larger than 0.100000
B(  0-C ,  1-N ) :   0.9186 B(  0-C ,  7-H ) :   0.9743 B(  0-C ,  8-H ) :   0.9743
B(  0-C ,  9-H ) :   0.9408 B(  1-N ,  2-C ) :   0.9598 B(  1-N ,  6-C ) :   0.9597
B(  2-C ,  3-C ) :   0.8552 B(  2-C , 10-H ) :   0.9643 B(  2-C , 11-H ) :   0.9921
B(  3-C ,  4-C ) :   0.8905 B(  3-C , 12-H ) :   0.9930 B(  3-C , 13-H ) :   0.9518
B(  4-C ,  5-C ) :   0.8905 B(  4-C , 14-H ) :   0.9525 B(  4-C , 15-H ) :   0.9995
B(  5-C ,  6-C ) :   0.8552 B(  5-C , 16-H ) :   0.9930 B(  5-C , 17-H ) :   0.9518
B(  6-C , 18-H ) :   0.9643 B(  6-C , 19-H ) :   0.9922

Dispersion correction           -0.005955059
FINAL SINGLE POINT ENERGY      -291.106506697742

DIPOLE MOMENT
-------------

Method             : SCF
Type of density    : Electron Density
Multiplicity       :   1
Irrep              :   0
Energy             :  -291.1158302631323522 Eh
Relativity type    :
Basis              : AO
                                X                 Y                 Z
Electronic contribution:     -0.693028339       0.000019010       1.569863237
Nuclear contribution   :      0.905757240       0.000040341      -1.800532003
                        -----------------------------------------
Total Dipole Moment    :      0.212728900       0.000059351      -0.230668766
                        -----------------------------------------
Magnitude (a.u.)       :      0.313786023
Magnitude (Debye)      :      0.797580686

Rotational constants in cm-1:             0.126031             0.087783             0.066507
Rotational constants in MHz :          3778.311462          2631.673570          1993.840436

                             ****ORCA TERMINATED NORMALLY****
TOTAL RUN TIME: 0 days 0 hours 0 minutes 20 seconds 288 msec
