                         Program Version 6.0.0  -   RELEASE  -
|  1> ! r2scan-3c def2/J RI DEFGRID2 scfconv6 printgap
|  2> %output
|  3>     printlevel normal
|  4> end
|  5> %cpcm
|  6>     smd true
|  7>     smdsolvent "water"
|  8> end
|  9> * xyz 0 1
| 10> C -1.8941730666 8.6584e-06 -0.7901184945
| 11> N -1.1010511344 -4.15239e-05 0.4215465303
| 12> C -0.2919402939 1.1942807584 0.5941578873
| 13> C 0.9428749499 1.2489393407 -0.314634209
| 14> C 1.7948857015 5.41909e-05 -0.099313696
| 15> C 0.9428958804 -1.2488587558 -0.3145107335
| 16> C -0.2921005318 -1.1943793978 0.5940863032
| 17> H -2.5307337435 0.8839119605 -0.7870695361
| 18> H -2.5301787801 -0.8843388885 -0.7874807865
| 19> H -1.3069875348 0.00030812 -1.71892509
| 20> H -0.9278918292 2.065866043 0.4239341703
| 21> H 0.0354617094 1.2102628315 1.6390393478
| 22> H 0.629373937 1.3051542881 -1.3593115531
| 23> H 1.5190576306 2.147216361 -0.0887725697
| 24> H 2.6477312276 0.0001536634 -0.7816388346
| 25> H 2.1804838101 4.01202e-05 0.9233680566
| 26> H 0.6294137901 -1.3051654689 -1.3591646227
| 27> H 1.5189680096 -2.1471717649 -0.0884713315
| 28> H -0.928140246 -2.065917256 0.4238967452
| 29> H 0.0353185759 -1.2102767668 1.6389303496
| 30> *
| 31>
| 32>                          ****END OF INPUT****

CARTESIAN COORDINATES (ANGSTROEM)
---------------------------------
  C     -1.894173    0.000009   -0.790118
  N     -1.101051   -0.000042    0.421547
  C     -0.291940    1.194281    0.594158
  C      0.942875    1.248939   -0.314634
  C      1.794886    0.000054   -0.099314
  C      0.942896   -1.248859   -0.314511
  C     -0.292101   -1.194379    0.594086
  H     -2.530734    0.883912   -0.787070
  H     -2.530179   -0.884339   -0.787481
  H     -1.306988    0.000308   -1.718925
  H     -0.927892    2.065866    0.423934
  H      0.035462    1.210263    1.639039
  H      0.629374    1.305154   -1.359312
  H      1.519058    2.147216   -0.088773
  H      2.647731    0.000154   -0.781639
  H      2.180484    0.000040    0.923368
  H      0.629414   -1.305165   -1.359165
  H      1.518968   -2.147172   -0.088471
  H     -0.928140   -2.065917    0.423897
  H      0.035319   -1.210277    1.638930

 Total Charge           Charge          ....    0
 Multiplicity           Mult            ....    1
 Number of Electrons    NEL             ....   56
 Basis Dimension        Dim             ....  203

ORBITAL ENERGIES
----------------

  NO   OCC          E(Eh)            E(eV)
   0   2.0000     -14.140254      -384.7759
   1   2.0000     -10.037957      -273.1467
   2   2.0000     -10.037946      -273.1464
   3   2.0000     -10.032790      -273.0061
   4   2.0000     -10.013982      -272.4943
   5   2.0000     -10.011464      -272.4258
   6   2.0000     -10.011453      -272.4255
   7   2.0000      -0.884853       -24.0781
   8   2.0000      -0.748313       -20.3626
   9   2.0000      -0.706179       -19.2161
  10   2.0000      -0.654936       -17.8217
  11   2.0000      -0.580865       -15.8061
  12   2.0000      -0.568532       -15.4705
  13   2.0000      -0.507034       -13.7971
  14   2.0000      -0.447269       -12.1708
  15   2.0000      -0.427292       -11.6272
  16   2.0000      -0.407954       -11.1010
  17   2.0000      -0.400752       -10.9050
  18   2.0000      -0.373933       -10.1752
  19   2.0000      -0.370582       -10.0841
  20   2.0000      -0.340902        -9.2764
  21   2.0000      -0.329554        -8.9676
  22   2.0000      -0.322613        -8.7787
  23   2.0000      -0.300793        -8.1850
  24   2.0000      -0.300721        -8.1830
  25   2.0000      -0.279585        -7.6079
  26   2.0000      -0.272221        -7.4075
  27   2.0000      -0.168033        -4.5724
  28   0.0000       0.087135         2.3711
  29   0.0000       0.111510         3.0344
  30   0.0000       0.120155         3.2696
  31   0.0000       0.122407         3.3309
  32   0.0000       0.126363         3.4385

MULLIKEN ATOMIC CHARGES
-----------------------
   0 C :   -0.390510
   1 N :   -0.173441
   2 C :   -0.295677
   3 C :   -0.305555
   4 C :   -0.306303
   5 C :   -0.305573
   6 C :   -0.295682
   7 H :    0.161176
   8 H :    0.161175
   9 H :    0.146307
  10 H :    0.158451
  11 H :    0.166093
  12 H :    0.164385
  13 H :    0.155467
  14 H :    0.154729
  15 H :    0.160581
  16 H :    0.164369
  17 H :    0.155461
  18 H :    0.158466
  19 H :    0.166080
Sum of atomic charges:   -0.0000000

LOEWDIN ATOMIC CHARGES
----------------------
   0 C :   -0.150252
   1 N :   -1.016226
   2 C :   -0.061857
   3 C :   -0.292286
   4 C :   -0.305407
   5 C :   -0.292280
   6 C :   -0.061854
   7 H :    0.177738
   8 H :    0.177753
   9 H :    0.152945
  10 H :    0.181448
  11 H :    0.179975
  12 H :    0.158891
  13 H :    0.158862
  14 H :    0.155594
  15 H :    0.157785
  16 H :    0.158881
  17 H :    0.158858
  18 H :    0.181461
  19 H :    0.179972

  Mayer bond orders larger than 0.100000
B(  0-C ,  1-N ) :   0.9203 B(  0-C ,  7-H ) :   0.9698 B(  0-C ,  8-H ) :   0.9698
B(  0-C ,  9-H ) :   0.9398 B(  1-N ,  2-C ) :   0.9661 B(  1-N ,  6-C ) :   0.9661
B(  2-C ,  3-C ) :   0.8595 B(  2-C , 10-H ) :   0.9593 B(  2-C , 11-H ) :   0.9868
B(  3-C ,  4-C ) :   0.8902 B(  3-C , 12-H ) :   0.9899 B(  3-C , 13-H ) :   0.9509
B(  4-C ,  5-C ) :   0.8902 B(  4-C , 14-H ) :   0.9520 B(  4-C , 15-H ) :   0.9975
B(  5-C ,  6-C ) :   0.8595 B(  5-C , 16-H ) :   0.9899 B(  5-C , 17-H ) :   0.9509
B(  6-C , 18-H ) :   0.9593 B(  6-C , 19-H ) :   0.9868

Dispersion correction           -0.005955059
FINAL SINGLE POINT ENERGY      -291.111855407931

DIPOLE MOMENT
-------------

Method             : SCF
Type of density    : Electron Density
Multiplicity       :   1
Irrep              :   0
Energy             :  -291.1211789733213777 Eh
Relativity type    :
Basis              : AO
                                X                 Y                 Z
Electronic contribution:     -0.590145383       0.000021973       1.440353201
Nuclear contribution   :      0.905757240       0.000040341      -1.800532003
                        -----------------------------------------
Total Dipole Moment    :      0.315611857       0.000062315      -0.360178802
                        -----------------------------------------
Magnitude (a.u.)       :      0.478894161
Magnitude (Debye)      :      1.217252221

Rotational constants in cm-1:             0.126031             0.087783             0.066507
Rotational constants in MHz :          3778.311462          2631.673570          1993.840436

                             ****ORCA TERMINATED NORMALLY****
TOTAL RUN TIME: 0 days 0 hours 0 minutes 24 seconds 410 msec
