                         Program Version 6.0.0  -   RELEASE  -
|  1> ! wb97x-v def2-tzvp def2/J RIJCOSX DEFGRID2 scfconv7 GCP(DFT/TZ) printgap
|  2> %output
|  3>     printlevel normal
|  4> end
|  5> * xyz 0 1
|  6> C -2.5880932872172298 -0.6075802694386218 -0.3198052580001211
|  7> C -1.2094471618484932 -0.2683251249854225 0.2100429582516495
|  8> H -1.228967251858554 -0.2406217823859828 1.3117443238869846
|  9> C -0.6946307220637956 1.0675198313838412 -0.32478324903585437
| 10> H -0.7154537161464046 1.0442268505576773 -1.4260951517961384
| 11> C 0.7386625563431101 1.2901289330544459 0.13960273491025899
| 12> H 0.7359945848902264 1.410443033658954 1.234558630895868
| 13> C 1.619843391462014 0.10079474599752561 -0.21635842119020557
| 14> H 1.703428635651699 0.01378337483810231 -1.3100491447627483
| 15> C 0.987002825579147 -1.1798992790680656 0.31976579256223825
| 16> H 0.9190467060861344 -1.1527915782427465 1.4198312784651381
| 17> O -0.3293990335130768 -1.3165477035792725 -0.23153512956423075
| 18> O 1.7542434270043117 -2.2697456033634116 -0.11694860823317857
| 19> O 2.9014003710074907 0.3304320854095399 0.37489317143392054
| 20> O 1.2011261535470654 2.494902260090278 -0.48328164300860266
| 21> O -1.5542198921014887 2.099161198735481 0.16845705055177537
| 22> O -3.0943602478112933 -1.8224200794993426 0.2451688643480572
| 23> H -2.5489474378103547 -0.6730541200677357 -1.4169223415730166
| 24> H -3.2889187133340925 0.1827993888965044 -0.04193374591426128
| 25> H 1.5592093146976154 -3.0270365856351633 0.45120555694875913
| 26> H 3.5121684982925077 -0.32370168059386395 0.010302905491065823
| 27> H 2.03407495594688 2.742326075217765 -0.06035430043762458
| 28> H -1.1674984760394505 2.942957295954535 -0.10345012119092528
| 29> H -2.492468325493901 -2.5313359044699153 -0.017923020507130013
| 30> *
| 31>
| 32>                          ****END OF INPUT****

CARTESIAN COORDINATES (ANGSTROEM)
---------------------------------
  C     -2.588093   -0.607580   -0.319805
  C     -1.209447   -0.268325    0.210043
  H     -1.228967   -0.240622    1.311744
  C     -0.694631    1.067520   -0.324783
  H     -0.715454    1.044227   -1.426095
  C      0.738663    1.290129    0.139603
  H      0.735995    1.410443    1.234559
  C      1.619843    0.100795   -0.216358
  H      1.703429    0.013783   -1.310049
  C      0.987003   -1.179899    0.319766
  H      0.919047   -1.152792    1.419831
  O     -0.329399   -1.316548   -0.231535
  O      1.754243   -2.269746   -0.116949
  O      2.901400    0.330432    0.374893
  O      1.201126    2.494902   -0.483282
  O     -1.554220    2.099161    0.168457
  O     -3.094360   -1.822420    0.245169
  H     -2.548947   -0.673054   -1.416922
  H     -3.288919    0.182799   -0.041934
  H      1.559209   -3.027037    0.451206
  H      3.512168   -0.323702    0.010303
  H      2.034075    2.742326   -0.060354
  H     -1.167498    2.942957   -0.103450
  H     -2.492468   -2.531336   -0.017923

 Total Charge           Charge          ....    0
 Multiplicity           Mult            ....    1
 Number of Electrons    NEL             ....   96
 Basis Dimension        Dim             ....  444

ORBITAL ENERGIES
----------------

  NO   OCC          E(Eh)            E(eV)
   0   2.0000     -21.704415      -590.6071
   1   2.0000     -21.695465      -590.3636
   2   2.0000     -21.691883      -590.2661
   3   2.0000     -21.688818      -590.1828
   4   2.0000     -21.681237      -589.9764
   5   2.0000     -21.668870      -589.6399
   6   2.0000     -12.164658      -331.0172
   7   2.0000     -12.113816      -329.6337
   8   2.0000     -12.112510      -329.5982
   9   2.0000     -12.110657      -329.5477
  10   2.0000     -12.109176      -329.5074
  11   2.0000     -12.092349      -329.0495
  12   2.0000      -1.731727       -47.1227
  13   2.0000      -1.697100       -46.1804
  14   2.0000      -1.692001       -46.0417
  15   2.0000      -1.687896       -45.9300
  16   2.0000      -1.681191       -45.7475
  17   2.0000      -1.668442       -45.4006
  18   2.0000      -1.342289       -36.5255
  19   2.0000      -1.327675       -36.1279
  20   2.0000      -1.237755       -33.6810
  21   2.0000      -1.205088       -32.7921
  22   2.0000      -1.168976       -31.8095
  23   2.0000      -1.125204       -30.6184
  24   2.0000      -1.096340       -29.8329
  25   2.0000      -1.072825       -29.1931
  26   2.0000      -1.053086       -28.6559
  27   2.0000      -1.041925       -28.3522
  28   2.0000      -1.040666       -28.3180
  29   2.0000      -1.025415       -27.9029
  30   2.0000      -1.002454       -27.2782
  31   2.0000      -0.992952       -27.0196
  32   2.0000      -0.976791       -26.5798
  33   2.0000      -0.974498       -26.5174
  34   2.0000      -0.961743       -26.1703
  35   2.0000      -0.950391       -25.8614
  36   2.0000      -0.943540       -25.6750
  37   2.0000      -0.933299       -25.3964
  38   2.0000      -0.928599       -25.2685
  39   2.0000      -0.908214       -24.7138
  40   2.0000      -0.903536       -24.5865
  41   2.0000      -0.889388       -24.2015
  42   2.0000      -0.850179       -23.1345
  43   2.0000      -0.832118       -22.6431
  44   2.0000      -0.825245       -22.4561
  45   2.0000      -0.812134       -22.0993
  46   2.0000      -0.797232       -21.6938
  47   2.0000      -0.773345       -21.0438
  48   0.0000      -0.243481        -6.6255
  49   0.0000      -0.200961        -5.4684
  50   0.0000      -0.182639        -4.9699
  51   0.0000      -0.153606        -4.1798
  52   0.0000      -0.123058        -3.3486

MULLIKEN ATOMIC CHARGES
-----------------------
   0 C :   -0.011269
   1 C :    0.029639
   2 H :    0.079401
   3 C :    0.095170
   4 H :    0.081189
   5 C :    0.039443
   6 H :    0.093028
   7 C :    0.069240
   8 H :    0.089160
   9 C :    0.071524
  10 H :    0.074230
  11 O :   -0.282154
  12 O :   -0.412187
  13 O :   -0.452858
  14 O :   -0.458977
  15 O :   -0.446560
  16 O :   -0.452276
  17 H :    0.089475
  18 H :    0.124020
  19 H :    0.317603
  20 H :    0.318689
  21 H :    0.320943
  22 H :    0.317942
  23 H :    0.305584
Sum of atomic charges:   -0.0000000

LOEWDIN ATOMIC CHARGES
----------------------
   0 C :   -0.305798
   1 C :   -0.300574
   2 H :    0.144050
   3 C :   -0.299887
   4 H :    0.144600
   5 C :   -0.311637
   6 H :    0.145778
   7 C :   -0.313474
   8 H :    0.146620
   9 C :   -0.410583
  10 H :    0.123980
  11 O :    0.179729
  12 O :    0.013165
  13 O :   -0.015814
  14 O :   -0.017864
  15 O :   -0.010406
  16 O :   -0.051241
  17 H :    0.121225
  18 H :    0.137219
  19 H :    0.179479
  20 H :    0.177525
  21 H :    0.177855
  22 H :    0.177479
  23 H :    0.168575

  Mayer bond orders larger than 0.100000
B(  0-C ,  1-C ) :   0.9851 B(  0-C , 16-O ) :   1.0147 B(  0-C , 17-H ) :   0.9704
B(  0-C , 18-H ) :   0.9647 B(  1-C ,  2-H ) :   0.9573 B(  1-C ,  3-C ) :   0.9490
B(  1-C , 11-O ) :   0.9666 B(  3-C ,  4-H ) :   0.9512 B(  3-C ,  5-C ) :   0.9571
B(  3-C , 15-O ) :   1.0791 B(  5-C ,  6-H ) :   0.9734 B(  5-C ,  7-C ) :   0.9465
B(  5-C , 14-O ) :   1.0768 B(  7-C ,  8-H ) :   0.9653 B(  7-C ,  9-C ) :   0.9310
B(  7-C , 13-O ) :   1.1138 B(  9-C , 10-H ) :   0.9832 B(  9-C , 11-O ) :   1.0203
B(  9-C , 12-O ) :   1.2039 B( 12-O , 19-H ) :   0.8919 B( 13-O , 20-H ) :   0.8885
B( 14-O , 21-H ) :   0.8876 B( 15-O , 22-H ) :   0.8837 B( 16-O , 23-H ) :   0.8956

FINAL SINGLE POINT ENERGY      -687.252658477839

DIPOLE MOMENT
-------------

Method             : SCF
Type of density    : Electron Density
Multiplicity       :   1
Irrep              :   0
Energy             :  -687.2713563649393791 Eh
Relativity type    :
Basis              : AO
                                X                 Y                 Z
Electronic contribution:      1.992258863      -0.735282384      -0.076243839
Nuclear contribution   :     -0.860828512       0.515552205       0.232368747
                        -----------------------------------------
Total Dipole Moment    :      1.131430351      -0.219730179       0.156124908
                        -----------------------------------------
Magnitude (a.u.)       :      1.163095429
Magnitude (Debye)      :      2.956353636

Rotational constants in cm-1:             0.038866             0.026026             0.016311
Rotational constants in MHz :          1165.181957           780.239910           488.994987

                             ****ORCA TERMINATED NORMALLY****
TOTAL RUN TIME: 0 days 0 hours 4 minutes 44 seconds 231 msec
