                         Program Version 6.0.0  -   RELEASE  -
|  1> ! wb97x-v def2-tzvp def2/J RIJCOSX DEFGRID2 scfconv7 GCP(DFT/TZ) printgap
|  2> %output
|  3>     printlevel normal
|  4> end
|  5> %cpcm
|  6>     smd true
|  7>     smdsolvent "water"
|  8> end
|  9> * xyz 0 1
| 10> C -2.5880932872172298 -0.6075802694386218 -0.3198052580001211
| 11> C -1.2094471618484932 -0.2683251249854225 0.2100429582516495
| 12> H -1.228967251858554 -0.2406217823859828 1.3117443238869846
| 13> C -0.6946307220637956 1.0675198313838412 -0.32478324903585437
| 14> H -0.7154537161464046 1.0442268505576773 -1.4260951517961384
| 15> C 0.7386625563431101 1.2901289330544459 0.13960273491025899
| 16> H 0.7359945848902264 1.410443033658954 1.234558630895868
| 17> C 1.619843391462014 0.10079474599752561 -0.21635842119020557
| 18> H 1.703428635651699 0.01378337483810231 -1.3100491447627483
| 19> C 0.987002825579147 -1.1798992790680656 0.31976579256223825
| 20> H 0.9190467060861344 -1.1527915782427465 1.4198312784651381
| 21> O -0.3293990335130768 -1.3165477035792725 -0.23153512956423075
| 22> O 1.7542434270043117 -2.2697456033634116 -0.11694860823317857
| 23> O 2.9014003710074907 0.3304320854095399 0.37489317143392054
| 24> O 1.2011261535470654 2.494902260090278 -0.48328164300860266
| 25> O -1.5542198921014887 2.099161198735481 0.16845705055177537
| 26> O -3.0943602478112933 -1.8224200794993426 0.2451688643480572
| 27> H -2.5489474378103547 -0.6730541200677357 -1.4169223415730166
| 28> H -3.2889187133340925 0.1827993888965044 -0.04193374591426128
| 29> H 1.5592093146976154 -3.0270365856351633 0.45120555694875913
| 30> H 3.5121684982925077 -0.32370168059386395 0.010302905491065823
| 31> H 2.03407495594688 2.742326075217765 -0.06035430043762458
| 32> H -1.1674984760394505 2.942957295954535 -0.10345012119092528
| 33> H -2.492468325493901 -2.5313359044699153 -0.017923020507130013
| 34> *
| 35>
| 36>                          ****END OF INPUT****

CARTESIAN COORDINATES (ANGSTROEM)
---------------------------------
  C     -2.588093   -0.607580   -0.319805
  C     -1.209447   -0.268325    0.210043
  H     -1.228967   -0.240622    1.311744
  C     -0.694631    1.067520   -0.324783
  H     -0.715454    1.044227   -1.426095
  C      0.738663    1.290129    0.139603
  H      0.735995    1.410443    1.234559
  C      1.619843    0.100795   -0.216358
  H      1.703429    0.013783   -1.310049
  C      0.987003   -1.179899    0.319766
  H      0.919047   -1.152792    1.419831
  O     -0.329399   -1.316548   -0.231535
  O      1.754243   -2.269746   -0.116949
  O      2.901400    0.330432    0.374893
  O      1.201126    2.494902   -0.483282
  O     -1.554220    2.099161    0.168457
  O     -3.094360   -1.822420    0.245169
  H     -2.548947   -0.673054   -1.416922
  H     -3.288919    0.182799   -0.041934
  H      1.559209   -3.027037    0.451206
  H      3.512168   -0.323702    0.010303
  H      2.034075    2.742326   -0.060354
  H     -1.167498    2.942957   -0.103450
  H     -2.492468   -2.531336   -0.017923

 Total Charge           Charge          ....    0
 Multiplicity           Mult            ....    1
 Number of Electrons    NEL             ....   96
 Basis Dimension        Dim             ....  444

ORBITAL ENERGIES
----------------

  NO   OCC          E(Eh)            E(eV)
   0   2.0000     -21.692313      -590.2779
   1   2.0000     -21.691654      -590.2599
   2   2.0000     -21.683852      -590.0476
   3   2.0000     -21.682359      -590.0070
   4   2.0000     -21.681781      -589.9912
   5   2.0000     -21.677265      -589.8684
   6   2.0000     -12.151474      -330.6584
   7   2.0000     -12.104337      -329.3757
   8   2.0000     -12.103494      -329.3528
   9   2.0000     -12.102665      -329.3303
  10   2.0000     -12.101473      -329.2978
  11   2.0000     -12.091026      -329.0135
  12   2.0000      -1.723254       -46.8921
  13   2.0000      -1.690932       -46.0126
  14   2.0000      -1.686948       -45.9042
  15   2.0000      -1.681955       -45.7683
  16   2.0000      -1.678737       -45.6808
  17   2.0000      -1.675785       -45.6004
  18   2.0000      -1.334501       -36.3136
  19   2.0000      -1.320344       -35.9284
  20   2.0000      -1.232873       -33.5482
  21   2.0000      -1.197914       -32.5969
  22   2.0000      -1.166291       -31.7364
  23   2.0000      -1.119775       -30.4706
  24   2.0000      -1.087682       -29.5973
  25   2.0000      -1.065425       -28.9917
  26   2.0000      -1.046147       -28.4671
  27   2.0000      -1.041525       -28.3413
  28   2.0000      -1.037976       -28.2448
  29   2.0000      -1.020949       -27.7814
  30   2.0000      -0.997002       -27.1298
  31   2.0000      -0.989952       -26.9380
  32   2.0000      -0.974083       -26.5062
  33   2.0000      -0.972404       -26.4604
  34   2.0000      -0.962725       -26.1971
  35   2.0000      -0.949167       -25.8281
  36   2.0000      -0.945096       -25.7174
  37   2.0000      -0.927277       -25.2325
  38   2.0000      -0.925388       -25.1811
  39   2.0000      -0.909284       -24.7429
  40   2.0000      -0.900200       -24.4957
  41   2.0000      -0.881676       -23.9916
  42   2.0000      -0.845535       -23.0082
  43   2.0000      -0.830461       -22.5980
  44   2.0000      -0.820486       -22.3266
  45   2.0000      -0.804324       -21.8868
  46   2.0000      -0.789640       -21.4872
  47   2.0000      -0.765772       -20.8377
  48   0.0000      -0.236106        -6.4248
  49   0.0000      -0.192087        -5.2270
  50   0.0000      -0.174495        -4.7482
  51   0.0000      -0.150071        -4.0836
  52   0.0000      -0.116398        -3.1673

MULLIKEN ATOMIC CHARGES
-----------------------
   0 C :   -0.013091
   1 C :    0.051980
   2 H :    0.102573
   3 C :    0.076539
   4 H :    0.104621
   5 C :    0.091121
   6 H :    0.108729
   7 C :    0.071656
   8 H :    0.103208
   9 C :    0.077912
  10 H :    0.108553
  11 O :   -0.333329
  12 O :   -0.489185
  13 O :   -0.525982
  14 O :   -0.532787
  15 O :   -0.527904
  16 O :   -0.549431
  17 H :    0.118973
  18 H :    0.130044
  19 H :    0.377506
  20 H :    0.364985
  21 H :    0.365056
  22 H :    0.360430
  23 H :    0.357823
Sum of atomic charges:   -0.0000000

LOEWDIN ATOMIC CHARGES
----------------------
   0 C :   -0.307271
   1 C :   -0.297600
   2 H :    0.152494
   3 C :   -0.295927
   4 H :    0.151915
   5 C :   -0.305606
   6 H :    0.154117
   7 C :   -0.310729
   8 H :    0.151189
   9 C :   -0.402670
  10 H :    0.138127
  11 O :    0.161246
  12 O :   -0.011264
  13 O :   -0.039246
  14 O :   -0.042898
  15 O :   -0.039708
  16 O :   -0.088203
  17 H :    0.129490
  18 H :    0.136889
  19 H :    0.201435
  20 H :    0.193576
  21 H :    0.192763
  22 H :    0.191312
  23 H :    0.186570

  Mayer bond orders larger than 0.100000
B(  0-C ,  1-C ) :   0.9704 B(  0-C , 16-O ) :   0.9823 B(  0-C , 17-H ) :   0.9708
B(  0-C , 18-H ) :   0.9665 B(  1-C ,  2-H ) :   0.9496 B(  1-C ,  3-C ) :   0.9715
B(  1-C , 11-O ) :   0.9534 B(  3-C ,  4-H ) :   0.9502 B(  3-C ,  5-C ) :   0.9772
B(  3-C , 15-O ) :   1.0405 B(  5-C ,  6-H ) :   0.9560 B(  5-C ,  7-C ) :   0.9697
B(  5-C , 14-O ) :   1.0454 B(  7-C ,  8-H ) :   0.9558 B(  7-C ,  9-C ) :   0.9545
B(  7-C , 13-O ) :   1.0899 B(  9-C , 10-H ) :   0.9817 B(  9-C , 11-O ) :   1.0049
B(  9-C , 12-O ) :   1.1971 B( 12-O , 19-H ) :   0.8531 B( 13-O , 20-H ) :   0.8584
B( 14-O , 21-H ) :   0.8594 B( 15-O , 22-H ) :   0.8568 B( 16-O , 23-H ) :   0.8635

FINAL SINGLE POINT ENERGY      -687.288368736938

DIPOLE MOMENT
-------------

Method             : SCF
Type of density    : Electron Density
Multiplicity       :   1
Irrep              :   0
Energy             :  -687.3070666240383844 Eh
Relativity type    :
Basis              : AO
                                X                 Y                 Z
Electronic contribution:      2.316154815      -0.827514170       0.042339435
Nuclear contribution   :     -0.860828512       0.515552205       0.232368747
                        -----------------------------------------
Total Dipole Moment    :      1.455326304      -0.311961965       0.274708182
                        -----------------------------------------
Magnitude (a.u.)       :      1.513525521
Magnitude (Debye)      :      3.847076142

Rotational constants in cm-1:             0.038866             0.026026             0.016311
Rotational constants in MHz :          1165.181957           780.239910           488.994987

                             ****ORCA TERMINATED NORMALLY****
TOTAL RUN TIME: 0 days 0 hours 5 minutes 22 seconds 648 msec
