                         Program Version 6.0.0  -   RELEASE  -
|  1> ! pbe def2-sv(p) def2/J RI DEFGRID1 loosescf d4 GCP(DFT/SV(P)) printgap
|  2> %output
|  3>     printlevel normal
|  4> end
|  5> * xyz 0 1
|  6> C -2.3953583496 -0.7460378727 -0.0751350384
|  7> C -1.015334378 -0.2555232006 0.3811990048
|  8> H -1.1098279292 0.1130039882 1.4125429122
|  9> C -0.5159574701 0.8894432544 -0.50000605
| 10> H -0.4614878832 0.5328722481 -1.5404792447
| 11> C 0.8927799281 1.339292291 -0.0591792464
| 12> H 0.7891566576 2.0509044422 0.7682876029
| 13> C 1.7493458398 0.1509835512 0.442843186
| 14> H 2.7671914276 0.2795524585 0.0610414741
| 15> C 1.1789122888 -1.1669558604 -0.0960284324
| 16> H 1.750196845 -2.0099461499 0.319009289
| 17> O -0.1316823912 -1.3823463708 0.3676880577
| 18> O 1.260357501 -1.1363172672 -1.4865033536
| 19> O 1.8719922339 0.1104442801 1.8397161583
| 20> O 1.5309572908 2.0502421486 -1.0902861317
| 21> O -1.4437823433 1.9412023447 -0.3993267439
| 22> O -2.9307892278 -1.7044067281 0.7993141979
| 23> H -2.3139980621 -1.1515462189 -1.0919497315
| 24> H -3.0840707665 0.0998071043 -0.0786591747
| 25> H 1.0639139696 -2.0101383323 -1.8575549374
| 26> H 1.0554941398 -0.2248210429 2.2374059437
| 27> H 1.7021860566 1.4501666199 -1.8318238536
| 28> H -1.0999021735 2.7056175097 -0.8856093165
| 29> H -2.2933471312 -2.4287025146 0.8854789805
| 30> *
| 31>
| 32>                          ****END OF INPUT****

CARTESIAN COORDINATES (ANGSTROEM)
---------------------------------
  C     -2.395358   -0.746038   -0.075135
  C     -1.015334   -0.255523    0.381199
  H     -1.109828    0.113004    1.412543
  C     -0.515957    0.889443   -0.500006
  H     -0.461488    0.532872   -1.540479
  C      0.892780    1.339292   -0.059179
  H      0.789157    2.050904    0.768288
  C      1.749346    0.150984    0.442843
  H      2.767191    0.279552    0.061041
  C      1.178912   -1.166956   -0.096028
  H      1.750197   -2.009946    0.319009
  O     -0.131682   -1.382346    0.367688
  O      1.260358   -1.136317   -1.486503
  O      1.871992    0.110444    1.839716
  O      1.530957    2.050242   -1.090286
  O     -1.443782    1.941202   -0.399327
  O     -2.930789   -1.704407    0.799314
  H     -2.313998   -1.151546   -1.091950
  H     -3.084071    0.099807   -0.078659
  H      1.063914   -2.010138   -1.857555
  H      1.055494   -0.224821    2.237406
  H      1.702186    1.450167   -1.831824
  H     -1.099902    2.705618   -0.885609
  H     -2.293347   -2.428703    0.885479

 Total Charge           Charge          ....    0
 Multiplicity           Mult            ....    1
 Number of Electrons    NEL             ....   96
 Basis Dimension        Dim             ....  192

ORBITAL ENERGIES
----------------

  NO   OCC          E(Eh)            E(eV)
   0   2.0000     -18.785645      -511.1834
   1   2.0000     -18.785080      -511.1680
   2   2.0000     -18.759178      -510.4632
   3   2.0000     -18.755690      -510.3683
   4   2.0000     -18.754723      -510.3419
   5   2.0000     -18.742775      -510.0168
   6   2.0000      -9.999309      -272.0950
   7   2.0000      -9.949377      -270.7363
   8   2.0000      -9.947387      -270.6822
   9   2.0000      -9.944800      -270.6118
  10   2.0000      -9.941383      -270.5188
  11   2.0000      -9.928363      -270.1645
  12   2.0000      -0.996674       -27.1209
  13   2.0000      -0.945768       -25.7357
  14   2.0000      -0.936582       -25.4857
  15   2.0000      -0.934376       -25.4257
  16   2.0000      -0.921879       -25.0856
  17   2.0000      -0.914770       -24.8922
  18   2.0000      -0.709295       -19.3009
  19   2.0000      -0.695118       -18.9151
  20   2.0000      -0.622126       -16.9289
  21   2.0000      -0.595065       -16.1925
  22   2.0000      -0.571422       -15.5492
  23   2.0000      -0.536053       -14.5867
  24   2.0000      -0.513985       -13.9863
  25   2.0000      -0.494985       -13.4692
  26   2.0000      -0.471346       -12.8260
  27   2.0000      -0.460365       -12.5272
  28   2.0000      -0.452972       -12.3260
  29   2.0000      -0.436893       -11.8885
  30   2.0000      -0.423642       -11.5279
  31   2.0000      -0.401253       -10.9186
  32   2.0000      -0.386468       -10.5163
  33   2.0000      -0.374856       -10.2004
  34   2.0000      -0.363600        -9.8941
  35   2.0000      -0.359929        -9.7942
  36   2.0000      -0.347435        -9.4542
  37   2.0000      -0.317394        -8.6367
  38   2.0000      -0.306019        -8.3272
  39   2.0000      -0.297460        -8.0943
  40   2.0000      -0.281308        -7.6548
  41   2.0000      -0.271162        -7.3787
  42   2.0000      -0.270247        -7.3538
  43   2.0000      -0.250274        -6.8103
  44   2.0000      -0.241806        -6.5799
  45   2.0000      -0.233104        -6.3431
  46   2.0000      -0.214062        -5.8249
  47   2.0000      -0.202185        -5.5017
  48   0.0000       0.003405         0.0926
  49   0.0000       0.016761         0.4561
  50   0.0000       0.035795         0.9740
  51   0.0000       0.047772         1.2999
  52   0.0000       0.055190         1.5018

MULLIKEN ATOMIC CHARGES
-----------------------
   0 C :    0.089774
   1 C :   -0.018763
   2 H :    0.059570
   3 C :    0.081747
   4 H :    0.044710
   5 C :    0.069623
   6 H :    0.070017
   7 C :    0.049213
   8 H :    0.080115
   9 C :    0.131925
  10 H :    0.074357
  11 O :   -0.331858
  12 O :   -0.393402
  13 O :   -0.416779
  14 O :   -0.428083
  15 O :   -0.414207
  16 O :   -0.433233
  17 H :    0.054254
  18 H :    0.103543
  19 H :    0.311364
  20 H :    0.307678
  21 H :    0.303326
  22 H :    0.308370
  23 H :    0.296739
Sum of atomic charges:    0.0000000

LOEWDIN ATOMIC CHARGES
----------------------
   0 C :   -0.125310
   1 C :   -0.072453
   2 H :    0.105958
   3 C :   -0.083046
   4 H :    0.101344
   5 C :   -0.079935
   6 H :    0.122067
   7 C :   -0.083347
   8 H :    0.124094
   9 C :   -0.015416
  10 H :    0.102028
  11 O :   -0.158967
  12 O :   -0.311459
  13 O :   -0.305717
  14 O :   -0.315691
  15 O :   -0.317296
  16 O :   -0.336087
  17 H :    0.094878
  18 H :    0.124689
  19 H :    0.291921
  20 H :    0.284403
  21 H :    0.282939
  22 H :    0.290496
  23 H :    0.279908

  Mayer bond orders larger than 0.100000
B(  0-C ,  1-C ) :   1.0646 B(  0-C , 16-O ) :   1.0789 B(  0-C , 17-H ) :   0.9048
B(  0-C , 18-H ) :   0.9108 B(  1-C ,  2-H ) :   0.8674 B(  1-C ,  3-C ) :   1.0283
B(  1-C , 11-O ) :   0.9469 B(  3-C ,  4-H ) :   0.8376 B(  3-C ,  5-C ) :   1.0451
B(  3-C , 15-O ) :   1.0590 B(  5-C ,  6-H ) :   0.8611 B(  5-C ,  7-C ) :   0.9591
B(  5-C , 14-O ) :   1.0260 B(  7-C ,  8-H ) :   0.8790 B(  7-C ,  9-C ) :   1.0483
B(  7-C , 13-O ) :   1.0495 B(  9-C , 10-H ) :   0.8983 B(  9-C , 11-O ) :   1.0532
B(  9-C , 12-O ) :   1.1201 B( 12-O , 19-H ) :   0.8366 B( 13-O , 20-H ) :   0.8407
B( 14-O , 21-H ) :   0.8439 B( 15-O , 22-H ) :   0.8392 B( 16-O , 23-H ) :   0.8465

Dispersion correction           -0.024648916
FINAL SINGLE POINT ENERGY      -685.693517992077

DIPOLE MOMENT
-------------

Method             : SCF
Type of density    : Electron Density
Multiplicity       :   1
Irrep              :   0
Energy             :  -685.8242872981679739 Eh
Relativity type    :
Basis              : AO
                                X                 Y                 Z
Electronic contribution:      1.619027706      -0.228741027       0.614277582
Nuclear contribution   :     -1.155839517      -0.558345797      -1.502786058
                        -----------------------------------------
Total Dipole Moment    :      0.463188188      -0.787086824      -0.888508476
                        -----------------------------------------
Magnitude (a.u.)       :      1.274164934
Magnitude (Debye)      :      3.238669881

Rotational constants in cm-1:             0.040654             0.025671             0.020955
Rotational constants in MHz :          1218.780480           769.610127           628.205739

                             ****ORCA TERMINATED NORMALLY****
TOTAL RUN TIME: 0 days 0 hours 0 minutes 12 seconds 113 msec
