                         Program Version 6.0.0  -   RELEASE  -
|  1> ! pbe def2-sv(p) def2/J RI DEFGRID1 loosescf d4 GCP(DFT/SV(P)) printgap
|  2> %output
|  3>     printlevel normal
|  4> end
|  5> * xyz 0 1
|  6> C -2.5752107159 -0.6867259042 -0.2631019468
|  7> C -1.1813178145 -0.2819583091 0.2348904907
|  8> H -1.1970629885 -0.1947440883 1.3324658067
|  9> C -0.7189655757 1.0631972344 -0.3619710172
| 10> H -0.7031008541 0.9684921886 -1.4571238843
| 11> C 0.7068718453 1.3477903322 0.1302647711
| 12> H 0.671445971 1.5141576444 1.2131162177
| 13> C 1.63949714 0.160223115 -0.1623071303
| 14> H 1.7954733178 0.0667017723 -1.2493597689
| 15> C 1.0266696598 -1.1607098183 0.3212187008
| 16> H 1.0264824416 -1.1529529923 1.4297926287
| 17> O -0.2956389143 -1.3206789407 -0.1477644884
| 18> O 1.7822099896 -2.1932081366 -0.1865268759
| 19> O 2.8682597085 0.3265766636 0.4943358634
| 20> O 1.2493494527 2.5297572567 -0.4003392181
| 21> O -1.5343465754 2.1309225203 0.0497876983
| 22> O -3.0408643567 -1.8581991351 0.3515189264
| 23> H -2.5369159379 -0.8109470916 -1.3528044394
| 24> H -3.2928418931 0.0912351487 -0.0002621787
| 25> H 1.4395313855 -3.047971528 0.1182029885
| 26> H 3.1787558679 1.2323036947 0.3308428527
| 27> H 1.1472153371 2.5408491783 -1.3636826733
| 28> H -2.3110867095 2.2083969683 -0.5203175264
| 29> H -2.4139460886 -2.5718006161 0.1669033328
| 30> *
| 31>
| 32>                          ****END OF INPUT****

CARTESIAN COORDINATES (ANGSTROEM)
---------------------------------
  C     -2.575211   -0.686726   -0.263102
  C     -1.181318   -0.281958    0.234890
  H     -1.197063   -0.194744    1.332466
  C     -0.718966    1.063197   -0.361971
  H     -0.703101    0.968492   -1.457124
  C      0.706872    1.347790    0.130265
  H      0.671446    1.514158    1.213116
  C      1.639497    0.160223   -0.162307
  H      1.795473    0.066702   -1.249360
  C      1.026670   -1.160710    0.321219
  H      1.026482   -1.152953    1.429793
  O     -0.295639   -1.320679   -0.147764
  O      1.782210   -2.193208   -0.186527
  O      2.868260    0.326577    0.494336
  O      1.249349    2.529757   -0.400339
  O     -1.534347    2.130923    0.049788
  O     -3.040864   -1.858199    0.351519
  H     -2.536916   -0.810947   -1.352804
  H     -3.292842    0.091235   -0.000262
  H      1.439531   -3.047972    0.118203
  H      3.178756    1.232304    0.330843
  H      1.147215    2.540849   -1.363683
  H     -2.311087    2.208397   -0.520318
  H     -2.413946   -2.571801    0.166903

 Total Charge           Charge          ....    0
 Multiplicity           Mult            ....    1
 Number of Electrons    NEL             ....   96
 Basis Dimension        Dim             ....  192

ORBITAL ENERGIES
----------------

  NO   OCC          E(Eh)            E(eV)
   0   2.0000     -18.779277      -511.0101
   1   2.0000     -18.764946      -510.6201
   2   2.0000     -18.762339      -510.5492
   3   2.0000     -18.761319      -510.5214
   4   2.0000     -18.749656      -510.2041
   5   2.0000     -18.746342      -510.1139
   6   2.0000      -9.989698      -271.8335
   7   2.0000      -9.953607      -270.8514
   8   2.0000      -9.946812      -270.6665
   9   2.0000      -9.946383      -270.6548
  10   2.0000      -9.940580      -270.4969
  11   2.0000      -9.939924      -270.4791
  12   2.0000      -0.987489       -26.8710
  13   2.0000      -0.952317       -25.9139
  14   2.0000      -0.938639       -25.5417
  15   2.0000      -0.930047       -25.3079
  16   2.0000      -0.918194       -24.9853
  17   2.0000      -0.913584       -24.8599
  18   2.0000      -0.709374       -19.3031
  19   2.0000      -0.693345       -18.8669
  20   2.0000      -0.627474       -17.0744
  21   2.0000      -0.582030       -15.8379
  22   2.0000      -0.568224       -15.4622
  23   2.0000      -0.536003       -14.5854
  24   2.0000      -0.506274       -13.7764
  25   2.0000      -0.495913       -13.4945
  26   2.0000      -0.478540       -13.0217
  27   2.0000      -0.467610       -12.7243
  28   2.0000      -0.449709       -12.2372
  29   2.0000      -0.440557       -11.9882
  30   2.0000      -0.421879       -11.4799
  31   2.0000      -0.406729       -11.0677
  32   2.0000      -0.389737       -10.6053
  33   2.0000      -0.381301       -10.3757
  34   2.0000      -0.362681        -9.8690
  35   2.0000      -0.358617        -9.7585
  36   2.0000      -0.323390        -8.7999
  37   2.0000      -0.310302        -8.4437
  38   2.0000      -0.305790        -8.3210
  39   2.0000      -0.294582        -8.0160
  40   2.0000      -0.289511        -7.8780
  41   2.0000      -0.275351        -7.4927
  42   2.0000      -0.257581        -7.0091
  43   2.0000      -0.245243        -6.6734
  44   2.0000      -0.240202        -6.5362
  45   2.0000      -0.223891        -6.0924
  46   2.0000      -0.215755        -5.8710
  47   2.0000      -0.209975        -5.7137
  48   0.0000       0.001412         0.0384
  49   0.0000       0.021923         0.5966
  50   0.0000       0.026720         0.7271
  51   0.0000       0.037175         1.0116
  52   0.0000       0.054536         1.4840

MULLIKEN ATOMIC CHARGES
-----------------------
   0 C :    0.088083
   1 C :   -0.008972
   2 H :    0.061537
   3 C :    0.021545
   4 H :    0.039939
   5 C :    0.076665
   6 H :    0.071274
   7 C :    0.045738
   8 H :    0.044027
   9 C :    0.198499
  10 H :    0.043825
  11 O :   -0.323758
  12 O :   -0.363937
  13 O :   -0.410381
  14 O :   -0.410147
  15 O :   -0.394405
  16 O :   -0.431597
  17 H :    0.068194
  18 H :    0.072234
  19 H :    0.305005
  20 H :    0.302500
  21 H :    0.297483
  22 H :    0.309171
  23 H :    0.297479
Sum of atomic charges:    0.0000000

LOEWDIN ATOMIC CHARGES
----------------------
   0 C :   -0.128176
   1 C :   -0.080277
   2 H :    0.109022
   3 C :   -0.080340
   4 H :    0.096834
   5 C :   -0.078741
   6 H :    0.123144
   7 C :   -0.085060
   8 H :    0.100637
   9 C :    0.006216
  10 H :    0.085999
  11 O :   -0.163054
  12 O :   -0.283408
  13 O :   -0.315469
  14 O :   -0.305960
  15 O :   -0.308698
  16 O :   -0.332788
  17 H :    0.099032
  18 H :    0.111790
  19 H :    0.289601
  20 H :    0.283676
  21 H :    0.284476
  22 H :    0.290253
  23 H :    0.281294

  Mayer bond orders larger than 0.100000
B(  0-C ,  1-C ) :   1.0413 B(  0-C , 16-O ) :   1.0924 B(  0-C , 17-H ) :   0.9065
B(  0-C , 18-H ) :   0.9124 B(  1-C ,  2-H ) :   0.8692 B(  1-C ,  3-C ) :   0.9704
B(  1-C , 11-O ) :   0.9767 B(  3-C ,  4-H ) :   0.8718 B(  3-C ,  5-C ) :   0.9956
B(  3-C , 15-O ) :   1.1029 B(  5-C ,  6-H ) :   0.8652 B(  5-C ,  7-C ) :   1.0049
B(  5-C , 14-O ) :   1.0425 B(  7-C ,  8-H ) :   0.8604 B(  7-C ,  9-C ) :   0.9856
B(  7-C , 13-O ) :   1.0856 B(  9-C , 10-H ) :   0.8869 B(  9-C , 11-O ) :   0.9974
B(  9-C , 12-O ) :   1.2051 B( 12-O , 19-H ) :   0.8412 B( 13-O , 20-H ) :   0.8329
B( 14-O , 21-H ) :   0.8478 B( 15-O , 22-H ) :   0.8420 B( 16-O , 23-H ) :   0.8453

Dispersion correction           -0.023564964
FINAL SINGLE POINT ENERGY      -685.695307917020

DIPOLE MOMENT
-------------

Method             : SCF
Type of density    : Electron Density
Multiplicity       :   1
Irrep              :   0
Energy             :  -685.8240402564605347 Eh
Relativity type    :
Basis              : AO
                                X                 Y                 Z
Electronic contribution:      2.581961349      -0.779213062       0.410061861
Nuclear contribution   :     -2.983195090       0.785852096      -1.266233321
                        -----------------------------------------
Total Dipole Moment    :     -0.401233741       0.006639034      -0.856171460
                        -----------------------------------------
Magnitude (a.u.)       :      0.945548603
Magnitude (Debye)      :      2.403393547

Rotational constants in cm-1:             0.038973             0.026042             0.016395
Rotational constants in MHz :          1168.378167           780.731223           491.513810

                             ****ORCA TERMINATED NORMALLY****
TOTAL RUN TIME: 0 days 0 hours 0 minutes 11 seconds 940 msec
