                         Program Version 6.0.0  -   RELEASE  -
|  1> ! r2scan-3c def2/J RI DEFGRID2 scfconv6 printgap
|  2> %output
|  3>     printlevel normal
|  4> end
|  5> * xyz 0 1
|  6> C -2.5554524523 -1.2044e-06 3.8541e-06
|  7> C -1.8673808763 -1.2062209983 4.82359e-05
|  8> C -0.486386459 -1.2145816213 4.89294e-05
|  9> C 0.1972777781 2.199e-07 3.88996e-05
| 10> C -0.4863886621 1.2145812308 7.4994e-06
| 11> C -1.8673835011 1.2062200686 -3.73889e-05
| 12> N 1.6194043755 2.463e-07 3.50899e-05
| 13> O 2.2045790472 -1.0730659819 -0.000143363
| 14> O 2.2045756976 1.0730677588 8.1079e-05
| 15> H -3.6339013224 -2.0922e-06 -0.0001668815
| 16> H -2.4077514444 -2.13882611 1.1987e-06
| 17> H 0.0766730225 -2.1347374598 0.0001433578
| 18> H 0.0766696833 2.1347375543 -0.0002121299
| 19> H -2.4077546716 2.1388239412 -0.0005756328
| 20> *
| 21>
| 22>                          ****END OF INPUT****

CARTESIAN COORDINATES (ANGSTROEM)
---------------------------------
  C     -2.555452   -0.000001    0.000004
  C     -1.867381   -1.206221    0.000048
  C     -0.486386   -1.214582    0.000049
  C      0.197278    0.000000    0.000039
  C     -0.486389    1.214581    0.000007
  C     -1.867384    1.206220   -0.000037
  N      1.619404    0.000000    0.000035
  O      2.204579   -1.073066   -0.000143
  O      2.204576    1.073068    0.000081
  H     -3.633901   -0.000002   -0.000167
  H     -2.407751   -2.138826    0.000001
  H      0.076673   -2.134737    0.000143
  H      0.076670    2.134738   -0.000212
  H     -2.407755    2.138824   -0.000576

 Total Charge           Charge          ....    0
 Multiplicity           Mult            ....    1
 Number of Electrons    NEL             ....   64
 Basis Dimension        Dim             ....  211

ORBITAL ENERGIES
----------------

  NO   OCC          E(Eh)            E(eV)
   0   2.0000     -18.980680      -516.4906
   1   2.0000     -18.980676      -516.4904
   2   2.0000     -14.392911      -391.6510
   3   2.0000     -10.105822      -274.9934
   4   2.0000     -10.071835      -274.0686
   5   2.0000     -10.071827      -274.0683
   6   2.0000     -10.071421      -274.0573
   7   2.0000     -10.067775      -273.9581
   8   2.0000     -10.067744      -273.9572
   9   2.0000      -1.201151       -32.6850
  10   2.0000      -1.020690       -27.7744
  11   2.0000      -0.870303       -23.6821
  12   2.0000      -0.791079       -21.5263
  13   2.0000      -0.751828       -20.4583
  14   2.0000      -0.682828       -18.5807
  15   2.0000      -0.609275       -16.5792
  16   2.0000      -0.573568       -15.6076
  17   2.0000      -0.535460       -14.5706
  18   2.0000      -0.511109       -13.9080
  19   2.0000      -0.486707       -13.2440
  20   2.0000      -0.486360       -13.2345
  21   2.0000      -0.446337       -12.1455
  22   2.0000      -0.441188       -12.0053
  23   2.0000      -0.424260       -11.5447
  24   2.0000      -0.376629       -10.2486
  25   2.0000      -0.364303        -9.9132
  26   2.0000      -0.344860        -9.3841
  27   2.0000      -0.290456        -7.9037
  28   2.0000      -0.281140        -7.6502
  29   2.0000      -0.273459        -7.4412
  30   2.0000      -0.269843        -7.3428
  31   2.0000      -0.255081        -6.9411
  32   0.0000      -0.126149        -3.4327
  33   0.0000      -0.062225        -1.6932
  34   0.0000      -0.032529        -0.8852
  35   0.0000       0.065406         1.7798
  36   0.0000       0.093382         2.5411

MULLIKEN ATOMIC CHARGES
-----------------------
   0 C :   -0.112217
   1 C :   -0.127154
   2 C :   -0.194166
   3 C :    0.019074
   4 C :   -0.194160
   5 C :   -0.127155
   6 N :    0.355801
   7 O :   -0.228729
   8 O :   -0.228729
   9 H :    0.153927
  10 H :    0.155622
  11 H :    0.186132
  12 H :    0.186132
  13 H :    0.155622
Sum of atomic charges:    0.0000000

LOEWDIN ATOMIC CHARGES
----------------------
   0 C :   -0.129665
   1 C :   -0.151327
   2 C :   -0.071927
   3 C :    0.189421
   4 C :   -0.071927
   5 C :   -0.151327
   6 N :   -0.492954
   7 O :   -0.019612
   8 O :   -0.019612
   9 H :    0.171963
  10 H :    0.173883
  11 H :    0.199602
  12 H :    0.199602
  13 H :    0.173883

  Mayer bond orders larger than 0.100000
B(  0-C ,  1-C ) :   1.3951 B(  0-C ,  5-C ) :   1.3951 B(  0-C ,  9-H ) :   0.9456
B(  1-C ,  2-C ) :   1.3569 B(  1-C , 10-H ) :   0.9536 B(  2-C ,  3-C ) :   1.4233
B(  2-C , 11-H ) :   0.9314 B(  3-C ,  4-C ) :   1.4233 B(  3-C ,  6-N ) :   0.9552
B(  4-C ,  5-C ) :   1.3569 B(  4-C , 12-H ) :   0.9314 B(  5-C , 13-H ) :   0.9536
B(  6-N ,  7-O ) :   1.8469 B(  6-N ,  8-O ) :   1.8469 B(  7-O ,  8-O ) :   0.2500

Dispersion correction           -0.004675556
FINAL SINGLE POINT ENERGY      -436.671597616811

DIPOLE MOMENT
-------------

Method             : SCF
Type of density    : Electron Density
Multiplicity       :   1
Irrep              :   0
Energy             :  -436.6759329068943885 Eh
Relativity type    :
Basis              : AO
                                X                 Y                 Z
Electronic contribution:      5.830386512       0.000003965       0.000574443
Nuclear contribution   :     -7.708905890      -0.000003881      -0.000760734
                        -----------------------------------------
Total Dipole Moment    :     -1.878519378       0.000000083      -0.000186291
                        -----------------------------------------
Magnitude (a.u.)       :      1.878519387
Magnitude (Debye)      :      4.774816821

Rotational constants in cm-1:             0.134171             0.043717             0.032973
Rotational constants in MHz :          4022.345958          1310.589904           988.507299

                             ****ORCA TERMINATED NORMALLY****
TOTAL RUN TIME: 0 days 0 hours 0 minutes 23 seconds 527 msec
