                         Program Version 6.0.0  -   RELEASE  -
|  1> ! r2scan-3c def2/J RI DEFGRID2 scfconv6 printgap
|  2> %output
|  3>     printlevel normal
|  4> end
|  5> %cpcm
|  6>     smd true
|  7>     smdsolvent "water"
|  8> end
|  9> * xyz 0 1
| 10> C -2.5554524523 -1.2044e-06 3.8541e-06
| 11> C -1.8673808763 -1.2062209983 4.82359e-05
| 12> C -0.486386459 -1.2145816213 4.89294e-05
| 13> C 0.1972777781 2.199e-07 3.88996e-05
| 14> C -0.4863886621 1.2145812308 7.4994e-06
| 15> C -1.8673835011 1.2062200686 -3.73889e-05
| 16> N 1.6194043755 2.463e-07 3.50899e-05
| 17> O 2.2045790472 -1.0730659819 -0.000143363
| 18> O 2.2045756976 1.0730677588 8.1079e-05
| 19> H -3.6339013224 -2.0922e-06 -0.0001668815
| 20> H -2.4077514444 -2.13882611 1.1987e-06
| 21> H 0.0766730225 -2.1347374598 0.0001433578
| 22> H 0.0766696833 2.1347375543 -0.0002121299
| 23> H -2.4077546716 2.1388239412 -0.0005756328
| 24> *
| 25>
| 26>                          ****END OF INPUT****

CARTESIAN COORDINATES (ANGSTROEM)
---------------------------------
  C     -2.555452   -0.000001    0.000004
  C     -1.867381   -1.206221    0.000048
  C     -0.486386   -1.214582    0.000049
  C      0.197278    0.000000    0.000039
  C     -0.486389    1.214581    0.000007
  C     -1.867384    1.206220   -0.000037
  N      1.619404    0.000000    0.000035
  O      2.204579   -1.073066   -0.000143
  O      2.204576    1.073068    0.000081
  H     -3.633901   -0.000002   -0.000167
  H     -2.407751   -2.138826    0.000001
  H      0.076673   -2.134737    0.000143
  H      0.076670    2.134738   -0.000212
  H     -2.407755    2.138824   -0.000576

 Total Charge           Charge          ....    0
 Multiplicity           Mult            ....    1
 Number of Electrons    NEL             ....   64
 Basis Dimension        Dim             ....  211

ORBITAL ENERGIES
----------------

  NO   OCC          E(Eh)            E(eV)
   0   2.0000     -18.992930      -516.8239
   1   2.0000     -18.992926      -516.8238
   2   2.0000     -14.404380      -391.9631
   3   2.0000     -10.098924      -274.8057
   4   2.0000     -10.060406      -273.7576
   5   2.0000     -10.060399      -273.7574
   6   2.0000     -10.055169      -273.6151
   7   2.0000     -10.051243      -273.5082
   8   2.0000     -10.051213      -273.5074
   9   2.0000      -1.213201       -33.0129
  10   2.0000      -1.033554       -28.1244
  11   2.0000      -0.861304       -23.4373
  12   2.0000      -0.784983       -21.3605
  13   2.0000      -0.738002       -20.0821
  14   2.0000      -0.676155       -18.3991
  15   2.0000      -0.595911       -16.2156
  16   2.0000      -0.567330       -15.4378
  17   2.0000      -0.537788       -14.6339
  18   2.0000      -0.520385       -14.1604
  19   2.0000      -0.498941       -13.5769
  20   2.0000      -0.475066       -12.9272
  21   2.0000      -0.437802       -11.9132
  22   2.0000      -0.424141       -11.5415
  23   2.0000      -0.408153       -11.1064
  24   2.0000      -0.366274        -9.9668
  25   2.0000      -0.347344        -9.4517
  26   2.0000      -0.328605        -8.9418
  27   2.0000      -0.304897        -8.2967
  28   2.0000      -0.295807        -8.0493
  29   2.0000      -0.270320        -7.3558
  30   2.0000      -0.264336        -7.1929
  31   2.0000      -0.258161        -7.0249
  32   0.0000      -0.131090        -3.5672
  33   0.0000      -0.049276        -1.3409
  34   0.0000      -0.025894        -0.7046
  35   0.0000       0.082483         2.2445
  36   0.0000       0.098045         2.6679

MULLIKEN ATOMIC CHARGES
-----------------------
   0 C :   -0.121771
   1 C :   -0.167102
   2 C :   -0.209270
   3 C :    0.055201
   4 C :   -0.209261
   5 C :   -0.167105
   6 N :    0.406150
   7 O :   -0.290126
   8 O :   -0.290124
   9 H :    0.192687
  10 H :    0.193211
  11 H :    0.207150
  12 H :    0.207150
  13 H :    0.193211
Sum of atomic charges:   -0.0000000

LOEWDIN ATOMIC CHARGES
----------------------
   0 C :   -0.116322
   1 C :   -0.147957
   2 C :   -0.070106
   3 C :    0.185859
   4 C :   -0.070106
   5 C :   -0.147956
   6 N :   -0.492234
   7 O :   -0.056109
   8 O :   -0.056109
   9 H :    0.185789
  10 H :    0.187149
  11 H :    0.205478
  12 H :    0.205478
  13 H :    0.187149

  Mayer bond orders larger than 0.100000
B(  0-C ,  1-C ) :   1.3699 B(  0-C ,  5-C ) :   1.3699 B(  0-C ,  9-H ) :   0.9447
B(  1-C ,  2-C ) :   1.3591 B(  1-C , 10-H ) :   0.9542 B(  2-C ,  3-C ) :   1.3450
B(  2-C , 11-H ) :   0.9388 B(  3-C ,  4-C ) :   1.3450 B(  3-C ,  6-N ) :   0.9907
B(  4-C ,  5-C ) :   1.3591 B(  4-C , 12-H ) :   0.9387 B(  5-C , 13-H ) :   0.9542
B(  6-N ,  7-O ) :   1.7908 B(  6-N ,  8-O ) :   1.7908 B(  7-O ,  8-O ) :   0.2319

Dispersion correction           -0.004675556
FINAL SINGLE POINT ENERGY      -436.676341604662

DIPOLE MOMENT
-------------

Method             : SCF
Type of density    : Electron Density
Multiplicity       :   1
Irrep              :   0
Energy             :  -436.6806768947452042 Eh
Relativity type    :
Basis              : AO
                                X                 Y                 Z
Electronic contribution:      5.042399342       0.000003634       0.000510895
Nuclear contribution   :     -7.708905890      -0.000003881      -0.000760734
                        -----------------------------------------
Total Dipole Moment    :     -2.666506548      -0.000000248      -0.000249839
                        -----------------------------------------
Magnitude (a.u.)       :      2.666506559
Magnitude (Debye)      :      6.777721039

Rotational constants in cm-1:             0.134171             0.043717             0.032973
Rotational constants in MHz :          4022.345958          1310.589904           988.507299

                             ****ORCA TERMINATED NORMALLY****
TOTAL RUN TIME: 0 days 0 hours 0 minutes 29 seconds 822 msec
