                         Program Version 6.0.0  -   RELEASE  -
|  1> ! pbe def2-sv(p) def2/J RI DEFGRID1 loosescf d4 GCP(DFT/SV(P)) printgap
|  2> %output
|  3>     printlevel normal
|  4> end
|  5> * xyz 0 1
|  6> C -1.9070829029 -0.5706816162 -0.7975538926
|  7> C -1.2023688038 -0.0873221803 0.4832582811
|  8> H -1.9221083641 -0.0543923279 1.3108673449
|  9> C -0.6219340464 1.3254133494 0.3178767847
| 10> H -1.3729517468 1.9295157789 -0.2099342275
| 11> C 0.6862067238 1.3172132246 -0.5071725897
| 12> H 1.1933728748 2.2828482368 -0.3573455218
| 13> C 1.6504068837 0.2511237871 0.0470263319
| 14> H 2.466683343 0.1114429795 -0.6680355213
| 15> C 0.9653425559 -1.114830289 0.2347757318
| 16> H 1.6088360224 -1.719954414 0.8980585272
| 17> O -0.2366599608 -1.0213176253 0.9526341048
| 18> O 0.8271767865 -1.7255371214 -1.0075085649
| 19> O 2.2253186046 0.6835824346 1.2521480469
| 20> O 0.4566737755 1.0840003534 -1.8724013772
| 21> O -0.3917154579 1.8381534356 1.6132969172
| 22> O -2.3587105733 -1.89658237 -0.6860791402
| 23> H -1.2053112982 -0.5596965429 -1.6331862711
| 24> H -2.7413042593 0.1093323945 -1.0151686814
| 25> H 0.3156596675 -2.5443875741 -0.9099992603
| 26> H 1.5105064624 0.8327813323 1.8961710901
| 27> H 0.1846982317 1.9043922194 -2.3082409901
| 28> H -0.2452378732 2.7942829768 1.5718444427
| 29> H -2.9629380527 -1.9715045938 0.0663257367
| 30> *
| 31>
| 32>                          ****END OF INPUT****

CARTESIAN COORDINATES (ANGSTROEM)
---------------------------------
  C     -1.907083   -0.570682   -0.797554
  C     -1.202369   -0.087322    0.483258
  H     -1.922108   -0.054392    1.310867
  C     -0.621934    1.325413    0.317877
  H     -1.372952    1.929516   -0.209934
  C      0.686207    1.317213   -0.507173
  H      1.193373    2.282848   -0.357346
  C      1.650407    0.251124    0.047026
  H      2.466683    0.111443   -0.668036
  C      0.965343   -1.114830    0.234776
  H      1.608836   -1.719954    0.898059
  O     -0.236660   -1.021318    0.952634
  O      0.827177   -1.725537   -1.007509
  O      2.225319    0.683582    1.252148
  O      0.456674    1.084000   -1.872401
  O     -0.391715    1.838153    1.613297
  O     -2.358711   -1.896582   -0.686079
  H     -1.205311   -0.559697   -1.633186
  H     -2.741304    0.109332   -1.015169
  H      0.315660   -2.544388   -0.909999
  H      1.510506    0.832781    1.896171
  H      0.184698    1.904392   -2.308241
  H     -0.245238    2.794283    1.571844
  H     -2.962938   -1.971505    0.066326

 Total Charge           Charge          ....    0
 Multiplicity           Mult            ....    1
 Number of Electrons    NEL             ....   96
 Basis Dimension        Dim             ....  192

ORBITAL ENERGIES
----------------

  NO   OCC          E(Eh)            E(eV)
   0   2.0000     -18.774365      -510.8764
   1   2.0000     -18.762368      -510.5500
   2   2.0000     -18.760301      -510.4938
   3   2.0000     -18.746085      -510.1069
   4   2.0000     -18.745936      -510.1029
   5   2.0000     -18.738584      -509.9028
   6   2.0000      -9.972020      -271.3525
   7   2.0000      -9.954264      -270.8693
   8   2.0000      -9.947790      -270.6931
   9   2.0000      -9.944009      -270.5902
  10   2.0000      -9.932587      -270.2794
  11   2.0000      -9.923675      -270.0369
  12   2.0000      -0.974361       -26.5137
  13   2.0000      -0.949482       -25.8367
  14   2.0000      -0.937550       -25.5120
  15   2.0000      -0.921601       -25.0780
  16   2.0000      -0.914686       -24.8899
  17   2.0000      -0.899008       -24.4632
  18   2.0000      -0.707484       -19.2516
  19   2.0000      -0.680779       -18.5249
  20   2.0000      -0.613874       -16.7044
  21   2.0000      -0.587883       -15.9971
  22   2.0000      -0.573182       -15.5971
  23   2.0000      -0.516906       -14.0657
  24   2.0000      -0.498949       -13.5771
  25   2.0000      -0.483310       -13.1515
  26   2.0000      -0.473447       -12.8832
  27   2.0000      -0.464461       -12.6386
  28   2.0000      -0.441858       -12.0236
  29   2.0000      -0.418240       -11.3809
  30   2.0000      -0.412758       -11.2317
  31   2.0000      -0.395338       -10.7577
  32   2.0000      -0.386252       -10.5105
  33   2.0000      -0.375468       -10.2170
  34   2.0000      -0.359690        -9.7877
  35   2.0000      -0.340593        -9.2680
  36   2.0000      -0.332519        -9.0483
  37   2.0000      -0.325384        -8.8542
  38   2.0000      -0.294257        -8.0072
  39   2.0000      -0.289870        -7.8878
  40   2.0000      -0.277629        -7.5547
  41   2.0000      -0.263118        -7.1598
  42   2.0000      -0.253018        -6.8850
  43   2.0000      -0.240282        -6.5384
  44   2.0000      -0.226026        -6.1505
  45   2.0000      -0.217854        -5.9281
  46   2.0000      -0.207997        -5.6599
  47   2.0000      -0.203401        -5.5348
  48   0.0000       0.000797         0.0217
  49   0.0000       0.013332         0.3628
  50   0.0000       0.027774         0.7558
  51   0.0000       0.054023         1.4701
  52   0.0000       0.065726         1.7885

MULLIKEN ATOMIC CHARGES
-----------------------
   0 C :    0.015266
   1 C :    0.031097
   2 H :    0.064682
   3 C :    0.018308
   4 H :    0.051672
   5 C :    0.018934
   6 H :    0.057669
   7 C :    0.081883
   8 H :    0.085939
   9 C :    0.178423
  10 H :    0.063914
  11 O :   -0.312779
  12 O :   -0.392619
  13 O :   -0.433560
  14 O :   -0.386407
  15 O :   -0.411120
  16 O :   -0.431043
  17 H :    0.130243
  18 H :    0.061521
  19 H :    0.305995
  20 H :    0.298119
  21 H :    0.303384
  22 H :    0.307306
  23 H :    0.293172
Sum of atomic charges:   -0.0000000

LOEWDIN ATOMIC CHARGES
----------------------
   0 C :   -0.156409
   1 C :   -0.065307
   2 H :    0.113102
   3 C :   -0.080110
   4 H :    0.099256
   5 C :   -0.081706
   6 H :    0.098142
   7 C :   -0.069166
   8 H :    0.126296
   9 C :   -0.008279
  10 H :    0.096441
  11 O :   -0.144184
  12 O :   -0.306089
  13 O :   -0.317488
  14 O :   -0.299947
  15 O :   -0.308628
  16 O :   -0.332472
  17 H :    0.124910
  18 H :    0.092913
  19 H :    0.286916
  20 H :    0.271361
  21 H :    0.288952
  22 H :    0.290078
  23 H :    0.281419

  Mayer bond orders larger than 0.100000
B(  0-C ,  1-C ) :   1.0379 B(  0-C , 16-O ) :   1.0555 B(  0-C , 17-H ) :   0.8842
B(  0-C , 18-H ) :   0.9099 B(  1-C ,  2-H ) :   0.8922 B(  1-C ,  3-C ) :   1.0029
B(  1-C , 11-O ) :   1.0266 B(  3-C ,  4-H ) :   0.8942 B(  3-C ,  5-C ) :   0.9497
B(  3-C , 15-O ) :   1.0360 B(  5-C ,  6-H ) :   0.9059 B(  5-C ,  7-C ) :   0.9774
B(  5-C , 14-O ) :   1.0818 B(  7-C ,  8-H ) :   0.8825 B(  7-C ,  9-C ) :   1.0006
B(  7-C , 13-O ) :   1.0522 B(  9-C , 10-H ) :   0.9030 B(  9-C , 11-O ) :   1.0451
B(  9-C , 12-O ) :   1.1341 B( 12-O , 19-H ) :   0.8265 B( 13-O , 20-H ) :   0.8182
B( 14-O , 21-H ) :   0.8441 B( 15-O , 22-H ) :   0.8414 B( 16-O , 23-H ) :   0.8529

Dispersion correction           -0.026022033
FINAL SINGLE POINT ENERGY      -685.691495014886

DIPOLE MOMENT
-------------

Method             : SCF
Type of density    : Electron Density
Multiplicity       :   1
Irrep              :   0
Energy             :  -685.8220960100687762 Eh
Relativity type    :
Basis              : AO
                                X                 Y                 Z
Electronic contribution:      1.908891751      -1.585812960       1.318353583
Nuclear contribution   :     -2.966353996       2.906708366      -1.270903990
                        -----------------------------------------
Total Dipole Moment    :     -1.057462246       1.320895406       0.047449592
                        -----------------------------------------
Magnitude (a.u.)       :      1.692702731
Magnitude (Debye)      :      4.302508417

Rotational constants in cm-1:             0.041661             0.028397             0.025328
Rotational constants in MHz :          1248.966235           851.334324           759.328496

                             ****ORCA TERMINATED NORMALLY****
TOTAL RUN TIME: 0 days 0 hours 0 minutes 12 seconds 142 msec
