                         Program Version 6.0.0  -   RELEASE  -
|  1> ! wb97x-v def2-tzvp def2/J RIJCOSX DEFGRID2 scfconv7 GCP(DFT/TZ) printgap
|  2> %output
|  3>     printlevel normal
|  4> end
|  5> * xyz 0 1
|  6> C 2.082714556447329 -0.5886057539144778 -0.6162763404557585
|  7> C 1.1937242538163033 -0.12033139645341406 0.5270477925982278
|  8> H 1.6919883524847286 -0.31198525545070416 1.4830100753407673
|  9> C 0.7522589137418177 1.3465754435853607 0.3875344517223128
| 10> C -0.6398924189156772 1.264895996310542 -0.2786753534037344
| 11> C -0.9393715780661069 -0.24056603199444687 -0.38507622118530604
| 12> H -0.6849051044076565 -0.6044516602325456 -1.3916228203154761
| 13> O -0.04691857432680588 -0.8642349637881673 0.5700675417677189
| 14> C -2.360180037184872 -0.6353969203120253 -0.05207965543056482
| 15> H 2.2653260948122678 -1.665746602059298 -0.5482346859424737
| 16> H 1.6308252856286898 -0.3683718148936418 -1.589119465752317
| 17> H 3.047587724945983 -0.07361655109219928 -0.5692027861083536
| 18> H 0.6792785597705736 1.8147049390478354 1.3724298028344255
| 19> H 1.469993004955967 1.9201741219047919 -0.20471319168925947
| 20> H -1.396974555246727 1.7529235978125202 0.34269122627572624
| 21> H -0.6616843334879345 1.7371031528549752 -1.2641286584577203
| 22> H -2.6250002493824502 -0.3004321840453858 0.9565092847071917
| 23> H -2.4930742130618055 -1.7200729201025318 -0.11249849676788218
| 24> H -3.0486664065144384 -0.1683320581139253 -0.7632528454193548
| 25> *
| 26>
| 27>                          ****END OF INPUT****

CARTESIAN COORDINATES (ANGSTROEM)
---------------------------------
  C      2.082715   -0.588606   -0.616276
  C      1.193724   -0.120331    0.527048
  H      1.691988   -0.311985    1.483010
  C      0.752259    1.346575    0.387534
  C     -0.639892    1.264896   -0.278675
  C     -0.939372   -0.240566   -0.385076
  H     -0.684905   -0.604452   -1.391623
  O     -0.046919   -0.864235    0.570068
  C     -2.360180   -0.635397   -0.052080
  H      2.265326   -1.665747   -0.548235
  H      1.630825   -0.368372   -1.589119
  H      3.047588   -0.073617   -0.569203
  H      0.679279    1.814705    1.372430
  H      1.469993    1.920174   -0.204713
  H     -1.396975    1.752924    0.342691
  H     -0.661684    1.737103   -1.264129
  H     -2.625000   -0.300432    0.956509
  H     -2.493074   -1.720073   -0.112498
  H     -3.048666   -0.168332   -0.763253

 Total Charge           Charge          ....    0
 Multiplicity           Mult            ....    1
 Number of Electrons    NEL             ....   56
 Basis Dimension        Dim             ....  289

ORBITAL ENERGIES
----------------

  NO   OCC          E(Eh)            E(eV)
   0   2.0000     -21.660349      -589.4080
   1   2.0000     -12.091088      -329.0152
   2   2.0000     -12.090332      -328.9947
   3   2.0000     -12.043481      -327.7198
   4   2.0000     -12.042333      -327.6886
   5   2.0000     -12.033734      -327.4545
   6   2.0000     -12.032631      -327.4245
   7   2.0000      -1.665389       -45.3175
   8   2.0000      -1.304572       -35.4992
   9   2.0000      -1.296263       -35.2731
  10   2.0000      -1.212984       -33.0070
  11   2.0000      -1.147623       -31.2284
  12   2.0000      -1.089590       -29.6493
  13   2.0000      -1.058631       -28.8068
  14   2.0000      -0.964384       -26.2422
  15   2.0000      -0.960941       -26.1485
  16   2.0000      -0.925833       -25.1932
  17   2.0000      -0.883694       -24.0465
  18   2.0000      -0.857339       -23.3294
  19   2.0000      -0.840398       -22.8684
  20   2.0000      -0.835432       -22.7333
  21   2.0000      -0.827509       -22.5177
  22   2.0000      -0.811550       -22.0834
  23   2.0000      -0.808460       -21.9993
  24   2.0000      -0.786244       -21.3948
  25   2.0000      -0.776541       -21.1308
  26   2.0000      -0.762719       -20.7546
  27   2.0000      -0.752340       -20.4722
  28   0.0000      -0.152522        -4.1503
  29   0.0000      -0.130564        -3.5528
  30   0.0000      -0.047964        -1.3052
  31   0.0000      -0.033508        -0.9118
  32   0.0000      -0.021845        -0.5944

MULLIKEN ATOMIC CHARGES
-----------------------
   0 C :   -0.391714
   1 C :    0.173193
   2 H :    0.081063
   3 C :   -0.202500
   4 C :   -0.193254
   5 C :    0.070156
   6 H :    0.059683
   7 O :   -0.314511
   8 C :   -0.335910
   9 H :    0.120264
  10 H :    0.107591
  11 H :    0.109983
  12 H :    0.096936
  13 H :    0.093660
  14 H :    0.096004
  15 H :    0.097150
  16 H :    0.107583
  17 H :    0.118988
  18 H :    0.105634
Sum of atomic charges:    0.0000000

LOEWDIN ATOMIC CHARGES
----------------------
   0 C :   -0.285430
   1 C :   -0.326034
   2 H :    0.135828
   3 C :   -0.229100
   4 C :   -0.227114
   5 C :   -0.329527
   6 H :    0.128813
   7 O :    0.160862
   8 C :   -0.282681
   9 H :    0.121641
  10 H :    0.118704
  11 H :    0.120723
  12 H :    0.131698
  13 H :    0.132214
  14 H :    0.133735
  15 H :    0.130476
  16 H :    0.121202
  17 H :    0.121842
  18 H :    0.122148

  Mayer bond orders larger than 0.100000
B(  0-C ,  1-C ) :   0.9525 B(  0-C ,  9-H ) :   0.9862 B(  0-C , 10-H ) :   0.9737
B(  0-C , 11-H ) :   0.9759 B(  1-C ,  2-H ) :   0.9623 B(  1-C ,  3-C ) :   0.9948
B(  1-C ,  7-O ) :   0.9909 B(  3-C ,  4-C ) :   1.0252 B(  3-C , 12-H ) :   0.9662
B(  3-C , 13-H ) :   0.9660 B(  4-C ,  5-C ) :   0.9808 B(  4-C , 14-H ) :   0.9734
B(  4-C , 15-H ) :   0.9602 B(  5-C ,  6-H ) :   0.9697 B(  5-C ,  7-O ) :   1.0211
B(  5-C ,  8-C ) :   0.9729 B(  8-C , 16-H ) :   0.9802 B(  8-C , 17-H ) :   0.9828
B(  8-C , 18-H ) :   0.9757

FINAL SINGLE POINT ENERGY      -311.103709396232

DIPOLE MOMENT
-------------

Method             : SCF
Type of density    : Electron Density
Multiplicity       :   1
Irrep              :   0
Energy             :  -311.1170954816315657 Eh
Relativity type    :
Basis              : AO
                                X                 Y                 Z
Electronic contribution:      0.260356959      -1.312190270       2.020046052
Nuclear contribution   :     -0.140207307       1.814942171      -2.340734550
                        -----------------------------------------
Total Dipole Moment    :      0.120149651       0.502751901      -0.320688498
                        -----------------------------------------
Magnitude (a.u.)       :      0.608306276
Magnitude (Debye)      :      1.546191677

Rotational constants in cm-1:             0.150489             0.071013             0.058279
Rotational constants in MHz :          4511.540953          2128.905594          1747.158852

                             ****ORCA TERMINATED NORMALLY****
TOTAL RUN TIME: 0 days 0 hours 2 minutes 30 seconds 370 msec
