                         Program Version 6.0.0  -   RELEASE  -
|  1> ! wb97x-v def2-tzvp def2/J RIJCOSX DEFGRID2 scfconv7 GCP(DFT/TZ) printgap
|  2> %output
|  3>     printlevel normal
|  4> end
|  5> %cpcm
|  6>     smd true
|  7>     smdsolvent "water"
|  8> end
|  9> * xyz 0 1
| 10> C 2.082714556447329 -0.5886057539144778 -0.6162763404557585
| 11> C 1.1937242538163033 -0.12033139645341406 0.5270477925982278
| 12> H 1.6919883524847286 -0.31198525545070416 1.4830100753407673
| 13> C 0.7522589137418177 1.3465754435853607 0.3875344517223128
| 14> C -0.6398924189156772 1.264895996310542 -0.2786753534037344
| 15> C -0.9393715780661069 -0.24056603199444687 -0.38507622118530604
| 16> H -0.6849051044076565 -0.6044516602325456 -1.3916228203154761
| 17> O -0.04691857432680588 -0.8642349637881673 0.5700675417677189
| 18> C -2.360180037184872 -0.6353969203120253 -0.05207965543056482
| 19> H 2.2653260948122678 -1.665746602059298 -0.5482346859424737
| 20> H 1.6308252856286898 -0.3683718148936418 -1.589119465752317
| 21> H 3.047587724945983 -0.07361655109219928 -0.5692027861083536
| 22> H 0.6792785597705736 1.8147049390478354 1.3724298028344255
| 23> H 1.469993004955967 1.9201741219047919 -0.20471319168925947
| 24> H -1.396974555246727 1.7529235978125202 0.34269122627572624
| 25> H -0.6616843334879345 1.7371031528549752 -1.2641286584577203
| 26> H -2.6250002493824502 -0.3004321840453858 0.9565092847071917
| 27> H -2.4930742130618055 -1.7200729201025318 -0.11249849676788218
| 28> H -3.0486664065144384 -0.1683320581139253 -0.7632528454193548
| 29> *
| 30>
| 31>                          ****END OF INPUT****

CARTESIAN COORDINATES (ANGSTROEM)
---------------------------------
  C      2.082715   -0.588606   -0.616276
  C      1.193724   -0.120331    0.527048
  H      1.691988   -0.311985    1.483010
  C      0.752259    1.346575    0.387534
  C     -0.639892    1.264896   -0.278675
  C     -0.939372   -0.240566   -0.385076
  H     -0.684905   -0.604452   -1.391623
  O     -0.046919   -0.864235    0.570068
  C     -2.360180   -0.635397   -0.052080
  H      2.265326   -1.665747   -0.548235
  H      1.630825   -0.368372   -1.589119
  H      3.047588   -0.073617   -0.569203
  H      0.679279    1.814705    1.372430
  H      1.469993    1.920174   -0.204713
  H     -1.396975    1.752924    0.342691
  H     -0.661684    1.737103   -1.264129
  H     -2.625000   -0.300432    0.956509
  H     -2.493074   -1.720073   -0.112498
  H     -3.048666   -0.168332   -0.763253

 Total Charge           Charge          ....    0
 Multiplicity           Mult            ....    1
 Number of Electrons    NEL             ....   56
 Basis Dimension        Dim             ....  289

ORBITAL ENERGIES
----------------

  NO   OCC          E(Eh)            E(eV)
   0   2.0000     -21.668352      -589.6258
   1   2.0000     -12.087527      -328.9183
   2   2.0000     -12.086663      -328.8948
   3   2.0000     -12.033909      -327.4593
   4   2.0000     -12.032746      -327.4277
   5   2.0000     -12.027513      -327.2853
   6   2.0000     -12.025400      -327.2278
   7   2.0000      -1.673416       -45.5360
   8   2.0000      -1.298298       -35.3285
   9   2.0000      -1.293485       -35.1975
  10   2.0000      -1.206643       -32.8344
  11   2.0000      -1.142845       -31.0984
  12   2.0000      -1.086743       -29.5718
  13   2.0000      -1.057102       -28.7652
  14   2.0000      -0.966533       -26.3007
  15   2.0000      -0.962037       -26.1784
  16   2.0000      -0.923963       -25.1423
  17   2.0000      -0.878507       -23.9054
  18   2.0000      -0.852909       -23.2088
  19   2.0000      -0.835305       -22.7298
  20   2.0000      -0.830438       -22.5974
  21   2.0000      -0.820909       -22.3381
  22   2.0000      -0.806100       -21.9351
  23   2.0000      -0.801782       -21.8176
  24   2.0000      -0.781038       -21.2531
  25   2.0000      -0.770126       -20.9562
  26   2.0000      -0.756350       -20.5813
  27   2.0000      -0.745224       -20.2786
  28   0.0000      -0.151128        -4.1124
  29   0.0000      -0.129144        -3.5142
  30   0.0000      -0.040496        -1.1019
  31   0.0000      -0.024953        -0.6790
  32   0.0000      -0.010664        -0.2902

MULLIKEN ATOMIC CHARGES
-----------------------
   0 C :   -0.443773
   1 C :    0.174138
   2 H :    0.107007
   3 C :   -0.233649
   4 C :   -0.204947
   5 C :    0.066699
   6 H :    0.089559
   7 O :   -0.405686
   8 C :   -0.384341
   9 H :    0.125926
  10 H :    0.135223
  11 H :    0.133183
  12 H :    0.114359
  13 H :    0.115072
  14 H :    0.110517
  15 H :    0.116704
  16 H :    0.121411
  17 H :    0.130626
  18 H :    0.131970
Sum of atomic charges:    0.0000000

LOEWDIN ATOMIC CHARGES
----------------------
   0 C :   -0.289593
   1 C :   -0.327374
   2 H :    0.140104
   3 C :   -0.228117
   4 C :   -0.225298
   5 C :   -0.329154
   6 H :    0.136468
   7 O :    0.119839
   8 C :   -0.290518
   9 H :    0.120877
  10 H :    0.124689
  11 H :    0.127274
  12 H :    0.134880
  13 H :    0.138081
  14 H :    0.137117
  15 H :    0.136478
  16 H :    0.122475
  17 H :    0.122060
  18 H :    0.129714

  Mayer bond orders larger than 0.100000
B(  0-C ,  1-C ) :   0.9510 B(  0-C ,  9-H ) :   0.9796 B(  0-C , 10-H ) :   0.9715
B(  0-C , 11-H ) :   0.9727 B(  1-C ,  2-H ) :   0.9630 B(  1-C ,  3-C ) :   0.9915
B(  1-C ,  7-O ) :   0.9497 B(  3-C ,  4-C ) :   1.0212 B(  3-C , 12-H ) :   0.9657
B(  3-C , 13-H ) :   0.9637 B(  4-C ,  5-C ) :   0.9878 B(  4-C , 14-H ) :   0.9711
B(  4-C , 15-H ) :   0.9571 B(  5-C ,  6-H ) :   0.9733 B(  5-C ,  7-O ) :   0.9795
B(  5-C ,  8-C ) :   0.9759 B(  8-C , 16-H ) :   0.9724 B(  8-C , 17-H ) :   0.9793
B(  8-C , 18-H ) :   0.9733

FINAL SINGLE POINT ENERGY      -311.107941809520

DIPOLE MOMENT
-------------

Method             : SCF
Type of density    : Electron Density
Multiplicity       :   1
Irrep              :   0
Energy             :  -311.1213278949200003 Eh
Relativity type    :
Basis              : AO
                                X                 Y                 Z
Electronic contribution:      0.320254514      -1.026010328       1.807136050
Nuclear contribution   :     -0.140207307       1.814942171      -2.340734550
                        -----------------------------------------
Total Dipole Moment    :      0.180047207       0.788931843      -0.533598500
                        -----------------------------------------
Magnitude (a.u.)       :      0.969307902
Magnitude (Debye)      :      2.463784887

Rotational constants in cm-1:             0.150489             0.071013             0.058279
Rotational constants in MHz :          4511.540953          2128.905594          1747.158852

                             ****ORCA TERMINATED NORMALLY****
TOTAL RUN TIME: 0 days 0 hours 2 minutes 37 seconds 605 msec
