                         Program Version 6.0.0  -   RELEASE  -
|  1> ! pbe def2-sv(p) def2/J RI DEFGRID1 loosescf d4 GCP(DFT/SV(P)) printgap
|  2> %output
|  3>     printlevel normal
|  4> end
|  5> * xyz 0 1
|  6> C -2.4983267062 0.830983874 -1.0407560417
|  7> C -2.0258269651 0.3568800368 0.3400675678
|  8> H -2.9182763902 0.2464455823 0.9671276828
|  9> C -1.0577752985 1.3342807773 1.0024049645
| 10> C 0.2859711938 1.4270211297 0.2731583847
| 11> C 0.7679208793 0.0602849618 -0.262703548
| 12> H 0.4883207299 -0.0252360123 -1.3187957467
| 13> C 0.0645196974 -1.0841184846 0.4769622225
| 14> C -1.4108224985 -1.0196252478 0.2110814765
| 15> O -2.0684590347 -1.994345429 -0.1034487221
| 16> C 2.2764019532 -0.0153184099 -0.191582749
| 17> C 2.9431577404 -0.6362048166 0.767889999
| 18> C 2.9787348277 0.71427839 -1.297659357
| 19> H -3.0330789182 1.7719123545 -0.9448421181
| 20> H -1.657024752 0.9734151631 -1.7125218117
| 21> H -3.1646975999 0.0894654111 -1.4756753146
| 22> H -1.5155294585 2.323543541 1.0406484447
| 23> H -0.892767589 1.0131754831 2.0322518661
| 24> H 0.2067220035 2.1300877663 -0.5558346486
| 25> H 1.0290976072 1.8229596968 0.9677805233
| 26> H 0.4513043923 -2.0535787228 0.1599861774
| 27> H 0.2165061397 -0.9833703796 1.5527943914
| 28> H 4.0198865497 -0.6407809768 0.7856046606
| 29> H 2.461347901 -1.1665958989 1.5694433549
| 30> H 4.0558886687 0.6838088423 -1.1618563581
| 31> H 2.73536038 0.2614017656 -2.2579962721
| 32> H 2.6574126985 1.7536942808 -1.3291397728
| 33> *
| 34>
| 35>                          ****END OF INPUT****

CARTESIAN COORDINATES (ANGSTROEM)
---------------------------------
  C     -2.498327    0.830984   -1.040756
  C     -2.025827    0.356880    0.340068
  H     -2.918276    0.246446    0.967128
  C     -1.057775    1.334281    1.002405
  C      0.285971    1.427021    0.273158
  C      0.767921    0.060285   -0.262704
  H      0.488321   -0.025236   -1.318796
  C      0.064520   -1.084118    0.476962
  C     -1.410822   -1.019625    0.211081
  O     -2.068459   -1.994345   -0.103449
  C      2.276402   -0.015318   -0.191583
  C      2.943158   -0.636205    0.767890
  C      2.978735    0.714278   -1.297659
  H     -3.033079    1.771912   -0.944842
  H     -1.657025    0.973415   -1.712522
  H     -3.164698    0.089465   -1.475675
  H     -1.515529    2.323544    1.040648
  H     -0.892768    1.013175    2.032252
  H      0.206722    2.130088   -0.555835
  H      1.029098    1.822960    0.967781
  H      0.451304   -2.053579    0.159986
  H      0.216506   -0.983370    1.552794
  H      4.019887   -0.640781    0.785605
  H      2.461348   -1.166596    1.569443
  H      4.055889    0.683809   -1.161856
  H      2.735360    0.261402   -2.257996
  H      2.657413    1.753694   -1.329140

 Total Charge           Charge          ....    0
 Multiplicity           Mult            ....    1
 Number of Electrons    NEL             ....   84
 Basis Dimension        Dim             ....  186

ORBITAL ENERGIES
----------------

  NO   OCC          E(Eh)            E(eV)
   0   2.0000     -18.736482      -509.8456
   1   2.0000      -9.968153      -271.2472
   2   2.0000      -9.910206      -269.6704
   3   2.0000      -9.905278      -269.5363
   4   2.0000      -9.901930      -269.4452
   5   2.0000      -9.895727      -269.2764
   6   2.0000      -9.895006      -269.2568
   7   2.0000      -9.891938      -269.1733
   8   2.0000      -9.886745      -269.0320
   9   2.0000      -9.886332      -269.0208
  10   2.0000      -9.876627      -268.7567
  11   2.0000      -0.931321       -25.3425
  12   2.0000      -0.774914       -21.0865
  13   2.0000      -0.731125       -19.8949
  14   2.0000      -0.683430       -18.5971
  15   2.0000      -0.661070       -17.9886
  16   2.0000      -0.618039       -16.8177
  17   2.0000      -0.614883       -16.7318
  18   2.0000      -0.556469       -15.1423
  19   2.0000      -0.532213       -14.4822
  20   2.0000      -0.475708       -12.9447
  21   2.0000      -0.462243       -12.5783
  22   2.0000      -0.445096       -12.1117
  23   2.0000      -0.422530       -11.4976
  24   2.0000      -0.413868       -11.2619
  25   2.0000      -0.407288       -11.0829
  26   2.0000      -0.387824       -10.5532
  27   2.0000      -0.378316       -10.2945
  28   2.0000      -0.371116       -10.0986
  29   2.0000      -0.363545        -9.8926
  30   2.0000      -0.357253        -9.7213
  31   2.0000      -0.345163        -9.3924
  32   2.0000      -0.342193        -9.3116
  33   2.0000      -0.329144        -8.9565
  34   2.0000      -0.319517        -8.6945
  35   2.0000      -0.316920        -8.6238
  36   2.0000      -0.304743        -8.2925
  37   2.0000      -0.292252        -7.9526
  38   2.0000      -0.279292        -7.5999
  39   2.0000      -0.275156        -7.4874
  40   2.0000      -0.223366        -6.0781
  41   2.0000      -0.189926        -5.1682
  42   0.0000      -0.051301        -1.3960
  43   0.0000      -0.015315        -0.4167
  44   0.0000       0.021816         0.5937
  45   0.0000       0.036575         0.9953
  46   0.0000       0.056203         1.5294

MULLIKEN ATOMIC CHARGES
-----------------------
   0 C :   -0.254461
   1 C :   -0.174218
   2 H :    0.091423
   3 C :   -0.082808
   4 C :   -0.129317
   5 C :   -0.201237
   6 H :    0.077812
   7 C :   -0.054385
   8 C :    0.009729
   9 O :   -0.167118
  10 C :   -0.039885
  11 C :   -0.233296
  12 C :   -0.211525
  13 H :    0.105644
  14 H :    0.106869
  15 H :    0.120816
  16 H :    0.085991
  17 H :    0.079093
  18 H :    0.090298
  19 H :    0.090966
  20 H :    0.094806
  21 H :    0.101720
  22 H :    0.082365
  23 H :    0.091595
  24 H :    0.098075
  25 H :    0.110757
  26 H :    0.110293
Sum of atomic charges:    0.0000000

LOEWDIN ATOMIC CHARGES
----------------------
   0 C :   -0.319599
   1 C :   -0.174844
   2 H :    0.138296
   3 C :   -0.219103
   4 C :   -0.214725
   5 C :   -0.130540
   6 H :    0.122212
   7 C :   -0.233238
   8 C :    0.054660
   9 O :   -0.133666
  10 C :   -0.047122
  11 C :   -0.270616
  12 C :   -0.321065
  13 H :    0.121791
  14 H :    0.117778
  15 H :    0.129101
  16 H :    0.122530
  17 H :    0.118860
  18 H :    0.119232
  19 H :    0.126169
  20 H :    0.134089
  21 H :    0.140292
  22 H :    0.119854
  23 H :    0.117650
  24 H :    0.124673
  25 H :    0.129917
  26 H :    0.127412

  Mayer bond orders larger than 0.100000
B(  0-C ,  1-C ) :   1.0948 B(  0-C , 13-H ) :   0.9477 B(  0-C , 14-H ) :   0.9447
B(  0-C , 15-H ) :   0.9425 B(  1-C ,  2-H ) :   0.8695 B(  1-C ,  3-C ) :   1.1001
B(  1-C ,  8-C ) :   0.9183 B(  3-C ,  4-C ) :   1.1539 B(  3-C , 16-H ) :   0.9098
B(  3-C , 17-H ) :   0.8952 B(  4-C ,  5-C ) :   1.0582 B(  4-C , 18-H ) :   0.9100
B(  4-C , 19-H ) :   0.9052 B(  5-C ,  6-H ) :   0.8771 B(  5-C ,  7-C ) :   1.1219
B(  5-C , 10-C ) :   0.9988 B(  7-C ,  8-C ) :   1.0689 B(  7-C , 20-H ) :   0.8952
B(  7-C , 21-H ) :   0.8417 B(  8-C ,  9-O ) :   2.1835 B( 10-C , 11-C ) :   2.0444
B( 10-C , 12-C ) :   1.1228 B( 11-C , 22-H ) :   0.8982 B( 11-C , 23-H ) :   0.9021
B( 12-C , 24-H ) :   0.9388 B( 12-C , 25-H ) :   0.9283 B( 12-C , 26-H ) :   0.9321

Dispersion correction           -0.028755742
FINAL SINGLE POINT ENERGY      -464.823624918812

DIPOLE MOMENT
-------------

Method             : SCF
Type of density    : Electron Density
Multiplicity       :   1
Irrep              :   0
Energy             :  -464.9092604671965319 Eh
Relativity type    :
Basis              : AO
                                X                 Y                 Z
Electronic contribution:     -4.317507265      -6.631369965       1.676564170
Nuclear contribution   :      4.791946485       7.663718361      -1.578615382
                        -----------------------------------------
Total Dipole Moment    :      0.474439220       1.032348396       0.097948788
                        -----------------------------------------
Magnitude (a.u.)       :      1.140363868
Magnitude (Debye)      :      2.898574598

Rotational constants in cm-1:             0.062075             0.024484             0.021353
Rotational constants in MHz :          1860.966038           734.019222           640.155144

                             ****ORCA TERMINATED NORMALLY****
TOTAL RUN TIME: 0 days 0 hours 0 minutes 17 seconds 482 msec
