                         Program Version 6.0.0  -   RELEASE  -
|  1> ! r2scan-3c def2/J RI DEFGRID2 scfconv6 printgap
|  2> %output
|  3>     printlevel normal
|  4> end
|  5> * xyz 0 1
|  6> C -2.4845959796 0.2167537377 0.3928700974
|  7> C -1.7730872942 0.0402209224 -0.942276199
|  8> C -0.5180071082 -0.8020537041 -0.8262750654
|  9> Br 0.8781767738 0.0994805611 0.2438770559
| 10> H -2.7661964429 -0.7486161528 0.8076354861
| 11> H -1.8373394624 0.7231589983 1.1061942671
| 12> H -3.3829645634 0.813429414 0.2640029887
| 13> H -1.5214462598 1.017341811 -1.3596702337
| 14> H -2.4356147737 -0.4669588619 -1.6477212895
| 15> H -0.0581774312 -0.9849462223 -1.7954987946
| 16> H -0.7072088109 -1.7444107223 -0.315287805
| 17> *
| 18>
| 19>                          ****END OF INPUT****

CARTESIAN COORDINATES (ANGSTROEM)
---------------------------------
  C     -2.484596    0.216754    0.392870
  C     -1.773087    0.040221   -0.942276
  C     -0.518007   -0.802054   -0.826275
  Br     0.878177    0.099481    0.243877
  H     -2.766196   -0.748616    0.807635
  H     -1.837339    0.723159    1.106194
  H     -3.382965    0.813429    0.264003
  H     -1.521446    1.017342   -1.359670
  H     -2.435615   -0.466959   -1.647721
  H     -0.058177   -0.984946   -1.795499
  H     -0.707209   -1.744411   -0.315288

 Total Charge           Charge          ....    0
 Multiplicity           Mult            ....    1
 Number of Electrons    NEL             ....   60
 Basis Dimension        Dim             ....  128

ORBITAL ENERGIES
----------------

  NO   OCC          E(Eh)            E(eV)
   0   2.0000    -482.210768    -13121.6221
   1   2.0000     -62.282733     -1694.7993
   2   2.0000     -56.063194     -1525.5571
   3   2.0000     -56.060476     -1525.4831
   4   2.0000     -56.060432     -1525.4819
   5   2.0000     -10.093176      -274.6493
   6   2.0000     -10.047698      -273.4118
   7   2.0000     -10.024629      -272.7840
   8   2.0000      -8.614902      -234.4234
   9   2.0000      -6.422242      -174.7581
  10   2.0000      -6.408834      -174.3932
  11   2.0000      -6.408652      -174.3883
  12   2.0000      -2.519815       -68.5677
  13   2.0000      -2.516525       -68.4781
  14   2.0000      -2.516400       -68.4747
  15   2.0000      -2.506425       -68.2033
  16   2.0000      -2.506412       -68.2029
  17   2.0000      -0.792809       -21.5734
  18   2.0000      -0.722066       -19.6484
  19   2.0000      -0.644627       -17.5412
  20   2.0000      -0.561480       -15.2787
  21   2.0000      -0.445177       -12.1139
  22   2.0000      -0.436882       -11.8882
  23   2.0000      -0.396925       -10.8009
  24   2.0000      -0.360467        -9.8088
  25   2.0000      -0.335291        -9.1237
  26   2.0000      -0.329872        -8.9763
  27   2.0000      -0.314844        -8.5674
  28   2.0000      -0.251027        -6.8308
  29   2.0000      -0.248519        -6.7625
  30   0.0000      -0.026376        -0.7177
  31   0.0000       0.089251         2.4286
  32   0.0000       0.120710         3.2847
  33   0.0000       0.122531         3.3342
  34   0.0000       0.140218         3.8155

MULLIKEN ATOMIC CHARGES
-----------------------
   0 C :   -0.454758
   1 C :   -0.238889
   2 C :   -0.189176
   3 Br:   -0.189747
   4 H :    0.139406
   5 H :    0.162355
   6 H :    0.147881
   7 H :    0.154870
   8 H :    0.141283
   9 H :    0.170117
  10 H :    0.156657
Sum of atomic charges:    0.0000000

LOEWDIN ATOMIC CHARGES
----------------------
   0 C :   -0.429839
   1 C :   -0.339142
   2 C :   -0.385007
   3 Br:    0.053194
   4 H :    0.150380
   5 H :    0.159434
   6 H :    0.153080
   7 H :    0.160657
   8 H :    0.160617
   9 H :    0.158368
  10 H :    0.158256

  Mayer bond orders larger than 0.100000
B(  0-C ,  1-C ) :   0.9255 B(  0-C ,  4-H ) :   0.9780 B(  0-C ,  5-H ) :   0.9691
B(  0-C ,  6-H ) :   0.9699 B(  1-C ,  2-C ) :   0.9257 B(  1-C ,  7-H ) :   0.9639
B(  1-C ,  8-H ) :   0.9469 B(  2-C ,  3-Br) :   0.9611 B(  2-C ,  9-H ) :   0.9548
B(  2-C , 10-H ) :   0.9620

Dispersion correction           -0.002385599
FINAL SINGLE POINT ENERGY     -2692.632806118302

DIPOLE MOMENT
-------------

Method             : SCF
Type of density    : Electron Density
Multiplicity       :   1
Irrep              :   0
Energy             : -2692.6359313970779112 Eh
Relativity type    :
Basis              : AO
                                X                 Y                 Z
Electronic contribution:     19.345906570       1.921838108       4.562630567
Nuclear contribution   :    -20.077223224      -2.228695228      -5.022993118
                        -----------------------------------------
Total Dipole Moment    :     -0.731316655      -0.306857120      -0.460362551
                        -----------------------------------------
Magnitude (a.u.)       :      0.917016368
Magnitude (Debye)      :      2.330870371

Rotational constants in cm-1:             0.368852             0.075495             0.067284
Rotational constants in MHz :         11057.893603          2263.288379          2017.122214

                             ****ORCA TERMINATED NORMALLY****
TOTAL RUN TIME: 0 days 0 hours 0 minutes 7 seconds 773 msec
