                         Program Version 6.0.0  -   RELEASE  -
|  1> ! r2scan-3c def2/J RI DEFGRID2 scfconv6 printgap
|  2> %output
|  3>     printlevel normal
|  4> end
|  5> %cpcm
|  6>     smd true
|  7>     smdsolvent "water"
|  8> end
|  9> * xyz 0 1
| 10> C -2.4845959796 0.2167537377 0.3928700974
| 11> C -1.7730872942 0.0402209224 -0.942276199
| 12> C -0.5180071082 -0.8020537041 -0.8262750654
| 13> Br 0.8781767738 0.0994805611 0.2438770559
| 14> H -2.7661964429 -0.7486161528 0.8076354861
| 15> H -1.8373394624 0.7231589983 1.1061942671
| 16> H -3.3829645634 0.813429414 0.2640029887
| 17> H -1.5214462598 1.017341811 -1.3596702337
| 18> H -2.4356147737 -0.4669588619 -1.6477212895
| 19> H -0.0581774312 -0.9849462223 -1.7954987946
| 20> H -0.7072088109 -1.7444107223 -0.315287805
| 21> *
| 22>
| 23>                          ****END OF INPUT****

CARTESIAN COORDINATES (ANGSTROEM)
---------------------------------
  C     -2.484596    0.216754    0.392870
  C     -1.773087    0.040221   -0.942276
  C     -0.518007   -0.802054   -0.826275
  Br     0.878177    0.099481    0.243877
  H     -2.766196   -0.748616    0.807635
  H     -1.837339    0.723159    1.106194
  H     -3.382965    0.813429    0.264003
  H     -1.521446    1.017342   -1.359670
  H     -2.435615   -0.466959   -1.647721
  H     -0.058177   -0.984946   -1.795499
  H     -0.707209   -1.744411   -0.315288

 Total Charge           Charge          ....    0
 Multiplicity           Mult            ....    1
 Number of Electrons    NEL             ....   60
 Basis Dimension        Dim             ....  128

ORBITAL ENERGIES
----------------

  NO   OCC          E(Eh)            E(eV)
   0   2.0000    -482.208487    -13121.5600
   1   2.0000     -62.280436     -1694.7368
   2   2.0000     -56.060821     -1525.4925
   3   2.0000     -56.058243     -1525.4223
   4   2.0000     -56.058198     -1525.4211
   5   2.0000     -10.078500      -274.2499
   6   2.0000     -10.031498      -272.9710
   7   2.0000     -10.011379      -272.4235
   8   2.0000      -8.612367      -234.3544
   9   2.0000      -6.419217      -174.6758
  10   2.0000      -6.406547      -174.3310
  11   2.0000      -6.406375      -174.3263
  12   2.0000      -2.516939       -68.4894
  13   2.0000      -2.513818       -68.4045
  14   2.0000      -2.513701       -68.4013
  15   2.0000      -2.504260       -68.1444
  16   2.0000      -2.504248       -68.1441
  17   2.0000      -0.781324       -21.2609
  18   2.0000      -0.713064       -19.4034
  19   2.0000      -0.632649       -17.2152
  20   2.0000      -0.547124       -14.8880
  21   2.0000      -0.430268       -11.7082
  22   2.0000      -0.422561       -11.4985
  23   2.0000      -0.382765       -10.4156
  24   2.0000      -0.350634        -9.5412
  25   2.0000      -0.321601        -8.7512
  26   2.0000      -0.316012        -8.5991
  27   2.0000      -0.301466        -8.2033
  28   2.0000      -0.248512        -6.7624
  29   2.0000      -0.245814        -6.6889
  30   0.0000      -0.018650        -0.5075
  31   0.0000       0.105392         2.8679
  32   0.0000       0.132012         3.5922
  33   0.0000       0.135369         3.6836
  34   0.0000       0.156431         4.2567

MULLIKEN ATOMIC CHARGES
-----------------------
   0 C :   -0.494811
   1 C :   -0.238337
   2 C :   -0.198571
   3 Br:   -0.237417
   4 H :    0.156981
   5 H :    0.155373
   6 H :    0.160427
   7 H :    0.160272
   8 H :    0.164519
   9 H :    0.191579
  10 H :    0.179986
Sum of atomic charges:    0.0000000

LOEWDIN ATOMIC CHARGES
----------------------
   0 C :   -0.437934
   1 C :   -0.336571
   2 C :   -0.376923
   3 Br:    0.021219
   4 H :    0.155151
   5 H :    0.154487
   6 H :    0.156336
   7 H :    0.161329
   8 H :    0.170587
   9 H :    0.166067
  10 H :    0.166253

  Mayer bond orders larger than 0.100000
B(  0-C ,  1-C ) :   0.9107 B(  0-C ,  4-H ) :   0.9757 B(  0-C ,  5-H ) :   0.9719
B(  0-C ,  6-H ) :   0.9674 B(  1-C ,  2-C ) :   0.9206 B(  1-C ,  7-H ) :   0.9664
B(  1-C ,  8-H ) :   0.9424 B(  2-C ,  3-Br) :   0.9232 B(  2-C ,  9-H ) :   0.9489
B(  2-C , 10-H ) :   0.9577

Dispersion correction           -0.002385599
FINAL SINGLE POINT ENERGY     -2692.634822794285

DIPOLE MOMENT
-------------

Method             : SCF
Type of density    : Electron Density
Multiplicity       :   1
Irrep              :   0
Energy             : -2692.6379480730615796 Eh
Relativity type    :
Basis              : AO
                                X                 Y                 Z
Electronic contribution:     19.146404005       1.778798503       4.384985592
Nuclear contribution   :    -20.077223224      -2.228695228      -5.022993118
                        -----------------------------------------
Total Dipole Moment    :     -0.930819219      -0.449896725      -0.638007526
                        -----------------------------------------
Magnitude (a.u.)       :      1.214860109
Magnitude (Debye)      :      3.087928996

Rotational constants in cm-1:             0.368852             0.075495             0.067284
Rotational constants in MHz :         11057.893603          2263.288379          2017.122214

                             ****ORCA TERMINATED NORMALLY****
TOTAL RUN TIME: 0 days 0 hours 0 minutes 9 seconds 747 msec
