                         Program Version 6.0.0  -   RELEASE  -
|  1> ! pbe def2-sv(p) def2/J RI DEFGRID1 loosescf d4 GCP(DFT/SV(P)) printgap
|  2> %output
|  3>     printlevel normal
|  4> end
|  5> * xyz 0 1
|  6> C -2.323303238 -0.7788540286 -0.6833570421
|  7> C -1.072279185 -0.5318263609 0.1617528762
|  8> H -1.2524784485 -0.9159133687 1.1785495654
|  9> C -0.7281972162 0.9761823481 0.2855534381
| 10> H -1.5362065315 1.5588085534 -0.1693653848
| 11> C 0.5883754136 1.263243074 -0.462120508
| 12> H 0.8651227293 2.3091893352 -0.2923603214
| 13> C 1.7119305723 0.3707468605 0.1055726377
| 14> H 2.5473705836 0.3854892265 -0.605704551
| 15> C 1.2131735535 -1.0922206428 0.2141183854
| 16> H 1.0701789551 -1.33698652 1.288146186
| 17> O -0.0222554961 -1.2659714698 -0.4488872068
| 18> O 2.1443891125 -1.9220765798 -0.3760460374
| 19> O 2.0922827901 0.8802983022 1.3599137842
| 20> O 0.4592764317 1.1119416561 -1.8499566861
| 21> O -0.6638861248 1.3938446944 1.6260163833
| 22> O -3.4343250303 -0.2659842366 0.0084521513
| 23> H -2.4160686052 -1.8609902243 -0.8411799466
| 24> H -2.1980276412 -0.2853840585 -1.6550224614
| 25> H 1.7796070634 -2.8158786165 -0.473112656
| 26> H 2.9559720813 0.5291493266 1.6196204395
| 27> H 0.3127131618 0.1725929259 -2.0461422712
| 28> H 0.240048102 1.2647808751 1.9614851648
| 29> H -4.2305661481 -0.396278846 -0.5262399719
| 30> *
| 31>
| 32>                          ****END OF INPUT****

CARTESIAN COORDINATES (ANGSTROEM)
---------------------------------
  C     -2.323303   -0.778854   -0.683357
  C     -1.072279   -0.531826    0.161753
  H     -1.252478   -0.915913    1.178550
  C     -0.728197    0.976182    0.285553
  H     -1.536207    1.558809   -0.169365
  C      0.588375    1.263243   -0.462121
  H      0.865123    2.309189   -0.292360
  C      1.711931    0.370747    0.105573
  H      2.547371    0.385489   -0.605705
  C      1.213174   -1.092221    0.214118
  H      1.070179   -1.336987    1.288146
  O     -0.022255   -1.265971   -0.448887
  O      2.144389   -1.922077   -0.376046
  O      2.092283    0.880298    1.359914
  O      0.459276    1.111942   -1.849957
  O     -0.663886    1.393845    1.626016
  O     -3.434325   -0.265984    0.008452
  H     -2.416069   -1.860990   -0.841180
  H     -2.198028   -0.285384   -1.655022
  H      1.779607   -2.815879   -0.473113
  H      2.955972    0.529149    1.619620
  H      0.312713    0.172593   -2.046142
  H      0.240048    1.264781    1.961485
  H     -4.230566   -0.396279   -0.526240

 Total Charge           Charge          ....    0
 Multiplicity           Mult            ....    1
 Number of Electrons    NEL             ....   96
 Basis Dimension        Dim             ....  192

ORBITAL ENERGIES
----------------

  NO   OCC          E(Eh)            E(eV)
   0   2.0000     -18.785169      -511.1704
   1   2.0000     -18.778799      -510.9971
   2   2.0000     -18.772714      -510.8315
   3   2.0000     -18.753476      -510.3080
   4   2.0000     -18.746703      -510.1237
   5   2.0000     -18.729217      -509.6479
   6   2.0000      -9.995142      -271.9817
   7   2.0000      -9.948133      -270.7025
   8   2.0000      -9.941239      -270.5149
   9   2.0000      -9.940083      -270.4834
  10   2.0000      -9.936865      -270.3958
  11   2.0000      -9.928830      -270.1772
  12   2.0000      -0.995896       -27.0997
  13   2.0000      -0.952979       -25.9319
  14   2.0000      -0.937176       -25.5019
  15   2.0000      -0.927761       -25.2457
  16   2.0000      -0.919398       -25.0181
  17   2.0000      -0.906652       -24.6713
  18   2.0000      -0.698657       -19.0114
  19   2.0000      -0.690749       -18.7962
  20   2.0000      -0.619343       -16.8532
  21   2.0000      -0.590400       -16.0656
  22   2.0000      -0.559712       -15.2305
  23   2.0000      -0.522255       -14.2113
  24   2.0000      -0.515098       -14.0165
  25   2.0000      -0.492967       -13.4143
  26   2.0000      -0.484680       -13.1888
  27   2.0000      -0.468407       -12.7460
  28   2.0000      -0.443462       -12.0672
  29   2.0000      -0.439314       -11.9543
  30   2.0000      -0.412647       -11.2287
  31   2.0000      -0.400226       -10.8907
  32   2.0000      -0.388716       -10.5775
  33   2.0000      -0.376009       -10.2317
  34   2.0000      -0.355979        -9.6867
  35   2.0000      -0.341487        -9.2923
  36   2.0000      -0.327748        -8.9185
  37   2.0000      -0.320020        -8.7082
  38   2.0000      -0.317886        -8.6501
  39   2.0000      -0.291027        -7.9192
  40   2.0000      -0.285476        -7.7682
  41   2.0000      -0.274577        -7.4716
  42   2.0000      -0.261091        -7.1046
  43   2.0000      -0.250198        -6.8082
  44   2.0000      -0.231383        -6.2963
  45   2.0000      -0.222192        -6.0462
  46   2.0000      -0.214635        -5.8405
  47   2.0000      -0.195135        -5.3099
  48   0.0000       0.007247         0.1972
  49   0.0000       0.020725         0.5640
  50   0.0000       0.024784         0.6744
  51   0.0000       0.043053         1.1715
  52   0.0000       0.059888         1.6296

MULLIKEN ATOMIC CHARGES
-----------------------
   0 C :    0.052178
   1 C :    0.020485
   2 H :    0.072095
   3 C :    0.053728
   4 H :    0.083119
   5 C :    0.022327
   6 H :    0.088727
   7 C :    0.012684
   8 H :    0.083551
   9 C :    0.195618
  10 H :    0.036434
  11 O :   -0.322767
  12 O :   -0.382055
  13 O :   -0.419668
  14 O :   -0.421500
  15 O :   -0.426050
  16 O :   -0.426980
  17 H :    0.074592
  18 H :    0.064867
  19 H :    0.307350
  20 H :    0.317973
  21 H :    0.305332
  22 H :    0.301847
  23 H :    0.306113
Sum of atomic charges:    0.0000000

LOEWDIN ATOMIC CHARGES
----------------------
   0 C :   -0.125384
   1 C :   -0.068677
   2 H :    0.111909
   3 C :   -0.071983
   4 H :    0.119347
   5 C :   -0.071103
   6 H :    0.123019
   7 C :   -0.091480
   8 H :    0.117729
   9 C :   -0.004094
  10 H :    0.080022
  11 O :   -0.160310
  12 O :   -0.296148
  13 O :   -0.308087
  14 O :   -0.313058
  15 O :   -0.322645
  16 O :   -0.334269
  17 H :    0.097387
  18 H :    0.095253
  19 H :    0.289893
  20 H :    0.298165
  21 H :    0.273027
  22 H :    0.270764
  23 H :    0.290724

  Mayer bond orders larger than 0.100000
B(  0-C ,  1-C ) :   1.0597 B(  0-C , 16-O ) :   1.0992 B(  0-C , 17-H ) :   0.9098
B(  0-C , 18-H ) :   0.9041 B(  1-C ,  2-H ) :   0.8759 B(  1-C ,  3-C ) :   0.9459
B(  1-C , 11-O ) :   0.9681 B(  3-C ,  4-H ) :   0.8967 B(  3-C ,  5-C ) :   0.9989
B(  3-C , 15-O ) :   1.0767 B(  5-C ,  6-H ) :   0.8935 B(  5-C ,  7-C ) :   0.9921
B(  5-C , 14-O ) :   1.0514 B(  7-C ,  8-H ) :   0.8850 B(  7-C ,  9-C ) :   0.9765
B(  7-C , 13-O ) :   1.0288 B(  9-C , 10-H ) :   0.8759 B(  9-C , 11-O ) :   1.0255
B(  9-C , 12-O ) :   1.1672 B( 12-O , 19-H ) :   0.8377 B( 13-O , 20-H ) :   0.8395
B( 14-O , 21-H ) :   0.8236 B( 15-O , 22-H ) :   0.8132 B( 16-O , 23-H ) :   0.8494

Dispersion correction           -0.024820944
FINAL SINGLE POINT ENERGY      -685.690289949162

DIPOLE MOMENT
-------------

Method             : SCF
Type of density    : Electron Density
Multiplicity       :   1
Irrep              :   0
Energy             :  -685.8220281607984816 Eh
Relativity type    :
Basis              : AO
                                X                 Y                 Z
Electronic contribution:      2.101330364      -0.014063469       0.332642047
Nuclear contribution   :     -1.738661295      -1.306396580      -0.521886358
                        -----------------------------------------
Total Dipole Moment    :      0.362669069      -1.320460050      -0.189244311
                        -----------------------------------------
Magnitude (a.u.)       :      1.382373685
Magnitude (Debye)      :      3.513714669

Rotational constants in cm-1:             0.043317             0.024902             0.021267
Rotational constants in MHz :          1298.606350           746.543598           637.563916

                             ****ORCA TERMINATED NORMALLY****
TOTAL RUN TIME: 0 days 0 hours 0 minutes 12 seconds 52 msec
