                         Program Version 6.0.0  -   RELEASE  -
|  1> ! r2scan-3c def2/J RI DEFGRID2 scfconv6 printgap
|  2> %output
|  3>     printlevel normal
|  4> end
|  5> * xyz 0 1
|  6> C -2.6396284271 -1.3241507992 0.3956385148
|  7> C -1.950129763 -0.167184184 -0.3267130462
|  8> C -0.4503047547 -0.1515494815 -0.1657276673
|  9> C 0.2689300097 -1.3390302295 -0.230285281
| 10> C 1.6449560521 -1.3609146535 -0.0935454396
| 11> C 2.3307619146 -0.17761419 0.1093140496
| 12> C 1.6285155202 1.0124169246 0.1614537379
| 13> C 0.246425441 1.047584974 0.0228064247
| 14> C -0.4571727447 2.3727989462 0.0729797621
| 15> H -2.4112239481 -2.2809622509 -0.0654300852
| 16> H -3.7179721572 -1.1866837265 0.3633599451
| 17> H -2.3264422634 -1.3594118972 1.436690267
| 18> H -2.3657694665 0.7655329203 0.0518304404
| 19> H -2.1856216892 -0.2203915555 -1.3943354343
| 20> H -0.2525038335 -2.2692952274 -0.3950010798
| 21> H 2.177943974 -2.2988920827 -0.1465090432
| 22> H 3.4050024593 -0.1790705804 0.2209346784
| 23> H 2.1658158948 1.9384172827 0.3115771238
| 24> H -1.1320781482 2.4208731687 0.926793074
| 25> H 0.2660092269 3.178822451 0.166610897
| 26> H -1.0396546045 2.5354869221 -0.8320697381
| 27> *
| 28>
| 29>                          ****END OF INPUT****

CARTESIAN COORDINATES (ANGSTROEM)
---------------------------------
  C     -2.639628   -1.324151    0.395639
  C     -1.950130   -0.167184   -0.326713
  C     -0.450305   -0.151549   -0.165728
  C      0.268930   -1.339030   -0.230285
  C      1.644956   -1.360915   -0.093545
  C      2.330762   -0.177614    0.109314
  C      1.628516    1.012417    0.161454
  C      0.246425    1.047585    0.022806
  C     -0.457173    2.372799    0.072980
  H     -2.411224   -2.280962   -0.065430
  H     -3.717972   -1.186684    0.363360
  H     -2.326442   -1.359412    1.436690
  H     -2.365769    0.765533    0.051830
  H     -2.185622   -0.220392   -1.394335
  H     -0.252504   -2.269295   -0.395001
  H      2.177944   -2.298892   -0.146509
  H      3.405002   -0.179071    0.220935
  H      2.165816    1.938417    0.311577
  H     -1.132078    2.420873    0.926793
  H      0.266009    3.178822    0.166611
  H     -1.039655    2.535487   -0.832070

 Total Charge           Charge          ....    0
 Multiplicity           Mult            ....    1
 Number of Electrons    NEL             ....   66
 Basis Dimension        Dim             ....  231

ORBITAL ENERGIES
----------------

  NO   OCC          E(Eh)            E(eV)
   0   2.0000     -10.038091      -273.1503
   1   2.0000     -10.036143      -273.0973
   2   2.0000     -10.032768      -273.0055
   3   2.0000     -10.026198      -272.8267
   4   2.0000     -10.025591      -272.8102
   5   2.0000     -10.025222      -272.8002
   6   2.0000     -10.024942      -272.7925
   7   2.0000     -10.024734      -272.7869
   8   2.0000     -10.020934      -272.6835
   9   2.0000      -0.827501       -22.5174
  10   2.0000      -0.754411       -20.5286
  11   2.0000      -0.736425       -20.0391
  12   2.0000      -0.690128       -18.7793
  13   2.0000      -0.650521       -17.7016
  14   2.0000      -0.603282       -16.4161
  15   2.0000      -0.555170       -15.1069
  16   2.0000      -0.535520       -14.5723
  17   2.0000      -0.469061       -12.7638
  18   2.0000      -0.441516       -12.0143
  19   2.0000      -0.421214       -11.4618
  20   2.0000      -0.406081       -11.0500
  21   2.0000      -0.396122       -10.7790
  22   2.0000      -0.388600       -10.5743
  23   2.0000      -0.371882       -10.1194
  24   2.0000      -0.354469        -9.6456
  25   2.0000      -0.348289        -9.4774
  26   2.0000      -0.335571        -9.1314
  27   2.0000      -0.329176        -8.9573
  28   2.0000      -0.316939        -8.6243
  29   2.0000      -0.294788        -8.0216
  30   2.0000      -0.292308        -7.9541
  31   2.0000      -0.225703        -6.1417
  32   2.0000      -0.216895        -5.9020
  33   0.0000      -0.025740        -0.7004
  34   0.0000      -0.021295        -0.5795
  35   0.0000       0.086282         2.3479
  36   0.0000       0.093309         2.5391
  37   0.0000       0.097022         2.6401

MULLIKEN ATOMIC CHARGES
-----------------------
   0 C :   -0.469388
   1 C :   -0.334546
   2 C :    0.164327
   3 C :   -0.209564
   4 C :   -0.171017
   5 C :   -0.163189
   6 C :   -0.206727
   7 C :    0.154155
   8 C :   -0.586711
   9 H :    0.140066
  10 H :    0.148769
  11 H :    0.160816
  12 H :    0.148984
  13 H :    0.168857
  14 H :    0.137995
  15 H :    0.143441
  16 H :    0.143702
  17 H :    0.144049
  18 H :    0.169232
  19 H :    0.149268
  20 H :    0.167482
Sum of atomic charges:   -0.0000000

LOEWDIN ATOMIC CHARGES
----------------------
   0 C :   -0.413075
   1 C :   -0.285636
   2 C :   -0.087430
   3 C :   -0.157492
   4 C :   -0.169896
   5 C :   -0.169970
   6 C :   -0.165318
   7 C :   -0.093436
   8 C :   -0.394008
   9 H :    0.148453
  10 H :    0.150932
  11 H :    0.156654
  12 H :    0.162246
  13 H :    0.167727
  14 H :    0.168165
  15 H :    0.165469
  16 H :    0.165824
  17 H :    0.165969
  18 H :    0.162433
  19 H :    0.159097
  20 H :    0.163292

  Mayer bond orders larger than 0.100000
B(  0-C ,  1-C ) :   0.8855 B(  0-C ,  9-H ) :   0.9671 B(  0-C , 10-H ) :   0.9742
B(  0-C , 11-H ) :   0.9858 B(  1-C ,  2-C ) :   0.8305 B(  1-C , 12-H ) :   0.9979
B(  1-C , 13-H ) :   0.9734 B(  2-C ,  3-C ) :   1.3816 B(  2-C ,  7-C ) :   1.4656
B(  3-C ,  4-C ) :   1.4378 B(  3-C , 14-H ) :   0.9413 B(  4-C ,  5-C ) :   1.4266
B(  4-C , 15-H ) :   0.9512 B(  5-C ,  6-C ) :   1.4506 B(  5-C , 16-H ) :   0.9482
B(  6-C ,  7-C ) :   1.3972 B(  6-C , 17-H ) :   0.9270 B(  7-C ,  8-C ) :   0.7721
B(  8-C , 18-H ) :   0.9839 B(  8-C , 19-H ) :   0.9874 B(  8-C , 20-H ) :   0.9790

Dispersion correction           -0.007003948
FINAL SINGLE POINT ENERGY      -350.079695637074

DIPOLE MOMENT
-------------

Method             : SCF
Type of density    : Electron Density
Multiplicity       :   1
Irrep              :   0
Energy             :  -350.0801342970332826 Eh
Relativity type    :
Basis              : AO
                                X                 Y                 Z
Electronic contribution:      6.690605947      -0.853681903      -0.625603788
Nuclear contribution   :     -6.957910817       0.979845519       0.604602736
                        -----------------------------------------
Total Dipole Moment    :     -0.267304870       0.126163615      -0.021001052
                        -----------------------------------------
Magnitude (a.u.)       :      0.296327851
Magnitude (Debye)      :      0.753205539

Rotational constants in cm-1:             0.080215             0.049378             0.031802
Rotational constants in MHz :          2404.774983          1480.306897           953.405016

                             ****ORCA TERMINATED NORMALLY****
TOTAL RUN TIME: 0 days 0 hours 0 minutes 25 seconds 776 msec
