                         Program Version 6.0.0  -   RELEASE  -
|  1> ! r2scan-3c def2/J RI DEFGRID2 scfconv6 printgap
|  2> %output
|  3>     printlevel normal
|  4> end
|  5> * xyz 0 1
|  6> C -3.3596845891 -0.0024139636 -0.5252165756
|  7> C -2.7228952822 -1.2003645769 -0.2456577594
|  8> C -1.456280773 -1.1992518639 0.3099823218
|  9> C -0.8170735577 0.0021566449 0.5965793618
| 10> C -1.4587764879 1.2012273218 0.3058956757
| 11> C -2.7253753952 1.1977893877 -0.249796577
| 12> C 0.5480847541 0.0045819852 1.1889976559
| 13> Br 1.9437399041 -0.000666582 -0.241454961
| 14> H -4.3470859267 -0.004176105 -0.960201903
| 15> H -3.2119348376 -2.1375854157 -0.4620121054
| 16> H -0.9578234143 -2.1337532658 0.5229361674
| 17> H -0.9621874376 2.1374989692 0.5153853476
| 18> H -3.2164407161 2.1332517938 -0.4691394674
| 19> H 0.7529894535 -0.8895729115 1.7733001284
| 20> H 0.7524258022 0.9027928272 1.7672608216
| 21> *
| 22>
| 23>                          ****END OF INPUT****

CARTESIAN COORDINATES (ANGSTROEM)
---------------------------------
  C     -3.359685   -0.002414   -0.525217
  C     -2.722895   -1.200365   -0.245658
  C     -1.456281   -1.199252    0.309982
  C     -0.817074    0.002157    0.596579
  C     -1.458776    1.201227    0.305896
  C     -2.725375    1.197789   -0.249797
  C      0.548085    0.004582    1.188998
  Br     1.943740   -0.000667   -0.241455
  H     -4.347086   -0.004176   -0.960202
  H     -3.211935   -2.137585   -0.462012
  H     -0.957823   -2.133753    0.522936
  H     -0.962187    2.137499    0.515385
  H     -3.216441    2.133252   -0.469139
  H      0.752989   -0.889573    1.773300
  H      0.752426    0.902793    1.767261

 Total Charge           Charge          ....    0
 Multiplicity           Mult            ....    1
 Number of Electrons    NEL             ....   84
 Basis Dimension        Dim             ....  204

ORBITAL ENERGIES
----------------

  NO   OCC          E(Eh)            E(eV)
   0   2.0000    -482.212751    -13121.6760
   1   2.0000     -62.284452     -1694.8461
   2   2.0000     -56.064975     -1525.6055
   3   2.0000     -56.062231     -1525.5309
   4   2.0000     -56.062109     -1525.5275
   5   2.0000     -10.098267      -274.7878
   6   2.0000     -10.059027      -273.7200
   7   2.0000     -10.046574      -273.3812
   8   2.0000     -10.046560      -273.3808
   9   2.0000     -10.045796      -273.3600
  10   2.0000     -10.045438      -273.3503
  11   2.0000     -10.045153      -273.3425
  12   2.0000      -8.616192      -234.4585
  13   2.0000      -6.423827      -174.8012
  14   2.0000      -6.409902      -174.4223
  15   2.0000      -6.409855      -174.4210
  16   2.0000      -2.521267       -68.6072
  17   2.0000      -2.517868       -68.5147
  18   2.0000      -2.517828       -68.5136
  19   2.0000      -2.507482       -68.2321
  20   2.0000      -2.507479       -68.2320
  21   2.0000      -0.844457       -22.9788
  22   2.0000      -0.780378       -21.2352
  23   2.0000      -0.728496       -19.8234
  24   2.0000      -0.720664       -19.6103
  25   2.0000      -0.642898       -17.4941
  26   2.0000      -0.589327       -16.0364
  27   2.0000      -0.564393       -15.3579
  28   2.0000      -0.496064       -13.4986
  29   2.0000      -0.453259       -12.3338
  30   2.0000      -0.439702       -11.9649
  31   2.0000      -0.403618       -10.9830
  32   2.0000      -0.402434       -10.9508
  33   2.0000      -0.389240       -10.5918
  34   2.0000      -0.384957       -10.4752
  35   2.0000      -0.342610        -9.3229
  36   2.0000      -0.329353        -8.9621
  37   2.0000      -0.322260        -8.7691
  38   2.0000      -0.256788        -6.9876
  39   2.0000      -0.253852        -6.9077
  40   2.0000      -0.245610        -6.6834
  41   2.0000      -0.237366        -6.4591
  42   0.0000      -0.068900        -1.8749
  43   0.0000      -0.042671        -1.1611
  44   0.0000      -0.004166        -0.1134
  45   0.0000       0.067464         1.8358
  46   0.0000       0.098023         2.6674

MULLIKEN ATOMIC CHARGES
-----------------------
   0 C :   -0.133968
   1 C :   -0.153820
   2 C :   -0.180902
   3 C :    0.171199
   4 C :   -0.180960
   5 C :   -0.153837
   6 C :   -0.288977
   7 Br:   -0.169555
   8 H :    0.148976
   9 H :    0.147911
  10 H :    0.150983
  11 H :    0.150945
  12 H :    0.147908
  13 H :    0.172049
  14 H :    0.172046
Sum of atomic charges:   -0.0000000

LOEWDIN ATOMIC CHARGES
----------------------
   0 C :   -0.157968
   1 C :   -0.156785
   2 C :   -0.147400
   3 C :   -0.134089
   4 C :   -0.147428
   5 C :   -0.156801
   6 C :   -0.347801
   7 Br:    0.060712
   8 H :    0.168709
   9 H :    0.169138
  10 H :    0.172727
  11 H :    0.172701
  12 H :    0.169136
  13 H :    0.167581
  14 H :    0.167567

  Mayer bond orders larger than 0.100000
B(  0-C ,  1-C ) :   1.4223 B(  0-C ,  5-C ) :   1.4225 B(  0-C ,  8-H ) :   0.9470
B(  1-C ,  2-C ) :   1.4583 B(  1-C ,  9-H ) :   0.9482 B(  2-C ,  3-C ) :   1.3907
B(  2-C , 10-H ) :   0.9385 B(  3-C ,  4-C ) :   1.3908 B(  3-C ,  6-C ) :   0.8468
B(  4-C ,  5-C ) :   1.4582 B(  4-C , 11-H ) :   0.9384 B(  5-C , 12-H ) :   0.9482
B(  6-C ,  7-Br) :   1.0074 B(  6-C , 13-H ) :   0.9734 B(  6-C , 14-H ) :   0.9734

Dispersion correction           -0.005284929
FINAL SINGLE POINT ENERGY     -2845.022695434678

DIPOLE MOMENT
-------------

Method             : SCF
Type of density    : Electron Density
Multiplicity       :   1
Irrep              :   0
Energy             : -2845.0216858861986111 Eh
Relativity type    :
Basis              : AO
                                X                 Y                 Z
Electronic contribution:     27.749749425      -0.012679775      -4.307105332
Nuclear contribution   :    -28.546051023       0.014122396       4.763308550
                        -----------------------------------------
Total Dipole Moment    :     -0.796301598       0.001442622       0.456203218
                        -----------------------------------------
Magnitude (a.u.)       :      0.917725281
Magnitude (Debye)      :      2.332672284

Rotational constants in cm-1:             0.129318             0.022110             0.020802
Rotational constants in MHz :          3876.860303           662.834099           623.619274

                             ****ORCA TERMINATED NORMALLY****
TOTAL RUN TIME: 0 days 0 hours 0 minutes 20 seconds 424 msec
