                         Program Version 6.0.0  -   RELEASE  -
|  1> ! r2scan-3c def2/J RI DEFGRID2 scfconv6 printgap
|  2> %output
|  3>     printlevel normal
|  4> end
|  5> %cpcm
|  6>     smd true
|  7>     smdsolvent "water"
|  8> end
|  9> * xyz 0 1
| 10> C -3.3596845891 -0.0024139636 -0.5252165756
| 11> C -2.7228952822 -1.2003645769 -0.2456577594
| 12> C -1.456280773 -1.1992518639 0.3099823218
| 13> C -0.8170735577 0.0021566449 0.5965793618
| 14> C -1.4587764879 1.2012273218 0.3058956757
| 15> C -2.7253753952 1.1977893877 -0.249796577
| 16> C 0.5480847541 0.0045819852 1.1889976559
| 17> Br 1.9437399041 -0.000666582 -0.241454961
| 18> H -4.3470859267 -0.004176105 -0.960201903
| 19> H -3.2119348376 -2.1375854157 -0.4620121054
| 20> H -0.9578234143 -2.1337532658 0.5229361674
| 21> H -0.9621874376 2.1374989692 0.5153853476
| 22> H -3.2164407161 2.1332517938 -0.4691394674
| 23> H 0.7529894535 -0.8895729115 1.7733001284
| 24> H 0.7524258022 0.9027928272 1.7672608216
| 25> *
| 26>
| 27>                          ****END OF INPUT****

CARTESIAN COORDINATES (ANGSTROEM)
---------------------------------
  C     -3.359685   -0.002414   -0.525217
  C     -2.722895   -1.200365   -0.245658
  C     -1.456281   -1.199252    0.309982
  C     -0.817074    0.002157    0.596579
  C     -1.458776    1.201227    0.305896
  C     -2.725375    1.197789   -0.249797
  C      0.548085    0.004582    1.188998
  Br     1.943740   -0.000667   -0.241455
  H     -4.347086   -0.004176   -0.960202
  H     -3.211935   -2.137585   -0.462012
  H     -0.957823   -2.133753    0.522936
  H     -0.962187    2.137499    0.515385
  H     -3.216441    2.133252   -0.469139
  H      0.752989   -0.889573    1.773300
  H      0.752426    0.902793    1.767261

 Total Charge           Charge          ....    0
 Multiplicity           Mult            ....    1
 Number of Electrons    NEL             ....   84
 Basis Dimension        Dim             ....  204

ORBITAL ENERGIES
----------------

  NO   OCC          E(Eh)            E(eV)
   0   2.0000    -482.212997    -13121.6828
   1   2.0000     -62.284690     -1694.8526
   2   2.0000     -56.065136     -1525.6099
   3   2.0000     -56.062529     -1525.5390
   4   2.0000     -56.062404     -1525.5356
   5   2.0000     -10.087422      -274.4927
   6   2.0000     -10.051906      -273.5263
   7   2.0000     -10.037745      -273.1409
   8   2.0000     -10.037732      -273.1406
   9   2.0000     -10.036488      -273.1067
  10   2.0000     -10.036167      -273.0980
  11   2.0000     -10.035841      -273.0891
  12   2.0000      -8.616253      -234.4602
  13   2.0000      -6.423414      -174.7900
  14   2.0000      -6.410199      -174.4304
  15   2.0000      -6.410171      -174.4296
  16   2.0000      -2.520999       -68.5999
  17   2.0000      -2.517756       -68.5116
  18   2.0000      -2.517740       -68.5112
  19   2.0000      -2.507906       -68.2436
  20   2.0000      -2.507901       -68.2435
  21   2.0000      -0.837477       -22.7889
  22   2.0000      -0.774001       -21.0616
  23   2.0000      -0.720276       -19.5997
  24   2.0000      -0.716003       -19.4834
  25   2.0000      -0.635105       -17.2821
  26   2.0000      -0.579534       -15.7699
  27   2.0000      -0.554580       -15.0909
  28   2.0000      -0.485169       -13.2021
  29   2.0000      -0.443000       -12.0546
  30   2.0000      -0.427439       -11.6312
  31   2.0000      -0.392937       -10.6924
  32   2.0000      -0.392555       -10.6820
  33   2.0000      -0.379575       -10.3288
  34   2.0000      -0.377729       -10.2785
  35   2.0000      -0.338240        -9.2040
  36   2.0000      -0.319262        -8.6876
  37   2.0000      -0.310910        -8.4603
  38   2.0000      -0.256191        -6.9713
  39   2.0000      -0.252473        -6.8701
  40   2.0000      -0.242051        -6.5865
  41   2.0000      -0.234150        -6.3715
  42   0.0000      -0.064292        -1.7495
  43   0.0000      -0.036771        -1.0006
  44   0.0000       0.001323         0.0360
  45   0.0000       0.083665         2.2766
  46   0.0000       0.110678         3.0117

MULLIKEN ATOMIC CHARGES
-----------------------
   0 C :   -0.162043
   1 C :   -0.193627
   2 C :   -0.207364
   3 C :    0.155086
   4 C :   -0.207417
   5 C :   -0.193584
   6 C :   -0.294680
   7 Br:   -0.217655
   8 H :    0.182295
   9 H :    0.180878
  10 H :    0.184706
  11 H :    0.184740
  12 H :    0.180876
  13 H :    0.203880
  14 H :    0.203911
Sum of atomic charges:   -0.0000000

LOEWDIN ATOMIC CHARGES
----------------------
   0 C :   -0.167222
   1 C :   -0.167545
   2 C :   -0.154967
   3 C :   -0.141026
   4 C :   -0.154968
   5 C :   -0.167558
   6 C :   -0.338708
   7 Br:    0.030180
   8 H :    0.178979
   9 H :    0.179507
  10 H :    0.183532
  11 H :    0.183538
  12 H :    0.179506
  13 H :    0.178375
  14 H :    0.178378

  Mayer bond orders larger than 0.100000
B(  0-C ,  1-C ) :   1.3864 B(  0-C ,  5-C ) :   1.3866 B(  0-C ,  8-H ) :   0.9516
B(  1-C ,  2-C ) :   1.4259 B(  1-C ,  9-H ) :   0.9559 B(  2-C ,  3-C ) :   1.3596
B(  2-C , 10-H ) :   0.9450 B(  3-C ,  4-C ) :   1.3599 B(  3-C ,  6-C ) :   0.8482
B(  4-C ,  5-C ) :   1.4258 B(  4-C , 11-H ) :   0.9450 B(  5-C , 12-H ) :   0.9559
B(  6-C ,  7-Br) :   0.9513 B(  6-C , 13-H ) :   0.9655 B(  6-C , 14-H ) :   0.9655

Dispersion correction           -0.005284929
FINAL SINGLE POINT ENERGY     -2845.028333420967

DIPOLE MOMENT
-------------

Method             : SCF
Type of density    : Electron Density
Multiplicity       :   1
Irrep              :   0
Energy             : -2845.0273238724871590 Eh
Relativity type    :
Basis              : AO
                                X                 Y                 Z
Electronic contribution:     27.594106290      -0.011773277      -4.095242109
Nuclear contribution   :    -28.546051023       0.014122396       4.763308550
                        -----------------------------------------
Total Dipole Moment    :     -0.951944732       0.002349120       0.668066442
                        -----------------------------------------
Magnitude (a.u.)       :      1.162977671
Magnitude (Debye)      :      2.956054317

Rotational constants in cm-1:             0.129318             0.022110             0.020802
Rotational constants in MHz :          3876.860303           662.834099           623.619274

                             ****ORCA TERMINATED NORMALLY****
TOTAL RUN TIME: 0 days 0 hours 0 minutes 27 seconds 769 msec
