                         Program Version 6.0.0  -   RELEASE  -
|  1> ! r2scan-3c def2/J RI DEFGRID2 scfconv6 printgap
|  2> %output
|  3>     printlevel normal
|  4> end
|  5> * xyz 0 1
|  6> C -2.6220854177 -0.5547492025 1.0187814096
|  7> C -1.7670693411 0.0255028602 -0.0722460187
|  8> O -2.2200129745 0.2831304617 -1.1711460538
|  9> C -0.3097584091 0.2474624796 0.2742298485
| 10> C 0.4286990808 0.9661673437 -0.8553210144
| 11> C 1.89327568 1.1857821668 -0.492710079
| 12> C 2.5724390538 -0.1467306702 -0.1920705822
| 13> C 1.8434509839 -0.8682574034 0.9368589732
| 14> C 0.37638278 -1.0933076934 0.5798377635
| 15> H -3.6595642387 -0.2725222633 0.8604412861
| 16> H -2.5593297464 -1.6400543896 0.9581328173
| 17> H -2.2852081632 -0.2399799778 2.0004525614
| 18> H -0.2749300163 0.8658988319 1.1778556131
| 19> H 0.3556656954 0.3646739605 -1.764390863
| 20> H -0.0612766069 1.9208774947 -1.0590504782
| 21> H 2.403055901 1.6882694732 -1.3164044549
| 22> H 1.956644723 1.8328798174 0.3851104383
| 23> H 2.5590607951 -0.7692547426 -1.0894099826
| 24> H 3.6146256551 0.0205881011 0.0852559399
| 25> H 2.3202353472 -1.8302220902 1.1324588432
| 26> H 1.9060827906 -0.2694531602 1.8478850122
| 27> H 0.3093866015 -1.7337579639 -0.3025632188
| 28> H -0.1271672832 -1.5945922124 1.4062223231
| 29> *
| 30>
| 31>                          ****END OF INPUT****

CARTESIAN COORDINATES (ANGSTROEM)
---------------------------------
  C     -2.622085   -0.554749    1.018781
  C     -1.767069    0.025503   -0.072246
  O     -2.220013    0.283130   -1.171146
  C     -0.309758    0.247462    0.274230
  C      0.428699    0.966167   -0.855321
  C      1.893276    1.185782   -0.492710
  C      2.572439   -0.146731   -0.192071
  C      1.843451   -0.868257    0.936859
  C      0.376383   -1.093308    0.579838
  H     -3.659564   -0.272522    0.860441
  H     -2.559330   -1.640054    0.958133
  H     -2.285208   -0.239980    2.000453
  H     -0.274930    0.865899    1.177856
  H      0.355666    0.364674   -1.764391
  H     -0.061277    1.920877   -1.059050
  H      2.403056    1.688269   -1.316404
  H      1.956645    1.832880    0.385110
  H      2.559061   -0.769255   -1.089410
  H      3.614626    0.020588    0.085256
  H      2.320235   -1.830222    1.132459
  H      1.906083   -0.269453    1.847885
  H      0.309387   -1.733758   -0.302563
  H     -0.127167   -1.594592    1.406222

 Total Charge           Charge          ....    0
 Multiplicity           Mult            ....    1
 Number of Electrons    NEL             ....   70
 Basis Dimension        Dim             ....  246

ORBITAL ENERGIES
----------------

  NO   OCC          E(Eh)            E(eV)
   0   2.0000     -18.933673      -515.2114
   1   2.0000     -10.114877      -275.2398
   2   2.0000     -10.041432      -273.2413
   3   2.0000     -10.038626      -273.1649
   4   2.0000     -10.032684      -273.0032
   5   2.0000     -10.030965      -272.9564
   6   2.0000     -10.025689      -272.8129
   7   2.0000     -10.024237      -272.7734
   8   2.0000     -10.021478      -272.6983
   9   2.0000      -1.000409       -27.2225
  10   2.0000      -0.810004       -22.0413
  11   2.0000      -0.739693       -20.1281
  12   2.0000      -0.713478       -19.4147
  13   2.0000      -0.698432       -19.0053
  14   2.0000      -0.597116       -16.2484
  15   2.0000      -0.579162       -15.7598
  16   2.0000      -0.531866       -14.4728
  17   2.0000      -0.497607       -13.5406
  18   2.0000      -0.452882       -12.3235
  19   2.0000      -0.434553       -11.8248
  20   2.0000      -0.421145       -11.4599
  21   2.0000      -0.416363       -11.3298
  22   2.0000      -0.402929       -10.9643
  23   2.0000      -0.395984       -10.7753
  24   2.0000      -0.384361       -10.4590
  25   2.0000      -0.355343        -9.6694
  26   2.0000      -0.351102        -9.5540
  27   2.0000      -0.340412        -9.2631
  28   2.0000      -0.328190        -8.9305
  29   2.0000      -0.316316        -8.6074
  30   2.0000      -0.314097        -8.5470
  31   2.0000      -0.295464        -8.0400
  32   2.0000      -0.282286        -7.6814
  33   2.0000      -0.271298        -7.3824
  34   2.0000      -0.209168        -5.6918
  35   0.0000      -0.043648        -1.1877
  36   0.0000       0.070863         1.9283
  37   0.0000       0.094655         2.5757
  38   0.0000       0.102887         2.7997
  39   0.0000       0.111890         3.0447

MULLIKEN ATOMIC CHARGES
-----------------------
   0 C :   -0.555002
   1 C :    0.287060
   2 O :   -0.347034
   3 C :   -0.047680
   4 C :   -0.369696
   5 C :   -0.277615
   6 C :   -0.281449
   7 C :   -0.288219
   8 C :   -0.327544
   9 H :    0.178893
  10 H :    0.182245
  11 H :    0.161073
  12 H :    0.163976
  13 H :    0.171969
  14 H :    0.158351
  15 H :    0.149024
  16 H :    0.142782
  17 H :    0.143463
  18 H :    0.147829
  19 H :    0.148530
  20 H :    0.144754
  21 H :    0.164576
  22 H :    0.149715
Sum of atomic charges:   -0.0000000

LOEWDIN ATOMIC CHARGES
----------------------
   0 C :   -0.389129
   1 C :    0.225430
   2 O :   -0.467056
   3 C :   -0.203916
   4 C :   -0.277682
   5 C :   -0.302005
   6 C :   -0.303456
   7 C :   -0.299578
   8 C :   -0.274687
   9 H :    0.177256
  10 H :    0.180950
  11 H :    0.163459
  12 H :    0.174905
  13 H :    0.170034
  14 H :    0.167775
  15 H :    0.156553
  16 H :    0.154011
  17 H :    0.155679
  18 H :    0.155280
  19 H :    0.156503
  20 H :    0.155436
  21 H :    0.164154
  22 H :    0.160085

  Mayer bond orders larger than 0.100000
B(  0-C ,  1-C ) :   0.8916 B(  0-C ,  9-H ) :   0.9725 B(  0-C , 10-H ) :   0.9463
B(  0-C , 11-H ) :   0.9721 B(  1-C ,  2-O ) :   1.9483 B(  1-C ,  3-C ) :   0.8610
B(  2-O ,  3-C ) :  -0.1187 B(  3-C ,  4-C ) :   0.9302 B(  3-C ,  8-C ) :   0.8711
B(  3-C , 12-H ) :   0.9326 B(  4-C ,  5-C ) :   0.8769 B(  4-C , 13-H ) :   1.0089
B(  4-C , 14-H ) :   0.9443 B(  5-C ,  6-C ) :   0.9165 B(  5-C , 15-H ) :   0.9484
B(  5-C , 16-H ) :   0.9957 B(  6-C ,  7-C ) :   0.9198 B(  6-C , 17-H ) :   0.9909
B(  6-C , 18-H ) :   0.9484 B(  7-C ,  8-C ) :   0.9060 B(  7-C , 19-H ) :   0.9432
B(  7-C , 20-H ) :   0.9939 B(  8-C , 21-H ) :   0.9947 B(  8-C , 22-H ) :   0.9373

Dispersion correction           -0.007303302
FINAL SINGLE POINT ENERGY      -388.408665358470

DIPOLE MOMENT
-------------

Method             : SCF
Type of density    : Electron Density
Multiplicity       :   1
Irrep              :   0
Energy             :  -388.4111194026559701 Eh
Relativity type    :
Basis              : AO
                                X                 Y                 Z
Electronic contribution:     -5.479509199       1.264631446      -3.058856153
Nuclear contribution   :      6.025076934      -1.550012773       4.037380294
                        -----------------------------------------
Total Dipole Moment    :      0.545567735      -0.285381327       0.978524141
                        -----------------------------------------
Magnitude (a.u.)       :      1.156112516
Magnitude (Debye)      :      2.938604481

Rotational constants in cm-1:             0.103065             0.036669             0.029661
Rotational constants in MHz :          3089.814700          1099.323717           889.205405

                             ****ORCA TERMINATED NORMALLY****
TOTAL RUN TIME: 0 days 0 hours 0 minutes 36 seconds 925 msec
