                         Program Version 6.0.0  -   RELEASE  -
|  1> ! r2scan-3c def2/J RI DEFGRID2 scfconv6 printgap
|  2> %output
|  3>     printlevel normal
|  4> end
|  5> %cpcm
|  6>     smd true
|  7>     smdsolvent "water"
|  8> end
|  9> * xyz 0 1
| 10> C -2.6220854177 -0.5547492025 1.0187814096
| 11> C -1.7670693411 0.0255028602 -0.0722460187
| 12> O -2.2200129745 0.2831304617 -1.1711460538
| 13> C -0.3097584091 0.2474624796 0.2742298485
| 14> C 0.4286990808 0.9661673437 -0.8553210144
| 15> C 1.89327568 1.1857821668 -0.492710079
| 16> C 2.5724390538 -0.1467306702 -0.1920705822
| 17> C 1.8434509839 -0.8682574034 0.9368589732
| 18> C 0.37638278 -1.0933076934 0.5798377635
| 19> H -3.6595642387 -0.2725222633 0.8604412861
| 20> H -2.5593297464 -1.6400543896 0.9581328173
| 21> H -2.2852081632 -0.2399799778 2.0004525614
| 22> H -0.2749300163 0.8658988319 1.1778556131
| 23> H 0.3556656954 0.3646739605 -1.764390863
| 24> H -0.0612766069 1.9208774947 -1.0590504782
| 25> H 2.403055901 1.6882694732 -1.3164044549
| 26> H 1.956644723 1.8328798174 0.3851104383
| 27> H 2.5590607951 -0.7692547426 -1.0894099826
| 28> H 3.6146256551 0.0205881011 0.0852559399
| 29> H 2.3202353472 -1.8302220902 1.1324588432
| 30> H 1.9060827906 -0.2694531602 1.8478850122
| 31> H 0.3093866015 -1.7337579639 -0.3025632188
| 32> H -0.1271672832 -1.5945922124 1.4062223231
| 33> *
| 34>
| 35>                          ****END OF INPUT****

CARTESIAN COORDINATES (ANGSTROEM)
---------------------------------
  C     -2.622085   -0.554749    1.018781
  C     -1.767069    0.025503   -0.072246
  O     -2.220013    0.283130   -1.171146
  C     -0.309758    0.247462    0.274230
  C      0.428699    0.966167   -0.855321
  C      1.893276    1.185782   -0.492710
  C      2.572439   -0.146731   -0.192071
  C      1.843451   -0.868257    0.936859
  C      0.376383   -1.093308    0.579838
  H     -3.659564   -0.272522    0.860441
  H     -2.559330   -1.640054    0.958133
  H     -2.285208   -0.239980    2.000453
  H     -0.274930    0.865899    1.177856
  H      0.355666    0.364674   -1.764391
  H     -0.061277    1.920877   -1.059050
  H      2.403056    1.688269   -1.316404
  H      1.956645    1.832880    0.385110
  H      2.559061   -0.769255   -1.089410
  H      3.614626    0.020588    0.085256
  H      2.320235   -1.830222    1.132459
  H      1.906083   -0.269453    1.847885
  H      0.309387   -1.733758   -0.302563
  H     -0.127167   -1.594592    1.406222

 Total Charge           Charge          ....    0
 Multiplicity           Mult            ....    1
 Number of Electrons    NEL             ....   70
 Basis Dimension        Dim             ....  246

ORBITAL ENERGIES
----------------

  NO   OCC          E(Eh)            E(eV)
   0   2.0000     -18.945206      -515.5253
   1   2.0000     -10.121292      -275.4144
   2   2.0000     -10.032517      -272.9987
   3   2.0000     -10.024566      -272.7823
   4   2.0000     -10.021356      -272.6949
   5   2.0000     -10.016759      -272.5699
   6   2.0000     -10.015900      -272.5465
   7   2.0000     -10.014571      -272.5103
   8   2.0000     -10.013677      -272.4860
   9   2.0000      -1.013523       -27.5794
  10   2.0000      -0.799715       -21.7614
  11   2.0000      -0.731076       -19.8936
  12   2.0000      -0.703143       -19.1335
  13   2.0000      -0.688666       -18.7395
  14   2.0000      -0.588272       -16.0077
  15   2.0000      -0.568751       -15.4765
  16   2.0000      -0.520957       -14.1760
  17   2.0000      -0.493795       -13.4369
  18   2.0000      -0.448813       -12.2128
  19   2.0000      -0.428520       -11.6606
  20   2.0000      -0.413840       -11.2612
  21   2.0000      -0.410443       -11.1687
  22   2.0000      -0.396705       -10.7949
  23   2.0000      -0.389437       -10.5971
  24   2.0000      -0.376913       -10.2563
  25   2.0000      -0.349220        -9.5028
  26   2.0000      -0.341193        -9.2843
  27   2.0000      -0.331191        -9.0122
  28   2.0000      -0.326115        -8.8740
  29   2.0000      -0.308404        -8.3921
  30   2.0000      -0.305400        -8.3104
  31   2.0000      -0.284223        -7.7341
  32   2.0000      -0.274311        -7.4644
  33   2.0000      -0.261208        -7.1078
  34   2.0000      -0.219250        -5.9661
  35   0.0000      -0.046786        -1.2731
  36   0.0000       0.081806         2.2260
  37   0.0000       0.106174         2.8891
  38   0.0000       0.115695         3.1482
  39   0.0000       0.124754         3.3947

MULLIKEN ATOMIC CHARGES
-----------------------
   0 C :   -0.587355
   1 C :    0.322599
   2 O :   -0.452844
   3 C :   -0.029071
   4 C :   -0.389752
   5 C :   -0.305318
   6 C :   -0.297718
   7 C :   -0.303261
   8 C :   -0.334820
   9 H :    0.183960
  10 H :    0.211513
  11 H :    0.190178
  12 H :    0.194188
  13 H :    0.170646
  14 H :    0.159777
  15 H :    0.154658
  16 H :    0.155635
  17 H :    0.150724
  18 H :    0.154707
  19 H :    0.156871
  20 H :    0.156841
  21 H :    0.172055
  22 H :    0.165784
Sum of atomic charges:   -0.0000000

LOEWDIN ATOMIC CHARGES
----------------------
   0 C :   -0.386718
   1 C :    0.243341
   2 O :   -0.544594
   3 C :   -0.198037
   4 C :   -0.285015
   5 C :   -0.303357
   6 C :   -0.306423
   7 C :   -0.300591
   8 C :   -0.270702
   9 H :    0.178350
  10 H :    0.193539
  11 H :    0.177268
  12 H :    0.188904
  13 H :    0.166798
  14 H :    0.165147
  15 H :    0.157385
  16 H :    0.158579
  17 H :    0.157458
  18 H :    0.156834
  19 H :    0.159088
  20 H :    0.159356
  21 H :    0.166584
  22 H :    0.166809

  Mayer bond orders larger than 0.100000
B(  0-C ,  1-C ) :   0.9130 B(  0-C ,  9-H ) :   0.9688 B(  0-C , 10-H ) :   0.9320
B(  0-C , 11-H ) :   0.9581 B(  1-C ,  2-O ) :   1.8686 B(  1-C ,  3-C ) :   0.8791
B(  2-O ,  3-C ) :  -0.1108 B(  3-C ,  4-C ) :   0.9070 B(  3-C ,  8-C ) :   0.8719
B(  3-C , 12-H ) :   0.9164 B(  4-C ,  5-C ) :   0.8951 B(  4-C , 13-H ) :   1.0056
B(  4-C , 14-H ) :   0.9430 B(  5-C ,  6-C ) :   0.9180 B(  5-C , 15-H ) :   0.9483
B(  5-C , 16-H ) :   0.9936 B(  6-C ,  7-C ) :   0.9161 B(  6-C , 17-H ) :   0.9892
B(  6-C , 18-H ) :   0.9480 B(  7-C ,  8-C ) :   0.8995 B(  7-C , 19-H ) :   0.9424
B(  7-C , 20-H ) :   0.9918 B(  8-C , 21-H ) :   0.9937 B(  8-C , 22-H ) :   0.9330

Dispersion correction           -0.007303302
FINAL SINGLE POINT ENERGY      -388.415642979421

DIPOLE MOMENT
-------------

Method             : SCF
Type of density    : Electron Density
Multiplicity       :   1
Irrep              :   0
Energy             :  -388.4180970236063786 Eh
Relativity type    :
Basis              : AO
                                X                 Y                 Z
Electronic contribution:     -5.263340520       1.104246773      -2.497945527
Nuclear contribution   :      6.025076934      -1.550012773       4.037380294
                        -----------------------------------------
Total Dipole Moment    :      0.761736414      -0.445766000       1.539434767
                        -----------------------------------------
Magnitude (a.u.)       :      1.774488403
Magnitude (Debye)      :      4.510391074

Rotational constants in cm-1:             0.103065             0.036669             0.029661
Rotational constants in MHz :          3089.814700          1099.323717           889.205405

                             ****ORCA TERMINATED NORMALLY****
TOTAL RUN TIME: 0 days 0 hours 0 minutes 38 seconds 308 msec
