                         Program Version 6.0.0  -   RELEASE  -
|  1> ! pbe def2-sv(p) def2/J RI DEFGRID1 loosescf d4 GCP(DFT/SV(P)) printgap
|  2> %output
|  3>     printlevel normal
|  4> end
|  5> * xyz 0 1
|  6> C -2.1818319162 -0.0309852092 -0.0006230023
|  7> C -0.6938644093 -0.0401008889 0.0014334122
|  8> C 0.1553983718 -1.1129955058 0.0004700331
|  9> N 1.4234563843 -0.5989717374 -0.0006875822
| 10> C 1.2915361393 0.7444193605 -0.0004382345
| 11> N 0.0393363414 1.1155356239 0.0005214499
| 12> H -2.5541175834 0.4117023333 -0.922684452
| 13> H -2.5593929128 -1.045894314 0.0862484009
| 14> H -2.5534579272 0.5661384472 0.8291783079
| 15> H -0.0374895216 -2.165094269 0.001220499
| 16> H 2.2804486836 -1.1273316728 -0.000966134
| 17> H 2.1218084629 1.4211889398 -0.0007238387
| 18> *
| 19>
| 20>                          ****END OF INPUT****

CARTESIAN COORDINATES (ANGSTROEM)
---------------------------------
  C     -2.181832   -0.030985   -0.000623
  C     -0.693864   -0.040101    0.001433
  C      0.155398   -1.112996    0.000470
  N      1.423456   -0.598972   -0.000688
  C      1.291536    0.744419   -0.000438
  N      0.039336    1.115536    0.000521
  H     -2.554118    0.411702   -0.922684
  H     -2.559393   -1.045894    0.086248
  H     -2.553458    0.566138    0.829178
  H     -0.037490   -2.165094    0.001220
  H      2.280449   -1.127332   -0.000966
  H      2.121808    1.421189   -0.000724

 Total Charge           Charge          ....    0
 Multiplicity           Mult            ....    1
 Number of Electrons    NEL             ....   44
 Basis Dimension        Dim             ....   96

ORBITAL ENERGIES
----------------

  NO   OCC          E(Eh)            E(eV)
   0   2.0000     -14.044571      -382.1722
   1   2.0000     -13.954500      -379.7212
   2   2.0000      -9.927492      -270.1408
   3   2.0000      -9.905452      -269.5410
   4   2.0000      -9.902402      -269.4581
   5   2.0000      -9.873284      -268.6657
   6   2.0000      -0.925350       -25.1801
   7   2.0000      -0.784376       -21.3440
   8   2.0000      -0.682037       -18.5592
   9   2.0000      -0.622237       -16.9319
  10   2.0000      -0.552058       -15.0223
  11   2.0000      -0.511540       -13.9197
  12   2.0000      -0.488655       -13.2970
  13   2.0000      -0.401515       -10.9258
  14   2.0000      -0.392643       -10.6843
  15   2.0000      -0.384600       -10.4655
  16   2.0000      -0.350226        -9.5301
  17   2.0000      -0.340973        -9.2783
  18   2.0000      -0.327849        -8.9212
  19   2.0000      -0.240346        -6.5402
  20   2.0000      -0.209486        -5.7004
  21   2.0000      -0.192109        -5.2276
  22   0.0000       0.004578         0.1246
  23   0.0000       0.027572         0.7503
  24   0.0000       0.038162         1.0384
  25   0.0000       0.066752         1.8164
  26   0.0000       0.092665         2.5215

MULLIKEN ATOMIC CHARGES
-----------------------
   0 C :   -0.169430
   1 C :   -0.085523
   2 C :   -0.091511
   3 N :   -0.165154
   4 C :    0.001303
   5 N :   -0.141464
   6 H :    0.110878
   7 H :    0.085149
   8 H :    0.109946
   9 H :    0.048099
  10 H :    0.228290
  11 H :    0.069417
Sum of atomic charges:   -0.0000000

LOEWDIN ATOMIC CHARGES
----------------------
   0 C :   -0.328368
   1 C :   -0.075279
   2 C :   -0.164855
   3 N :   -0.061448
   4 C :   -0.110268
   5 N :   -0.123031
   6 H :    0.132068
   7 H :    0.123274
   8 H :    0.132572
   9 H :    0.120341
  10 H :    0.241450
  11 H :    0.113542

  Mayer bond orders larger than 0.100000
B(  0-C ,  1-C ) :   1.1566 B(  0-C ,  6-H ) :   0.9299 B(  0-C ,  7-H ) :   0.9398
B(  0-C ,  8-H ) :   0.9304 B(  1-C ,  2-C ) :   1.5076 B(  1-C ,  5-N ) :   1.3992
B(  2-C ,  3-N ) :   1.1988 B(  2-C ,  9-H ) :   0.9648 B(  3-N ,  4-C ) :   1.2375
B(  3-N , 10-H ) :   0.8691 B(  4-C ,  5-N ) :   1.6284 B(  4-C , 11-H ) :   0.9587

Dispersion correction           -0.009565412
FINAL SINGLE POINT ENERGY      -264.960632396027

DIPOLE MOMENT
-------------

Method             : SCF
Type of density    : Electron Density
Multiplicity       :   1
Irrep              :   0
Energy             :  -265.0006941395982949 Eh
Relativity type    :
Basis              : AO
                                X                 Y                 Z
Electronic contribution:      3.930292310       0.801075805       0.002434326
Nuclear contribution   :     -3.089982281      -1.816546769      -0.007250388
                        -----------------------------------------
Total Dipole Moment    :      0.840310029      -1.015470964      -0.004816062
                        -----------------------------------------
Magnitude (a.u.)       :      1.318076408
Magnitude (Debye)      :      3.350283978

Rotational constants in cm-1:             0.305288             0.118068             0.086502
Rotational constants in MHz :          9152.296790          3539.588553          2593.278210

                             ****ORCA TERMINATED NORMALLY****
TOTAL RUN TIME: 0 days 0 hours 0 minutes 4 seconds 593 msec
