                         Program Version 6.0.0  -   RELEASE  -
|  1> ! pbe def2-sv(p) def2/J RI DEFGRID1 loosescf d4 GCP(DFT/SV(P)) printgap
|  2> %output
|  3>     printlevel normal
|  4> end
|  5> * xyz 0 1
|  6> C -1.8363448754 -0.9834021425 -0.8080556476
|  7> C -1.2977131522 -0.165700394 0.381200006
|  8> H -2.1035122757 -0.0653459197 1.1156501828
|  9> C -0.8124409153 1.2344157458 -0.0576458221
| 10> H -0.9897538929 1.3682354392 -1.1306716439
| 11> C 0.6992365966 1.3675455881 0.1928852628
| 12> H 0.8872178365 1.4415844519 1.2767202858
| 13> C 1.4101841514 0.118483219 -0.3358214627
| 14> H 1.1587450189 -0.0001532873 -1.4014114624
| 15> C 0.9101840142 -1.1107306058 0.4514360818
| 16> H 1.6327031257 -1.3138789418 1.2550234706
| 17> O -0.2919360048 -0.8656069108 1.113671497
| 18> O 0.7579824479 -2.237742067 -0.3709835349
| 19> O 2.8016047677 0.1939824383 -0.1723428699
| 20> O 1.2400507617 2.48413893 -0.469020578
| 21> O -1.5194499011 2.2823084625 0.5560007328
| 22> O -2.2448867643 -2.2684575393 -0.4217268153
| 23> H -1.0748647983 -1.0458541147 -1.5951142867
| 24> H -2.7224169926 -0.4822293789 -1.2020468512
| 25> H 1.6212982384 -2.6186619616 -0.5827275353
| 26> H 3.0997879994 1.0544894539 -0.5073059663
| 27> H 0.680141095 3.2550297173 -0.293818339
| 28> H -1.4811227016 2.1896742062 1.5196310105
| 29> H -1.4627348948 -2.7417382594 -0.0964316443
| 30> *
| 31>
| 32>                          ****END OF INPUT****

CARTESIAN COORDINATES (ANGSTROEM)
---------------------------------
  C     -1.836345   -0.983402   -0.808056
  C     -1.297713   -0.165700    0.381200
  H     -2.103512   -0.065346    1.115650
  C     -0.812441    1.234416   -0.057646
  H     -0.989754    1.368235   -1.130672
  C      0.699237    1.367546    0.192885
  H      0.887218    1.441584    1.276720
  C      1.410184    0.118483   -0.335821
  H      1.158745   -0.000153   -1.401411
  C      0.910184   -1.110731    0.451436
  H      1.632703   -1.313879    1.255023
  O     -0.291936   -0.865607    1.113671
  O      0.757982   -2.237742   -0.370984
  O      2.801605    0.193982   -0.172343
  O      1.240051    2.484139   -0.469021
  O     -1.519450    2.282308    0.556001
  O     -2.244887   -2.268458   -0.421727
  H     -1.074865   -1.045854   -1.595114
  H     -2.722417   -0.482229   -1.202047
  H      1.621298   -2.618662   -0.582728
  H      3.099788    1.054489   -0.507306
  H      0.680141    3.255030   -0.293818
  H     -1.481123    2.189674    1.519631
  H     -1.462735   -2.741738   -0.096432

 Total Charge           Charge          ....    0
 Multiplicity           Mult            ....    1
 Number of Electrons    NEL             ....   96
 Basis Dimension        Dim             ....  192

ORBITAL ENERGIES
----------------

  NO   OCC          E(Eh)            E(eV)
   0   2.0000     -18.776556      -510.9361
   1   2.0000     -18.772049      -510.8134
   2   2.0000     -18.765995      -510.6487
   3   2.0000     -18.763897      -510.5916
   4   2.0000     -18.756895      -510.4011
   5   2.0000     -18.732132      -509.7272
   6   2.0000      -9.994387      -271.9611
   7   2.0000      -9.949967      -270.7524
   8   2.0000      -9.947849      -270.6947
   9   2.0000      -9.946180      -270.6493
  10   2.0000      -9.945387      -270.6277
  11   2.0000      -9.927350      -270.1369
  12   2.0000      -0.989254       -26.9190
  13   2.0000      -0.954663       -25.9777
  14   2.0000      -0.940772       -25.5997
  15   2.0000      -0.924488       -25.1566
  16   2.0000      -0.922242       -25.0955
  17   2.0000      -0.907011       -24.6810
  18   2.0000      -0.710611       -19.3367
  19   2.0000      -0.694284       -18.8924
  20   2.0000      -0.619721       -16.8635
  21   2.0000      -0.594491       -16.1769
  22   2.0000      -0.568161       -15.4604
  23   2.0000      -0.522965       -14.2306
  24   2.0000      -0.515653       -14.0316
  25   2.0000      -0.498023       -13.5519
  26   2.0000      -0.482107       -13.1188
  27   2.0000      -0.457821       -12.4579
  28   2.0000      -0.442831       -12.0500
  29   2.0000      -0.433434       -11.7943
  30   2.0000      -0.417426       -11.3588
  31   2.0000      -0.405246       -11.0273
  32   2.0000      -0.398055       -10.8316
  33   2.0000      -0.381707       -10.3868
  34   2.0000      -0.365705        -9.9513
  35   2.0000      -0.354344        -9.6422
  36   2.0000      -0.325255        -8.8506
  37   2.0000      -0.317641        -8.6435
  38   2.0000      -0.311175        -8.4675
  39   2.0000      -0.301973        -8.2171
  40   2.0000      -0.285560        -7.7705
  41   2.0000      -0.275554        -7.4982
  42   2.0000      -0.257270        -7.0007
  43   2.0000      -0.249601        -6.7920
  44   2.0000      -0.234949        -6.3933
  45   2.0000      -0.225407        -6.1336
  46   2.0000      -0.221681        -6.0323
  47   2.0000      -0.198979        -5.4145
  48   0.0000       0.013130         0.3573
  49   0.0000       0.021639         0.5888
  50   0.0000       0.028260         0.7690
  51   0.0000       0.049472         1.3462
  52   0.0000       0.059649         1.6231

MULLIKEN ATOMIC CHARGES
-----------------------
   0 C :    0.027204
   1 C :    0.024052
   2 H :    0.066589
   3 C :    0.045177
   4 H :    0.069692
   5 C :    0.056478
   6 H :    0.047083
   7 C :    0.016724
   8 H :    0.059762
   9 C :    0.220759
  10 H :    0.073944
  11 O :   -0.302601
  12 O :   -0.413881
  13 O :   -0.423112
  14 O :   -0.426464
  15 O :   -0.418826
  16 O :   -0.443473
  17 H :    0.084577
  18 H :    0.094428
  19 H :    0.313904
  20 H :    0.313293
  21 H :    0.308302
  22 H :    0.303123
  23 H :    0.303267
Sum of atomic charges:    0.0000000

LOEWDIN ATOMIC CHARGES
----------------------
   0 C :   -0.141041
   1 C :   -0.075107
   2 H :    0.118962
   3 C :   -0.080335
   4 H :    0.118452
   5 C :   -0.083983
   6 H :    0.101145
   7 C :   -0.088871
   8 H :    0.103845
   9 C :    0.010016
  10 H :    0.107717
  11 O :   -0.130084
  12 O :   -0.319482
  13 O :   -0.321874
  14 O :   -0.326139
  15 O :   -0.312916
  16 O :   -0.336513
  17 H :    0.098195
  18 H :    0.119342
  19 H :    0.299089
  20 H :    0.289779
  21 H :    0.289178
  22 H :    0.285855
  23 H :    0.274768

  Mayer bond orders larger than 0.100000
B(  0-C ,  1-C ) :   1.0361 B(  0-C , 16-O ) :   1.0876 B(  0-C , 17-H ) :   0.9019
B(  0-C , 18-H ) :   0.9135 B(  1-C ,  2-H ) :   0.8860 B(  1-C ,  3-C ) :   0.9531
B(  1-C , 11-O ) :   1.0271 B(  3-C ,  4-H ) :   0.8746 B(  3-C ,  5-C ) :   1.0093
B(  3-C , 15-O ) :   1.0212 B(  5-C ,  6-H ) :   0.8648 B(  5-C ,  7-C ) :   1.0176
B(  5-C , 14-O ) :   1.0754 B(  7-C ,  8-H ) :   0.8707 B(  7-C ,  9-C ) :   0.9853
B(  7-C , 13-O ) :   1.0821 B(  9-C , 10-H ) :   0.8936 B(  9-C , 11-O ) :   1.0831
B(  9-C , 12-O ) :   1.0442 B( 12-O , 19-H ) :   0.8366 B( 13-O , 20-H ) :   0.8326
B( 14-O , 21-H ) :   0.8321 B( 15-O , 22-H ) :   0.8478 B( 16-O , 23-H ) :   0.8293

Dispersion correction           -0.024849548
FINAL SINGLE POINT ENERGY      -685.694060788954

DIPOLE MOMENT
-------------

Method             : SCF
Type of density    : Electron Density
Multiplicity       :   1
Irrep              :   0
Energy             :  -685.8249503837473640 Eh
Relativity type    :
Basis              : AO
                                X                 Y                 Z
Electronic contribution:      1.455905452      -0.376089811       1.716750135
Nuclear contribution   :     -0.696848260       0.970682800      -1.537456755
                        -----------------------------------------
Total Dipole Moment    :      0.759057192       0.594592989       0.179293380
                        -----------------------------------------
Magnitude (a.u.)       :      0.980741943
Magnitude (Debye)      :      2.492847910

Rotational constants in cm-1:             0.039603             0.028914             0.018988
Rotational constants in MHz :          1187.280225           866.830083           569.245240

                             ****ORCA TERMINATED NORMALLY****
TOTAL RUN TIME: 0 days 0 hours 0 minutes 12 seconds 275 msec
