                         Program Version 6.0.0  -   RELEASE  -
|  1> ! pbe def2-sv(p) def2/J RI DEFGRID1 loosescf d4 GCP(DFT/SV(P)) printgap
|  2> %output
|  3>     printlevel normal
|  4> end
|  5> * xyz 0 1
|  6> C -3.1589987537 0.0025169276 0.8413135282
|  7> C -2.4547517605 -0.0015704954 -0.5175111311
|  8> C -0.9630438543 -0.0011709784 -0.3388008438
|  9> C -0.258644276 -1.1929508764 -0.2292182587
| 10> C 1.1085765324 -1.1924506872 -0.0224104875
| 11> C 1.8131695928 7.99332e-05 0.083701227
| 12> C 1.1076967965 1.1920782163 -0.0241868025
| 13> C -0.2594190609 1.1913476628 -0.230911418
| 14> C 3.2986096146 0.0014160443 0.2833942726
| 15> H -2.8751851461 0.8847050184 1.410722432
| 16> H -2.8782620354 -0.8783929392 1.4141900977
| 17> H -4.2382189647 0.0041102195 0.710156257
| 18> H -2.7588700375 0.881733336 -1.0824542201
| 19> H -2.75913497 -0.8879527532 -1.0775080818
| 20> H -0.7872063977 -2.1325904904 -0.3083576258
| 21> H 1.637255617 -2.1317771684 0.0582033123
| 22> H 1.6359056814 2.1317935005 0.055166739
| 23> H -0.7886810582 2.1304819095 -0.3115660647
| 24> H 3.6179849931 -0.8907398634 0.8163495999
| 25> H 3.8026326468 0.0166335288 -0.6831263734
| 26> H 3.6128302562 0.8803881872 0.8409264722
| 27> *
| 28>
| 29>                          ****END OF INPUT****

CARTESIAN COORDINATES (ANGSTROEM)
---------------------------------
  C     -3.158999    0.002517    0.841314
  C     -2.454752   -0.001570   -0.517511
  C     -0.963044   -0.001171   -0.338801
  C     -0.258644   -1.192951   -0.229218
  C      1.108577   -1.192451   -0.022410
  C      1.813170    0.000080    0.083701
  C      1.107697    1.192078   -0.024187
  C     -0.259419    1.191348   -0.230911
  C      3.298610    0.001416    0.283394
  H     -2.875185    0.884705    1.410722
  H     -2.878262   -0.878393    1.414190
  H     -4.238219    0.004110    0.710156
  H     -2.758870    0.881733   -1.082454
  H     -2.759135   -0.887953   -1.077508
  H     -0.787206   -2.132590   -0.308358
  H      1.637256   -2.131777    0.058203
  H      1.635906    2.131794    0.055167
  H     -0.788681    2.130482   -0.311566
  H      3.617985   -0.890740    0.816350
  H      3.802633    0.016634   -0.683126
  H      3.612830    0.880388    0.840926

 Total Charge           Charge          ....    0
 Multiplicity           Mult            ....    1
 Number of Electrons    NEL             ....   66
 Basis Dimension        Dim             ....  150

ORBITAL ENERGIES
----------------

  NO   OCC          E(Eh)            E(eV)
   0   2.0000      -9.894698      -269.2484
   1   2.0000      -9.893637      -269.2196
   2   2.0000      -9.887845      -269.0619
   3   2.0000      -9.883623      -268.9470
   4   2.0000      -9.883592      -268.9462
   5   2.0000      -9.882738      -268.9230
   6   2.0000      -9.882717      -268.9224
   7   2.0000      -9.879663      -268.8393
   8   2.0000      -9.876171      -268.7443
   9   2.0000      -0.775669       -21.1070
  10   2.0000      -0.715873       -19.4799
  11   2.0000      -0.667730       -18.1699
  12   2.0000      -0.663167       -18.0457
  13   2.0000      -0.607064       -16.5190
  14   2.0000      -0.548485       -14.9250
  15   2.0000      -0.541145       -14.7253
  16   2.0000      -0.506473       -13.7818
  17   2.0000      -0.440506       -11.9868
  18   2.0000      -0.425706       -11.5840
  19   2.0000      -0.397924       -10.8281
  20   2.0000      -0.379461       -10.3257
  21   2.0000      -0.377607       -10.2752
  22   2.0000      -0.374028       -10.1778
  23   2.0000      -0.367064        -9.9883
  24   2.0000      -0.344032        -9.3616
  25   2.0000      -0.337697        -9.1892
  26   2.0000      -0.321574        -8.7505
  27   2.0000      -0.303425        -8.2566
  28   2.0000      -0.302482        -8.2310
  29   2.0000      -0.285923        -7.7804
  30   2.0000      -0.284628        -7.7451
  31   2.0000      -0.222792        -6.0625
  32   2.0000      -0.206312        -5.6140
  33   0.0000      -0.029329        -0.7981
  34   0.0000      -0.025835        -0.7030
  35   0.0000       0.044004         1.1974
  36   0.0000       0.055340         1.5059
  37   0.0000       0.068780         1.8716

MULLIKEN ATOMIC CHARGES
-----------------------
   0 C :   -0.267668
   1 C :   -0.131493
   2 C :    0.079795
   3 C :   -0.114366
   4 C :   -0.108851
   5 C :    0.053723
   6 C :   -0.108506
   7 C :   -0.114363
   8 C :   -0.224005
   9 H :    0.101110
  10 H :    0.101047
  11 H :    0.104199
  12 H :    0.085701
  13 H :    0.085686
  14 H :    0.033402
  15 H :    0.031152
  16 H :    0.031108
  17 H :    0.033488
  18 H :    0.104723
  19 H :    0.118909
  20 H :    0.105207
Sum of atomic charges:   -0.0000000

LOEWDIN ATOMIC CHARGES
----------------------
   0 C :   -0.333180
   1 C :   -0.217070
   2 C :   -0.043708
   3 C :   -0.122241
   4 C :   -0.123423
   5 C :   -0.052758
   6 C :   -0.123262
   7 C :   -0.122164
   8 C :   -0.322848
   9 H :    0.119383
  10 H :    0.119394
  11 H :    0.117691
  12 H :    0.120791
  13 H :    0.120766
  14 H :    0.119501
  15 H :    0.119339
  16 H :    0.119333
  17 H :    0.119498
  18 H :    0.125594
  19 H :    0.133486
  20 H :    0.125876

  Mayer bond orders larger than 0.100000
B(  0-C ,  1-C ) :   1.1468 B(  0-C ,  9-H ) :   0.9551 B(  0-C , 10-H ) :   0.9551
B(  0-C , 11-H ) :   0.9486 B(  1-C ,  2-C ) :   1.0632 B(  1-C , 12-H ) :   0.9113
B(  1-C , 13-H ) :   0.9114 B(  2-C ,  3-C ) :   1.3874 B(  2-C ,  7-C ) :   1.3865
B(  3-C ,  4-C ) :   1.3623 B(  3-C , 14-H ) :   0.9613 B(  4-C ,  5-C ) :   1.3875
B(  4-C , 15-H ) :   0.9631 B(  5-C ,  6-C ) :   1.3862 B(  5-C ,  8-C ) :   1.0975
B(  6-C ,  7-C ) :   1.3633 B(  6-C , 16-H ) :   0.9634 B(  7-C , 17-H ) :   0.9613
B(  8-C , 18-H ) :   0.9430 B(  8-C , 19-H ) :   0.9327 B(  8-C , 20-H ) :   0.9427

Dispersion correction           -0.020658866
FINAL SINGLE POINT ENERGY      -349.373117980154

DIPOLE MOMENT
-------------

Method             : SCF
Type of density    : Electron Density
Multiplicity       :   1
Irrep              :   0
Energy             :  -349.4322861858578904 Eh
Relativity type    :
Basis              : AO
                                X                 Y                 Z
Electronic contribution:      2.627049365      -0.006525848      -1.722494768
Nuclear contribution   :     -2.607118774       0.007873553       1.728762810
                        -----------------------------------------
Total Dipole Moment    :      0.019930591       0.001347705       0.006268041
                        -----------------------------------------
Magnitude (a.u.)       :      0.020936406
Magnitude (Debye)      :      0.053216115

Rotational constants in cm-1:             0.145698             0.032003             0.028394
Rotational constants in MHz :          4367.909473           959.438989           851.218079

                             ****ORCA TERMINATED NORMALLY****
TOTAL RUN TIME: 0 days 0 hours 0 minutes 9 seconds 628 msec
