                         Program Version 6.0.0  -   RELEASE  -
|  1> ! wb97x-v def2-tzvp def2/J RIJCOSX DEFGRID2 scfconv7 GCP(DFT/TZ) printgap
|  2> %output
|  3>     printlevel normal
|  4> end
|  5> * xyz 0 1
|  6> C -3.8949812226869422 -0.6232371205188447 0.001732196249002459
|  7> N -2.6907116268339872 0.20046079818261148 0.0005024326988494019
|  8> C -2.8866921302142825 1.6506820594431542 -0.0014097859457568541
|  9> C -1.4606676522414195 -0.3886829807611724 0.00027882980526733407
| 10> O -1.3034053521092506 -1.6234158948007846 0.0007201991276753252
| 11> N -0.3937729898062131 0.49315351975234534 -0.0005038231251522417
| 12> C 0.9788040618696034 0.20756608870265283 -0.000260030261549647
| 13> C 1.8429927223595621 1.3160367040037462 0.0008254211220856668
| 14> C 3.219171945951169 1.142311852148378 0.0011717741896929792
| 15> C 3.7714422827049168 -0.13798364699760246 0.0004601931509304347
| 16> C 2.916924032214896 -1.2355428769549996 -0.0007118611332338383
| 17> C 1.5321067241883204 -1.0807555423448567 -0.001129407496635485
| 18> H -3.62337209413347 -1.6774751486978117 0.0060397668073276095
| 19> H -4.498597059789775 -0.4166085608814583 -0.8895977790145791
| 20> H -4.500730117582287 -0.4099400507396319 0.8899969632108221
| 21> H -2.4607928400691397 2.1202151361396067 -0.8965275314905193
| 22> H -2.4632618133839523 2.1223198077064223 0.8938053328284228
| 23> H -3.9586630950802526 1.8506942679118172 -0.0031990176029901684
| 24> H -0.6067310733999413 1.4796501603037289 7.32394796290753e-05
| 25> H 1.4242698732692542 2.3188757012249397 0.0014103378705865686
| 26> H 3.8629463447964105 2.0164756485145223 0.0020199954211699267
| 27> H 4.847570628435475 -0.27507760869101694 0.000794919899911985
| 28> H 3.326276554914621 -2.2413577423975357 -0.0013418512514641046
| 29> H 0.892332692317933 -1.9498063150733145 -0.0021087798487331288
| 30> *
| 31>
| 32>                          ****END OF INPUT****

CARTESIAN COORDINATES (ANGSTROEM)
---------------------------------
  C     -3.894981   -0.623237    0.001732
  N     -2.690712    0.200461    0.000502
  C     -2.886692    1.650682   -0.001410
  C     -1.460668   -0.388683    0.000279
  O     -1.303405   -1.623416    0.000720
  N     -0.393773    0.493154   -0.000504
  C      0.978804    0.207566   -0.000260
  C      1.842993    1.316037    0.000825
  C      3.219172    1.142312    0.001172
  C      3.771442   -0.137984    0.000460
  C      2.916924   -1.235543   -0.000712
  C      1.532107   -1.080756   -0.001129
  H     -3.623372   -1.677475    0.006040
  H     -4.498597   -0.416609   -0.889598
  H     -4.500730   -0.409940    0.889997
  H     -2.460793    2.120215   -0.896528
  H     -2.463262    2.122320    0.893805
  H     -3.958663    1.850694   -0.003199
  H     -0.606731    1.479650    0.000073
  H      1.424270    2.318876    0.001410
  H      3.862946    2.016476    0.002020
  H      4.847571   -0.275078    0.000795
  H      3.326277   -2.241358   -0.001342
  H      0.892333   -1.949806   -0.002109

 Total Charge           Charge          ....    0
 Multiplicity           Mult            ....    1
 Number of Electrons    NEL             ....   88
 Basis Dimension        Dim             ....  444

ORBITAL ENERGIES
----------------

  NO   OCC          E(Eh)            E(eV)
   0   2.0000     -21.621309      -588.3457
   1   2.0000     -16.562830      -450.6975
   2   2.0000     -16.560925      -450.6457
   3   2.0000     -12.175489      -331.3119
   4   2.0000     -12.101568      -329.3004
   5   2.0000     -12.098294      -329.2113
   6   2.0000     -12.078861      -328.6825
   7   2.0000     -12.051006      -327.9246
   8   2.0000     -12.048901      -327.8673
   9   2.0000     -12.045851      -327.7843
  10   2.0000     -12.040202      -327.6305
  11   2.0000     -12.036961      -327.5424
  12   2.0000      -1.681995       -45.7694
  13   2.0000      -1.549228       -42.1566
  14   2.0000      -1.510781       -41.1104
  15   2.0000      -1.375005       -37.4158
  16   2.0000      -1.286444       -35.0059
  17   2.0000      -1.269488       -34.5445
  18   2.0000      -1.250018       -34.0147
  19   2.0000      -1.228802       -33.4374
  20   2.0000      -1.146350       -31.1938
  21   2.0000      -1.115893       -30.3650
  22   2.0000      -1.082514       -29.4567
  23   2.0000      -1.046579       -28.4789
  24   2.0000      -1.036109       -28.1940
  25   2.0000      -0.997777       -27.1509
  26   2.0000      -0.952885       -25.9293
  27   2.0000      -0.944526       -25.7019
  28   2.0000      -0.943653       -25.6781
  29   2.0000      -0.939396       -25.5623
  30   2.0000      -0.892655       -24.2904
  31   2.0000      -0.889439       -24.2029
  32   2.0000      -0.872361       -23.7382
  33   2.0000      -0.865981       -23.5646
  34   2.0000      -0.849185       -23.1075
  35   2.0000      -0.848463       -23.0878
  36   2.0000      -0.832755       -22.6604
  37   2.0000      -0.829561       -22.5735
  38   2.0000      -0.823736       -22.4150
  39   2.0000      -0.800923       -21.7942
  40   2.0000      -0.756143       -20.5757
  41   2.0000      -0.735829       -20.0229
  42   2.0000      -0.635147       -17.2832
  43   2.0000      -0.622303       -16.9337
  44   0.0000      -0.274702        -7.4750
  45   0.0000      -0.231890        -6.3100
  46   0.0000      -0.218129        -5.9356
  47   0.0000      -0.154042        -4.1917
  48   0.0000      -0.124040        -3.3753

MULLIKEN ATOMIC CHARGES
-----------------------
   0 C :   -0.302073
   1 N :   -0.078531
   2 C :   -0.357759
   3 C :    0.377036
   4 O :   -0.464852
   5 N :   -0.258138
   6 C :    0.266240
   7 C :   -0.264233
   8 C :   -0.091912
   9 C :   -0.161614
  10 C :   -0.072307
  11 C :   -0.254286
  12 H :    0.172659
  13 H :    0.120439
  14 H :    0.120419
  15 H :    0.138819
  16 H :    0.138859
  17 H :    0.148645
  18 H :    0.209816
  19 H :    0.098345
  20 H :    0.113079
  21 H :    0.113422
  22 H :    0.117291
  23 H :    0.170636
Sum of atomic charges:    0.0000000

LOEWDIN ATOMIC CHARGES
----------------------
   0 C :   -0.280191
   1 N :    0.134859
   2 C :   -0.292596
   3 C :   -0.483176
   4 O :    0.004520
   5 N :    0.166400
   6 C :   -0.179885
   7 C :   -0.135888
   8 C :   -0.143434
   9 C :   -0.157979
  10 C :   -0.134900
  11 C :   -0.110325
  12 H :    0.132455
  13 H :    0.111632
  14 H :    0.111647
  15 H :    0.113304
  16 H :    0.113277
  17 H :    0.126838
  18 H :    0.187804
  19 H :    0.136879
  20 H :    0.141648
  21 H :    0.139056
  22 H :    0.143248
  23 H :    0.154806

  Mayer bond orders larger than 0.100000
B(  0-C ,  1-N ) :   0.9235 B(  0-C , 12-H ) :   0.9660 B(  0-C , 13-H ) :   0.9755
B(  0-C , 14-H ) :   0.9754 B(  1-N ,  2-C ) :   0.9325 B(  1-N ,  3-C ) :   1.2382
B(  2-C , 15-H ) :   0.9685 B(  2-C , 16-H ) :   0.9686 B(  2-C , 17-H ) :   0.9758
B(  3-C ,  4-O ) :   1.9013 B(  3-C ,  5-N ) :   1.1113 B(  5-N ,  6-C ) :   1.0514
B(  5-N , 18-H ) :   0.9214 B(  6-C ,  7-C ) :   1.3310 B(  6-C , 11-C ) :   1.4726
B(  7-C ,  8-C ) :   1.4916 B(  7-C , 19-H ) :   0.9689 B(  8-C ,  9-C ) :   1.4141
B(  8-C , 20-H ) :   0.9753 B(  9-C , 10-C ) :   1.4226 B(  9-C , 21-H ) :   0.9761
B( 10-C , 11-C ) :   1.4189 B( 10-C , 22-H ) :   0.9737 B( 11-C , 23-H ) :   0.9286

FINAL SINGLE POINT ENERGY      -534.956858086662

DIPOLE MOMENT
-------------

Method             : SCF
Type of density    : Electron Density
Multiplicity       :   1
Irrep              :   0
Energy             :  -534.9718117915617768 Eh
Relativity type    :
Basis              : AO
                                X                 Y                 Z
Electronic contribution:      6.479994651      -3.106674904       0.000113432
Nuclear contribution   :     -7.343997551       4.685746661      -0.000383375
                        -----------------------------------------
Total Dipole Moment    :     -0.864002900       1.579071758      -0.000269943
                        -----------------------------------------
Magnitude (a.u.)       :      1.799991305
Magnitude (Debye)      :      4.575214300

Rotational constants in cm-1:             0.086656             0.015978             0.013560
Rotational constants in MHz :          2597.880032           478.997601           406.518619

                             ****ORCA TERMINATED NORMALLY****
TOTAL RUN TIME: 0 days 0 hours 5 minutes 54 seconds 139 msec
