                         Program Version 6.0.0  -   RELEASE  -
|  1> ! wb97x-v def2-tzvp def2/J RIJCOSX DEFGRID2 scfconv7 GCP(DFT/TZ) printgap
|  2> %output
|  3>     printlevel normal
|  4> end
|  5> %cpcm
|  6>     smd true
|  7>     smdsolvent "water"
|  8> end
|  9> * xyz 0 1
| 10> C -3.8949812226869422 -0.6232371205188447 0.001732196249002459
| 11> N -2.6907116268339872 0.20046079818261148 0.0005024326988494019
| 12> C -2.8866921302142825 1.6506820594431542 -0.0014097859457568541
| 13> C -1.4606676522414195 -0.3886829807611724 0.00027882980526733407
| 14> O -1.3034053521092506 -1.6234158948007846 0.0007201991276753252
| 15> N -0.3937729898062131 0.49315351975234534 -0.0005038231251522417
| 16> C 0.9788040618696034 0.20756608870265283 -0.000260030261549647
| 17> C 1.8429927223595621 1.3160367040037462 0.0008254211220856668
| 18> C 3.219171945951169 1.142311852148378 0.0011717741896929792
| 19> C 3.7714422827049168 -0.13798364699760246 0.0004601931509304347
| 20> C 2.916924032214896 -1.2355428769549996 -0.0007118611332338383
| 21> C 1.5321067241883204 -1.0807555423448567 -0.001129407496635485
| 22> H -3.62337209413347 -1.6774751486978117 0.0060397668073276095
| 23> H -4.498597059789775 -0.4166085608814583 -0.8895977790145791
| 24> H -4.500730117582287 -0.4099400507396319 0.8899969632108221
| 25> H -2.4607928400691397 2.1202151361396067 -0.8965275314905193
| 26> H -2.4632618133839523 2.1223198077064223 0.8938053328284228
| 27> H -3.9586630950802526 1.8506942679118172 -0.0031990176029901684
| 28> H -0.6067310733999413 1.4796501603037289 7.32394796290753e-05
| 29> H 1.4242698732692542 2.3188757012249397 0.0014103378705865686
| 30> H 3.8629463447964105 2.0164756485145223 0.0020199954211699267
| 31> H 4.847570628435475 -0.27507760869101694 0.000794919899911985
| 32> H 3.326276554914621 -2.2413577423975357 -0.0013418512514641046
| 33> H 0.892332692317933 -1.9498063150733145 -0.0021087798487331288
| 34> *
| 35>
| 36>                          ****END OF INPUT****

CARTESIAN COORDINATES (ANGSTROEM)
---------------------------------
  C     -3.894981   -0.623237    0.001732
  N     -2.690712    0.200461    0.000502
  C     -2.886692    1.650682   -0.001410
  C     -1.460668   -0.388683    0.000279
  O     -1.303405   -1.623416    0.000720
  N     -0.393773    0.493154   -0.000504
  C      0.978804    0.207566   -0.000260
  C      1.842993    1.316037    0.000825
  C      3.219172    1.142312    0.001172
  C      3.771442   -0.137984    0.000460
  C      2.916924   -1.235543   -0.000712
  C      1.532107   -1.080756   -0.001129
  H     -3.623372   -1.677475    0.006040
  H     -4.498597   -0.416609   -0.889598
  H     -4.500730   -0.409940    0.889997
  H     -2.460793    2.120215   -0.896528
  H     -2.463262    2.122320    0.893805
  H     -3.958663    1.850694   -0.003199
  H     -0.606731    1.479650    0.000073
  H      1.424270    2.318876    0.001410
  H      3.862946    2.016476    0.002020
  H      4.847571   -0.275078    0.000795
  H      3.326277   -2.241358   -0.001342
  H      0.892333   -1.949806   -0.002109

 Total Charge           Charge          ....    0
 Multiplicity           Mult            ....    1
 Number of Electrons    NEL             ....   88
 Basis Dimension        Dim             ....  444

ORBITAL ENERGIES
----------------

  NO   OCC          E(Eh)            E(eV)
   0   2.0000     -21.637241      -588.7793
   1   2.0000     -16.559872      -450.6170
   2   2.0000     -16.555549      -450.4994
   3   2.0000     -12.182828      -331.5116
   4   2.0000     -12.102557      -329.3273
   5   2.0000     -12.072871      -328.5195
   6   2.0000     -12.066005      -328.3327
   7   2.0000     -12.051783      -327.9457
   8   2.0000     -12.050583      -327.9130
   9   2.0000     -12.048399      -327.8536
  10   2.0000     -12.044463      -327.7465
  11   2.0000     -12.042788      -327.7009
  12   2.0000      -1.698985       -46.2317
  13   2.0000      -1.546910       -42.0936
  14   2.0000      -1.505654       -40.9709
  15   2.0000      -1.379428       -37.5361
  16   2.0000      -1.287843       -35.0440
  17   2.0000      -1.274049       -34.6686
  18   2.0000      -1.231409       -33.5083
  19   2.0000      -1.224450       -33.3190
  20   2.0000      -1.145659       -31.1750
  21   2.0000      -1.117313       -30.4036
  22   2.0000      -1.087562       -29.5941
  23   2.0000      -1.045454       -28.4482
  24   2.0000      -1.036665       -28.2091
  25   2.0000      -0.998497       -27.1705
  26   2.0000      -0.950478       -25.8638
  27   2.0000      -0.944349       -25.6970
  28   2.0000      -0.944188       -25.6927
  29   2.0000      -0.933859       -25.4116
  30   2.0000      -0.894518       -24.3411
  31   2.0000      -0.886855       -24.1325
  32   2.0000      -0.877953       -23.8903
  33   2.0000      -0.868385       -23.6300
  34   2.0000      -0.841044       -22.8860
  35   2.0000      -0.836201       -22.7542
  36   2.0000      -0.827243       -22.5104
  37   2.0000      -0.825995       -22.4765
  38   2.0000      -0.814100       -22.1528
  39   2.0000      -0.803402       -21.8617
  40   2.0000      -0.760393       -20.6914
  41   2.0000      -0.726770       -19.7764
  42   2.0000      -0.641186       -17.4475
  43   2.0000      -0.627081       -17.0637
  44   0.0000      -0.279847        -7.6150
  45   0.0000      -0.237202        -6.4546
  46   0.0000      -0.223181        -6.0731
  47   0.0000      -0.148081        -4.0295
  48   0.0000      -0.111461        -3.0330

MULLIKEN ATOMIC CHARGES
-----------------------
   0 C :   -0.318207
   1 N :   -0.072866
   2 C :   -0.368040
   3 C :    0.397616
   4 O :   -0.590267
   5 N :   -0.252826
   6 C :    0.249983
   7 C :   -0.301937
   8 C :   -0.114684
   9 C :   -0.217762
  10 C :   -0.128152
  11 C :   -0.303562
  12 H :    0.149561
  13 H :    0.147192
  14 H :    0.147284
  15 H :    0.158032
  16 H :    0.158059
  17 H :    0.173637
  18 H :    0.281486
  19 H :    0.162460
  20 H :    0.161253
  21 H :    0.159172
  22 H :    0.160001
  23 H :    0.162567
Sum of atomic charges:    0.0000000

LOEWDIN ATOMIC CHARGES
----------------------
   0 C :   -0.279019
   1 N :    0.144387
   2 C :   -0.278518
   3 C :   -0.483496
   4 O :   -0.073673
   5 N :    0.177406
   6 C :   -0.189095
   7 C :   -0.129200
   8 C :   -0.148293
   9 C :   -0.169633
  10 C :   -0.148102
  11 C :   -0.137121
  12 H :    0.123540
  13 H :    0.120693
  14 H :    0.120757
  15 H :    0.122827
  16 H :    0.122811
  17 H :    0.134199
  18 H :    0.210745
  19 H :    0.155763
  20 H :    0.152718
  21 H :    0.148553
  22 H :    0.152223
  23 H :    0.149526

  Mayer bond orders larger than 0.100000
B(  0-C ,  1-N ) :   0.9170 B(  0-C , 12-H ) :   0.9684 B(  0-C , 13-H ) :   0.9709
B(  0-C , 14-H ) :   0.9709 B(  1-N ,  2-C ) :   0.9191 B(  1-N ,  3-C ) :   1.2964
B(  2-C , 15-H ) :   0.9653 B(  2-C , 16-H ) :   0.9653 B(  2-C , 17-H ) :   0.9662
B(  3-C ,  4-O ) :   1.7830 B(  3-C ,  5-N ) :   1.1395 B(  5-N ,  6-C ) :   1.0791
B(  5-N , 18-H ) :   0.8905 B(  6-C ,  7-C ) :   1.3272 B(  6-C , 11-C ) :   1.4004
B(  7-C ,  8-C ) :   1.4530 B(  7-C , 19-H ) :   0.9754 B(  8-C ,  9-C ) :   1.3819
B(  8-C , 20-H ) :   0.9773 B(  9-C , 10-C ) :   1.4121 B(  9-C , 21-H ) :   0.9791
B( 10-C , 11-C ) :   1.4237 B( 10-C , 22-H ) :   0.9743 B( 11-C , 23-H ) :   0.9527

FINAL SINGLE POINT ENERGY      -534.973446133859

DIPOLE MOMENT
-------------

Method             : SCF
Type of density    : Electron Density
Multiplicity       :   1
Irrep              :   0
Energy             :  -534.9883998387587098 Eh
Relativity type    :
Basis              : AO
                                X                 Y                 Z
Electronic contribution:      6.248053968      -2.126704973       0.000031478
Nuclear contribution   :     -7.343997551       4.685746661      -0.000383375
                        -----------------------------------------
Total Dipole Moment    :     -1.095943584       2.559041688      -0.000351897
                        -----------------------------------------
Magnitude (a.u.)       :      2.783843894
Magnitude (Debye)      :      7.075968841

Rotational constants in cm-1:             0.086656             0.015978             0.013560
Rotational constants in MHz :          2597.880032           478.997601           406.518619

                             ****ORCA TERMINATED NORMALLY****
TOTAL RUN TIME: 0 days 0 hours 6 minutes 12 seconds 930 msec
