                         Program Version 6.0.0  -   RELEASE  -
|  1> ! pbe def2-sv(p) def2/J RI DEFGRID1 loosescf d4 GCP(DFT/SV(P)) printgap
|  2> %output
|  3>     printlevel normal
|  4> end
|  5> * xyz 0 1
|  6> C -3.4250743753 0.633206572 0.1336953183
|  7> C -1.9314648648 0.4981204982 0.0844809953
|  8> C -1.1346612476 1.4988422404 -0.265330626
|  9> C 0.3573657856 1.4246496584 -0.3221190279
| 10> C 0.8556642699 -0.0247550709 -0.2819108015
| 11> H 0.5859036866 -0.5036292655 -1.2290382937
| 12> C 0.1065177282 -0.7665368108 0.8259380434
| 13> C -1.3750679095 -0.8586460895 0.4620242699
| 14> H -1.9341304285 -1.2430540999 1.3331917667
| 15> O -1.4970403505 -1.7998475057 -0.6010823782
| 16> C 2.354964995 -0.0775178565 -0.1286357051
| 17> C 3.1363971172 -0.3336259585 -1.1667457175
| 18> C 2.9190914501 0.18581772 1.2347078351
| 19> H -3.9025372863 -0.039466112 -0.5779384742
| 20> H -3.725058297 1.64980306 -0.1044203533
| 21> H -3.7923701204 0.3815244921 1.1280824024
| 22> H -1.5627181303 2.4608287761 -0.5168930396
| 23> H 0.715431649 1.9135110311 -1.2312404427
| 24> H 0.7648549784 1.9853082315 0.5253530352
| 25> H 0.4981592672 -1.7792942499 0.9320586159
| 26> H 0.2028944039 -0.2407043978 1.7755271828
| 27> H -2.4194459309 -1.8393223674 -0.8839870708
| 28> H 4.2100935706 -0.3544854867 -1.0818535511
| 29> H 2.7343888531 -0.5365698079 -2.1452550849
| 30> H 2.4915524333 1.0884685579 1.6657683645
| 31> H 2.6884683455 -0.6438522287 1.9010052413
| 32> H 3.998685975 0.2982612247 1.185862783
| 33> *
| 34>
| 35>                          ****END OF INPUT****

CARTESIAN COORDINATES (ANGSTROEM)
---------------------------------
  C     -3.425074    0.633207    0.133695
  C     -1.931465    0.498120    0.084481
  C     -1.134661    1.498842   -0.265331
  C      0.357366    1.424650   -0.322119
  C      0.855664   -0.024755   -0.281911
  H      0.585904   -0.503629   -1.229038
  C      0.106518   -0.766537    0.825938
  C     -1.375068   -0.858646    0.462024
  H     -1.934130   -1.243054    1.333192
  O     -1.497040   -1.799848   -0.601082
  C      2.354965   -0.077518   -0.128636
  C      3.136397   -0.333626   -1.166746
  C      2.919091    0.185818    1.234708
  H     -3.902537   -0.039466   -0.577938
  H     -3.725058    1.649803   -0.104420
  H     -3.792370    0.381524    1.128082
  H     -1.562718    2.460829   -0.516893
  H      0.715432    1.913511   -1.231240
  H      0.764855    1.985308    0.525353
  H      0.498159   -1.779294    0.932059
  H      0.202894   -0.240704    1.775527
  H     -2.419446   -1.839322   -0.883987
  H      4.210094   -0.354485   -1.081854
  H      2.734389   -0.536570   -2.145255
  H      2.491552    1.088469    1.665768
  H      2.688468   -0.643852    1.901005
  H      3.998686    0.298261    1.185863

 Total Charge           Charge          ....    0
 Multiplicity           Mult            ....    1
 Number of Electrons    NEL             ....   84
 Basis Dimension        Dim             ....  186

ORBITAL ENERGIES
----------------

  NO   OCC          E(Eh)            E(eV)
   0   2.0000     -18.742383      -510.0062
   1   2.0000      -9.937503      -270.4132
   2   2.0000      -9.892609      -269.1916
   3   2.0000      -9.891486      -269.1610
   4   2.0000      -9.889380      -269.1037
   5   2.0000      -9.887432      -269.0507
   6   2.0000      -9.886489      -269.0250
   7   2.0000      -9.884582      -268.9732
   8   2.0000      -9.881689      -268.8944
   9   2.0000      -9.877257      -268.7738
  10   2.0000      -9.861512      -268.3454
  11   2.0000      -0.918615       -24.9968
  12   2.0000      -0.762279       -20.7427
  13   2.0000      -0.721011       -19.6197
  14   2.0000      -0.677101       -18.4249
  15   2.0000      -0.661229       -17.9930
  16   2.0000      -0.612925       -16.6785
  17   2.0000      -0.604207       -16.4413
  18   2.0000      -0.551086       -14.9958
  19   2.0000      -0.531564       -14.4646
  20   2.0000      -0.487273       -13.2594
  21   2.0000      -0.470784       -12.8107
  22   2.0000      -0.430996       -11.7280
  23   2.0000      -0.421126       -11.4594
  24   2.0000      -0.402929       -10.9643
  25   2.0000      -0.400099       -10.8872
  26   2.0000      -0.384336       -10.4583
  27   2.0000      -0.378072       -10.2879
  28   2.0000      -0.367717       -10.0061
  29   2.0000      -0.358289        -9.7495
  30   2.0000      -0.353852        -9.6288
  31   2.0000      -0.349254        -9.5037
  32   2.0000      -0.334522        -9.1028
  33   2.0000      -0.323454        -8.8016
  34   2.0000      -0.314296        -8.5524
  35   2.0000      -0.297883        -8.1058
  36   2.0000      -0.285948        -7.7811
  37   2.0000      -0.281615        -7.6631
  38   2.0000      -0.256794        -6.9877
  39   2.0000      -0.223100        -6.0709
  40   2.0000      -0.208294        -5.6680
  41   2.0000      -0.205707        -5.5976
  42   0.0000      -0.016848        -0.4584
  43   0.0000      -0.003813        -0.1038
  44   0.0000       0.020000         0.5442
  45   0.0000       0.045765         1.2453
  46   0.0000       0.062664         1.7052

MULLIKEN ATOMIC CHARGES
-----------------------
   0 C :   -0.214034
   1 C :   -0.097585
   2 C :   -0.163876
   3 C :   -0.057813
   4 C :   -0.176822
   5 H :    0.076238
   6 C :   -0.102228
   7 C :    0.111545
   8 H :    0.051819
   9 O :   -0.426190
  10 C :   -0.014675
  11 C :   -0.229939
  12 C :   -0.223620
  13 H :    0.092685
  14 H :    0.102738
  15 H :    0.106975
  16 H :    0.040694
  17 H :    0.089478
  18 H :    0.089224
  19 H :    0.089316
  20 H :    0.082698
  21 H :    0.295867
  22 H :    0.075210
  23 H :    0.082573
  24 H :    0.106553
  25 H :    0.116325
  26 H :    0.096844
Sum of atomic charges:   -0.0000000

LOEWDIN ATOMIC CHARGES
----------------------
   0 C :   -0.324312
   1 C :   -0.090380
   2 C :   -0.134523
   3 C :   -0.206915
   4 C :   -0.129522
   5 H :    0.127352
   6 C :   -0.211873
   7 C :   -0.034597
   8 H :    0.097569
   9 O :   -0.327688
  10 C :   -0.048345
  11 C :   -0.267140
  12 C :   -0.323988
  13 H :    0.117655
  14 H :    0.126057
  15 H :    0.126308
  16 H :    0.115816
  17 H :    0.127801
  18 H :    0.124786
  19 H :    0.125098
  20 H :    0.120114
  21 H :    0.281537
  22 H :    0.114210
  23 H :    0.116798
  24 H :    0.122401
  25 H :    0.131029
  26 H :    0.124750

  Mayer bond orders larger than 0.100000
B(  0-C ,  1-C ) :   1.1107 B(  0-C , 13-H ) :   0.9288 B(  0-C , 14-H ) :   0.9419
B(  0-C , 15-H ) :   0.9319 B(  1-C ,  2-C ) :   1.9288 B(  1-C ,  7-C ) :   0.9820
B(  2-C ,  3-C ) :   1.0470 B(  2-C , 16-H ) :   0.9222 B(  3-C ,  4-C ) :   1.0847
B(  3-C , 17-H ) :   0.9012 B(  3-C , 18-H ) :   0.8817 B(  4-C ,  5-H ) :   0.8798
B(  4-C ,  6-C ) :   1.0667 B(  4-C , 10-C ) :   1.0056 B(  6-C ,  7-C ) :   1.0851
B(  6-C , 19-H ) :   0.9041 B(  6-C , 20-H ) :   0.8977 B(  7-C ,  8-H ) :   0.8951
B(  7-C ,  9-O ) :   1.0385 B(  9-O , 21-H ) :   0.8483 B( 10-C , 11-C ) :   2.0448
B( 10-C , 12-C ) :   1.1131 B( 11-C , 22-H ) :   0.9020 B( 11-C , 23-H ) :   0.9095
B( 12-C , 24-H ) :   0.9292 B( 12-C , 25-H ) :   0.9212 B( 12-C , 26-H ) :   0.9357

Dispersion correction           -0.028334586
FINAL SINGLE POINT ENERGY      -464.792868281045

DIPOLE MOMENT
-------------

Method             : SCF
Type of density    : Electron Density
Multiplicity       :   1
Irrep              :   0
Energy             :  -464.8827614788281153 Eh
Relativity type    :
Basis              : AO
                                X                 Y                 Z
Electronic contribution:     -2.047274908      -2.099264698      -2.212614439
Nuclear contribution   :      1.435873809       2.410036099       2.501829649
                        -----------------------------------------
Total Dipole Moment    :     -0.611401099       0.310771402       0.289215210
                        -----------------------------------------
Magnitude (a.u.)       :      0.744335681
Magnitude (Debye)      :      1.891950944

Rotational constants in cm-1:             0.071390             0.022465             0.020405
Rotational constants in MHz :          2140.212555           673.471147           611.719877

                             ****ORCA TERMINATED NORMALLY****
TOTAL RUN TIME: 0 days 0 hours 0 minutes 12 seconds 451 msec
