                         Program Version 6.0.0  -   RELEASE  -
|  1> ! pbe def2-sv(p) def2/J RI DEFGRID1 loosescf d4 GCP(DFT/SV(P)) printgap
|  2> %output
|  3>     printlevel normal
|  4> end
|  5> * xyz 0 1
|  6> C -2.8138197542 -1.2672105767 0.0255969421
|  7> O -1.6603759364 -0.664281512 -0.5636296752
|  8> C -1.0606683351 0.3025656125 0.1211840731
|  9> O -1.4571480178 0.6768334979 1.2064262066
| 10> C 0.1074116263 0.9074018778 -0.6340037305
| 11> C 0.8431748343 -0.1346298113 -1.4795219369
| 12> C 1.423379276 -1.2497830449 -0.6005047471
| 13> C 1.7915515467 -0.7265099976 0.7923153827
| 14> C 2.254041364 0.7234330882 0.7026881259
| 15> C 1.0742788947 1.6242731408 0.321332544
| 16> H -2.5410266717 -1.7645011275 0.9574031856
| 17> H -3.1765553981 -1.9824980996 -0.7057441312
| 18> H -3.5659892963 -0.5065905235 0.2386820497
| 19> H -0.3546322487 1.6446380013 -1.300947533
| 20> H 0.1683786333 -0.5579791554 -2.2225676653
| 21> H 1.6460882834 0.3798439142 -2.0078445468
| 22> H 0.7009206666 -2.061552626 -0.5034628576
| 23> H 2.3108801046 -1.6569809904 -1.0869538256
| 24> H 0.923924604 -0.7738178831 1.4555506844
| 25> H 2.5716791073 -1.3508552683 1.2297492798
| 26> H 2.6663377437 1.0499531019 1.6578991132
| 27> H 3.0454635738 0.798841817 -0.0443961275
| 28> H 0.5167455352 1.9034066596 1.2181436237
| 29> H 1.444077136 2.539286094 -0.1407336099
| 30> *
| 31>
| 32>                          ****END OF INPUT****

CARTESIAN COORDINATES (ANGSTROEM)
---------------------------------
  C     -2.813820   -1.267211    0.025597
  O     -1.660376   -0.664282   -0.563630
  C     -1.060668    0.302566    0.121184
  O     -1.457148    0.676833    1.206426
  C      0.107412    0.907402   -0.634004
  C      0.843175   -0.134630   -1.479522
  C      1.423379   -1.249783   -0.600505
  C      1.791552   -0.726510    0.792315
  C      2.254041    0.723433    0.702688
  C      1.074279    1.624273    0.321333
  H     -2.541027   -1.764501    0.957403
  H     -3.176555   -1.982498   -0.705744
  H     -3.565989   -0.506591    0.238682
  H     -0.354632    1.644638   -1.300948
  H      0.168379   -0.557979   -2.222568
  H      1.646088    0.379844   -2.007845
  H      0.700921   -2.061553   -0.503463
  H      2.310880   -1.656981   -1.086954
  H      0.923925   -0.773818    1.455551
  H      2.571679   -1.350855    1.229749
  H      2.666338    1.049953    1.657899
  H      3.045464    0.798842   -0.044396
  H      0.516746    1.903407    1.218144
  H      1.444077    2.539286   -0.140734

 Total Charge           Charge          ....    0
 Multiplicity           Mult            ....    1
 Number of Electrons    NEL             ....   78
 Basis Dimension        Dim             ....  168

ORBITAL ENERGIES
----------------

  NO   OCC          E(Eh)            E(eV)
   0   2.0000     -18.800192      -511.5792
   1   2.0000     -18.735387      -509.8158
   2   2.0000     -10.004365      -272.2326
   3   2.0000      -9.942742      -270.5558
   4   2.0000      -9.904037      -269.5026
   5   2.0000      -9.885079      -268.9867
   6   2.0000      -9.880963      -268.8747
   7   2.0000      -9.879516      -268.8353
   8   2.0000      -9.879295      -268.8293
   9   2.0000      -9.879255      -268.8282
  10   2.0000      -1.008102       -27.4318
  11   2.0000      -0.910302       -24.7706
  12   2.0000      -0.760694       -20.6995
  13   2.0000      -0.689246       -18.7553
  14   2.0000      -0.663457       -18.0536
  15   2.0000      -0.650001       -17.6874
  16   2.0000      -0.566839       -15.4245
  17   2.0000      -0.542676       -14.7670
  18   2.0000      -0.509730       -13.8705
  19   2.0000      -0.475800       -12.9472
  20   2.0000      -0.460540       -12.5319
  21   2.0000      -0.442345       -12.0368
  22   2.0000      -0.425014       -11.5652
  23   2.0000      -0.412024       -11.2117
  24   2.0000      -0.406178       -11.0527
  25   2.0000      -0.382455       -10.4071
  26   2.0000      -0.362375        -9.8607
  27   2.0000      -0.354677        -9.6513
  28   2.0000      -0.334219        -9.0946
  29   2.0000      -0.332690        -9.0529
  30   2.0000      -0.327273        -8.9055
  31   2.0000      -0.321394        -8.7456
  32   2.0000      -0.309893        -8.4326
  33   2.0000      -0.303177        -8.2499
  34   2.0000      -0.268281        -7.3003
  35   2.0000      -0.262041        -7.1305
  36   2.0000      -0.260384        -7.0854
  37   2.0000      -0.255785        -6.9603
  38   2.0000      -0.218256        -5.9390
  39   0.0000      -0.022120        -0.6019
  40   0.0000       0.029316         0.7977
  41   0.0000       0.044776         1.2184
  42   0.0000       0.070744         1.9250
  43   0.0000       0.074685         2.0323

MULLIKEN ATOMIC CHARGES
-----------------------
   0 C :   -0.107766
   1 O :   -0.234998
   2 C :    0.138634
   3 O :   -0.201921
   4 C :   -0.235800
   5 C :   -0.068715
   6 C :   -0.174804
   7 C :   -0.167479
   8 C :   -0.154405
   9 C :   -0.110172
  10 H :    0.119574
  11 H :    0.121028
  12 H :    0.120559
  13 H :    0.102051
  14 H :    0.091214
  15 H :    0.076129
  16 H :    0.082837
  17 H :    0.080459
  18 H :    0.095550
  19 H :    0.085561
  20 H :    0.087650
  21 H :    0.073847
  22 H :    0.104776
  23 H :    0.076189
Sum of atomic charges:   -0.0000000

LOEWDIN ATOMIC CHARGES
----------------------
   0 C :   -0.202861
   1 O :   -0.065852
   2 C :    0.040647
   3 O :   -0.164980
   4 C :   -0.168068
   5 C :   -0.218979
   6 C :   -0.232201
   7 C :   -0.233874
   8 C :   -0.224614
   9 C :   -0.219540
  10 H :    0.119661
  11 H :    0.120215
  12 H :    0.120171
  13 H :    0.144359
  14 H :    0.122000
  15 H :    0.118358
  16 H :    0.115518
  17 H :    0.116991
  18 H :    0.119244
  19 H :    0.117707
  20 H :    0.119579
  21 H :    0.112133
  22 H :    0.127247
  23 H :    0.117140

  Mayer bond orders larger than 0.100000
B(  0-C ,  1-O ) :   0.9384 B(  0-C , 10-H ) :   0.9526 B(  0-C , 11-H ) :   0.9589
B(  0-C , 12-H ) :   0.9512 B(  1-O ,  2-C ) :   1.2193 B(  2-C ,  3-O ) :   2.0441
B(  2-C ,  4-C ) :   0.9466 B(  4-C ,  5-C ) :   1.1461 B(  4-C ,  9-C ) :   1.0862
B(  4-C , 13-H ) :   0.8579 B(  5-C ,  6-C ) :   1.1482 B(  5-C , 14-H ) :   0.9046
B(  5-C , 15-H ) :   0.8974 B(  6-C ,  7-C ) :   1.1491 B(  6-C , 16-H ) :   0.9147
B(  6-C , 17-H ) :   0.9180 B(  7-C ,  8-C ) :   1.1818 B(  7-C , 18-H ) :   0.9010
B(  7-C , 19-H ) :   0.9206 B(  8-C ,  9-C ) :   1.1499 B(  8-C , 20-H ) :   0.9204
B(  8-C , 21-H ) :   0.9089 B(  9-C , 22-H ) :   0.8994 B(  9-C , 23-H ) :   0.9130

Dispersion correction           -0.024105235
FINAL SINGLE POINT ENERGY      -462.697676283432

DIPOLE MOMENT
-------------

Method             : SCF
Type of density    : Electron Density
Multiplicity       :   1
Irrep              :   0
Energy             :  -462.7858072458858487 Eh
Relativity type    :
Basis              : AO
                                X                 Y                 Z
Electronic contribution:     -5.999254194       1.777153957       0.617655350
Nuclear contribution   :      5.917042760      -2.194004960      -1.168078083
                        -----------------------------------------
Total Dipole Moment    :     -0.082211434      -0.416851003      -0.550422733
                        -----------------------------------------
Magnitude (a.u.)       :      0.695333491
Magnitude (Debye)      :      1.767397277

Rotational constants in cm-1:             0.073955             0.034322             0.030264
Rotational constants in MHz :          2217.110005          1028.954098           907.304315

                             ****ORCA TERMINATED NORMALLY****
TOTAL RUN TIME: 0 days 0 hours 0 minutes 12 seconds 575 msec
