                         Program Version 6.0.0  -   RELEASE  -
|  1> ! r2scan-3c def2/J RI DEFGRID2 scfconv6 printgap
|  2> %output
|  3>     printlevel normal
|  4> end
|  5> %cpcm
|  6>     smd true
|  7>     smdsolvent "water"
|  8> end
|  9> * xyz 0 1
| 10> N 0.7308712293 -9.8523e-06 -0.0893096788
| 11> N -0.7308723407 7.6737e-06 0.0893127115
| 12> H 1.0632313667 0.8131807789 0.4265716711
| 13> H 1.0632284684 -0.8130933355 0.426551392
| 14> H -1.0632356553 -0.8131714851 -0.426521158
| 15> H -1.0632087351 0.8131143162 -0.4266440489
| 16> *
| 17>
| 18>                          ****END OF INPUT****

CARTESIAN COORDINATES (ANGSTROEM)
---------------------------------
  N      0.730871   -0.000010   -0.089310
  N     -0.730872    0.000008    0.089313
  H      1.063231    0.813181    0.426572
  H      1.063228   -0.813093    0.426551
  H     -1.063236   -0.813171   -0.426521
  H     -1.063209    0.813114   -0.426644

 Total Charge           Charge          ....    0
 Multiplicity           Mult            ....    1
 Number of Electrons    NEL             ....   18
 Basis Dimension        Dim             ....   68

ORBITAL ENERGIES
----------------

  NO   OCC          E(Eh)            E(eV)
   0   2.0000     -14.157291      -385.2395
   1   2.0000     -14.157270      -385.2389
   2   2.0000      -0.898441       -24.4478
   3   2.0000      -0.709945       -19.3186
   4   2.0000      -0.478384       -13.0175
   5   2.0000      -0.408097       -11.1049
   6   2.0000      -0.369297       -10.0491
   7   2.0000      -0.317776        -8.6471
   8   2.0000      -0.169597        -4.6150
   9   0.0000       0.098751         2.6871
  10   0.0000       0.110852         3.0164
  11   0.0000       0.186555         5.0764
  12   0.0000       0.188122         5.1191
  13   0.0000       0.195465         5.3189

MULLIKEN ATOMIC CHARGES
-----------------------
   0 N :   -0.573845
   1 N :   -0.573853
   2 H :    0.286936
   3 H :    0.286908
   4 H :    0.286928
   5 H :    0.286926
Sum of atomic charges:    0.0000000

LOEWDIN ATOMIC CHARGES
----------------------
   0 N :   -0.534427
   1 N :   -0.534431
   2 H :    0.267234
   3 H :    0.267189
   4 H :    0.267218
   5 H :    0.267217

  Mayer bond orders larger than 0.100000
B(  0-N ,  1-N ) :   0.8561 B(  0-N ,  2-H ) :   0.9053 B(  0-N ,  3-H ) :   0.9053
B(  1-N ,  4-H ) :   0.9053 B(  1-N ,  5-H ) :   0.9053

Dispersion correction           -0.000540802
FINAL SINGLE POINT ENERGY      -111.837471603308

DIPOLE MOMENT
-------------

Method             : SCF
Type of density    : Electron Density
Multiplicity       :   1
Irrep              :   0
Energy             :  -111.8481563984412901 Eh
Relativity type    :
Basis              : AO
                                X                 Y                 Z
Electronic contribution:     -0.000001757      -0.000056852       0.000021396
Nuclear contribution   :      0.000014484       0.000028391      -0.000039521
                        -----------------------------------------
Total Dipole Moment    :      0.000012726      -0.000028461      -0.000018126
                        -----------------------------------------
Magnitude (a.u.)       :      0.000036063
Magnitude (Debye)      :      0.000091665

Rotational constants in cm-1:             4.652854             0.823150             0.759755
Rotational constants in MHz :        139489.066113         24677.404288         22776.890547

                             ****ORCA TERMINATED NORMALLY****
TOTAL RUN TIME: 0 days 0 hours 0 minutes 6 seconds 319 msec
