                         Program Version 6.0.0  -   RELEASE  -
|  1> ! r2scan-3c def2/J RI DEFGRID2 scfconv6 printgap
|  2> %output
|  3>     printlevel normal
|  4> end
|  5> * xyz 0 1
|  6> C 0.7200708787 -1.4487017462 -0.1170377932
|  7> C 0.4373027685 -0.0131974916 0.3303550195
|  8> C 1.6081379589 0.905308296 -0.0060305773
|  9> O -0.7076811635 0.5410181208 -0.3143923662
| 10> C -1.9464272606 0.0270515936 0.1169335378
| 11> H 0.8100954903 -1.4821381078 -1.2000392919
| 12> H 1.6493262939 -1.7903780506 0.3282067919
| 13> H -0.0774908792 -2.1200263535 0.1905678777
| 14> H 0.2616226591 -0.0017806259 1.4200624996
| 15> H 2.5034003084 0.5731356422 0.5096878992
| 16> H 1.3758234639 1.9231207231 0.294275374
| 17> H 1.7825592779 0.8933999081 -1.0781840549
| 18> H -2.0878234701 -1.012095559 -0.1958110076
| 19> H -2.7070269649 0.6494078554 -0.349317551
| 20> H -2.0375109716 0.0896306798 1.2075698257
| 21> *
| 22>
| 23>                          ****END OF INPUT****

CARTESIAN COORDINATES (ANGSTROEM)
---------------------------------
  C      0.720071   -1.448702   -0.117038
  C      0.437303   -0.013197    0.330355
  C      1.608138    0.905308   -0.006031
  O     -0.707681    0.541018   -0.314392
  C     -1.946427    0.027052    0.116934
  H      0.810095   -1.482138   -1.200039
  H      1.649326   -1.790378    0.328207
  H     -0.077491   -2.120026    0.190568
  H      0.261623   -0.001781    1.420062
  H      2.503400    0.573136    0.509688
  H      1.375823    1.923121    0.294275
  H      1.782559    0.893400   -1.078184
  H     -2.087823   -1.012096   -0.195811
  H     -2.707027    0.649408   -0.349318
  H     -2.037511    0.089631    1.207570

 Total Charge           Charge          ....    0
 Multiplicity           Mult            ....    1
 Number of Electrons    NEL             ....   42
 Basis Dimension        Dim             ....  150

ORBITAL ENERGIES
----------------

  NO   OCC          E(Eh)            E(eV)
   0   2.0000     -18.945011      -515.5200
   1   2.0000     -10.081060      -274.3196
   2   2.0000     -10.066458      -273.9222
   3   2.0000     -10.017172      -272.5811
   4   2.0000     -10.014648      -272.5124
   5   2.0000      -0.990372       -26.9494
   6   2.0000      -0.746631       -20.3169
   7   2.0000      -0.658873       -17.9288
   8   2.0000      -0.638015       -17.3613
   9   2.0000      -0.541785       -14.7427
  10   2.0000      -0.461233       -12.5508
  11   2.0000      -0.430552       -11.7159
  12   2.0000      -0.420419       -11.4402
  13   2.0000      -0.392475       -10.6798
  14   2.0000      -0.366346        -9.9688
  15   2.0000      -0.357461        -9.7270
  16   2.0000      -0.347410        -9.4535
  17   2.0000      -0.317915        -8.6509
  18   2.0000      -0.313192        -8.5224
  19   2.0000      -0.273667        -7.4468
  20   2.0000      -0.217305        -5.9132
  21   0.0000       0.075949         2.0667
  22   0.0000       0.102472         2.7884
  23   0.0000       0.124420         3.3856
  24   0.0000       0.131960         3.5908
  25   0.0000       0.138665         3.7733

MULLIKEN ATOMIC CHARGES
-----------------------
   0 C :   -0.462500
   1 C :    0.024087
   2 C :   -0.458024
   3 O :   -0.232319
   4 C :   -0.292457
   5 H :    0.160471
   6 H :    0.143927
   7 H :    0.141982
   8 H :    0.122823
   9 H :    0.137533
  10 H :    0.154811
  11 H :    0.151463
  12 H :    0.132080
  13 H :    0.147151
  14 H :    0.128972
Sum of atomic charges:    0.0000000

LOEWDIN ATOMIC CHARGES
----------------------
   0 C :   -0.399871
   1 C :    0.046499
   2 C :   -0.382150
   3 O :   -0.789462
   4 C :   -0.071643
   5 H :    0.161922
   6 H :    0.158157
   7 H :    0.153825
   8 H :    0.162558
   9 H :    0.155416
  10 H :    0.162291
  11 H :    0.161203
  12 H :    0.151976
  13 H :    0.174752
  14 H :    0.154525

  Mayer bond orders larger than 0.100000
B(  0-C ,  1-C ) :   0.9077 B(  0-C ,  5-H ) :   0.9798 B(  0-C ,  6-H ) :   0.9704
B(  0-C ,  7-H ) :   0.9665 B(  1-C ,  2-C ) :   0.9556 B(  1-C ,  3-O ) :   0.8337
B(  1-C ,  8-H ) :   0.9466 B(  2-C ,  9-H ) :   0.9701 B(  2-C , 10-H ) :   0.9713
B(  2-C , 11-H ) :   0.9800 B(  3-O ,  4-C ) :   0.9071 B(  4-C , 12-H ) :   0.9641
B(  4-C , 13-H ) :   0.9726 B(  4-C , 14-H ) :   0.9684

Dispersion correction           -0.003126981
FINAL SINGLE POINT ENERGY      -233.587381975166

DIPOLE MOMENT
-------------

Method             : SCF
Type of density    : Electron Density
Multiplicity       :   1
Irrep              :   0
Energy             :  -233.5942011104382061 Eh
Relativity type    :
Basis              : AO
                                X                 Y                 Z
Electronic contribution:     -1.364342800       1.795138745      -0.715294941
Nuclear contribution   :      1.371369681      -2.128842948       1.052656948
                        -----------------------------------------
Total Dipole Moment    :      0.007026882      -0.333704203       0.337362007
                        -----------------------------------------
Magnitude (a.u.)       :      0.474574542
Magnitude (Debye)      :      1.206272621

Rotational constants in cm-1:             0.255209             0.125823             0.093640
Rotational constants in MHz :          7650.962979          3772.086989          2807.252637

                             ****ORCA TERMINATED NORMALLY****
TOTAL RUN TIME: 0 days 0 hours 0 minutes 14 seconds 129 msec
