                         Program Version 6.0.0  -   RELEASE  -
|  1> ! r2scan-3c def2/J RI DEFGRID2 scfconv6 printgap
|  2> %output
|  3>     printlevel normal
|  4> end
|  5> %cpcm
|  6>     smd true
|  7>     smdsolvent "water"
|  8> end
|  9> * xyz 0 1
| 10> C 0.7200708787 -1.4487017462 -0.1170377932
| 11> C 0.4373027685 -0.0131974916 0.3303550195
| 12> C 1.6081379589 0.905308296 -0.0060305773
| 13> O -0.7076811635 0.5410181208 -0.3143923662
| 14> C -1.9464272606 0.0270515936 0.1169335378
| 15> H 0.8100954903 -1.4821381078 -1.2000392919
| 16> H 1.6493262939 -1.7903780506 0.3282067919
| 17> H -0.0774908792 -2.1200263535 0.1905678777
| 18> H 0.2616226591 -0.0017806259 1.4200624996
| 19> H 2.5034003084 0.5731356422 0.5096878992
| 20> H 1.3758234639 1.9231207231 0.294275374
| 21> H 1.7825592779 0.8933999081 -1.0781840549
| 22> H -2.0878234701 -1.012095559 -0.1958110076
| 23> H -2.7070269649 0.6494078554 -0.349317551
| 24> H -2.0375109716 0.0896306798 1.2075698257
| 25> *
| 26>
| 27>                          ****END OF INPUT****

CARTESIAN COORDINATES (ANGSTROEM)
---------------------------------
  C      0.720071   -1.448702   -0.117038
  C      0.437303   -0.013197    0.330355
  C      1.608138    0.905308   -0.006031
  O     -0.707681    0.541018   -0.314392
  C     -1.946427    0.027052    0.116934
  H      0.810095   -1.482138   -1.200039
  H      1.649326   -1.790378    0.328207
  H     -0.077491   -2.120026    0.190568
  H      0.261623   -0.001781    1.420062
  H      2.503400    0.573136    0.509688
  H      1.375823    1.923121    0.294275
  H      1.782559    0.893400   -1.078184
  H     -2.087823   -1.012096   -0.195811
  H     -2.707027    0.649408   -0.349318
  H     -2.037511    0.089631    1.207570

 Total Charge           Charge          ....    0
 Multiplicity           Mult            ....    1
 Number of Electrons    NEL             ....   42
 Basis Dimension        Dim             ....  150

ORBITAL ENERGIES
----------------

  NO   OCC          E(Eh)            E(eV)
   0   2.0000     -18.952096      -515.7128
   1   2.0000     -10.077125      -274.2125
   2   2.0000     -10.060834      -273.7692
   3   2.0000     -10.010419      -272.3974
   4   2.0000     -10.009403      -272.3697
   5   2.0000      -0.995977       -27.1019
   6   2.0000      -0.743057       -20.2196
   7   2.0000      -0.653743       -17.7892
   8   2.0000      -0.634422       -17.2635
   9   2.0000      -0.538456       -14.6521
  10   2.0000      -0.459072       -12.4920
  11   2.0000      -0.427332       -11.6283
  12   2.0000      -0.419501       -11.4152
  13   2.0000      -0.388204       -10.5636
  14   2.0000      -0.359850        -9.7920
  15   2.0000      -0.351780        -9.5724
  16   2.0000      -0.343015        -9.3339
  17   2.0000      -0.313442        -8.5292
  18   2.0000      -0.309002        -8.4084
  19   2.0000      -0.277352        -7.5471
  20   2.0000      -0.222396        -6.0517
  21   0.0000       0.078800         2.1443
  22   0.0000       0.111063         3.0222
  23   0.0000       0.131016         3.5651
  24   0.0000       0.138638         3.7725
  25   0.0000       0.143946         3.9170

MULLIKEN ATOMIC CHARGES
-----------------------
   0 C :   -0.507173
   1 C :    0.047543
   2 C :   -0.506470
   3 O :   -0.305764
   4 C :   -0.310111
   5 H :    0.165707
   6 H :    0.164300
   7 H :    0.160951
   8 H :    0.143296
   9 H :    0.162259
  10 H :    0.161087
  11 H :    0.162069
  12 H :    0.151145
  13 H :    0.160832
  14 H :    0.150329
Sum of atomic charges:    0.0000000

LOEWDIN ATOMIC CHARGES
----------------------
   0 C :   -0.405054
   1 C :    0.048310
   2 C :   -0.391319
   3 O :   -0.831269
   4 C :   -0.072911
   5 H :    0.162236
   6 H :    0.165360
   7 H :    0.159750
   8 H :    0.171798
   9 H :    0.164801
  10 H :    0.161886
  11 H :    0.162161
  12 H :    0.160868
  13 H :    0.179049
  14 H :    0.164333

  Mayer bond orders larger than 0.100000
B(  0-C ,  1-C ) :   0.9077 B(  0-C ,  5-H ) :   0.9765 B(  0-C ,  6-H ) :   0.9657
B(  0-C ,  7-H ) :   0.9620 B(  1-C ,  2-C ) :   0.9431 B(  1-C ,  3-O ) :   0.8270
B(  1-C ,  8-H ) :   0.9422 B(  2-C ,  9-H ) :   0.9645 B(  2-C , 10-H ) :   0.9704
B(  2-C , 11-H ) :   0.9766 B(  3-O ,  4-C ) :   0.8987 B(  4-C , 12-H ) :   0.9581
B(  4-C , 13-H ) :   0.9660 B(  4-C , 14-H ) :   0.9635

Dispersion correction           -0.003126981
FINAL SINGLE POINT ENERGY      -233.589175020104

DIPOLE MOMENT
-------------

Method             : SCF
Type of density    : Electron Density
Multiplicity       :   1
Irrep              :   0
Energy             :  -233.5959941553757631 Eh
Relativity type    :
Basis              : AO
                                X                 Y                 Z
Electronic contribution:     -1.347590716       1.595799284      -0.508016759
Nuclear contribution   :      1.371369681      -2.128842948       1.052656948
                        -----------------------------------------
Total Dipole Moment    :      0.023778965      -0.533043664       0.544640189
                        -----------------------------------------
Magnitude (a.u.)       :      0.762452571
Magnitude (Debye)      :      1.938000419

Rotational constants in cm-1:             0.255209             0.125823             0.093640
Rotational constants in MHz :          7650.962979          3772.086989          2807.252637

                             ****ORCA TERMINATED NORMALLY****
TOTAL RUN TIME: 0 days 0 hours 0 minutes 18 seconds 441 msec
