                         Program Version 6.0.0  -   RELEASE  -
|  1> ! r2scan-3c def2/J RI DEFGRID2 scfconv6 printgap
|  2> %output
|  3>     printlevel normal
|  4> end
|  5> * xyz 0 1
|  6> C -2.4362359666 1.0540823128 -0.4481409115
|  7> C -1.7020555349 -0.2811311141 -0.2923420245
|  8> C -2.3140260154 -1.0512297489 0.8820397266
|  9> C -0.201666911 -0.1040849909 -0.1481156785
| 10> C 0.5734239276 -1.0412476373 0.5292375278
| 11> C 1.9443672666 -0.8930959033 0.6457765327
| 12> C 2.580931485 0.1980646904 0.0821379885
| 13> C 1.8277798842 1.1330544613 -0.6047784371
| 14> C 0.4568605514 0.9813525274 -0.7187506527
| 15> H -2.1970021321 1.536238433 -1.3916202029
| 16> H -2.1775639697 1.7263391166 0.3668653232
| 17> H -3.510603422 0.8868153219 -0.4283971541
| 18> H -1.8722173432 -0.8678763428 -1.2055424299
| 19> H -2.0401307235 -0.5841269404 1.825433783
| 20> H -1.9893821025 -2.0876699576 0.8955625725
| 21> H -3.3982918872 -1.0480135463 0.7983063153
| 22> H 0.1131472006 -1.9071728866 0.9768277079
| 23> H 2.5172918046 -1.6365559184 1.1807561643
| 24> H 3.6502897896 0.3164087107 0.1738209088
| 25> H 2.308499034 1.9882956353 -1.0571171097
| 26> H -0.0959376364 1.7277910605 -1.2657288587
| 27> *
| 28>
| 29>                          ****END OF INPUT****

CARTESIAN COORDINATES (ANGSTROEM)
---------------------------------
  C     -2.436236    1.054082   -0.448141
  C     -1.702056   -0.281131   -0.292342
  C     -2.314026   -1.051230    0.882040
  C     -0.201667   -0.104085   -0.148116
  C      0.573424   -1.041248    0.529238
  C      1.944367   -0.893096    0.645777
  C      2.580931    0.198065    0.082138
  C      1.827780    1.133054   -0.604778
  C      0.456861    0.981353   -0.718751
  H     -2.197002    1.536238   -1.391620
  H     -2.177564    1.726339    0.366865
  H     -3.510603    0.886815   -0.428397
  H     -1.872217   -0.867876   -1.205542
  H     -2.040131   -0.584127    1.825434
  H     -1.989382   -2.087670    0.895563
  H     -3.398292   -1.048014    0.798306
  H      0.113147   -1.907173    0.976828
  H      2.517292   -1.636556    1.180756
  H      3.650290    0.316409    0.173821
  H      2.308499    1.988296   -1.057117
  H     -0.095938    1.727791   -1.265729

 Total Charge           Charge          ....    0
 Multiplicity           Mult            ....    1
 Number of Electrons    NEL             ....   66
 Basis Dimension        Dim             ....  231

ORBITAL ENERGIES
----------------

  NO   OCC          E(Eh)            E(eV)
   0   2.0000     -10.043821      -273.3063
   1   2.0000     -10.040517      -273.2163
   2   2.0000     -10.030331      -272.9392
   3   2.0000     -10.030278      -272.9378
   4   2.0000     -10.028335      -272.8849
   5   2.0000     -10.028067      -272.8776
   6   2.0000     -10.028045      -272.8770
   7   2.0000     -10.019692      -272.6497
   8   2.0000     -10.019686      -272.6495
   9   2.0000      -0.827615       -22.5206
  10   2.0000      -0.771021       -20.9805
  11   2.0000      -0.712754       -19.3950
  12   2.0000      -0.698653       -19.0113
  13   2.0000      -0.654206       -17.8019
  14   2.0000      -0.588641       -16.0177
  15   2.0000      -0.567389       -15.4394
  16   2.0000      -0.532055       -14.4780
  17   2.0000      -0.483452       -13.1554
  18   2.0000      -0.436445       -11.8763
  19   2.0000      -0.422890       -11.5074
  20   2.0000      -0.410768       -11.1776
  21   2.0000      -0.409520       -11.1436
  22   2.0000      -0.387020       -10.5314
  23   2.0000      -0.363641        -9.8952
  24   2.0000      -0.348280        -9.4772
  25   2.0000      -0.346557        -9.4303
  26   2.0000      -0.338825        -9.2199
  27   2.0000      -0.324078        -8.8186
  28   2.0000      -0.311999        -8.4899
  29   2.0000      -0.293531        -7.9874
  30   2.0000      -0.290849        -7.9144
  31   2.0000      -0.233057        -6.3418
  32   2.0000      -0.224699        -6.1144
  33   0.0000      -0.028173        -0.7666
  34   0.0000      -0.026531        -0.7219
  35   0.0000       0.080437         2.1888
  36   0.0000       0.098003         2.6668
  37   0.0000       0.116305         3.1648

MULLIKEN ATOMIC CHARGES
-----------------------
   0 C :   -0.539118
   1 C :    0.070351
   2 C :   -0.536333
   3 C :    0.079786
   4 C :   -0.194574
   5 C :   -0.160898
   6 C :   -0.159500
   7 C :   -0.160928
   8 C :   -0.192088
   9 H :    0.143233
  10 H :    0.173757
  11 H :    0.145413
  12 H :    0.162258
  13 H :    0.173399
  14 H :    0.143071
  15 H :    0.145296
  16 H :    0.136459
  17 H :    0.144174
  18 H :    0.145306
  19 H :    0.144166
  20 H :    0.136770
Sum of atomic charges:    0.0000000

LOEWDIN ATOMIC CHARGES
----------------------
   0 C :   -0.410635
   1 C :   -0.216313
   2 C :   -0.410325
   3 C :   -0.081376
   4 C :   -0.159972
   5 C :   -0.163108
   6 C :   -0.172797
   7 C :   -0.163128
   8 C :   -0.160163
   9 H :    0.151350
  10 H :    0.160496
  11 H :    0.153730
  12 H :    0.169604
  13 H :    0.160554
  14 H :    0.151262
  15 H :    0.153679
  16 H :    0.169637
  17 H :    0.165930
  18 H :    0.165926
  19 H :    0.165919
  20 H :    0.169726

  Mayer bond orders larger than 0.100000
B(  0-C ,  1-C ) :   0.8824 B(  0-C ,  9-H ) :   0.9595 B(  0-C , 10-H ) :   0.9938
B(  0-C , 11-H ) :   0.9763 B(  1-C ,  2-C ) :   0.8826 B(  1-C ,  3-C ) :   0.8459
B(  1-C , 12-H ) :   0.9285 B(  2-C , 13-H ) :   0.9932 B(  2-C , 14-H ) :   0.9597
B(  2-C , 15-H ) :   0.9764 B(  3-C ,  4-C ) :   1.4118 B(  3-C ,  8-C ) :   1.4137
B(  4-C ,  5-C ) :   1.4412 B(  4-C , 16-H ) :   0.9511 B(  5-C ,  6-C ) :   1.4186
B(  5-C , 17-H ) :   0.9487 B(  6-C ,  7-C ) :   1.4192 B(  6-C , 18-H ) :   0.9492
B(  7-C ,  8-C ) :   1.4398 B(  7-C , 19-H ) :   0.9487 B(  8-C , 20-H ) :   0.9509

Dispersion correction           -0.007016757
FINAL SINGLE POINT ENERGY      -350.076436952009

DIPOLE MOMENT
-------------

Method             : SCF
Type of density    : Electron Density
Multiplicity       :   1
Irrep              :   0
Energy             :  -350.0766580211203518 Eh
Relativity type    :
Basis              : AO
                                X                 Y                 Z
Electronic contribution:      7.964601603      -0.081445358      -0.852164937
Nuclear contribution   :     -8.154455482       0.047351811       0.815423859
                        -----------------------------------------
Total Dipole Moment    :     -0.189853879      -0.034093547      -0.036741078
                        -----------------------------------------
Magnitude (a.u.)       :      0.196358785
Magnitude (Debye)      :      0.499104366

Rotational constants in cm-1:             0.113086             0.039781             0.030441
Rotational constants in MHz :          3390.222379          1192.597716           912.587696

                             ****ORCA TERMINATED NORMALLY****
TOTAL RUN TIME: 0 days 0 hours 0 minutes 26 seconds 923 msec
