                         Program Version 6.0.0  -   RELEASE  -
|  1> ! r2scan-3c def2/J RI DEFGRID2 scfconv6 printgap
|  2> %output
|  3>     printlevel normal
|  4> end
|  5> %cpcm
|  6>     smd true
|  7>     smdsolvent "water"
|  8> end
|  9> * xyz 0 1
| 10> C -2.4362359666 1.0540823128 -0.4481409115
| 11> C -1.7020555349 -0.2811311141 -0.2923420245
| 12> C -2.3140260154 -1.0512297489 0.8820397266
| 13> C -0.201666911 -0.1040849909 -0.1481156785
| 14> C 0.5734239276 -1.0412476373 0.5292375278
| 15> C 1.9443672666 -0.8930959033 0.6457765327
| 16> C 2.580931485 0.1980646904 0.0821379885
| 17> C 1.8277798842 1.1330544613 -0.6047784371
| 18> C 0.4568605514 0.9813525274 -0.7187506527
| 19> H -2.1970021321 1.536238433 -1.3916202029
| 20> H -2.1775639697 1.7263391166 0.3668653232
| 21> H -3.510603422 0.8868153219 -0.4283971541
| 22> H -1.8722173432 -0.8678763428 -1.2055424299
| 23> H -2.0401307235 -0.5841269404 1.825433783
| 24> H -1.9893821025 -2.0876699576 0.8955625725
| 25> H -3.3982918872 -1.0480135463 0.7983063153
| 26> H 0.1131472006 -1.9071728866 0.9768277079
| 27> H 2.5172918046 -1.6365559184 1.1807561643
| 28> H 3.6502897896 0.3164087107 0.1738209088
| 29> H 2.308499034 1.9882956353 -1.0571171097
| 30> H -0.0959376364 1.7277910605 -1.2657288587
| 31> *
| 32>
| 33>                          ****END OF INPUT****

CARTESIAN COORDINATES (ANGSTROEM)
---------------------------------
  C     -2.436236    1.054082   -0.448141
  C     -1.702056   -0.281131   -0.292342
  C     -2.314026   -1.051230    0.882040
  C     -0.201667   -0.104085   -0.148116
  C      0.573424   -1.041248    0.529238
  C      1.944367   -0.893096    0.645777
  C      2.580931    0.198065    0.082138
  C      1.827780    1.133054   -0.604778
  C      0.456861    0.981353   -0.718751
  H     -2.197002    1.536238   -1.391620
  H     -2.177564    1.726339    0.366865
  H     -3.510603    0.886815   -0.428397
  H     -1.872217   -0.867876   -1.205542
  H     -2.040131   -0.584127    1.825434
  H     -1.989382   -2.087670    0.895563
  H     -3.398292   -1.048014    0.798306
  H      0.113147   -1.907173    0.976828
  H      2.517292   -1.636556    1.180756
  H      3.650290    0.316409    0.173821
  H      2.308499    1.988296   -1.057117
  H     -0.095938    1.727791   -1.265729

 Total Charge           Charge          ....    0
 Multiplicity           Mult            ....    1
 Number of Electrons    NEL             ....   66
 Basis Dimension        Dim             ....  231

ORBITAL ENERGIES
----------------

  NO   OCC          E(Eh)            E(eV)
   0   2.0000     -10.040283      -273.2100
   1   2.0000     -10.036620      -273.1103
   2   2.0000     -10.029832      -272.9256
   3   2.0000     -10.029782      -272.9242
   4   2.0000     -10.027774      -272.8696
   5   2.0000     -10.027002      -272.8486
   6   2.0000     -10.026980      -272.8480
   7   2.0000     -10.009772      -272.3797
   8   2.0000     -10.009725      -272.3785
   9   2.0000      -0.828234       -22.5374
  10   2.0000      -0.765985       -20.8435
  11   2.0000      -0.712767       -19.3954
  12   2.0000      -0.696432       -18.9509
  13   2.0000      -0.645327       -17.5602
  14   2.0000      -0.584708       -15.9107
  15   2.0000      -0.565720       -15.3940
  16   2.0000      -0.527746       -14.3607
  17   2.0000      -0.479625       -13.0513
  18   2.0000      -0.429566       -11.6891
  19   2.0000      -0.421526       -11.4703
  20   2.0000      -0.405347       -11.0301
  21   2.0000      -0.402786       -10.9604
  22   2.0000      -0.383876       -10.4458
  23   2.0000      -0.355041        -9.6612
  24   2.0000      -0.347111        -9.4454
  25   2.0000      -0.339642        -9.2421
  26   2.0000      -0.335237        -9.1223
  27   2.0000      -0.317582        -8.6418
  28   2.0000      -0.306267        -8.3340
  29   2.0000      -0.288345        -7.8463
  30   2.0000      -0.284719        -7.7476
  31   2.0000      -0.236775        -6.4430
  32   2.0000      -0.226947        -6.1755
  33   0.0000      -0.030675        -0.8347
  34   0.0000      -0.028589        -0.7779
  35   0.0000       0.089571         2.4374
  36   0.0000       0.105008         2.8574
  37   0.0000       0.119191         3.2434

MULLIKEN ATOMIC CHARGES
-----------------------
   0 C :   -0.579506
   1 C :    0.110705
   2 C :   -0.576631
   3 C :    0.028302
   4 C :   -0.215735
   5 C :   -0.202021
   6 C :   -0.192920
   7 C :   -0.201967
   8 C :   -0.213402
   9 H :    0.161029
  10 H :    0.178566
  11 H :    0.161488
  12 H :    0.176175
  13 H :    0.178110
  14 H :    0.160896
  15 H :    0.161384
  16 H :    0.168403
  17 H :    0.175631
  18 H :    0.177201
  19 H :    0.175567
  20 H :    0.168727
Sum of atomic charges:    0.0000000

LOEWDIN ATOMIC CHARGES
----------------------
   0 C :   -0.416719
   1 C :   -0.214769
   2 C :   -0.416423
   3 C :   -0.088747
   4 C :   -0.170322
   5 C :   -0.175470
   6 C :   -0.186940
   7 C :   -0.175481
   8 C :   -0.170520
   9 H :    0.156593
  10 H :    0.160774
  11 H :    0.158334
  12 H :    0.175183
  13 H :    0.160772
  14 H :    0.156511
  15 H :    0.158317
  16 H :    0.180163
  17 H :    0.176270
  18 H :    0.175989
  19 H :    0.176242
  20 H :    0.180244

  Mayer bond orders larger than 0.100000
B(  0-C ,  1-C ) :   0.8683 B(  0-C ,  9-H ) :   0.9564 B(  0-C , 10-H ) :   0.9927
B(  0-C , 11-H ) :   0.9725 B(  1-C ,  2-C ) :   0.8684 B(  1-C ,  3-C ) :   0.8572
B(  1-C , 12-H ) :   0.9225 B(  2-C , 13-H ) :   0.9923 B(  2-C , 14-H ) :   0.9565
B(  2-C , 15-H ) :   0.9727 B(  3-C ,  4-C ) :   1.3803 B(  3-C ,  8-C ) :   1.3821
B(  4-C ,  5-C ) :   1.4075 B(  4-C , 16-H ) :   0.9587 B(  5-C ,  6-C ) :   1.3779
B(  5-C , 17-H ) :   0.9600 B(  6-C ,  7-C ) :   1.3786 B(  6-C , 18-H ) :   0.9572
B(  7-C ,  8-C ) :   1.4058 B(  7-C , 19-H ) :   0.9600 B(  8-C , 20-H ) :   0.9585

Dispersion correction           -0.007016757
FINAL SINGLE POINT ENERGY      -350.077542767642

DIPOLE MOMENT
-------------

Method             : SCF
Type of density    : Electron Density
Multiplicity       :   1
Irrep              :   0
Energy             :  -350.0777638367529789 Eh
Relativity type    :
Basis              : AO
                                X                 Y                 Z
Electronic contribution:      7.866029536      -0.113097097      -0.893570373
Nuclear contribution   :     -8.154455482       0.047351811       0.815423859
                        -----------------------------------------
Total Dipole Moment    :     -0.288425946      -0.065745286      -0.078146514
                        -----------------------------------------
Magnitude (a.u.)       :      0.305971971
Magnitude (Debye)      :      0.777718943

Rotational constants in cm-1:             0.113086             0.039781             0.030441
Rotational constants in MHz :          3390.222379          1192.597716           912.587696

                             ****ORCA TERMINATED NORMALLY****
TOTAL RUN TIME: 0 days 0 hours 0 minutes 31 seconds 264 msec
