                         Program Version 6.0.0  -   RELEASE  -
|  1> ! pbe def2-sv(p) def2/J RI DEFGRID1 loosescf d4 GCP(DFT/SV(P)) printgap
|  2> %output
|  3>     printlevel normal
|  4> end
|  5> * xyz 0 1
|  6> C -2.1261586505 -0.900610873 -0.3028427577
|  7> C -1.1765951878 -0.3396291436 0.7735290131
|  8> H -1.7292124824 -0.3574428236 1.7207069475
|  9> C -0.7593678127 1.1239037625 0.5444171193
| 10> H -1.626022106 1.6571300075 0.130971996
| 11> C 0.4223400578 1.2889291052 -0.4338828639
| 12> H 0.8629330761 2.2830271111 -0.2689421145
| 13> C 1.5411221528 0.2820983863 -0.0826573631
| 14> H 2.2466506838 0.2334639783 -0.9183766718
| 15> C 1.040747089 -1.149004498 0.1909254695
| 16> H 1.8297509269 -1.6526621509 0.76639982
| 17> O -0.0734484947 -1.2020340166 1.0433152449
| 18> O 0.8147266959 -1.8213069857 -1.0187294795
| 19> O 2.2654447265 0.738855322 1.0343038194
| 20> O 0.0408583581 1.2812979119 -1.7790143326
| 21> O -0.4124588951 1.6413058673 1.8156330077
| 22> O -1.6425773131 -0.8546829078 -1.6240089736
| 23> H -3.0438616682 -0.3095708085 -0.2968259066
| 24> H -2.3680547319 -1.9329038312 -0.0240836406
| 25> H 0.87214798 -2.7797442776 -0.8849695053
| 26> H 1.6423189728 0.8721354676 1.7698231787
| 27> H -0.6094690581 0.5622238102 -1.9384808846
| 28> H -0.405220029 2.6083858277 1.7870735189
| 29> H -0.8206275667 -1.3891186285 -1.6704159623
| 30> *
| 31>
| 32>                          ****END OF INPUT****

CARTESIAN COORDINATES (ANGSTROEM)
---------------------------------
  C     -2.126159   -0.900611   -0.302843
  C     -1.176595   -0.339629    0.773529
  H     -1.729212   -0.357443    1.720707
  C     -0.759368    1.123904    0.544417
  H     -1.626022    1.657130    0.130972
  C      0.422340    1.288929   -0.433883
  H      0.862933    2.283027   -0.268942
  C      1.541122    0.282098   -0.082657
  H      2.246651    0.233464   -0.918377
  C      1.040747   -1.149004    0.190925
  H      1.829751   -1.652662    0.766400
  O     -0.073448   -1.202034    1.043315
  O      0.814727   -1.821307   -1.018729
  O      2.265445    0.738855    1.034304
  O      0.040858    1.281298   -1.779014
  O     -0.412459    1.641306    1.815633
  O     -1.642577   -0.854683   -1.624009
  H     -3.043862   -0.309571   -0.296826
  H     -2.368055   -1.932904   -0.024084
  H      0.872148   -2.779744   -0.884970
  H      1.642319    0.872135    1.769823
  H     -0.609469    0.562224   -1.938481
  H     -0.405220    2.608386    1.787074
  H     -0.820628   -1.389119   -1.670416

 Total Charge           Charge          ....    0
 Multiplicity           Mult            ....    1
 Number of Electrons    NEL             ....   96
 Basis Dimension        Dim             ....  192

ORBITAL ENERGIES
----------------

  NO   OCC          E(Eh)            E(eV)
   0   2.0000     -18.795105      -511.4408
   1   2.0000     -18.774604      -510.8829
   2   2.0000     -18.772158      -510.8164
   3   2.0000     -18.764777      -510.6155
   4   2.0000     -18.741387      -509.9791
   5   2.0000     -18.727651      -509.6053
   6   2.0000      -9.993957      -271.9494
   7   2.0000      -9.953517      -270.8490
   8   2.0000      -9.953419      -270.8463
   9   2.0000      -9.945493      -270.6306
  10   2.0000      -9.936426      -270.3839
  11   2.0000      -9.935615      -270.3618
  12   2.0000      -0.995636       -27.0926
  13   2.0000      -0.951486       -25.8913
  14   2.0000      -0.939155       -25.5557
  15   2.0000      -0.928876       -25.2760
  16   2.0000      -0.919995       -25.0343
  17   2.0000      -0.904599       -24.6154
  18   2.0000      -0.711444       -19.3594
  19   2.0000      -0.682963       -18.5844
  20   2.0000      -0.629978       -17.1426
  21   2.0000      -0.593956       -16.1624
  22   2.0000      -0.582699       -15.8561
  23   2.0000      -0.531426       -14.4608
  24   2.0000      -0.496623       -13.5138
  25   2.0000      -0.490972       -13.3600
  26   2.0000      -0.478095       -13.0096
  27   2.0000      -0.472522       -12.8580
  28   2.0000      -0.452605       -12.3160
  29   2.0000      -0.437056       -11.8929
  30   2.0000      -0.425367       -11.5748
  31   2.0000      -0.403384       -10.9766
  32   2.0000      -0.385795       -10.4980
  33   2.0000      -0.378615       -10.3026
  34   2.0000      -0.361740        -9.8434
  35   2.0000      -0.356019        -9.6878
  36   2.0000      -0.339075        -9.2267
  37   2.0000      -0.325381        -8.8541
  38   2.0000      -0.310189        -8.4407
  39   2.0000      -0.302677        -8.2363
  40   2.0000      -0.286191        -7.7876
  41   2.0000      -0.274017        -7.4564
  42   2.0000      -0.266123        -7.2416
  43   2.0000      -0.255325        -6.9477
  44   2.0000      -0.239684        -6.5221
  45   2.0000      -0.227617        -6.1938
  46   2.0000      -0.221190        -6.0189
  47   2.0000      -0.191999        -5.2246
  48   0.0000       0.000631         0.0172
  49   0.0000       0.009852         0.2681
  50   0.0000       0.040162         1.0929
  51   0.0000       0.057611         1.5677
  52   0.0000       0.066036         1.7969

MULLIKEN ATOMIC CHARGES
-----------------------
   0 C :    0.031612
   1 C :    0.048931
   2 H :    0.083301
   3 C :   -0.008662
   4 H :    0.076433
   5 C :    0.054333
   6 H :    0.060973
   7 C :    0.075465
   8 H :    0.083861
   9 C :    0.152252
  10 H :    0.079899
  11 O :   -0.312991
  12 O :   -0.405331
  13 O :   -0.433959
  14 O :   -0.421868
  15 O :   -0.417476
  16 O :   -0.445402
  17 H :    0.093816
  18 H :    0.087062
  19 H :    0.319346
  20 H :    0.297128
  21 H :    0.283788
  22 H :    0.311203
  23 H :    0.306288
Sum of atomic charges:    0.0000000

LOEWDIN ATOMIC CHARGES
----------------------
   0 C :   -0.133431
   1 C :   -0.070597
   2 H :    0.129202
   3 C :   -0.076784
   4 H :    0.110244
   5 C :   -0.081469
   6 H :    0.110301
   7 C :   -0.078120
   8 H :    0.124886
   9 C :   -0.015105
  10 H :    0.109549
  11 O :   -0.146128
  12 O :   -0.301854
  13 O :   -0.319339
  14 O :   -0.333085
  15 O :   -0.313111
  16 O :   -0.334970
  17 H :    0.120500
  18 H :    0.107152
  19 H :    0.296160
  20 H :    0.271450
  21 H :    0.263417
  22 H :    0.292480
  23 H :    0.268654

  Mayer bond orders larger than 0.100000
B(  0-C ,  1-C ) :   1.0426 B(  0-C , 16-O ) :   1.0583 B(  0-C , 17-H ) :   0.9181
B(  0-C , 18-H ) :   0.9158 B(  1-C ,  2-H ) :   0.8783 B(  1-C ,  3-C ) :   0.9925
B(  1-C , 11-O ) :   0.9928 B(  3-C ,  4-H ) :   0.8982 B(  3-C ,  5-C ) :   0.9764
B(  3-C , 15-O ) :   1.0283 B(  5-C ,  6-H ) :   0.8997 B(  5-C ,  7-C ) :   0.9575
B(  5-C , 14-O ) :   1.1137 B(  7-C ,  8-H ) :   0.8846 B(  7-C ,  9-C ) :   0.9922
B(  7-C , 13-O ) :   1.0380 B(  9-C , 10-H ) :   0.9022 B(  9-C , 11-O ) :   1.0702
B(  9-C , 12-O ) :   1.0428 B( 12-O , 19-H ) :   0.8312 B( 12-O , 23-H ) :   0.1421
B( 13-O , 20-H ) :   0.8194 B( 14-O , 21-H ) :   0.7709 B( 15-O , 22-H ) :   0.8415
B( 16-O , 21-H ) :   0.1699 B( 16-O , 23-H ) :   0.7581

Dispersion correction           -0.026549679
FINAL SINGLE POINT ENERGY      -685.707058696121

DIPOLE MOMENT
-------------

Method             : SCF
Type of density    : Electron Density
Multiplicity       :   1
Irrep              :   0
Energy             :  -685.8424576307158986 Eh
Relativity type    :
Basis              : AO
                                X                 Y                 Z
Electronic contribution:      2.332995636      -0.410997929       0.437609953
Nuclear contribution   :     -2.939280305      -0.195604771       0.154362109
                        -----------------------------------------
Total Dipole Moment    :     -0.606284668      -0.606602700       0.591972061
                        -----------------------------------------
Magnitude (a.u.)       :      1.042103093
Magnitude (Debye)      :      2.648815556

Rotational constants in cm-1:             0.039186             0.031418             0.027844
Rotational constants in MHz :          1174.766552           941.873858           834.743853

                             ****ORCA TERMINATED NORMALLY****
TOTAL RUN TIME: 0 days 0 hours 0 minutes 12 seconds 714 msec
