                         Program Version 6.0.0  -   RELEASE  -
|  1> ! pbe def2-sv(p) def2/J RI DEFGRID1 loosescf d4 GCP(DFT/SV(P)) printgap
|  2> %output
|  3>     printlevel normal
|  4> end
|  5> * xyz 0 1
|  6> C -2.2221831707 -1.2158943843 0.1190410686
|  7> C -0.8694854025 -0.5710484499 0.4736971188
|  8> H -0.8868491778 -0.2575492388 1.5299081966
|  9> C -0.5725737094 0.6535115424 -0.4042597895
| 10> H -0.5147063985 0.3406873599 -1.4527345624
| 11> C 0.7757074631 1.2705402522 0.0010501158
| 12> H 0.622430077 1.8729571009 0.9135271257
| 13> C 1.8022242866 0.188739711 0.3753887137
| 14> H 2.7505245632 0.461691459 -0.1061602509
| 15> C 1.3766272608 -1.1872080129 -0.1631566772
| 16> H 2.0630740975 -1.9580257863 0.2220169482
| 17> O 0.1185695154 -1.5868198827 0.3197829289
| 18> O 1.4206037425 -1.1426571119 -1.5541435871
| 19> O 1.9093821933 0.172633437 1.77536252
| 20> O 1.3193950699 2.0683184694 -1.0182782303
| 21> O -1.6059299395 1.6077045224 -0.3439695244
| 22> O -3.3227803187 -0.4409274001 0.5101643027
| 23> H -2.2969926633 -2.1635802982 0.65637384
| 24> H -2.245965689 -1.4203110278 -0.9587220638
| 25> H 1.2653667325 -2.0273737613 -1.9202223216
| 26> H 2.6381844435 -0.4017937105 2.0507915571
| 27> H 0.6346353784 2.6698621102 -1.3483102375
| 28> H -1.643109364 1.9857012161 0.5483121396
| 29> H -3.2943555477 0.3958608354 0.0156044164
| 30> *
| 31>
| 32>                          ****END OF INPUT****

CARTESIAN COORDINATES (ANGSTROEM)
---------------------------------
  C     -2.222183   -1.215894    0.119041
  C     -0.869485   -0.571048    0.473697
  H     -0.886849   -0.257549    1.529908
  C     -0.572574    0.653512   -0.404260
  H     -0.514706    0.340687   -1.452735
  C      0.775707    1.270540    0.001050
  H      0.622430    1.872957    0.913527
  C      1.802224    0.188740    0.375389
  H      2.750525    0.461691   -0.106160
  C      1.376627   -1.187208   -0.163157
  H      2.063074   -1.958026    0.222017
  O      0.118570   -1.586820    0.319783
  O      1.420604   -1.142657   -1.554144
  O      1.909382    0.172633    1.775363
  O      1.319395    2.068318   -1.018278
  O     -1.605930    1.607705   -0.343970
  O     -3.322780   -0.440927    0.510164
  H     -2.296993   -2.163580    0.656374
  H     -2.245966   -1.420311   -0.958722
  H      1.265367   -2.027374   -1.920222
  H      2.638184   -0.401794    2.050792
  H      0.634635    2.669862   -1.348310
  H     -1.643109    1.985701    0.548312
  H     -3.294356    0.395861    0.015604

 Total Charge           Charge          ....    0
 Multiplicity           Mult            ....    1
 Number of Electrons    NEL             ....   96
 Basis Dimension        Dim             ....  192

ORBITAL ENERGIES
----------------

  NO   OCC          E(Eh)            E(eV)
   0   2.0000     -18.776814      -510.9431
   1   2.0000     -18.768461      -510.7158
   2   2.0000     -18.765463      -510.6342
   3   2.0000     -18.763176      -510.5720
   4   2.0000     -18.750119      -510.2167
   5   2.0000     -18.734869      -509.8017
   6   2.0000      -9.989117      -271.8177
   7   2.0000      -9.947695      -270.6905
   8   2.0000      -9.945926      -270.6424
   9   2.0000      -9.944516      -270.6040
  10   2.0000      -9.938687      -270.4454
  11   2.0000      -9.923985      -270.0454
  12   2.0000      -0.982220       -26.7276
  13   2.0000      -0.956066       -26.0159
  14   2.0000      -0.939690       -25.5703
  15   2.0000      -0.925144       -25.1744
  16   2.0000      -0.915558       -24.9136
  17   2.0000      -0.908793       -24.7295
  18   2.0000      -0.706220       -19.2172
  19   2.0000      -0.691546       -18.8179
  20   2.0000      -0.613420       -16.6920
  21   2.0000      -0.598381       -16.2828
  22   2.0000      -0.557918       -15.1817
  23   2.0000      -0.527151       -14.3445
  24   2.0000      -0.515458       -14.0263
  25   2.0000      -0.490120       -13.3369
  26   2.0000      -0.471829       -12.8391
  27   2.0000      -0.469723       -12.7818
  28   2.0000      -0.450220       -12.2511
  29   2.0000      -0.423072       -11.5124
  30   2.0000      -0.414244       -11.2721
  31   2.0000      -0.392278       -10.6744
  32   2.0000      -0.382337       -10.4039
  33   2.0000      -0.374649       -10.1947
  34   2.0000      -0.361162        -9.8277
  35   2.0000      -0.353407        -9.6167
  36   2.0000      -0.345709        -9.4072
  37   2.0000      -0.312534        -8.5045
  38   2.0000      -0.306250        -8.3335
  39   2.0000      -0.295326        -8.0362
  40   2.0000      -0.284226        -7.7342
  41   2.0000      -0.272215        -7.4073
  42   2.0000      -0.255650        -6.9566
  43   2.0000      -0.244382        -6.6500
  44   2.0000      -0.231863        -6.3093
  45   2.0000      -0.224469        -6.1081
  46   2.0000      -0.213698        -5.8150
  47   2.0000      -0.202130        -5.5002
  48   0.0000       0.009894         0.2692
  49   0.0000       0.017084         0.4649
  50   0.0000       0.022174         0.6034
  51   0.0000       0.048907         1.3308
  52   0.0000       0.052778         1.4362

MULLIKEN ATOMIC CHARGES
-----------------------
   0 C :    0.092974
   1 C :    0.010963
   2 H :    0.057424
   3 C :    0.023684
   4 H :    0.074628
   5 C :    0.091260
   6 H :    0.052044
   7 C :    0.054158
   8 H :    0.084494
   9 C :    0.140137
  10 H :    0.048263
  11 O :   -0.310357
  12 O :   -0.378527
  13 O :   -0.417147
  14 O :   -0.407564
  15 O :   -0.422360
  16 O :   -0.447846
  17 H :    0.090848
  18 H :    0.056608
  19 H :    0.304998
  20 H :    0.304376
  21 H :    0.302445
  22 H :    0.303303
  23 H :    0.291192
Sum of atomic charges:    0.0000000

LOEWDIN ATOMIC CHARGES
----------------------
   0 C :   -0.122995
   1 C :   -0.073609
   2 H :    0.105007
   3 C :   -0.094195
   4 H :    0.122626
   5 C :   -0.062290
   6 H :    0.102511
   7 C :   -0.072882
   8 H :    0.117925
   9 C :   -0.013986
  10 H :    0.090690
  11 O :   -0.145961
  12 O :   -0.305777
  13 O :   -0.310552
  14 O :   -0.313605
  15 O :   -0.304362
  16 O :   -0.344018
  17 H :    0.115921
  18 H :    0.094602
  19 H :    0.287876
  20 H :    0.289383
  21 H :    0.285560
  22 H :    0.284341
  23 H :    0.267791

  Mayer bond orders larger than 0.100000
B(  0-C ,  1-C ) :   1.0181 B(  0-C , 16-O ) :   1.0886 B(  0-C , 17-H ) :   0.9233
B(  0-C , 18-H ) :   0.9099 B(  1-C ,  2-H ) :   0.8793 B(  1-C ,  3-C ) :   1.0384
B(  1-C , 11-O ) :   0.9635 B(  3-C ,  4-H ) :   0.8206 B(  3-C ,  5-C ) :   1.0760
B(  3-C , 15-O ) :   0.9861 B(  5-C ,  6-H ) :   0.8686 B(  5-C ,  7-C ) :   0.9811
B(  5-C , 14-O ) :   1.0953 B(  7-C ,  8-H ) :   0.8715 B(  7-C ,  9-C ) :   1.0424
B(  7-C , 13-O ) :   1.0366 B(  9-C , 10-H ) :   0.8950 B(  9-C , 11-O ) :   1.0733
B(  9-C , 12-O ) :   1.1454 B( 12-O , 19-H ) :   0.8394 B( 13-O , 20-H ) :   0.8461
B( 14-O , 21-H ) :   0.8416 B( 15-O , 22-H ) :   0.8354 B( 16-O , 23-H ) :   0.8204

Dispersion correction           -0.024702813
FINAL SINGLE POINT ENERGY      -685.692669525563

DIPOLE MOMENT
-------------

Method             : SCF
Type of density    : Electron Density
Multiplicity       :   1
Irrep              :   0
Energy             :  -685.8233551180126142 Eh
Relativity type    :
Basis              : AO
                                X                 Y                 Z
Electronic contribution:      1.543583260       0.394637135      -0.191195205
Nuclear contribution   :     -0.854018209      -0.460794988       0.136477998
                        -----------------------------------------
Total Dipole Moment    :      0.689565052      -0.066157854      -0.054717207
                        -----------------------------------------
Magnitude (a.u.)       :      0.694889052
Magnitude (Debye)      :      1.766267603

Rotational constants in cm-1:             0.042130             0.025480             0.021133
Rotational constants in MHz :          1263.033173           763.857809           633.565434

                             ****ORCA TERMINATED NORMALLY****
TOTAL RUN TIME: 0 days 0 hours 0 minutes 12 seconds 342 msec
