                         Program Version 6.0.0  -   RELEASE  -
|  1> ! pbe def2-sv(p) def2/J RI DEFGRID1 loosescf d4 GCP(DFT/SV(P)) printgap
|  2> %output
|  3>     printlevel normal
|  4> end
|  5> * xyz 0 1
|  6> C -2.0251784713 -1.0625361899 -0.6402618687
|  7> C -1.2272318625 -0.2206375953 0.3664891579
|  8> H -1.8945023328 0.0473179266 1.1939712032
|  9> C -0.6916461039 1.0704501724 -0.2883921251
| 10> H -0.6495807877 0.9488451991 -1.3817299188
| 11> C 0.7342515294 1.3364096609 0.203504131
| 12> H 0.7217145906 1.4239619946 1.3006285261
| 13> C 1.6176322535 0.1526469444 -0.1942298622
| 14> H 1.6545885885 0.0974344907 -1.2931483062
| 15> C 1.006917448 -1.1580906973 0.33544525
| 16> H 1.6837332399 -1.5461540168 1.1099761078
| 17> O -0.2054268643 -0.9685844793 1.0184996464
| 18> O 0.8910642474 -2.0498648887 -0.7293231897
| 19> O 2.9125200467 0.2702388787 0.3309824211
| 20> O 1.277379409 2.4940605228 -0.3771200806
| 21> O -1.4584446331 2.2020518188 0.0469953807
| 22> O -2.7602707074 -2.0360774571 0.0647809847
| 23> H -1.3293173643 -1.5224247216 -1.3506525353
| 24> H -2.7061152493 -0.3938841506 -1.1844767356
| 25> H 0.7237990273 -2.9443251404 -0.3937615377
| 26> H 3.2623788329 1.1398952799 0.0799857908
| 27> H 0.6529456062 3.2227553243 -0.239684466
| 28> H -2.3506963037 2.1258551519 -0.3175056712
| 29> H -3.2209268039 -2.6086546934 -0.5646720168
| 30> *
| 31>
| 32>                          ****END OF INPUT****

CARTESIAN COORDINATES (ANGSTROEM)
---------------------------------
  C     -2.025178   -1.062536   -0.640262
  C     -1.227232   -0.220638    0.366489
  H     -1.894502    0.047318    1.193971
  C     -0.691646    1.070450   -0.288392
  H     -0.649581    0.948845   -1.381730
  C      0.734252    1.336410    0.203504
  H      0.721715    1.423962    1.300629
  C      1.617632    0.152647   -0.194230
  H      1.654589    0.097434   -1.293148
  C      1.006917   -1.158091    0.335445
  H      1.683733   -1.546154    1.109976
  O     -0.205427   -0.968584    1.018500
  O      0.891064   -2.049865   -0.729323
  O      2.912520    0.270239    0.330982
  O      1.277379    2.494061   -0.377120
  O     -1.458445    2.202052    0.046995
  O     -2.760271   -2.036077    0.064781
  H     -1.329317   -1.522425   -1.350653
  H     -2.706115   -0.393884   -1.184477
  H      0.723799   -2.944325   -0.393762
  H      3.262379    1.139895    0.079986
  H      0.652946    3.222755   -0.239684
  H     -2.350696    2.125855   -0.317506
  H     -3.220927   -2.608655   -0.564672

 Total Charge           Charge          ....    0
 Multiplicity           Mult            ....    1
 Number of Electrons    NEL             ....   96
 Basis Dimension        Dim             ....  192

ORBITAL ENERGIES
----------------

  NO   OCC          E(Eh)            E(eV)
   0   2.0000     -18.765628      -510.6387
   1   2.0000     -18.761816      -510.5350
   2   2.0000     -18.758474      -510.4440
   3   2.0000     -18.751053      -510.2421
   4   2.0000     -18.749194      -510.1915
   5   2.0000     -18.742794      -510.0173
   6   2.0000      -9.979765      -271.5632
   7   2.0000      -9.945827      -270.6397
   8   2.0000      -9.941823      -270.5308
   9   2.0000      -9.936638      -270.3897
  10   2.0000      -9.934947      -270.3437
  11   2.0000      -9.933219      -270.2966
  12   2.0000      -0.974944       -26.5296
  13   2.0000      -0.948618       -25.8132
  14   2.0000      -0.930689       -25.3253
  15   2.0000      -0.924511       -25.1572
  16   2.0000      -0.911406       -24.8006
  17   2.0000      -0.907257       -24.6877
  18   2.0000      -0.705425       -19.1956
  19   2.0000      -0.689925       -18.7738
  20   2.0000      -0.622591       -16.9416
  21   2.0000      -0.578937       -15.7537
  22   2.0000      -0.561407       -15.2767
  23   2.0000      -0.509314       -13.8591
  24   2.0000      -0.504477       -13.7275
  25   2.0000      -0.496696       -13.5158
  26   2.0000      -0.475086       -12.9277
  27   2.0000      -0.460936       -12.5427
  28   2.0000      -0.440418       -11.9844
  29   2.0000      -0.420017       -11.4293
  30   2.0000      -0.406580       -11.0636
  31   2.0000      -0.395963       -10.7747
  32   2.0000      -0.384964       -10.4754
  33   2.0000      -0.380533       -10.3548
  34   2.0000      -0.364385        -9.9154
  35   2.0000      -0.351291        -9.5591
  36   2.0000      -0.327866        -8.9217
  37   2.0000      -0.311438        -8.4747
  38   2.0000      -0.301904        -8.2152
  39   2.0000      -0.289614        -7.8808
  40   2.0000      -0.281640        -7.6638
  41   2.0000      -0.258530        -7.0350
  42   2.0000      -0.255997        -6.9660
  43   2.0000      -0.234680        -6.3860
  44   2.0000      -0.225882        -6.1466
  45   2.0000      -0.218284        -5.9398
  46   2.0000      -0.214168        -5.8278
  47   2.0000      -0.206928        -5.6308
  48   0.0000       0.007249         0.1973
  49   0.0000       0.020252         0.5511
  50   0.0000       0.036574         0.9952
  51   0.0000       0.043034         1.1710
  52   0.0000       0.059343         1.6148

MULLIKEN ATOMIC CHARGES
-----------------------
   0 C :    0.001192
   1 C :    0.085630
   2 H :    0.073899
   3 C :   -0.011170
   4 H :    0.059305
   5 C :    0.060983
   6 H :    0.063987
   7 C :    0.050224
   8 H :    0.061967
   9 C :    0.204099
  10 H :    0.074811
  11 O :   -0.309914
  12 O :   -0.395904
  13 O :   -0.417686
  14 O :   -0.429426
  15 O :   -0.417276
  16 O :   -0.428573
  17 H :    0.090147
  18 H :    0.052080
  19 H :    0.306899
  20 H :    0.308641
  21 H :    0.309105
  22 H :    0.307991
  23 H :    0.298987
Sum of atomic charges:    0.0000000

LOEWDIN ATOMIC CHARGES
----------------------
   0 C :   -0.145532
   1 C :   -0.061443
   2 H :    0.122192
   3 C :   -0.079621
   4 H :    0.102681
   5 C :   -0.076828
   6 H :    0.110063
   7 C :   -0.071698
   8 H :    0.107225
   9 C :    0.003770
  10 H :    0.107684
  11 O :   -0.140580
  12 O :   -0.305399
  13 O :   -0.316030
  14 O :   -0.324222
  15 O :   -0.320036
  16 O :   -0.342953
  17 H :    0.104175
  18 H :    0.086123
  19 H :    0.288741
  20 H :    0.288359
  21 H :    0.288034
  22 H :    0.289359
  23 H :    0.285936

  Mayer bond orders larger than 0.100000
B(  0-C ,  1-C ) :   1.0505 B(  0-C , 16-O ) :   1.1028 B(  0-C , 17-H ) :   0.8883
B(  0-C , 18-H ) :   0.9113 B(  1-C ,  2-H ) :   0.8874 B(  1-C ,  3-C ) :   0.9720
B(  1-C , 11-O ) :   1.0125 B(  3-C ,  4-H ) :   0.8846 B(  3-C ,  5-C ) :   1.0151
B(  3-C , 15-O ) :   1.0627 B(  5-C ,  6-H ) :   0.8668 B(  5-C ,  7-C ) :   1.0354
B(  5-C , 14-O ) :   1.0817 B(  7-C ,  8-H ) :   0.8776 B(  7-C ,  9-C ) :   0.9966
B(  7-C , 13-O ) :   1.0876 B(  9-C , 10-H ) :   0.8899 B(  9-C , 11-O ) :   1.0762
B(  9-C , 12-O ) :   1.1103 B( 12-O , 19-H ) :   0.8388 B( 13-O , 20-H ) :   0.8383
B( 14-O , 21-H ) :   0.8331 B( 15-O , 22-H ) :   0.8440 B( 16-O , 23-H ) :   0.8521

Dispersion correction           -0.024254531
FINAL SINGLE POINT ENERGY      -685.690799224446

DIPOLE MOMENT
-------------

Method             : SCF
Type of density    : Electron Density
Multiplicity       :   1
Irrep              :   0
Energy             :  -685.8199957367223760 Eh
Relativity type    :
Basis              : AO
                                X                 Y                 Z
Electronic contribution:      2.187219905      -0.011655444       2.005829356
Nuclear contribution   :     -3.228813028      -0.010103832      -2.847784181
                        -----------------------------------------
Total Dipole Moment    :     -1.041593124      -0.021759276      -0.841954826
                        -----------------------------------------
Magnitude (a.u.)       :      1.339506487
Magnitude (Debye)      :      3.404754911

Rotational constants in cm-1:             0.041414             0.026831             0.018047
Rotational constants in MHz :          1241.553928           804.381705           541.042279

                             ****ORCA TERMINATED NORMALLY****
TOTAL RUN TIME: 0 days 0 hours 0 minutes 11 seconds 778 msec
