                         Program Version 6.0.0  -   RELEASE  -
|  1> ! pbe def2-sv(p) def2/J RI DEFGRID1 loosescf d4 GCP(DFT/SV(P)) printgap
|  2> %output
|  3>     printlevel normal
|  4> end
|  5> * xyz 0 1
|  6> C -1.1763003978 0.2461086858 1.9851e-06
|  7> O -2.4453e-06 -0.5341015965 7.7176e-06
|  8> C 1.1763111346 0.2460993993 -9.6346e-06
|  9> H -1.2245280176 0.8799967462 -0.8922942423
| 10> H -1.2245830123 0.8800648775 0.892282044
| 11> H -2.00798304 -0.4537510928 -5.39201e-05
| 12> H 2.0080667173 -0.4536558113 -0.0001463556
| 13> H 1.2245592505 0.879943071 0.8923555041
| 14> H 1.2243789762 0.8801811786 -0.8921743829
| 15> *
| 16>
| 17>                          ****END OF INPUT****

CARTESIAN COORDINATES (ANGSTROEM)
---------------------------------
  C     -1.176300    0.246109    0.000002
  O     -0.000002   -0.534102    0.000008
  C      1.176311    0.246099   -0.000010
  H     -1.224528    0.879997   -0.892294
  H     -1.224583    0.880065    0.892282
  H     -2.007983   -0.453751   -0.000054
  H      2.008067   -0.453656   -0.000146
  H      1.224559    0.879943    0.892356
  H      1.224379    0.880181   -0.892174

 Total Charge           Charge          ....    0
 Multiplicity           Mult            ....    1
 Number of Electrons    NEL             ....   26
 Basis Dimension        Dim             ....   54

ORBITAL ENERGIES
----------------

  NO   OCC          E(Eh)            E(eV)
   0   2.0000     -18.748974      -510.1855
   1   2.0000      -9.922293      -269.9993
   2   2.0000      -9.922274      -269.9988
   3   2.0000      -0.927990       -25.2519
   4   2.0000      -0.647360       -17.6156
   5   2.0000      -0.563676       -15.3384
   6   2.0000      -0.427320       -11.6280
   7   2.0000      -0.417835       -11.3699
   8   2.0000      -0.415872       -11.3165
   9   2.0000      -0.350669        -9.5422
  10   2.0000      -0.333131        -9.0650
  11   2.0000      -0.263660        -7.1745
  12   2.0000      -0.202107        -5.4996
  13   0.0000       0.040104         1.0913
  14   0.0000       0.087570         2.3829
  15   0.0000       0.096386         2.6228
  16   0.0000       0.100155         2.7253
  17   0.0000       0.104643         2.8475

MULLIKEN ATOMIC CHARGES
-----------------------
   0 C :   -0.106981
   1 O :   -0.347789
   2 C :   -0.106970
   3 H :    0.082840
   4 H :    0.082845
   5 H :    0.115188
   6 H :    0.115194
   7 H :    0.082837
   8 H :    0.082836
Sum of atomic charges:   -0.0000000

LOEWDIN ATOMIC CHARGES
----------------------
   0 C :   -0.208255
   1 O :   -0.192823
   2 C :   -0.208251
   3 H :    0.094636
   4 H :    0.094635
   5 H :    0.115395
   6 H :    0.115395
   7 H :    0.094633
   8 H :    0.094636

  Mayer bond orders larger than 0.100000
B(  0-C ,  1-O ) :   1.0287 B(  0-C ,  3-H ) :   0.9422 B(  0-C ,  4-H ) :   0.9422
B(  0-C ,  5-H ) :   0.9645 B(  1-O ,  2-C ) :   1.0286 B(  2-C ,  6-H ) :   0.9645
B(  2-C ,  7-H ) :   0.9422 B(  2-C ,  8-H ) :   0.9422

Dispersion correction           -0.003675713
FINAL SINGLE POINT ENERGY      -154.653874817631

DIPOLE MOMENT
-------------

Method             : SCF
Type of density    : Electron Density
Multiplicity       :   1
Irrep              :   0
Energy             :  -154.6920388066365035 Eh
Relativity type    :
Basis              : AO
                                X                 Y                 Z
Electronic contribution:      0.000094930      -1.976621459      -0.000007369
Nuclear contribution   :     -0.000083652       2.443287237      -0.000029299
                        -----------------------------------------
Total Dipole Moment    :      0.000011278       0.466665778      -0.000036669
                        -----------------------------------------
Magnitude (a.u.)       :      0.466665779
Magnitude (Debye)      :      1.186170145

Rotational constants in cm-1:             1.320439             0.332999             0.295903
Rotational constants in MHz :         39585.766459          9983.045094          8870.934588

                             ****ORCA TERMINATED NORMALLY****
TOTAL RUN TIME: 0 days 0 hours 0 minutes 3 seconds 772 msec
