                         Program Version 6.0.0  -   RELEASE  -
|  1> ! pbe def2-sv(p) def2/J RI DEFGRID1 loosescf d4 GCP(DFT/SV(P)) printgap
|  2> %output
|  3>     printlevel normal
|  4> end
|  5> * xyz 0 1
|  6> C 3.2687333053 1.0721984141 -0.0060215513
|  7> N 2.2771204871 0.0331933444 0.0011171173
|  8> C 2.4740099782 -1.2925651179 0.0043635962
|  9> N 1.3567792707 -1.9972121907 0.0037641361
| 10> C 0.3753081365 -1.0717846045 -0.0002805671
| 11> C 0.9135129267 0.2117088496 -0.001949304
| 12> C 0.0971560208 1.3793949457 -0.0001227332
| 13> O 0.4810080329 2.5445339641 0.0017875244
| 14> N -1.259037817 1.054861188 0.0007899742
| 15> C -1.8174538162 -0.2147958027 -0.0007523702
| 16> O -3.0325119211 -0.3544890435 -0.0003803239
| 17> N -0.9676281647 -1.2878522815 0.000552449
| 18> C -1.48674709 -2.6421693054 -0.0042697966
| 19> C -2.2179993894 2.1507843774 0.0022199844
| 20> H 3.1810221411 1.6624152535 -0.9184163823
| 21> H 3.109432507 1.7392669061 0.8409266406
| 22> H 4.2558839013 0.6220266775 0.0524643059
| 23> H 3.4464045116 -1.7416993943 0.0074271738
| 24> H -1.237080325 -3.1264294984 -0.9466584014
| 25> H -2.5660342524 -2.5865558761 0.1151283104
| 26> H -1.0358376342 -3.1986844309 0.8140345745
| 27> H -2.8580994212 2.0754297162 0.8797406836
| 28> H -2.8404266175 2.0944194998 -0.8894685701
| 29> H -1.6535807222 3.0795877673 0.017180337
| 30> *
| 31>
| 32>                          ****END OF INPUT****

CARTESIAN COORDINATES (ANGSTROEM)
---------------------------------
  C      3.268733    1.072198   -0.006022
  N      2.277120    0.033193    0.001117
  C      2.474010   -1.292565    0.004364
  N      1.356779   -1.997212    0.003764
  C      0.375308   -1.071785   -0.000281
  C      0.913513    0.211709   -0.001949
  C      0.097156    1.379395   -0.000123
  O      0.481008    2.544534    0.001788
  N     -1.259038    1.054861    0.000790
  C     -1.817454   -0.214796   -0.000752
  O     -3.032512   -0.354489   -0.000380
  N     -0.967628   -1.287852    0.000552
  C     -1.486747   -2.642169   -0.004270
  C     -2.217999    2.150784    0.002220
  H      3.181022    1.662415   -0.918416
  H      3.109433    1.739267    0.840927
  H      4.255884    0.622027    0.052464
  H      3.446405   -1.741699    0.007427
  H     -1.237080   -3.126429   -0.946658
  H     -2.566034   -2.586556    0.115128
  H     -1.035838   -3.198684    0.814035
  H     -2.858099    2.075430    0.879741
  H     -2.840427    2.094419   -0.889469
  H     -1.653581    3.079588    0.017180

 Total Charge           Charge          ....    0
 Multiplicity           Mult            ....    1
 Number of Electrons    NEL             ....  102
 Basis Dimension        Dim             ....  216

ORBITAL ENERGIES
----------------

  NO   OCC          E(Eh)            E(eV)
   0   2.0000     -18.728959      -509.6409
   1   2.0000     -18.723006      -509.4789
   2   2.0000     -14.081708      -383.1827
   3   2.0000     -14.056484      -382.4964
   4   2.0000     -14.047624      -382.2553
   5   2.0000     -13.991582      -380.7303
   6   2.0000     -10.016809      -272.5712
   7   2.0000      -9.998012      -272.0597
   8   2.0000      -9.965972      -271.1879
   9   2.0000      -9.961786      -271.0740
  10   2.0000      -9.946077      -270.6465
  11   2.0000      -9.932866      -270.2870
  12   2.0000      -9.922242      -269.9979
  13   2.0000      -9.910928      -269.6901
  14   2.0000      -0.980260       -26.6742
  15   2.0000      -0.959734       -26.1157
  16   2.0000      -0.938237       -25.5307
  17   2.0000      -0.886108       -24.1122
  18   2.0000      -0.849621       -23.1194
  19   2.0000      -0.826089       -22.4790
  20   2.0000      -0.720252       -19.5991
  21   2.0000      -0.673426       -18.3248
  22   2.0000      -0.666378       -18.1331
  23   2.0000      -0.642550       -17.4847
  24   2.0000      -0.597837       -16.2680
  25   2.0000      -0.582072       -15.8390
  26   2.0000      -0.546819       -14.8797
  27   2.0000      -0.527769       -14.3613
  28   2.0000      -0.485590       -13.2136
  29   2.0000      -0.463230       -12.6051
  30   2.0000      -0.462020       -12.5722
  31   2.0000      -0.437990       -11.9183
  32   2.0000      -0.432760       -11.7760
  33   2.0000      -0.410040       -11.1577
  34   2.0000      -0.406545       -11.0627
  35   2.0000      -0.404025       -10.9941
  36   2.0000      -0.386638       -10.5209
  37   2.0000      -0.377086       -10.2610
  38   2.0000      -0.376367       -10.2415
  39   2.0000      -0.366744        -9.9796
  40   2.0000      -0.352027        -9.5791
  41   2.0000      -0.347353        -9.4520
  42   2.0000      -0.345715        -9.4074
  43   2.0000      -0.340298        -9.2600
  44   2.0000      -0.286698        -7.8014
  45   2.0000      -0.251527        -6.8444
  46   2.0000      -0.250440        -6.8148
  47   2.0000      -0.234317        -6.3761
  48   2.0000      -0.231190        -6.2910
  49   2.0000      -0.209065        -5.6889
  50   2.0000      -0.194533        -5.2935
  51   0.0000      -0.059731        -1.6254
  52   0.0000      -0.008630        -0.2348
  53   0.0000       0.004429         0.1205
  54   0.0000       0.036163         0.9840
  55   0.0000       0.054542         1.4842

MULLIKEN ATOMIC CHARGES
-----------------------
   0 C :   -0.160495
   1 N :   -0.139133
   2 C :    0.025570
   3 N :   -0.122348
   4 C :    0.033350
   5 C :   -0.040109
   6 C :    0.135487
   7 O :   -0.196414
   8 N :   -0.280577
   9 C :    0.193345
  10 O :   -0.227577
  11 N :   -0.195869
  12 C :   -0.152261
  13 C :   -0.152906
  14 H :    0.142390
  15 H :    0.145302
  16 H :    0.124192
  17 H :    0.084170
  18 H :    0.123583
  19 H :    0.146467
  20 H :    0.125962
  21 H :    0.123448
  22 H :    0.123059
  23 H :    0.141365
Sum of atomic charges:    0.0000000

LOEWDIN ATOMIC CHARGES
----------------------
   0 C :   -0.239941
   1 N :    0.069136
   2 C :   -0.072716
   3 N :   -0.126006
   4 C :   -0.000306
   5 C :   -0.102727
   6 C :    0.023258
   7 O :   -0.200965
   8 N :   -0.023673
   9 C :    0.048784
  10 O :   -0.204157
  11 N :    0.002274
  12 C :   -0.241632
  13 C :   -0.248157
  14 H :    0.137489
  15 H :    0.139010
  16 H :    0.129505
  17 H :    0.122865
  18 H :    0.127954
  19 H :    0.139783
  20 H :    0.129835
  21 H :    0.128088
  22 H :    0.127845
  23 H :    0.134452

  Mayer bond orders larger than 0.100000
B(  0-C ,  1-N ) :   0.9888 B(  0-C , 14-H ) :   0.9468 B(  0-C , 15-H ) :   0.9449
B(  0-C , 16-H ) :   0.9454 B(  1-N ,  2-C ) :   1.2676 B(  1-N ,  5-C ) :   1.1728
B(  2-C ,  3-N ) :   1.5374 B(  2-C , 17-H ) :   0.9540 B(  3-N ,  4-C ) :   1.4455
B(  4-C ,  5-C ) :   1.3199 B(  4-C , 11-N ) :   1.1362 B(  5-C ,  6-C ) :   1.0393
B(  6-C ,  7-O ) :   2.0888 B(  6-C ,  8-N ) :   1.0379 B(  8-N ,  9-C ) :   1.0606
B(  8-N , 13-C ) :   0.9777 B(  9-C , 10-O ) :   2.0128 B(  9-C , 11-N ) :   1.0832
B( 11-N , 12-C ) :   0.9762 B( 12-C , 18-H ) :   0.9555 B( 12-C , 19-H ) :   0.9273
B( 12-C , 20-H ) :   0.9505 B( 13-C , 21-H ) :   0.9525 B( 13-C , 22-H ) :   0.9533
B( 13-C , 23-H ) :   0.9185

Dispersion correction           -0.029748911
FINAL SINGLE POINT ENERGY      -679.001217139016

DIPOLE MOMENT
-------------

Method             : SCF
Type of density    : Electron Density
Multiplicity       :   1
Irrep              :   0
Energy             :  -679.0826150932423388 Eh
Relativity type    :
Basis              : AO
                                X                 Y                 Z
Electronic contribution:     -0.232551753      -0.875283438       0.023959539
Nuclear contribution   :      1.660232882       0.601822424      -0.025877288
                        -----------------------------------------
Total Dipole Moment    :      1.427681128      -0.273461013      -0.001917749
                        -----------------------------------------
Magnitude (a.u.)       :      1.453636133
Magnitude (Debye)      :      3.694849416

Rotational constants in cm-1:             0.035823             0.023849             0.014433
Rotational constants in MHz :          1073.954593           714.980948           432.702018

                             ****ORCA TERMINATED NORMALLY****
TOTAL RUN TIME: 0 days 0 hours 0 minutes 16 seconds 248 msec
