                         Program Version 6.0.0  -   RELEASE  -
|  1> ! pbe def2-sv(p) def2/J RI DEFGRID1 loosescf d4 GCP(DFT/SV(P)) printgap
|  2> %output
|  3>     printlevel normal
|  4> end
|  5> * xyz 0 1
|  6> C -0.3775628846 1.398128007 -0.1083451002
|  7> C 1.07381e-05 -8.7727e-06 0.3759013553
|  8> C -1.0220532499 -1.0260320632 -0.1083509129
|  9> C 1.3996106479 -0.3720880531 -0.1083556619
| 10> H 0.337372666 2.1344122232 0.2515504027
| 11> H -0.3863956067 1.4307050255 -1.1958258785
| 12> H -1.3659312807 1.6744209423 0.251598252
| 13> H 3.83016e-05 -3.34429e-05 1.4720670374
| 14> H -1.0459006366 -1.0499532861 -1.1958256957
| 15> H -2.0171292312 -0.7749835128 0.2516021707
| 16> H -0.7671728572 -2.0201378192 0.2515790242
| 17> H 1.6797629518 -1.359367382 0.2515903917
| 18> H 2.133080001 0.3457236048 0.2515652145
| 19> H 1.4322131148 -0.3807758432 -1.1958314555
| 20> *
| 21>
| 22>                          ****END OF INPUT****

CARTESIAN COORDINATES (ANGSTROEM)
---------------------------------
  C     -0.377563    1.398128   -0.108345
  C      0.000011   -0.000009    0.375901
  C     -1.022053   -1.026032   -0.108351
  C      1.399611   -0.372088   -0.108356
  H      0.337373    2.134412    0.251550
  H     -0.386396    1.430705   -1.195826
  H     -1.365931    1.674421    0.251598
  H      0.000038   -0.000033    1.472067
  H     -1.045901   -1.049953   -1.195826
  H     -2.017129   -0.774984    0.251602
  H     -0.767173   -2.020138    0.251579
  H      1.679763   -1.359367    0.251590
  H      2.133080    0.345724    0.251565
  H      1.432213   -0.380776   -1.195831

 Total Charge           Charge          ....    0
 Multiplicity           Mult            ....    1
 Number of Electrons    NEL             ....   34
 Basis Dimension        Dim             ....   76

ORBITAL ENERGIES
----------------

  NO   OCC          E(Eh)            E(eV)
   0   2.0000      -9.891287      -269.1556
   1   2.0000      -9.868515      -268.5359
   2   2.0000      -9.868505      -268.5357
   3   2.0000      -9.868467      -268.5346
   4   2.0000      -0.721670       -19.6376
   5   2.0000      -0.606843       -16.5130
   6   2.0000      -0.606839       -16.5129
   7   2.0000      -0.493996       -13.4423
   8   2.0000      -0.413515       -11.2523
   9   2.0000      -0.382844       -10.4177
  10   2.0000      -0.382820       -10.4171
  11   2.0000      -0.337360        -9.1800
  12   2.0000      -0.337356        -9.1799
  13   2.0000      -0.316581        -8.6146
  14   2.0000      -0.282944        -7.6993
  15   2.0000      -0.282937        -7.6991
  16   2.0000      -0.280045        -7.6204
  17   0.0000       0.034586         0.9411
  18   0.0000       0.076515         2.0821
  19   0.0000       0.090066         2.4508
  20   0.0000       0.090156         2.4533
  21   0.0000       0.108535         2.9534

MULLIKEN ATOMIC CHARGES
-----------------------
   0 C :   -0.248231
   1 C :   -0.190307
   2 C :   -0.247665
   3 C :   -0.248247
   4 H :    0.097456
   5 H :    0.091486
   6 H :    0.097496
   7 H :    0.075412
   8 H :    0.091342
   9 H :    0.097405
  10 H :    0.097405
  11 H :    0.097495
  12 H :    0.097463
  13 H :    0.091490
Sum of atomic charges:   -0.0000000

LOEWDIN ATOMIC CHARGES
----------------------
   0 C :   -0.330123
   1 C :   -0.164998
   2 C :   -0.330050
   3 C :   -0.330126
   4 H :    0.116003
   5 H :    0.115293
   6 H :    0.116018
   7 H :    0.113434
   8 H :    0.115261
   9 H :    0.115985
  10 H :    0.115984
  11 H :    0.116020
  12 H :    0.116005
  13 H :    0.115293

  Mayer bond orders larger than 0.100000
B(  0-C ,  1-C ) :   1.1109 B(  0-C ,  4-H ) :   0.9532 B(  0-C ,  5-H ) :   0.9515
B(  0-C ,  6-H ) :   0.9531 B(  1-C ,  2-C ) :   1.1106 B(  1-C ,  3-C ) :   1.1109
B(  1-C ,  7-H ) :   0.9092 B(  2-C ,  8-H ) :   0.9515 B(  2-C ,  9-H ) :   0.9532
B(  2-C , 10-H ) :   0.9532 B(  3-C , 11-H ) :   0.9531 B(  3-C , 12-H ) :   0.9532
B(  3-C , 13-H ) :   0.9515

Dispersion correction           -0.008455817
FINAL SINGLE POINT ENERGY      -158.025379501857

DIPOLE MOMENT
-------------

Method             : SCF
Type of density    : Electron Density
Multiplicity       :   1
Irrep              :   0
Energy             :  -158.0729661226876317 Eh
Relativity type    :
Basis              : AO
                                X                 Y                 Z
Electronic contribution:      0.000140869       0.000061531       0.609972777
Nuclear contribution   :     -0.000058708       0.000009860      -0.568466112
                        -----------------------------------------
Total Dipole Moment    :      0.000082160       0.000071391       0.041506665
                        -----------------------------------------
Magnitude (a.u.)       :      0.041506808
Magnitude (Debye)      :      0.105501921

Rotational constants in cm-1:             0.262422             0.262415             0.152619
Rotational constants in MHz :          7867.202436          7867.006004          4575.396923

                             ****ORCA TERMINATED NORMALLY****
TOTAL RUN TIME: 0 days 0 hours 0 minutes 4 seconds 357 msec
