                         Program Version 6.0.0  -   RELEASE  -
|  1> ! pbe def2-sv(p) def2/J RI DEFGRID1 loosescf d4 GCP(DFT/SV(P)) printgap
|  2> %output
|  3>     printlevel normal
|  4> end
|  5> * xyz 0 1
|  6> C -3.3307178512 0.4467676689 -0.2108385282
|  7> C -1.8500474608 0.5163684699 -0.0220533968
|  8> C -1.0935865039 1.5622762621 -0.333238848
|  9> C 0.3813149353 1.498408332 -0.1030475982
| 10> C 0.9729376392 0.1860154279 -0.6721847744
| 11> H 1.0367942499 0.316211696 -1.7566281981
| 12> C 0.0564206695 -1.0208198343 -0.3912160636
| 13> C -1.1233803714 -0.684317061 0.5413500089
| 14> H -0.7354973492 -0.4310310514 1.5368446957
| 15> O -1.9405382231 -1.8121844668 0.7695232716
| 16> C 2.3788045055 0.0037509603 -0.1516434901
| 17> C 3.4253350938 0.2641599534 -0.9208338729
| 18> C 2.5471060613 -0.4560527137 1.2662513603
| 19> H -3.5794470884 -0.1790823167 -1.0680704903
| 20> H -3.7373771773 1.4393408405 -0.3829860988
| 21> H -3.7976393862 0.0106829744 0.6705254135
| 22> H -1.5159117466 2.4639808735 -0.749686959
| 23> H 0.8893814747 2.3468974535 -0.5608652415
| 24> H 0.5749167371 1.5379881976 0.9729809131
| 25> H -0.3672297988 -1.3752268389 -1.3339297217
| 26> H 0.6192909602 -1.8464443359 0.0427856276
| 27> H -2.2827252346 -2.1275846739 -0.078060178
| 28> H 4.435373672 0.1686117626 -0.5595355395
| 29> H 3.3170766576 0.5819523606 -1.9441966298
| 30> H 2.4354452241 -1.5378368986 1.3305923696
| 31> H 3.5369635543 -0.2003026406 1.6341160293
| 32> H 1.8010055167 -0.0076331058 1.9172359562
| 33> *
| 34>
| 35>                          ****END OF INPUT****

CARTESIAN COORDINATES (ANGSTROEM)
---------------------------------
  C     -3.330718    0.446768   -0.210839
  C     -1.850047    0.516368   -0.022053
  C     -1.093587    1.562276   -0.333239
  C      0.381315    1.498408   -0.103048
  C      0.972938    0.186015   -0.672185
  H      1.036794    0.316212   -1.756628
  C      0.056421   -1.020820   -0.391216
  C     -1.123380   -0.684317    0.541350
  H     -0.735497   -0.431031    1.536845
  O     -1.940538   -1.812184    0.769523
  C      2.378805    0.003751   -0.151643
  C      3.425335    0.264160   -0.920834
  C      2.547106   -0.456053    1.266251
  H     -3.579447   -0.179082   -1.068070
  H     -3.737377    1.439341   -0.382986
  H     -3.797639    0.010683    0.670525
  H     -1.515912    2.463981   -0.749687
  H      0.889381    2.346897   -0.560865
  H      0.574917    1.537988    0.972981
  H     -0.367230   -1.375227   -1.333930
  H      0.619291   -1.846444    0.042786
  H     -2.282725   -2.127585   -0.078060
  H      4.435374    0.168612   -0.559536
  H      3.317077    0.581952   -1.944197
  H      2.435445   -1.537837    1.330592
  H      3.536964   -0.200303    1.634116
  H      1.801006   -0.007633    1.917236

 Total Charge           Charge          ....    0
 Multiplicity           Mult            ....    1
 Number of Electrons    NEL             ....   84
 Basis Dimension        Dim             ....  186

ORBITAL ENERGIES
----------------

  NO   OCC          E(Eh)            E(eV)
   0   2.0000     -18.746072      -510.1066
   1   2.0000      -9.939732      -270.4739
   2   2.0000      -9.900721      -269.4123
   3   2.0000      -9.898443      -269.3503
   4   2.0000      -9.889182      -269.0983
   5   2.0000      -9.888448      -269.0783
   6   2.0000      -9.887856      -269.0622
   7   2.0000      -9.881796      -268.8973
   8   2.0000      -9.881406      -268.8867
   9   2.0000      -9.877429      -268.7785
  10   2.0000      -9.866673      -268.4858
  11   2.0000      -0.925300       -25.1787
  12   2.0000      -0.766948       -20.8697
  13   2.0000      -0.723283       -19.6815
  14   2.0000      -0.675239       -18.3742
  15   2.0000      -0.656367       -17.8607
  16   2.0000      -0.619785       -16.8652
  17   2.0000      -0.607650       -16.5350
  18   2.0000      -0.559855       -15.2344
  19   2.0000      -0.531281       -14.4569
  20   2.0000      -0.489815       -13.3285
  21   2.0000      -0.464630       -12.6432
  22   2.0000      -0.440843       -11.9960
  23   2.0000      -0.423599       -11.5267
  24   2.0000      -0.404521       -11.0076
  25   2.0000      -0.403173       -10.9709
  26   2.0000      -0.387670       -10.5490
  27   2.0000      -0.381525       -10.3818
  28   2.0000      -0.374323       -10.1859
  29   2.0000      -0.360409        -9.8072
  30   2.0000      -0.347965        -9.4686
  31   2.0000      -0.345863        -9.4114
  32   2.0000      -0.328174        -8.9301
  33   2.0000      -0.324439        -8.8284
  34   2.0000      -0.320126        -8.7111
  35   2.0000      -0.304768        -8.2932
  36   2.0000      -0.299490        -8.1495
  37   2.0000      -0.278523        -7.5790
  38   2.0000      -0.263492        -7.1700
  39   2.0000      -0.220140        -5.9903
  40   2.0000      -0.216886        -5.9018
  41   2.0000      -0.201164        -5.4740
  42   0.0000      -0.014410        -0.3921
  43   0.0000      -0.008744        -0.2379
  44   0.0000       0.021577         0.5871
  45   0.0000       0.036996         1.0067
  46   0.0000       0.046465         1.2644

MULLIKEN ATOMIC CHARGES
-----------------------
   0 C :   -0.222617
   1 C :   -0.085777
   2 C :   -0.192624
   3 C :   -0.031805
   4 C :   -0.141564
   5 H :    0.054499
   6 C :   -0.082245
   7 C :    0.070700
   8 H :    0.077355
   9 O :   -0.412498
  10 C :   -0.043920
  11 C :   -0.234656
  12 C :   -0.226248
  13 H :    0.100139
  14 H :    0.101643
  15 H :    0.118178
  16 H :    0.040311
  17 H :    0.081395
  18 H :    0.090382
  19 H :    0.060429
  20 H :    0.090317
  21 H :    0.295278
  22 H :    0.079055
  23 H :    0.082564
  24 H :    0.120537
  25 H :    0.104430
  26 H :    0.106742
Sum of atomic charges:   -0.0000000

LOEWDIN ATOMIC CHARGES
----------------------
   0 C :   -0.327698
   1 C :   -0.081852
   2 C :   -0.158508
   3 C :   -0.209436
   4 C :   -0.123144
   5 H :    0.123375
   6 C :   -0.221276
   7 C :   -0.044622
   8 H :    0.120707
   9 O :   -0.314011
  10 C :   -0.049790
  11 C :   -0.267730
  12 C :   -0.326354
  13 H :    0.123123
  14 H :    0.126748
  15 H :    0.131433
  16 H :    0.115468
  17 H :    0.124858
  18 H :    0.125993
  19 H :    0.116085
  20 H :    0.121394
  21 H :    0.281210
  22 H :    0.115285
  23 H :    0.115848
  24 H :    0.133284
  25 H :    0.128537
  26 H :    0.121075

  Mayer bond orders larger than 0.100000
B(  0-C ,  1-C ) :   1.1406 B(  0-C , 13-H ) :   0.9281 B(  0-C , 14-H ) :   0.9387
B(  0-C , 15-H ) :   0.9280 B(  1-C ,  2-C ) :   1.8688 B(  1-C ,  7-C ) :   0.9947
B(  2-C ,  3-C ) :   1.0843 B(  2-C , 16-H ) :   0.9454 B(  3-C ,  4-C ) :   1.1023
B(  3-C , 17-H ) :   0.9096 B(  3-C , 18-H ) :   0.8719 B(  4-C ,  5-H ) :   0.8759
B(  4-C ,  6-C ) :   1.0464 B(  4-C , 10-C ) :   1.0098 B(  6-C ,  7-C ) :   1.1089
B(  6-C , 19-H ) :   0.8928 B(  6-C , 20-H ) :   0.9044 B(  7-C ,  8-H ) :   0.8572
B(  7-C ,  9-O ) :   1.0713 B(  9-O , 21-H ) :   0.8471 B( 10-C , 11-C ) :   2.0375
B( 10-C , 12-C ) :   1.1152 B( 11-C , 22-H ) :   0.9084 B( 11-C , 23-H ) :   0.9091
B( 12-C , 24-H ) :   0.9181 B( 12-C , 25-H ) :   0.9359 B( 12-C , 26-H ) :   0.9266

Dispersion correction           -0.028598652
FINAL SINGLE POINT ENERGY      -464.784336009069

DIPOLE MOMENT
-------------

Method             : SCF
Type of density    : Electron Density
Multiplicity       :   1
Irrep              :   0
Energy             :  -464.8745309124809637 Eh
Relativity type    :
Basis              : AO
                                X                 Y                 Z
Electronic contribution:     -2.530924687      -0.999450759      -0.104871375
Nuclear contribution   :      2.438996487       1.061892592      -0.297131297
                        -----------------------------------------
Total Dipole Moment    :     -0.091928200       0.062441833      -0.402002671
                        -----------------------------------------
Magnitude (a.u.)       :      0.417080237
Magnitude (Debye)      :      1.060133712

Rotational constants in cm-1:             0.070597             0.023239             0.019702
Rotational constants in MHz :          2116.441039           696.701196           590.646297

                             ****ORCA TERMINATED NORMALLY****
TOTAL RUN TIME: 0 days 0 hours 0 minutes 12 seconds 435 msec
