                         Program Version 6.0.0  -   RELEASE  -
|  1> ! wb97x-v def2-tzvp def2/J RIJCOSX DEFGRID2 scfconv7 GCP(DFT/TZ) printgap
|  2> %output
|  3>     printlevel normal
|  4> end
|  5> * xyz 0 1
|  6> C 0.45797189676531436 2.541554749811381e-06 -0.40613311219463655
|  7> F 1.044238847674013 1.0895694446025952 0.12975027521978438
|  8> F 1.0445761373014164 -1.0893067065877362 0.1299039315166087
|  9> Cl -1.294451485547655 -0.00023272238874479925 0.04012036878012244
| 10> H 0.5579801710228518 -6.0837163936730267e-05 -1.493361598602182
| 11> *
| 12>
| 13>                          ****END OF INPUT****

CARTESIAN COORDINATES (ANGSTROEM)
---------------------------------
  C      0.457972    0.000003   -0.406133
  F      1.044239    1.089569    0.129750
  F      1.044576   -1.089307    0.129904
  Cl    -1.294451   -0.000233    0.040120
  H      0.557980   -0.000061   -1.493362

 Total Charge           Charge          ....    0
 Multiplicity           Mult            ....    1
 Number of Electrons    NEL             ....   42
 Basis Dimension        Dim             ....  136

ORBITAL ENERGIES
----------------

  NO   OCC          E(Eh)            E(eV)
   0   2.0000    -107.162730     -2916.0461
   1   2.0000     -27.609830      -751.3017
   2   2.0000     -27.609729      -751.2989
   3   2.0000     -12.289263      -334.4079
   4   2.0000     -11.316605      -307.9405
   5   2.0000      -9.107841      -247.8370
   6   2.0000      -9.105124      -247.7630
   7   2.0000      -9.105096      -247.7622
   8   2.0000      -2.053757       -55.8856
   9   2.0000      -2.020402       -54.9779
  10   2.0000      -1.440687       -39.2031
  11   2.0000      -1.342881       -36.5416
  12   2.0000      -1.254576       -34.1388
  13   2.0000      -1.199341       -32.6357
  14   2.0000      -1.185803       -32.2673
  15   2.0000      -1.166216       -31.7343
  16   2.0000      -1.156751       -31.4768
  17   2.0000      -1.042474       -28.3672
  18   2.0000      -0.919153       -25.0114
  19   2.0000      -0.817578       -22.2474
  20   2.0000      -0.810630       -22.0584
  21   0.0000      -0.335045        -9.1170
  22   0.0000      -0.246373        -6.7041
  23   0.0000      -0.236376        -6.4321
  24   0.0000      -0.028401        -0.7728
  25   0.0000       0.104593         2.8461

MULLIKEN ATOMIC CHARGES
-----------------------
   0 C :    0.282605
   1 F :   -0.153579
   2 F :   -0.153578
   3 Cl:   -0.089066
   4 H :    0.113618
Sum of atomic charges:    0.0000000

LOEWDIN ATOMIC CHARGES
----------------------
   0 C :   -0.716285
   1 F :    0.158588
   2 F :    0.158589
   3 Cl:    0.291094
   4 H :    0.108014

  Mayer bond orders larger than 0.100000
B(  0-C ,  1-F ) :   1.1229 B(  0-C ,  2-F ) :   1.1229 B(  0-C ,  3-Cl) :   1.1517
B(  0-C ,  4-H ) :   0.9611

FINAL SINGLE POINT ENERGY      -698.555846762248

DIPOLE MOMENT
-------------

Method             : SCF
Type of density    : Electron Density
Multiplicity       :   1
Irrep              :   0
Energy             :  -698.5611204496475466 Eh
Relativity type    :
Basis              : AO
                                X                 Y                 Z
Electronic contribution:     -0.266729059       0.000037635       1.088473199
Nuclear contribution   :      0.321744409      -0.000074030      -1.696197740
                        -----------------------------------------
Total Dipole Moment    :      0.055015350      -0.000036395      -0.607724541
                        -----------------------------------------
Magnitude (a.u.)       :      0.610209642
Magnitude (Debye)      :      1.551029648

Rotational constants in cm-1:             0.337001             0.155212             0.113305
Rotational constants in MHz :         10103.034130          4653.153312          3396.810470

                             ****ORCA TERMINATED NORMALLY****
TOTAL RUN TIME: 0 days 0 hours 0 minutes 19 seconds 889 msec
