                         Program Version 6.0.0  -   RELEASE  -
|  1> ! wb97x-v def2-tzvp def2/J RIJCOSX DEFGRID2 scfconv7 GCP(DFT/TZ) printgap
|  2> %output
|  3>     printlevel normal
|  4> end
|  5> %cpcm
|  6>     smd true
|  7>     smdsolvent "water"
|  8> end
|  9> * xyz 0 1
| 10> C 0.45797189676531436 2.541554749811381e-06 -0.40613311219463655
| 11> F 1.044238847674013 1.0895694446025952 0.12975027521978438
| 12> F 1.0445761373014164 -1.0893067065877362 0.1299039315166087
| 13> Cl -1.294451485547655 -0.00023272238874479925 0.04012036878012244
| 14> H 0.5579801710228518 -6.0837163936730267e-05 -1.493361598602182
| 15> *
| 16>
| 17>                          ****END OF INPUT****

CARTESIAN COORDINATES (ANGSTROEM)
---------------------------------
  C      0.457972    0.000003   -0.406133
  F      1.044239    1.089569    0.129750
  F      1.044576   -1.089307    0.129904
  Cl    -1.294451   -0.000233    0.040120
  H      0.557980   -0.000061   -1.493362

 Total Charge           Charge          ....    0
 Multiplicity           Mult            ....    1
 Number of Electrons    NEL             ....   42
 Basis Dimension        Dim             ....  136

ORBITAL ENERGIES
----------------

  NO   OCC          E(Eh)            E(eV)
   0   2.0000    -107.158338     -2915.9266
   1   2.0000     -27.604881      -751.1670
   2   2.0000     -27.604780      -751.1643
   3   2.0000     -12.277204      -334.0797
   4   2.0000     -11.312354      -307.8248
   5   2.0000      -9.103562      -247.7205
   6   2.0000      -9.100926      -247.6488
   7   2.0000      -9.100882      -247.6476
   8   2.0000      -2.048899       -55.7534
   9   2.0000      -2.015795       -54.8526
  10   2.0000      -1.435572       -39.0639
  11   2.0000      -1.337791       -36.4032
  12   2.0000      -1.250365       -34.0242
  13   2.0000      -1.193166       -32.4677
  14   2.0000      -1.181521       -32.1508
  15   2.0000      -1.162054       -31.6211
  16   2.0000      -1.152803       -31.3694
  17   2.0000      -1.030843       -28.0507
  18   2.0000      -0.909514       -24.7491
  19   2.0000      -0.814258       -22.1571
  20   2.0000      -0.806315       -21.9410
  21   0.0000      -0.328713        -8.9447
  22   0.0000      -0.236229        -6.4281
  23   0.0000      -0.224795        -6.1170
  24   0.0000       0.002833         0.0771
  25   0.0000       0.109201         2.9715

MULLIKEN ATOMIC CHARGES
-----------------------
   0 C :    0.279181
   1 F :   -0.171764
   2 F :   -0.171764
   3 Cl:   -0.112381
   4 H :    0.176728
Sum of atomic charges:    0.0000000

LOEWDIN ATOMIC CHARGES
----------------------
   0 C :   -0.700961
   1 F :    0.148408
   2 F :    0.148409
   3 Cl:    0.275509
   4 H :    0.128635

  Mayer bond orders larger than 0.100000
B(  0-C ,  1-F ) :   1.1028 B(  0-C ,  2-F ) :   1.1028 B(  0-C ,  3-Cl) :   1.1318
B(  0-C ,  4-H ) :   0.9519

FINAL SINGLE POINT ENERGY      -698.556995876116

DIPOLE MOMENT
-------------

Method             : SCF
Type of density    : Electron Density
Multiplicity       :   1
Irrep              :   0
Energy             :  -698.5622695635161108 Eh
Relativity type    :
Basis              : AO
                                X                 Y                 Z
Electronic contribution:     -0.213240268       0.000032341       0.900707918
Nuclear contribution   :      0.321744409      -0.000074030      -1.696197740
                        -----------------------------------------
Total Dipole Moment    :      0.108504141      -0.000041689      -0.795489821
                        -----------------------------------------
Magnitude (a.u.)       :      0.802855657
Magnitude (Debye)      :      2.040696904

Rotational constants in cm-1:             0.337001             0.155212             0.113305
Rotational constants in MHz :         10103.034130          4653.153312          3396.810470

                             ****ORCA TERMINATED NORMALLY****
TOTAL RUN TIME: 0 days 0 hours 0 minutes 20 seconds 554 msec
