                         Program Version 6.0.0  -   RELEASE  -
|  1> ! pbe def2-sv(p) def2/J RI DEFGRID1 loosescf d4 GCP(DFT/SV(P)) printgap
|  2> %output
|  3>     printlevel normal
|  4> end
|  5> * xyz 0 1
|  6> C -2.2142918387 -1.2260895058 0.1361493178
|  7> C -0.8642046752 -0.5697869629 0.4738934885
|  8> H -0.8602412853 -0.2314335452 1.5224586987
|  9> C -0.5828055251 0.6451232759 -0.4179560271
| 10> H -0.5094392448 0.3132526756 -1.4658332926
| 11> C 0.7589276158 1.2736865535 -0.0103597116
| 12> H 0.5774600888 1.8728586779 0.8963142892
| 13> C 1.7983174783 0.2040445515 0.3615408655
| 14> H 2.7364205556 0.4825873657 -0.1356560806
| 15> C 1.3839783105 -1.1830913886 -0.1582595838
| 16> H 2.0731615299 -1.9425417872 0.2450404175
| 17> O 0.1247168659 -1.5845644471 0.3214486755
| 18> O 1.4374796227 -1.1642095987 -1.5490889991
| 19> O 1.9264172254 0.195842162 1.7601773551
| 20> O 1.2928185749 2.0780651233 -1.0291210705
| 21> O -1.5650331248 1.6440039025 -0.285129828
| 22> O -3.3147865524 -0.407099542 0.4464075348
| 23> H -2.2636113277 -2.1884591864 0.6554977231
| 24> H -2.263996409 -1.4112266555 -0.9395513237
| 25> H 1.2895872985 -2.0567056162 -1.8997066155
| 26> H 2.6934922124 -0.3329753604 2.0241004982
| 27> H 0.6264623485 2.7351595354 -1.2797569047
| 28> H -2.4449028973 1.2255609131 -0.2947556487
| 29> H -3.4283747578 -0.3604766717 1.4064100517
| 30> *
| 31>
| 32>                          ****END OF INPUT****

CARTESIAN COORDINATES (ANGSTROEM)
---------------------------------
  C     -2.214292   -1.226090    0.136149
  C     -0.864205   -0.569787    0.473893
  H     -0.860241   -0.231434    1.522459
  C     -0.582806    0.645123   -0.417956
  H     -0.509439    0.313253   -1.465833
  C      0.758928    1.273687   -0.010360
  H      0.577460    1.872859    0.896314
  C      1.798317    0.204045    0.361541
  H      2.736421    0.482587   -0.135656
  C      1.383978   -1.183091   -0.158260
  H      2.073162   -1.942542    0.245040
  O      0.124717   -1.584564    0.321449
  O      1.437480   -1.164210   -1.549089
  O      1.926417    0.195842    1.760177
  O      1.292819    2.078065   -1.029121
  O     -1.565033    1.644004   -0.285130
  O     -3.314787   -0.407100    0.446408
  H     -2.263611   -2.188459    0.655498
  H     -2.263996   -1.411227   -0.939551
  H      1.289587   -2.056706   -1.899707
  H      2.693492   -0.332975    2.024100
  H      0.626462    2.735160   -1.279757
  H     -2.444903    1.225561   -0.294756
  H     -3.428375   -0.360477    1.406410

 Total Charge           Charge          ....    0
 Multiplicity           Mult            ....    1
 Number of Electrons    NEL             ....   96
 Basis Dimension        Dim             ....  192

ORBITAL ENERGIES
----------------

  NO   OCC          E(Eh)            E(eV)
   0   2.0000     -18.775387      -510.9043
   1   2.0000     -18.767167      -510.6806
   2   2.0000     -18.760108      -510.4885
   3   2.0000     -18.755862      -510.3729
   4   2.0000     -18.736137      -509.8362
   5   2.0000     -18.735807      -509.8272
   6   2.0000      -9.984491      -271.6918
   7   2.0000      -9.941649      -270.5260
   8   2.0000      -9.940033      -270.4820
   9   2.0000      -9.938778      -270.4479
  10   2.0000      -9.929350      -270.1914
  11   2.0000      -9.927749      -270.1478
  12   2.0000      -0.978072       -26.6147
  13   2.0000      -0.950091       -25.8533
  14   2.0000      -0.933025       -25.3889
  15   2.0000      -0.921824       -25.0841
  16   2.0000      -0.911813       -24.8117
  17   2.0000      -0.902946       -24.5704
  18   2.0000      -0.697967       -18.9926
  19   2.0000      -0.689397       -18.7595
  20   2.0000      -0.620301       -16.8793
  21   2.0000      -0.581907       -15.8345
  22   2.0000      -0.562807       -15.3148
  23   2.0000      -0.513620       -13.9763
  24   2.0000      -0.497038       -13.5251
  25   2.0000      -0.491090       -13.3632
  26   2.0000      -0.476041       -12.9537
  27   2.0000      -0.462858       -12.5950
  28   2.0000      -0.445207       -12.1147
  29   2.0000      -0.426014       -11.5924
  30   2.0000      -0.414346       -11.2749
  31   2.0000      -0.393344       -10.7034
  32   2.0000      -0.380624       -10.3573
  33   2.0000      -0.361501        -9.8369
  34   2.0000      -0.357037        -9.7155
  35   2.0000      -0.351295        -9.5592
  36   2.0000      -0.333337        -9.0706
  37   2.0000      -0.315739        -8.5917
  38   2.0000      -0.297936        -8.1073
  39   2.0000      -0.296137        -8.0583
  40   2.0000      -0.277695        -7.5565
  41   2.0000      -0.268341        -7.3019
  42   2.0000      -0.249972        -6.8021
  43   2.0000      -0.238371        -6.4864
  44   2.0000      -0.227566        -6.1924
  45   2.0000      -0.217941        -5.9305
  46   2.0000      -0.206506        -5.6193
  47   2.0000      -0.200418        -5.4537
  48   0.0000       0.010630         0.2892
  49   0.0000       0.020407         0.5553
  50   0.0000       0.025508         0.6941
  51   0.0000       0.054913         1.4943
  52   0.0000       0.059520         1.6196

MULLIKEN ATOMIC CHARGES
-----------------------
   0 C :    0.056734
   1 C :    0.002502
   2 H :    0.056062
   3 C :    0.039538
   4 H :    0.055151
   5 C :    0.104067
   6 H :    0.066799
   7 C :    0.046253
   8 H :    0.081414
   9 C :    0.147875
  10 H :    0.043485
  11 O :   -0.316880
  12 O :   -0.375329
  13 O :   -0.418061
  14 O :   -0.415442
  15 O :   -0.436921
  16 O :   -0.435063
  17 H :    0.094270
  18 H :    0.083636
  19 H :    0.301711
  20 H :    0.301271
  21 H :    0.305663
  22 H :    0.301231
  23 H :    0.310033
Sum of atomic charges:    0.0000000

LOEWDIN ATOMIC CHARGES
----------------------
   0 C :   -0.131875
   1 C :   -0.074087
   2 H :    0.103536
   3 C :   -0.087565
   4 H :    0.104002
   5 C :   -0.054403
   6 H :    0.111047
   7 C :   -0.073713
   8 H :    0.116937
   9 C :   -0.013272
  10 H :    0.088611
  11 O :   -0.150125
  12 O :   -0.304516
  13 O :   -0.311692
  14 O :   -0.316228
  15 O :   -0.336541
  16 O :   -0.319482
  17 H :    0.107145
  18 H :    0.115924
  19 H :    0.285691
  20 H :    0.287143
  21 H :    0.288590
  22 H :    0.272298
  23 H :    0.292578

  Mayer bond orders larger than 0.100000
B(  0-C ,  1-C ) :   1.0165 B(  0-C , 16-O ) :   1.0290 B(  0-C , 17-H ) :   0.9234
B(  0-C , 18-H ) :   0.9145 B(  1-C ,  2-H ) :   0.8810 B(  1-C ,  3-C ) :   1.0488
B(  1-C , 11-O ) :   0.9698 B(  3-C ,  4-H ) :   0.8279 B(  3-C ,  5-C ) :   1.0782
B(  3-C , 15-O ) :   1.0794 B(  5-C ,  6-H ) :   0.8741 B(  5-C ,  7-C ) :   0.9851
B(  5-C , 14-O ) :   1.0909 B(  7-C ,  8-H ) :   0.8720 B(  7-C ,  9-C ) :   1.0414
B(  7-C , 13-O ) :   1.0349 B(  9-C , 10-H ) :   0.8953 B(  9-C , 11-O ) :   1.0616
B(  9-C , 12-O ) :   1.1508 B( 12-O , 19-H ) :   0.8406 B( 13-O , 20-H ) :   0.8478
B( 14-O , 21-H ) :   0.8439 B( 15-O , 22-H ) :   0.8015 B( 16-O , 22-H ) :   0.1132
B( 16-O , 23-H ) :   0.8427

Dispersion correction           -0.024605225
FINAL SINGLE POINT ENERGY      -685.692897448912

DIPOLE MOMENT
-------------

Method             : SCF
Type of density    : Electron Density
Multiplicity       :   1
Irrep              :   0
Energy             :  -685.8236573177620130 Eh
Relativity type    :
Basis              : AO
                                X                 Y                 Z
Electronic contribution:      1.547471487       0.686853160      -0.251596164
Nuclear contribution   :     -1.665754356      -1.765979948       0.684176549
                        -----------------------------------------
Total Dipole Moment    :     -0.118282870      -1.079126788       0.432580386
                        -----------------------------------------
Magnitude (a.u.)       :      1.168602264
Magnitude (Debye)      :      2.970350898

Rotational constants in cm-1:             0.042147             0.025442             0.021066
Rotational constants in MHz :          1263.546747           762.735818           631.527805

                             ****ORCA TERMINATED NORMALLY****
TOTAL RUN TIME: 0 days 0 hours 0 minutes 12 seconds 140 msec
