                         Program Version 6.0.0  -   RELEASE  -
|  1> ! r2scan-3c def2/J RI DEFGRID2 scfconv6 printgap
|  2> %output
|  3>     printlevel normal
|  4> end
|  5> * xyz 0 1
|  6> C 3.7186758942 0.3104045 0.2131472246
|  7> C 2.2948839747 0.1687222696 -0.3171923027
|  8> H 2.3411750098 -0.0906653472 -1.3813466379
|  9> C 1.5166445658 1.4741892219 -0.1682327231
| 10> C 0.0799376617 1.3259098361 -0.6624194099
| 11> C -0.6644248581 0.2325138136 0.1106071357
| 12> H -0.6251793951 0.4833625883 1.1759934725
| 13> C 0.1142332144 -1.0846657972 -0.0924635878
| 14> H 0.1471654018 -1.3004349017 -1.1728453672
| 15> C 1.5486370489 -0.9411240247 0.4174239936
| 16> O -0.4522099608 -2.1959570105 0.5847546599
| 17> C -2.151517865 0.0690166289 -0.2876214652
| 18> C -2.9678914576 -0.4009622789 0.9205153027
| 19> C -2.7989756936 1.3407671092 -0.8376565821
| 20> H 4.2478397695 1.0946187968 -0.3227768746
| 21> H 3.7047661588 0.5646517944 1.2705405449
| 22> H 4.2656766138 -0.6212566162 0.0915485378
| 23> H 1.5080748092 1.7662107436 0.8842934756
| 24> H 2.0144649706 2.2663171422 -0.7310978491
| 25> H -0.4290931766 2.2805728756 -0.5378508183
| 26> H 0.0864125646 1.0779083035 -1.7265738661
| 27> H 1.5135920887 -0.7288424902 1.4877211848
| 28> H 2.0571220558 -1.8985209085 0.2877606855
| 29> H -1.2267089189 -2.5056836677 0.0989306426
| 30> H -2.2106101994 -0.6909225043 -1.0770182977
| 31> H -3.9644581551 -0.7100713398 0.6126687491
| 32> H -3.070261478 0.4154532141 1.6329064918
| 33> H -2.4853120325 -1.2306662823 1.4289118584
| 34> H -3.852829413 1.1498246272 -1.0291035695
| 35> H -2.3393027118 1.6549983969 -1.7699996603
| 36> H -2.7291993092 2.1519249862 -0.1168703811
| 37> *
| 38>
| 39>                          ****END OF INPUT****

CARTESIAN COORDINATES (ANGSTROEM)
---------------------------------
  C      3.718676    0.310404    0.213147
  C      2.294884    0.168722   -0.317192
  H      2.341175   -0.090665   -1.381347
  C      1.516645    1.474189   -0.168233
  C      0.079938    1.325910   -0.662419
  C     -0.664425    0.232514    0.110607
  H     -0.625179    0.483363    1.175993
  C      0.114233   -1.084666   -0.092464
  H      0.147165   -1.300435   -1.172845
  C      1.548637   -0.941124    0.417424
  O     -0.452210   -2.195957    0.584755
  C     -2.151518    0.069017   -0.287621
  C     -2.967891   -0.400962    0.920515
  C     -2.798976    1.340767   -0.837657
  H      4.247840    1.094619   -0.322777
  H      3.704766    0.564652    1.270541
  H      4.265677   -0.621257    0.091549
  H      1.508075    1.766211    0.884293
  H      2.014465    2.266317   -0.731098
  H     -0.429093    2.280573   -0.537851
  H      0.086413    1.077908   -1.726574
  H      1.513592   -0.728842    1.487721
  H      2.057122   -1.898521    0.287761
  H     -1.226709   -2.505684    0.098931
  H     -2.210610   -0.690923   -1.077018
  H     -3.964458   -0.710071    0.612669
  H     -3.070261    0.415453    1.632906
  H     -2.485312   -1.230666    1.428912
  H     -3.852829    1.149825   -1.029104
  H     -2.339303    1.654998   -1.770000
  H     -2.729199    2.151925   -0.116870

 Total Charge           Charge          ....    0
 Multiplicity           Mult            ....    1
 Number of Electrons    NEL             ....   88
 Basis Dimension        Dim             ....  314

ORBITAL ENERGIES
----------------

  NO   OCC          E(Eh)            E(eV)
   0   2.0000     -18.944455      -515.5048
   1   2.0000     -10.076213      -274.1877
   2   2.0000     -10.035643      -273.0837
   3   2.0000     -10.031186      -272.9625
   4   2.0000     -10.027084      -272.8508
   5   2.0000     -10.023200      -272.7451
   6   2.0000     -10.021472      -272.6981
   7   2.0000     -10.017136      -272.5801
   8   2.0000     -10.015721      -272.5416
   9   2.0000     -10.014176      -272.4996
  10   2.0000     -10.011135      -272.4168
  11   2.0000      -0.982523       -26.7358
  12   2.0000      -0.805843       -21.9281
  13   2.0000      -0.768493       -20.9118
  14   2.0000      -0.713779       -19.4229
  15   2.0000      -0.698844       -19.0165
  16   2.0000      -0.648452       -17.6453
  17   2.0000      -0.640044       -17.4165
  18   2.0000      -0.573788       -15.6136
  19   2.0000      -0.564496       -15.3607
  20   2.0000      -0.527910       -14.3652
  21   2.0000      -0.523382       -14.2420
  22   2.0000      -0.478544       -13.0218
  23   2.0000      -0.440180       -11.9779
  24   2.0000      -0.422845       -11.5062
  25   2.0000      -0.418715       -11.3938
  26   2.0000      -0.408364       -11.1121
  27   2.0000      -0.395234       -10.7549
  28   2.0000      -0.380328       -10.3492
  29   2.0000      -0.374207       -10.1827
  30   2.0000      -0.360794        -9.8177
  31   2.0000      -0.353014        -9.6060
  32   2.0000      -0.348930        -9.4949
  33   2.0000      -0.340826        -9.2744
  34   2.0000      -0.327016        -8.8986
  35   2.0000      -0.315600        -8.5879
  36   2.0000      -0.309630        -8.4255
  37   2.0000      -0.307267        -8.3611
  38   2.0000      -0.293668        -7.9911
  39   2.0000      -0.289600        -7.8804
  40   2.0000      -0.284076        -7.7301
  41   2.0000      -0.272610        -7.4181
  42   2.0000      -0.264109        -7.1868
  43   2.0000      -0.225366        -6.1325
  44   0.0000       0.051761         1.4085
  45   0.0000       0.082979         2.2580
  46   0.0000       0.089919         2.4468
  47   0.0000       0.099824         2.7163
  48   0.0000       0.114058         3.1037

MULLIKEN ATOMIC CHARGES
-----------------------
   0 C :   -0.499982
   1 C :   -0.046967
   2 H :    0.160610
   3 C :   -0.336225
   4 C :   -0.377949
   5 C :    0.031938
   6 H :    0.185005
   7 C :   -0.136149
   8 H :    0.157320
   9 C :   -0.384426
  10 O :   -0.424171
  11 C :   -0.025626
  12 C :   -0.577301
  13 C :   -0.520582
  14 H :    0.146728
  15 H :    0.151231
  16 H :    0.148365
  17 H :    0.156703
  18 H :    0.146515
  19 H :    0.154523
  20 H :    0.164151
  21 H :    0.166034
  22 H :    0.156832
  23 H :    0.302226
  24 H :    0.155704
  25 H :    0.149001
  26 H :    0.151619
  27 H :    0.177378
  28 H :    0.147774
  29 H :    0.153680
  30 H :    0.166042
Sum of atomic charges:    0.0000000

LOEWDIN ATOMIC CHARGES
----------------------
   0 C :   -0.411957
   1 C :   -0.232951
   2 H :    0.157828
   3 C :   -0.292522
   4 C :   -0.288338
   5 C :   -0.195918
   6 H :    0.172213
   7 C :    0.067284
   8 H :    0.166981
   9 C :   -0.255160
  10 O :   -0.612930
  11 C :   -0.233379
  12 C :   -0.419438
  13 C :   -0.415851
  14 H :    0.152910
  15 H :    0.154327
  16 H :    0.153974
  17 H :    0.159457
  18 H :    0.157786
  19 H :    0.161811
  20 H :    0.159536
  21 H :    0.167827
  22 H :    0.168853
  23 H :    0.267921
  24 H :    0.155359
  25 H :    0.150389
  26 H :    0.154161
  27 H :    0.166625
  28 H :    0.154545
  29 H :    0.154088
  30 H :    0.154566

  Mayer bond orders larger than 0.100000
B(  0-C ,  1-C ) :   0.8886 B(  0-C , 14-H ) :   0.9768 B(  0-C , 15-H ) :   0.9964
B(  0-C , 16-H ) :   0.9758 B(  1-C ,  2-H ) :   0.9557 B(  1-C ,  3-C ) :   0.9105
B(  1-C ,  9-C ) :   0.9048 B(  3-C ,  4-C ) :   0.8946 B(  3-C , 17-H ) :   1.0157
B(  3-C , 18-H ) :   0.9447 B(  4-C ,  5-C ) :   0.8525 B(  4-C , 19-H ) :   0.9322
B(  4-C , 20-H ) :   1.0039 B(  5-C ,  6-H ) :   0.9736 B(  5-C ,  7-C ) :   0.8395
B(  5-C , 11-C ) :   0.7893 B(  7-C ,  8-H ) :   0.9998 B(  7-C ,  9-C ) :   0.9129
B(  7-C , 10-O ) :   0.8993 B(  9-C , 21-H ) :   1.0288 B(  9-C , 22-H ) :   0.9419
B( 10-O , 23-H ) :   0.8888 B( 11-C , 12-C ) :   0.8939 B( 11-C , 13-C ) :   0.8569
B( 11-C , 24-H ) :   0.9861 B( 12-C , 25-H ) :   0.9797 B( 12-C , 26-H ) :   0.9842
B( 12-C , 27-H ) :   0.9689 B( 13-C , 28-H ) :   0.9738 B( 13-C , 29-H ) :   0.9660
B( 13-C , 30-H ) :   1.0002

Dispersion correction           -0.010756729
FINAL SINGLE POINT ENERGY      -468.205172031707

DIPOLE MOMENT
-------------

Method             : SCF
Type of density    : Electron Density
Multiplicity       :   1
Irrep              :   0
Energy             :  -468.2097062572187269 Eh
Relativity type    :
Basis              : AO
                                X                 Y                 Z
Electronic contribution:      0.829181659      -4.512171443       0.345240780
Nuclear contribution   :     -0.988653771       4.779056042      -0.830237592
                        -----------------------------------------
Total Dipole Moment    :     -0.159472112       0.266884599      -0.484996812
                        -----------------------------------------
Magnitude (a.u.)       :      0.576090836
Magnitude (Debye)      :      1.464306536

Rotational constants in cm-1:             0.061539             0.023344             0.018259
Rotational constants in MHz :          1844.884583           699.822616           547.399424

                             ****ORCA TERMINATED NORMALLY****
TOTAL RUN TIME: 0 days 0 hours 0 minutes 48 seconds 121 msec
