                         Program Version 6.0.0  -   RELEASE  -
|  1> ! r2scan-3c def2/J RI DEFGRID2 scfconv6 printgap
|  2> %output
|  3>     printlevel normal
|  4> end
|  5> %cpcm
|  6>     smd true
|  7>     smdsolvent "water"
|  8> end
|  9> * xyz 0 1
| 10> C 3.7186758942 0.3104045 0.2131472246
| 11> C 2.2948839747 0.1687222696 -0.3171923027
| 12> H 2.3411750098 -0.0906653472 -1.3813466379
| 13> C 1.5166445658 1.4741892219 -0.1682327231
| 14> C 0.0799376617 1.3259098361 -0.6624194099
| 15> C -0.6644248581 0.2325138136 0.1106071357
| 16> H -0.6251793951 0.4833625883 1.1759934725
| 17> C 0.1142332144 -1.0846657972 -0.0924635878
| 18> H 0.1471654018 -1.3004349017 -1.1728453672
| 19> C 1.5486370489 -0.9411240247 0.4174239936
| 20> O -0.4522099608 -2.1959570105 0.5847546599
| 21> C -2.151517865 0.0690166289 -0.2876214652
| 22> C -2.9678914576 -0.4009622789 0.9205153027
| 23> C -2.7989756936 1.3407671092 -0.8376565821
| 24> H 4.2478397695 1.0946187968 -0.3227768746
| 25> H 3.7047661588 0.5646517944 1.2705405449
| 26> H 4.2656766138 -0.6212566162 0.0915485378
| 27> H 1.5080748092 1.7662107436 0.8842934756
| 28> H 2.0144649706 2.2663171422 -0.7310978491
| 29> H -0.4290931766 2.2805728756 -0.5378508183
| 30> H 0.0864125646 1.0779083035 -1.7265738661
| 31> H 1.5135920887 -0.7288424902 1.4877211848
| 32> H 2.0571220558 -1.8985209085 0.2877606855
| 33> H -1.2267089189 -2.5056836677 0.0989306426
| 34> H -2.2106101994 -0.6909225043 -1.0770182977
| 35> H -3.9644581551 -0.7100713398 0.6126687491
| 36> H -3.070261478 0.4154532141 1.6329064918
| 37> H -2.4853120325 -1.2306662823 1.4289118584
| 38> H -3.852829413 1.1498246272 -1.0291035695
| 39> H -2.3393027118 1.6549983969 -1.7699996603
| 40> H -2.7291993092 2.1519249862 -0.1168703811
| 41> *
| 42>
| 43>                          ****END OF INPUT****

CARTESIAN COORDINATES (ANGSTROEM)
---------------------------------
  C      3.718676    0.310404    0.213147
  C      2.294884    0.168722   -0.317192
  H      2.341175   -0.090665   -1.381347
  C      1.516645    1.474189   -0.168233
  C      0.079938    1.325910   -0.662419
  C     -0.664425    0.232514    0.110607
  H     -0.625179    0.483363    1.175993
  C      0.114233   -1.084666   -0.092464
  H      0.147165   -1.300435   -1.172845
  C      1.548637   -0.941124    0.417424
  O     -0.452210   -2.195957    0.584755
  C     -2.151518    0.069017   -0.287621
  C     -2.967891   -0.400962    0.920515
  C     -2.798976    1.340767   -0.837657
  H      4.247840    1.094619   -0.322777
  H      3.704766    0.564652    1.270541
  H      4.265677   -0.621257    0.091549
  H      1.508075    1.766211    0.884293
  H      2.014465    2.266317   -0.731098
  H     -0.429093    2.280573   -0.537851
  H      0.086413    1.077908   -1.726574
  H      1.513592   -0.728842    1.487721
  H      2.057122   -1.898521    0.287761
  H     -1.226709   -2.505684    0.098931
  H     -2.210610   -0.690923   -1.077018
  H     -3.964458   -0.710071    0.612669
  H     -3.070261    0.415453    1.632906
  H     -2.485312   -1.230666    1.428912
  H     -3.852829    1.149825   -1.029104
  H     -2.339303    1.654998   -1.770000
  H     -2.729199    2.151925   -0.116870

 Total Charge           Charge          ....    0
 Multiplicity           Mult            ....    1
 Number of Electrons    NEL             ....   88
 Basis Dimension        Dim             ....  314

ORBITAL ENERGIES
----------------

  NO   OCC          E(Eh)            E(eV)
   0   2.0000     -18.947089      -515.5765
   1   2.0000     -10.070136      -274.0223
   2   2.0000     -10.024640      -272.7843
   3   2.0000     -10.023089      -272.7421
   4   2.0000     -10.018686      -272.6223
   5   2.0000     -10.012711      -272.4597
   6   2.0000     -10.012248      -272.4471
   7   2.0000     -10.011660      -272.4311
   8   2.0000     -10.006362      -272.2869
   9   2.0000     -10.005087      -272.2523
  10   2.0000     -10.003590      -272.2115
  11   2.0000      -0.983963       -26.7750
  12   2.0000      -0.797554       -21.7025
  13   2.0000      -0.759421       -20.6649
  14   2.0000      -0.705098       -19.1867
  15   2.0000      -0.692458       -18.8427
  16   2.0000      -0.639796       -17.4097
  17   2.0000      -0.632542       -17.2123
  18   2.0000      -0.565426       -15.3860
  19   2.0000      -0.558439       -15.1959
  20   2.0000      -0.520200       -14.1554
  21   2.0000      -0.513936       -13.9849
  22   2.0000      -0.473408       -12.8821
  23   2.0000      -0.432697       -11.7743
  24   2.0000      -0.415324       -11.3015
  25   2.0000      -0.411149       -11.1879
  26   2.0000      -0.399601       -10.8737
  27   2.0000      -0.388332       -10.5670
  28   2.0000      -0.373198       -10.1552
  29   2.0000      -0.366336        -9.9685
  30   2.0000      -0.353625        -9.6226
  31   2.0000      -0.344536        -9.3753
  32   2.0000      -0.343046        -9.3348
  33   2.0000      -0.335981        -9.1425
  34   2.0000      -0.321001        -8.7349
  35   2.0000      -0.306568        -8.3421
  36   2.0000      -0.302080        -8.2200
  37   2.0000      -0.301104        -8.1934
  38   2.0000      -0.285526        -7.7695
  39   2.0000      -0.281916        -7.6713
  40   2.0000      -0.275233        -7.4895
  41   2.0000      -0.266414        -7.2495
  42   2.0000      -0.256916        -6.9910
  43   2.0000      -0.225381        -6.1329
  44   0.0000       0.069355         1.8872
  45   0.0000       0.093367         2.5407
  46   0.0000       0.099449         2.7061
  47   0.0000       0.109882         2.9900
  48   0.0000       0.120750         3.2858

MULLIKEN ATOMIC CHARGES
-----------------------
   0 C :   -0.549539
   1 C :   -0.026961
   2 H :    0.170491
   3 C :   -0.358805
   4 C :   -0.392832
   5 C :   -0.006851
   6 H :    0.190301
   7 C :   -0.116369
   8 H :    0.173205
   9 C :   -0.397924
  10 O :   -0.506608
  11 C :    0.009011
  12 C :   -0.608774
  13 C :   -0.560863
  14 H :    0.158671
  15 H :    0.163284
  16 H :    0.158533
  17 H :    0.164712
  18 H :    0.154583
  19 H :    0.161771
  20 H :    0.175347
  21 H :    0.172310
  22 H :    0.158001
  23 H :    0.354410
  24 H :    0.174000
  25 H :    0.159893
  26 H :    0.162652
  27 H :    0.167521
  28 H :    0.157555
  29 H :    0.162388
  30 H :    0.176887
Sum of atomic charges:    0.0000000

LOEWDIN ATOMIC CHARGES
----------------------
   0 C :   -0.421167
   1 C :   -0.229551
   2 H :    0.161864
   3 C :   -0.295295
   4 C :   -0.288585
   5 C :   -0.194791
   6 H :    0.172385
   7 C :    0.067487
   8 H :    0.175989
   9 C :   -0.262719
  10 O :   -0.648253
  11 C :   -0.229763
  12 C :   -0.425222
  13 C :   -0.423618
  14 H :    0.155755
  15 H :    0.156468
  16 H :    0.155738
  17 H :    0.161387
  18 H :    0.159851
  19 H :    0.164015
  20 H :    0.163476
  21 H :    0.168106
  22 H :    0.167261
  23 H :    0.285450
  24 H :    0.163238
  25 H :    0.153813
  26 H :    0.155187
  27 H :    0.162275
  28 H :    0.156090
  29 H :    0.156187
  30 H :    0.156944

  Mayer bond orders larger than 0.100000
B(  0-C ,  1-C ) :   0.8713 B(  0-C , 14-H ) :   0.9744 B(  0-C , 15-H ) :   0.9951
B(  0-C , 16-H ) :   0.9741 B(  1-C ,  2-H ) :   0.9531 B(  1-C ,  3-C ) :   0.9127
B(  1-C ,  9-C ) :   0.9115 B(  3-C ,  4-C ) :   0.8966 B(  3-C , 17-H ) :   1.0133
B(  3-C , 18-H ) :   0.9442 B(  4-C ,  5-C ) :   0.8605 B(  4-C , 19-H ) :   0.9320
B(  4-C , 20-H ) :   1.0004 B(  5-C ,  6-H ) :   0.9762 B(  5-C ,  7-C ) :   0.8676
B(  5-C , 11-C ) :   0.8023 B(  7-C ,  8-H ) :   0.9941 B(  7-C ,  9-C ) :   0.9050
B(  7-C , 10-O ) :   0.8770 B(  9-C , 21-H ) :   1.0180 B(  9-C , 22-H ) :   0.9426
B( 10-O , 23-H ) :   0.8634 B( 11-C , 12-C ) :   0.8754 B( 11-C , 13-C ) :   0.8458
B( 11-C , 24-H ) :   0.9776 B( 12-C , 25-H ) :   0.9765 B( 12-C , 26-H ) :   0.9851
B( 12-C , 27-H ) :   0.9712 B( 13-C , 28-H ) :   0.9734 B( 13-C , 29-H ) :   0.9652
B( 13-C , 30-H ) :   0.9956

Dispersion correction           -0.010756729
FINAL SINGLE POINT ENERGY      -468.210132106131

DIPOLE MOMENT
-------------

Method             : SCF
Type of density    : Electron Density
Multiplicity       :   1
Irrep              :   0
Energy             :  -468.2146663316430590 Eh
Relativity type    :
Basis              : AO
                                X                 Y                 Z
Electronic contribution:      0.720056331      -4.391199687       0.039658461
Nuclear contribution   :     -0.988653771       4.779056042      -0.830237592
                        -----------------------------------------
Total Dipole Moment    :     -0.268597440       0.387856356      -0.790579131
                        -----------------------------------------
Magnitude (a.u.)       :      0.920647870
Magnitude (Debye)      :      2.340100914

Rotational constants in cm-1:             0.061539             0.023344             0.018259
Rotational constants in MHz :          1844.884583           699.822616           547.399424

                             ****ORCA TERMINATED NORMALLY****
TOTAL RUN TIME: 0 days 0 hours 0 minutes 59 seconds 263 msec
