                         Program Version 6.0.0  -   RELEASE  -
|  1> ! pbe def2-sv(p) def2/J RI DEFGRID1 loosescf d4 GCP(DFT/SV(P)) printgap
|  2> %output
|  3>     printlevel normal
|  4> end
|  5> * xyz 0 1
|  6> C -2.8956685068 1.4731843957 0.0016655783
|  7> C -1.8089979825 0.4475521888 -0.0079004845
|  8> C -2.1009672626 -0.9151972101 -0.0012098515
|  9> C -1.0951414561 -1.8710580032 0.0056163952
| 10> C 0.2304086255 -1.4859130242 0.0060200047
| 11> C 0.5286456482 -0.1240608921 0.0001779132
| 12> C -0.4776377312 0.8377628513 -0.0068125455
| 13> N 1.8868060999 0.2920494756 -0.0005712749
| 14> O 2.1345747246 1.4896086125 -0.0115110104
| 15> O 2.7619116153 -0.5625265762 0.0109687739
| 16> H -3.8471690201 1.0345364729 -0.2825113357
| 17> H -2.9947298511 1.893290698 1.0013908306
| 18> H -2.6585183085 2.2873533375 -0.6779941759
| 19> H -3.1324725825 -1.2323157785 -0.0020869339
| 20> H -1.347647462 -2.9190051749 0.0092605272
| 21> H 1.0346975507 -2.2039901005 0.0094538811
| 22> H -0.2029385935 1.881638264 -0.0118536117
| 23> *
| 24>
| 25>                          ****END OF INPUT****

CARTESIAN COORDINATES (ANGSTROEM)
---------------------------------
  C     -2.895669    1.473184    0.001666
  C     -1.808998    0.447552   -0.007900
  C     -2.100967   -0.915197   -0.001210
  C     -1.095141   -1.871058    0.005616
  C      0.230409   -1.485913    0.006020
  C      0.528646   -0.124061    0.000178
  C     -0.477638    0.837763   -0.006813
  N      1.886806    0.292049   -0.000571
  O      2.134575    1.489609   -0.011511
  O      2.761912   -0.562527    0.010969
  H     -3.847169    1.034536   -0.282511
  H     -2.994730    1.893291    1.001391
  H     -2.658518    2.287353   -0.677994
  H     -3.132473   -1.232316   -0.002087
  H     -1.347647   -2.919005    0.009261
  H      1.034698   -2.203990    0.009454
  H     -0.202939    1.881638   -0.011854

 Total Charge           Charge          ....    0
 Multiplicity           Mult            ....    1
 Number of Electrons    NEL             ....   72
 Basis Dimension        Dim             ....  154

ORBITAL ENERGIES
----------------

  NO   OCC          E(Eh)            E(eV)
   0   2.0000     -18.771684      -510.8035
   1   2.0000     -18.771202      -510.7904
   2   2.0000     -14.206412      -386.5761
   3   2.0000      -9.952027      -270.8084
   4   2.0000      -9.931018      -270.2368
   5   2.0000      -9.921097      -269.9668
   6   2.0000      -9.919130      -269.9133
   7   2.0000      -9.918585      -269.8984
   8   2.0000      -9.918299      -269.8906
   9   2.0000      -9.902271      -269.4545
  10   2.0000      -1.125222       -30.6188
  11   2.0000      -0.952347       -25.9147
  12   2.0000      -0.814880       -22.1740
  13   2.0000      -0.746844       -20.3227
  14   2.0000      -0.714864       -19.4524
  15   2.0000      -0.645449       -17.5636
  16   2.0000      -0.632657       -17.2155
  17   2.0000      -0.560446       -15.2505
  18   2.0000      -0.519330       -14.1317
  19   2.0000      -0.492443       -13.4001
  20   2.0000      -0.487083       -13.2542
  21   2.0000      -0.457988       -12.4625
  22   2.0000      -0.454515       -12.3680
  23   2.0000      -0.427186       -11.6243
  24   2.0000      -0.409907       -11.1541
  25   2.0000      -0.399499       -10.8709
  26   2.0000      -0.389458       -10.5977
  27   2.0000      -0.363054        -9.8792
  28   2.0000      -0.344578        -9.3764
  29   2.0000      -0.340979        -9.2785
  30   2.0000      -0.324455        -8.8289
  31   2.0000      -0.267028        -7.2662
  32   2.0000      -0.258202        -7.0260
  33   2.0000      -0.255178        -6.9437
  34   2.0000      -0.246198        -6.6994
  35   2.0000      -0.227888        -6.2011
  36   0.0000      -0.116934        -3.1819
  37   0.0000      -0.059737        -1.6255
  38   0.0000      -0.030062        -0.8180
  39   0.0000       0.032023         0.8714
  40   0.0000       0.050927         1.3858

MULLIKEN ATOMIC CHARGES
-----------------------
   0 C :   -0.219853
   1 C :    0.040947
   2 C :   -0.079229
   3 C :   -0.044219
   4 C :   -0.116406
   5 C :    0.228465
   6 C :   -0.189279
   7 N :    0.201924
   8 O :   -0.218122
   9 O :   -0.218311
  10 H :    0.109966
  11 H :    0.129540
  12 H :    0.121260
  13 H :    0.052073
  14 H :    0.066882
  15 H :    0.072979
  16 H :    0.061384
Sum of atomic charges:   -0.0000000

LOEWDIN ATOMIC CHARGES
----------------------
   0 C :   -0.321283
   1 C :   -0.040299
   2 C :   -0.100916
   3 C :   -0.111785
   4 C :   -0.108184
   5 C :   -0.040140
   6 C :   -0.101652
   7 N :    0.255905
   8 O :   -0.190944
   9 O :   -0.189633
  10 H :    0.128791
  11 H :    0.140822
  12 H :    0.135717
  13 H :    0.127902
  14 H :    0.132114
  15 H :    0.142851
  16 H :    0.140734

  Mayer bond orders larger than 0.100000
B(  0-C ,  1-C ) :   1.1004 B(  0-C , 10-H ) :   0.9424 B(  0-C , 11-H ) :   0.9299
B(  0-C , 12-H ) :   0.9376 B(  1-C ,  2-C ) :   1.3922 B(  1-C ,  6-C ) :   1.3194
B(  2-C ,  3-C ) :   1.3550 B(  2-C , 13-H ) :   0.9610 B(  3-C ,  4-C ) :   1.3353
B(  3-C , 14-H ) :   0.9628 B(  4-C ,  5-C ) :   1.3697 B(  4-C , 15-H ) :   0.9505
B(  5-C ,  6-C ) :   1.3525 B(  5-C ,  7-N ) :   0.8875 B(  6-C , 16-H ) :   0.9546
B(  7-N ,  8-O ) :   1.5357 B(  7-N ,  9-O ) :   1.5355 B(  8-O ,  9-O ) :   0.3012

Dispersion correction           -0.017906064
FINAL SINGLE POINT ENERGY      -475.107922436143

DIPOLE MOMENT
-------------

Method             : SCF
Type of density    : Electron Density
Multiplicity       :   1
Irrep              :   0
Energy             :  -475.1583233418703003 Eh
Relativity type    :
Basis              : AO
                                X                 Y                 Z
Electronic contribution:     10.445206205      -1.055497327      -0.022100528
Nuclear contribution   :    -12.252937746       0.710994227       0.042824980
                        -----------------------------------------
Total Dipole Moment    :     -1.807731541      -0.344503100       0.020724452
                        -----------------------------------------
Magnitude (a.u.)       :      1.840381812
Magnitude (Debye)      :      4.677878808

Rotational constants in cm-1:             0.089866             0.033417             0.024469
Rotational constants in MHz :          2694.118305          1001.814120           733.567898

                             ****ORCA TERMINATED NORMALLY****
TOTAL RUN TIME: 0 days 0 hours 0 minutes 9 seconds 44 msec
