                         Program Version 6.0.0  -   RELEASE  -
|  1> ! r2scan-3c def2/J RI DEFGRID2 scfconv6 printgap
|  2> %output
|  3>     printlevel normal
|  4> end
|  5> * xyz 0 1
|  6> C 2.2946094129 -0.3693541517 -0.3886091499
|  7> C 1.0627486484 -0.2422079802 0.5084372611
|  8> H 1.3082982265 -0.6244687678 1.5075991701
|  9> C 0.520242188 1.1914219625 0.560191416
| 10> C -0.5195884373 1.1910616823 -0.5585292828
| 11> C -1.0607961136 -0.2432186517 -0.5080403494
| 12> H -1.3012437135 -0.626275845 -1.5082392866
| 13> O -0.0001692534 -1.052878372 0.0036424109
| 14> C -2.2967994623 -0.3705176792 0.3831314734
| 15> H 3.1331248391 0.158217625 0.0563914784
| 16> H 2.5535341371 -1.4186522787 -0.5019311591
| 17> H 2.0898968584 0.0439176833 -1.3726867005
| 18> H 0.0439776225 1.3806640201 1.5219884198
| 19> H 1.3069050431 1.9249490518 0.4056276552
| 20> H -1.3071851895 1.9234573008 -0.4032751719
| 21> H -0.0437887841 1.3818829069 -1.5202351297
| 22> H -2.0971376156 0.0443783162 1.3676539194
| 23> H -2.5547039104 -1.4200369538 0.4966283381
| 24> H -3.133951013 0.155343275 -0.0666018029
| 25> *
| 26>
| 27>                          ****END OF INPUT****

CARTESIAN COORDINATES (ANGSTROEM)
---------------------------------
  C      2.294609   -0.369354   -0.388609
  C      1.062749   -0.242208    0.508437
  H      1.308298   -0.624469    1.507599
  C      0.520242    1.191422    0.560191
  C     -0.519588    1.191062   -0.558529
  C     -1.060796   -0.243219   -0.508040
  H     -1.301244   -0.626276   -1.508239
  O     -0.000169   -1.052878    0.003642
  C     -2.296799   -0.370518    0.383131
  H      3.133125    0.158218    0.056391
  H      2.553534   -1.418652   -0.501931
  H      2.089897    0.043918   -1.372687
  H      0.043978    1.380664    1.521988
  H      1.306905    1.924949    0.405628
  H     -1.307185    1.923457   -0.403275
  H     -0.043789    1.381883   -1.520235
  H     -2.097138    0.044378    1.367654
  H     -2.554704   -1.420037    0.496628
  H     -3.133951    0.155343   -0.066602

 Total Charge           Charge          ....    0
 Multiplicity           Mult            ....    1
 Number of Electrons    NEL             ....   56
 Basis Dimension        Dim             ....  198

ORBITAL ENERGIES
----------------

  NO   OCC          E(Eh)            E(eV)
   0   2.0000     -18.938069      -515.3311
   1   2.0000     -10.076678      -274.2003
   2   2.0000     -10.076672      -274.2002
   3   2.0000     -10.030087      -272.9326
   4   2.0000     -10.029953      -272.9289
   5   2.0000     -10.013866      -272.4912
   6   2.0000     -10.013863      -272.4911
   7   2.0000      -0.990955       -26.9653
   8   2.0000      -0.754566       -20.5328
   9   2.0000      -0.742571       -20.2064
  10   2.0000      -0.672902       -18.3106
  11   2.0000      -0.619582       -16.8597
  12   2.0000      -0.553850       -15.0710
  13   2.0000      -0.521628       -14.1942
  14   2.0000      -0.459225       -12.4962
  15   2.0000      -0.456132       -12.4120
  16   2.0000      -0.421642       -11.4735
  17   2.0000      -0.380773       -10.3614
  18   2.0000      -0.371474       -10.1083
  19   2.0000      -0.368637       -10.0311
  20   2.0000      -0.359109        -9.7719
  21   2.0000      -0.356916        -9.7122
  22   2.0000      -0.335499        -9.1294
  23   2.0000      -0.312835        -8.5127
  24   2.0000      -0.294446        -8.0123
  25   2.0000      -0.291636        -7.9358
  26   2.0000      -0.276514        -7.5243
  27   2.0000      -0.208221        -5.6660
  28   0.0000       0.071544         1.9468
  29   0.0000       0.103942         2.8284
  30   0.0000       0.108799         2.9606
  31   0.0000       0.109072         2.9680
  32   0.0000       0.123746         3.3673

MULLIKEN ATOMIC CHARGES
-----------------------
   0 C :   -0.498446
   1 C :    0.043856
   2 H :    0.146775
   3 C :   -0.342808
   4 C :   -0.343247
   5 C :    0.044662
   6 H :    0.146723
   7 O :   -0.250543
   8 C :   -0.499242
   9 H :    0.140767
  10 H :    0.156986
  11 H :    0.149565
  12 H :    0.171426
  13 H :    0.157320
  14 H :    0.157318
  15 H :    0.171564
  16 H :    0.149528
  17 H :    0.157007
  18 H :    0.140787
Sum of atomic charges:    0.0000000

LOEWDIN ATOMIC CHARGES
----------------------
   0 C :   -0.391135
   1 C :    0.062472
   2 H :    0.172913
   3 C :   -0.268662
   4 C :   -0.268818
   5 C :    0.062501
   6 H :    0.172743
   7 O :   -0.747920
   8 C :   -0.391067
   9 H :    0.154079
  10 H :    0.161920
  11 H :    0.155919
  12 H :    0.161209
  13 H :    0.165360
  14 H :    0.165388
  15 H :    0.161156
  16 H :    0.155945
  17 H :    0.161926
  18 H :    0.154072

  Mayer bond orders larger than 0.100000
B(  0-C ,  1-C ) :   0.9775 B(  0-C ,  9-H ) :   0.9713 B(  0-C , 10-H ) :   0.9704
B(  0-C , 11-H ) :   0.9796 B(  1-C ,  2-H ) :   0.9387 B(  1-C ,  3-C ) :   0.8921
B(  1-C ,  7-O ) :   0.8527 B(  3-C ,  4-C ) :   0.8846 B(  3-C , 12-H ) :   0.9782
B(  3-C , 13-H ) :   0.9680 B(  4-C ,  5-C ) :   0.8914 B(  4-C , 14-H ) :   0.9677
B(  4-C , 15-H ) :   0.9784 B(  5-C ,  6-H ) :   0.9387 B(  5-C ,  7-O ) :   0.8524
B(  5-C ,  8-C ) :   0.9774 B(  8-C , 16-H ) :   0.9798 B(  8-C , 17-H ) :   0.9705
B(  8-C , 18-H ) :   0.9714

Dispersion correction           -0.005138648
FINAL SINGLE POINT ENERGY      -310.995427676463

DIPOLE MOMENT
-------------

Method             : SCF
Type of density    : Electron Density
Multiplicity       :   1
Irrep              :   0
Energy             :  -311.0004105218454242 Eh
Relativity type    :
Basis              : AO
                                X                 Y                 Z
Electronic contribution:      0.003112634      -2.113896409       0.014032235
Nuclear contribution   :     -0.002135429       2.726991099      -0.015970081
                        -----------------------------------------
Total Dipole Moment    :      0.000977205       0.613094690      -0.001937847
                        -----------------------------------------
Magnitude (a.u.)       :      0.613098531
Magnitude (Debye)      :      1.558372621

Rotational constants in cm-1:             0.162379             0.070237             0.059848
Rotational constants in MHz :          4867.998006          2105.647945          1794.184632

                             ****ORCA TERMINATED NORMALLY****
TOTAL RUN TIME: 0 days 0 hours 0 minutes 26 seconds 139 msec
