                         Program Version 6.0.0  -   RELEASE  -
|  1> ! r2scan-3c def2/J RI DEFGRID2 scfconv6 printgap
|  2> %output
|  3>     printlevel normal
|  4> end
|  5> %cpcm
|  6>     smd true
|  7>     smdsolvent "water"
|  8> end
|  9> * xyz 0 1
| 10> C 2.2946094129 -0.3693541517 -0.3886091499
| 11> C 1.0627486484 -0.2422079802 0.5084372611
| 12> H 1.3082982265 -0.6244687678 1.5075991701
| 13> C 0.520242188 1.1914219625 0.560191416
| 14> C -0.5195884373 1.1910616823 -0.5585292828
| 15> C -1.0607961136 -0.2432186517 -0.5080403494
| 16> H -1.3012437135 -0.626275845 -1.5082392866
| 17> O -0.0001692534 -1.052878372 0.0036424109
| 18> C -2.2967994623 -0.3705176792 0.3831314734
| 19> H 3.1331248391 0.158217625 0.0563914784
| 20> H 2.5535341371 -1.4186522787 -0.5019311591
| 21> H 2.0898968584 0.0439176833 -1.3726867005
| 22> H 0.0439776225 1.3806640201 1.5219884198
| 23> H 1.3069050431 1.9249490518 0.4056276552
| 24> H -1.3071851895 1.9234573008 -0.4032751719
| 25> H -0.0437887841 1.3818829069 -1.5202351297
| 26> H -2.0971376156 0.0443783162 1.3676539194
| 27> H -2.5547039104 -1.4200369538 0.4966283381
| 28> H -3.133951013 0.155343275 -0.0666018029
| 29> *
| 30>
| 31>                          ****END OF INPUT****

CARTESIAN COORDINATES (ANGSTROEM)
---------------------------------
  C      2.294609   -0.369354   -0.388609
  C      1.062749   -0.242208    0.508437
  H      1.308298   -0.624469    1.507599
  C      0.520242    1.191422    0.560191
  C     -0.519588    1.191062   -0.558529
  C     -1.060796   -0.243219   -0.508040
  H     -1.301244   -0.626276   -1.508239
  O     -0.000169   -1.052878    0.003642
  C     -2.296799   -0.370518    0.383131
  H      3.133125    0.158218    0.056391
  H      2.553534   -1.418652   -0.501931
  H      2.089897    0.043918   -1.372687
  H      0.043978    1.380664    1.521988
  H      1.306905    1.924949    0.405628
  H     -1.307185    1.923457   -0.403275
  H     -0.043789    1.381883   -1.520235
  H     -2.097138    0.044378    1.367654
  H     -2.554704   -1.420037    0.496628
  H     -3.133951    0.155343   -0.066602

 Total Charge           Charge          ....    0
 Multiplicity           Mult            ....    1
 Number of Electrons    NEL             ....   56
 Basis Dimension        Dim             ....  198

ORBITAL ENERGIES
----------------

  NO   OCC          E(Eh)            E(eV)
   0   2.0000     -18.946976      -515.5734
   1   2.0000     -10.073756      -274.1208
   2   2.0000     -10.073752      -274.1207
   3   2.0000     -10.020146      -272.6620
   4   2.0000     -10.020011      -272.6584
   5   2.0000     -10.008458      -272.3440
   6   2.0000     -10.008431      -272.3433
   7   2.0000      -0.997597       -27.1460
   8   2.0000      -0.748160       -20.3585
   9   2.0000      -0.739334       -20.1183
  10   2.0000      -0.667673       -18.1683
  11   2.0000      -0.614024       -16.7084
  12   2.0000      -0.550265       -14.9735
  13   2.0000      -0.517236       -14.0747
  14   2.0000      -0.456639       -12.4258
  15   2.0000      -0.449745       -12.2382
  16   2.0000      -0.418612       -11.3910
  17   2.0000      -0.374650       -10.1948
  18   2.0000      -0.366308        -9.9677
  19   2.0000      -0.366080        -9.9615
  20   2.0000      -0.352867        -9.6020
  21   2.0000      -0.349686        -9.5154
  22   2.0000      -0.331304        -9.0152
  23   2.0000      -0.310530        -8.4499
  24   2.0000      -0.288434        -7.8487
  25   2.0000      -0.283884        -7.7249
  26   2.0000      -0.279287        -7.5998
  27   2.0000      -0.214718        -5.8428
  28   0.0000       0.077512         2.1092
  29   0.0000       0.111038         3.0215
  30   0.0000       0.112496         3.0612
  31   0.0000       0.118271         3.2183
  32   0.0000       0.131234         3.5711

MULLIKEN ATOMIC CHARGES
-----------------------
   0 C :   -0.542160
   1 C :    0.052023
   2 H :    0.158080
   3 C :   -0.353172
   4 C :   -0.353251
   5 C :    0.052787
   6 H :    0.158042
   7 O :   -0.327176
   8 C :   -0.542971
   9 H :    0.161554
  10 H :    0.160114
  11 H :    0.167344
  12 H :    0.186039
  13 H :    0.173809
  14 H :    0.173751
  15 H :    0.186210
  16 H :    0.167255
  17 H :    0.160130
  18 H :    0.161589
Sum of atomic charges:   -0.0000000

LOEWDIN ATOMIC CHARGES
----------------------
   0 C :   -0.398246
   1 C :    0.062417
   2 H :    0.177415
   3 C :   -0.266514
   4 C :   -0.266651
   5 C :    0.062464
   6 H :    0.177260
   7 O :   -0.792815
   8 C :   -0.398196
   9 H :    0.162462
  10 H :    0.160386
  11 H :    0.160736
  12 H :    0.166172
  13 H :    0.171688
  14 H :    0.171691
  15 H :    0.166155
  16 H :    0.160731
  17 H :    0.160382
  18 H :    0.162463

  Mayer bond orders larger than 0.100000
B(  0-C ,  1-C ) :   0.9678 B(  0-C ,  9-H ) :   0.9656 B(  0-C , 10-H ) :   0.9693
B(  0-C , 11-H ) :   0.9756 B(  1-C ,  2-H ) :   0.9362 B(  1-C ,  3-C ) :   0.8901
B(  1-C ,  7-O ) :   0.8469 B(  3-C ,  4-C ) :   0.8707 B(  3-C , 12-H ) :   0.9755
B(  3-C , 13-H ) :   0.9649 B(  4-C ,  5-C ) :   0.8894 B(  4-C , 14-H ) :   0.9646
B(  4-C , 15-H ) :   0.9756 B(  5-C ,  6-H ) :   0.9361 B(  5-C ,  7-O ) :   0.8466
B(  5-C ,  8-C ) :   0.9676 B(  8-C , 16-H ) :   0.9758 B(  8-C , 17-H ) :   0.9693
B(  8-C , 18-H ) :   0.9656

Dispersion correction           -0.005138648
FINAL SINGLE POINT ENERGY      -310.999107208207

DIPOLE MOMENT
-------------

Method             : SCF
Type of density    : Electron Density
Multiplicity       :   1
Irrep              :   0
Energy             :  -311.0040900535893229 Eh
Relativity type    :
Basis              : AO
                                X                 Y                 Z
Electronic contribution:      0.003515192      -1.757277873       0.012681591
Nuclear contribution   :     -0.002135429       2.726991099      -0.015970081
                        -----------------------------------------
Total Dipole Moment    :      0.001379763       0.969713226      -0.003288490
                        -----------------------------------------
Magnitude (a.u.)       :      0.969719783
Magnitude (Debye)      :      2.464831806

Rotational constants in cm-1:             0.162379             0.070237             0.059848
Rotational constants in MHz :          4867.998006          2105.647945          1794.184632

                             ****ORCA TERMINATED NORMALLY****
TOTAL RUN TIME: 0 days 0 hours 0 minutes 31 seconds 24 msec
