                         Program Version 6.0.0  -   RELEASE  -
|  1> ! wb97x-v def2-tzvp def2/J RIJCOSX DEFGRID2 scfconv7 GCP(DFT/TZ) printgap
|  2> %output
|  3>     printlevel normal
|  4> end
|  5> %cpcm
|  6>     smd true
|  7>     smdsolvent "water"
|  8> end
|  9> * xyz 0 1
| 10> C -1.9504284745908982 0.6489643050576367 1.038105441615105e-05
| 11> C -1.9126720712391352 -0.7435741998725031 -8.281798981960076e-05
| 12> C -0.6839344315833626 -1.4026895388956107 -0.000104685612203235
| 13> C 0.47238186050281245 -0.6493100886161308 -3.203138515923048e-05
| 14> C 0.45925554110380407 0.7449354273143245 5.7843535233719435e-05
| 15> C -0.7732919876039525 1.3921355865681495 7.929376505481559e-05
| 16> O 1.6106273593409042 1.489148002921564 0.00012881432963256787
| 17> F 1.685870150701034 -1.269146189766985 -4.6990718408195965e-05
| 18> H -2.903549769838395 1.166973809452085 2.718545226629268e-05
| 19> H -2.830863557279228 -1.320194204307197 -0.00014086913815381904
| 20> H -0.6140682301046414 -2.4853122418975735 -0.0001830812416408649
| 21> H -0.792592039067576 2.4771279597130036 0.00015782687668973322
| 22> H 2.3767044860766626 0.8965129509791114 0.00010537741458792355
| 23> *
| 24>
| 25>                          ****END OF INPUT****

CARTESIAN COORDINATES (ANGSTROEM)
---------------------------------
  C     -1.950428    0.648964    0.000010
  C     -1.912672   -0.743574   -0.000083
  C     -0.683934   -1.402690   -0.000105
  C      0.472382   -0.649310   -0.000032
  C      0.459256    0.744935    0.000058
  C     -0.773292    1.392136    0.000079
  O      1.610627    1.489148    0.000129
  F      1.685870   -1.269146   -0.000047
  H     -2.903550    1.166974    0.000027
  H     -2.830864   -1.320194   -0.000141
  H     -0.614068   -2.485312   -0.000183
  H     -0.792592    2.477128    0.000158
  H      2.376704    0.896513    0.000105

 Total Charge           Charge          ....    0
 Multiplicity           Mult            ....    1
 Number of Electrons    NEL             ....   58
 Basis Dimension        Dim             ....  278

ORBITAL ENERGIES
----------------

  NO   OCC          E(Eh)            E(eV)
   0   2.0000     -27.584170      -750.6034
   1   2.0000     -21.710109      -590.7621
   2   2.0000     -12.135857      -330.2334
   3   2.0000     -12.122652      -329.8741
   4   2.0000     -12.060468      -328.1820
   5   2.0000     -12.056011      -328.0607
   6   2.0000     -12.054215      -328.0119
   7   2.0000     -12.052159      -327.9559
   8   2.0000      -2.001956       -54.4760
   9   2.0000      -1.724321       -46.9211
  10   2.0000      -1.403820       -38.1999
  11   2.0000      -1.311435       -35.6860
  12   2.0000      -1.294107       -35.2144
  13   2.0000      -1.217297       -33.1243
  14   2.0000      -1.169922       -31.8352
  15   2.0000      -1.148680       -31.2572
  16   2.0000      -1.144723       -31.1495
  17   2.0000      -1.104481       -30.0544
  18   2.0000      -1.056215       -28.7411
  19   2.0000      -1.012668       -27.5561
  20   2.0000      -0.956935       -26.0395
  21   2.0000      -0.949428       -25.8353
  22   2.0000      -0.931382       -25.3442
  23   2.0000      -0.897921       -24.4337
  24   2.0000      -0.845358       -23.0034
  25   2.0000      -0.827571       -22.5194
  26   2.0000      -0.784528       -21.3481
  27   2.0000      -0.658835       -17.9278
  28   2.0000      -0.648144       -17.6369
  29   0.0000      -0.259744        -7.0680
  30   0.0000      -0.252759        -6.8779
  31   0.0000      -0.248718        -6.7680
  32   0.0000      -0.123871        -3.3707
  33   0.0000      -0.078539        -2.1371

MULLIKEN ATOMIC CHARGES
-----------------------
   0 C :   -0.153778
   1 C :   -0.178291
   2 C :   -0.214300
   3 C :    0.242767
   4 C :    0.171859
   5 C :   -0.237794
   6 O :   -0.453575
   7 F :   -0.225597
   8 H :    0.166034
   9 H :    0.168348
  10 H :    0.174453
  11 H :    0.165217
  12 H :    0.374656
Sum of atomic charges:    0.0000000

LOEWDIN ATOMIC CHARGES
----------------------
   0 C :   -0.147245
   1 C :   -0.154855
   2 C :   -0.120137
   3 C :   -0.243489
   4 C :   -0.255259
   5 C :   -0.122451
   6 O :    0.056136
   7 F :    0.149672
   8 H :    0.154202
   9 H :    0.152945
  10 H :    0.162140
  11 H :    0.158404
  12 H :    0.209939

  Mayer bond orders larger than 0.100000
B(  0-C ,  1-C ) :   1.4201 B(  0-C ,  5-C ) :   1.4280 B(  0-C ,  8-H ) :   0.9692
B(  1-C ,  2-C ) :   1.3707 B(  1-C ,  9-H ) :   0.9663 B(  2-C ,  3-C ) :   1.4213
B(  2-C , 10-H ) :   0.9611 B(  3-C ,  4-C ) :   1.3215 B(  3-C ,  7-F ) :   1.0063
B(  4-C ,  5-C ) :   1.3686 B(  4-C ,  6-O ) :   1.1582 B(  5-C , 11-H ) :   0.9651
B(  6-O , 12-H ) :   0.8432

FINAL SINGLE POINT ENERGY      -406.741032591197

DIPOLE MOMENT
-------------

Method             : SCF
Type of density    : Electron Density
Multiplicity       :   1
Irrep              :   0
Energy             :  -406.7483304681971958 Eh
Relativity type    :
Basis              : AO
                                X                 Y                 Z
Electronic contribution:      5.658176635      -2.181137950      -0.000034143
Nuclear contribution   :     -6.017505875       1.876127592       0.000004878
                        -----------------------------------------
Total Dipole Moment    :     -0.359329239      -0.305010359      -0.000029265
                        -----------------------------------------
Magnitude (a.u.)       :      0.471326662
Magnitude (Debye)      :      1.198017166

Rotational constants in cm-1:             0.110352             0.074449             0.044456
Rotational constants in MHz :          3308.284491          2231.911319          1332.768345

                             ****ORCA TERMINATED NORMALLY****
TOTAL RUN TIME: 0 days 0 hours 1 minutes 56 seconds 351 msec
