                         Program Version 6.0.0  -   RELEASE  -
|  1> ! wb97x-v def2-tzvp def2/J RIJCOSX DEFGRID2 scfconv7 GCP(DFT/TZ) printgap
|  2> %output
|  3>     printlevel normal
|  4> end
|  5> * xyz 0 1
|  6> C -0.5877184373928872 -1.1422591628799128 -0.14107699156712508
|  7> C -1.2813213398839396 0.2401556649826969 -0.00690413548458462
|  8> C -0.13691153562161187 1.274499843880318 0.15396858197742747
|  9> C 1.1359984912786756 0.5227701705416392 -0.25991730599445595
| 10> C 0.8758948712197651 -0.895583477945428 0.2542620369343265
| 11> H -0.6280194429088263 -1.481542466986108 -1.1821155115357334
| 12> H -1.0658185800090678 -1.9133234895411295 0.4704266329445625
| 13> H -1.8880020520906593 0.4556788210011053 -0.8915768394573055
| 14> H -1.955109895422669 0.26684720106665183 0.8546845739798677
| 15> H -0.30419017981467716 2.182047240263849 -0.4338186572254726
| 16> H -0.05042288127598647 1.576982773165277 1.2037670238739975
| 17> H 1.2260037813316946 0.5050618011478719 -1.353777592140058
| 18> H 2.0480009538181663 0.9730781414248467 0.1448842323941825
| 19> H 1.5604441350381049 -1.6424862718673499 -0.1602724578831987
| 20> H 0.9811627026900981 -0.9122903299302051 1.34663865168599
| 21> *
| 22>
| 23>                          ****END OF INPUT****

CARTESIAN COORDINATES (ANGSTROEM)
---------------------------------
  C     -0.587718   -1.142259   -0.141077
  C     -1.281321    0.240156   -0.006904
  C     -0.136912    1.274500    0.153969
  C      1.135998    0.522770   -0.259917
  C      0.875895   -0.895583    0.254262
  H     -0.628019   -1.481542   -1.182116
  H     -1.065819   -1.913323    0.470427
  H     -1.888002    0.455679   -0.891577
  H     -1.955110    0.266847    0.854685
  H     -0.304190    2.182047   -0.433819
  H     -0.050423    1.576983    1.203767
  H      1.226004    0.505062   -1.353778
  H      2.048001    0.973078    0.144884
  H      1.560444   -1.642486   -0.160272
  H      0.981163   -0.912290    1.346639

 Total Charge           Charge          ....    0
 Multiplicity           Mult            ....    1
 Number of Electrons    NEL             ....   40
 Basis Dimension        Dim             ....  215

ORBITAL ENERGIES
----------------

  NO   OCC          E(Eh)            E(eV)
   0   2.0000     -12.035549      -327.5039
   1   2.0000     -12.035334      -327.4981
   2   2.0000     -12.035308      -327.4974
   3   2.0000     -12.033787      -327.4560
   4   2.0000     -12.033697      -327.4535
   5   2.0000      -1.337217       -36.3875
   6   2.0000      -1.204702       -32.7816
   7   2.0000      -1.203801       -32.7571
   8   2.0000      -1.037872       -28.2419
   9   2.0000      -1.034171       -28.1412
  10   2.0000      -0.911351       -24.7991
  11   2.0000      -0.901561       -24.5327
  12   2.0000      -0.840586       -22.8735
  13   2.0000      -0.839294       -22.8384
  14   2.0000      -0.781997       -21.2792
  15   2.0000      -0.781342       -21.2614
  16   2.0000      -0.778866       -21.1940
  17   2.0000      -0.778211       -21.1762
  18   2.0000      -0.744038       -20.2463
  19   2.0000      -0.740121       -20.1397
  20   0.0000      -0.040586        -1.1044
  21   0.0000      -0.037193        -1.0121
  22   0.0000      -0.019874        -0.5408
  23   0.0000      -0.018404        -0.5008
  24   0.0000       0.017086         0.4649

MULLIKEN ATOMIC CHARGES
-----------------------
   0 C :   -0.195424
   1 C :   -0.185880
   2 C :   -0.194287
   3 C :   -0.169463
   4 C :   -0.169005
   5 H :    0.089283
   6 H :    0.096599
   7 H :    0.091337
   8 H :    0.091353
   9 H :    0.097137
  10 H :    0.088843
  11 H :    0.084418
  12 H :    0.095344
  13 H :    0.095531
  14 H :    0.084212
Sum of atomic charges:    0.0000000

LOEWDIN ATOMIC CHARGES
----------------------
   0 C :   -0.253394
   1 C :   -0.247169
   2 C :   -0.254237
   3 C :   -0.259545
   4 C :   -0.259347
   5 H :    0.129050
   6 H :    0.124976
   7 H :    0.126157
   8 H :    0.125899
   9 H :    0.125026
  10 H :    0.129302
  11 H :    0.131131
  12 H :    0.125584
  13 H :    0.125572
  14 H :    0.130995

  Mayer bond orders larger than 0.100000
B(  0-C ,  1-C ) :   0.9875 B(  0-C ,  4-C ) :   0.9944 B(  0-C ,  5-H ) :   0.9772
B(  0-C ,  6-H ) :   0.9747 B(  1-C ,  2-C ) :   0.9891 B(  1-C ,  7-H ) :   0.9786
B(  1-C ,  8-H ) :   0.9781 B(  2-C ,  3-C ) :   0.9929 B(  2-C ,  9-H ) :   0.9746
B(  2-C , 10-H ) :   0.9768 B(  3-C ,  4-C ) :   0.9796 B(  3-C , 11-H ) :   0.9753
B(  3-C , 12-H ) :   0.9729 B(  4-C , 13-H ) :   0.9732 B(  4-C , 14-H ) :   0.9751

FINAL SINGLE POINT ENERGY      -196.562394771225

DIPOLE MOMENT
-------------

Method             : SCF
Type of density    : Electron Density
Multiplicity       :   1
Irrep              :   0
Energy             :  -196.5725008999251315 Eh
Relativity type    :
Basis              : AO
                                X                 Y                 Z
Electronic contribution:      0.079748917      -0.009969590       0.001495700
Nuclear contribution   :     -0.070561734       0.008746228      -0.001465544
                        -----------------------------------------
Total Dipole Moment    :      0.009187183      -0.001223362       0.000030157
                        -----------------------------------------
Magnitude (a.u.)       :      0.009268325
Magnitude (Debye)      :      0.023558211

Rotational constants in cm-1:             0.216987             0.216876             0.125699
Rotational constants in MHz :          6505.097704          6501.776713          3768.375239

                             ****ORCA TERMINATED NORMALLY****
TOTAL RUN TIME: 0 days 0 hours 1 minutes 12 seconds 630 msec
