                         Program Version 6.0.0  -   RELEASE  -
|  1> ! wb97x-v def2-tzvp def2/J RIJCOSX DEFGRID2 scfconv7 GCP(DFT/TZ) printgap
|  2> %output
|  3>     printlevel normal
|  4> end
|  5> %cpcm
|  6>     smd true
|  7>     smdsolvent "water"
|  8> end
|  9> * xyz 0 1
| 10> C -0.5877184373928872 -1.1422591628799128 -0.14107699156712508
| 11> C -1.2813213398839396 0.2401556649826969 -0.00690413548458462
| 12> C -0.13691153562161187 1.274499843880318 0.15396858197742747
| 13> C 1.1359984912786756 0.5227701705416392 -0.25991730599445595
| 14> C 0.8758948712197651 -0.895583477945428 0.2542620369343265
| 15> H -0.6280194429088263 -1.481542466986108 -1.1821155115357334
| 16> H -1.0658185800090678 -1.9133234895411295 0.4704266329445625
| 17> H -1.8880020520906593 0.4556788210011053 -0.8915768394573055
| 18> H -1.955109895422669 0.26684720106665183 0.8546845739798677
| 19> H -0.30419017981467716 2.182047240263849 -0.4338186572254726
| 20> H -0.05042288127598647 1.576982773165277 1.2037670238739975
| 21> H 1.2260037813316946 0.5050618011478719 -1.353777592140058
| 22> H 2.0480009538181663 0.9730781414248467 0.1448842323941825
| 23> H 1.5604441350381049 -1.6424862718673499 -0.1602724578831987
| 24> H 0.9811627026900981 -0.9122903299302051 1.34663865168599
| 25> *
| 26>
| 27>                          ****END OF INPUT****

CARTESIAN COORDINATES (ANGSTROEM)
---------------------------------
  C     -0.587718   -1.142259   -0.141077
  C     -1.281321    0.240156   -0.006904
  C     -0.136912    1.274500    0.153969
  C      1.135998    0.522770   -0.259917
  C      0.875895   -0.895583    0.254262
  H     -0.628019   -1.481542   -1.182116
  H     -1.065819   -1.913323    0.470427
  H     -1.888002    0.455679   -0.891577
  H     -1.955110    0.266847    0.854685
  H     -0.304190    2.182047   -0.433819
  H     -0.050423    1.576983    1.203767
  H      1.226004    0.505062   -1.353778
  H      2.048001    0.973078    0.144884
  H      1.560444   -1.642486   -0.160272
  H      0.981163   -0.912290    1.346639

 Total Charge           Charge          ....    0
 Multiplicity           Mult            ....    1
 Number of Electrons    NEL             ....   40
 Basis Dimension        Dim             ....  215

ORBITAL ENERGIES
----------------

  NO   OCC          E(Eh)            E(eV)
   0   2.0000     -12.028692      -327.3174
   1   2.0000     -12.028437      -327.3104
   2   2.0000     -12.028386      -327.3090
   3   2.0000     -12.026939      -327.2696
   4   2.0000     -12.026752      -327.2646
   5   2.0000      -1.330533       -36.2056
   6   2.0000      -1.198178       -32.6041
   7   2.0000      -1.197295       -32.5800
   8   2.0000      -1.031322       -28.0637
   9   2.0000      -1.027770       -27.9670
  10   2.0000      -0.904912       -24.6239
  11   2.0000      -0.894658       -24.3449
  12   2.0000      -0.833708       -22.6864
  13   2.0000      -0.832384       -22.6503
  14   2.0000      -0.775462       -21.1014
  15   2.0000      -0.774816       -21.0838
  16   2.0000      -0.772321       -21.0159
  17   2.0000      -0.771646       -20.9975
  18   2.0000      -0.736907       -20.0523
  19   2.0000      -0.733132       -19.9495
  20   0.0000      -0.034444        -0.9373
  21   0.0000      -0.031430        -0.8553
  22   0.0000      -0.011676        -0.3177
  23   0.0000      -0.010220        -0.2781
  24   0.0000       0.023141         0.6297

MULLIKEN ATOMIC CHARGES
-----------------------
   0 C :   -0.220497
   1 C :   -0.213298
   2 C :   -0.219832
   3 C :   -0.195199
   4 C :   -0.194924
   5 H :    0.101292
   6 H :    0.110140
   7 H :    0.104216
   8 H :    0.104252
   9 H :    0.110885
  10 H :    0.100921
  11 H :    0.097143
  12 H :    0.108908
  13 H :    0.109172
  14 H :    0.096819
Sum of atomic charges:    0.0000000

LOEWDIN ATOMIC CHARGES
----------------------
   0 C :   -0.257149
   1 C :   -0.251074
   2 C :   -0.258067
   3 C :   -0.263349
   4 C :   -0.263121
   5 H :    0.131112
   6 H :    0.126660
   7 H :    0.127962
   8 H :    0.127687
   9 H :    0.126688
  10 H :    0.131427
  11 H :    0.133361
  12 H :    0.127331
  13 H :    0.127317
  14 H :    0.133216

  Mayer bond orders larger than 0.100000
B(  0-C ,  1-C ) :   0.9864 B(  0-C ,  4-C ) :   0.9937 B(  0-C ,  5-H ) :   0.9756
B(  0-C ,  6-H ) :   0.9726 B(  1-C ,  2-C ) :   0.9883 B(  1-C ,  7-H ) :   0.9770
B(  1-C ,  8-H ) :   0.9764 B(  2-C ,  3-C ) :   0.9923 B(  2-C ,  9-H ) :   0.9724
B(  2-C , 10-H ) :   0.9750 B(  3-C ,  4-C ) :   0.9800 B(  3-C , 11-H ) :   0.9736
B(  3-C , 12-H ) :   0.9707 B(  4-C , 13-H ) :   0.9709 B(  4-C , 14-H ) :   0.9735

FINAL SINGLE POINT ENERGY      -196.560679683288

DIPOLE MOMENT
-------------

Method             : SCF
Type of density    : Electron Density
Multiplicity       :   1
Irrep              :   0
Energy             :  -196.5707858119880314 Eh
Relativity type    :
Basis              : AO
                                X                 Y                 Z
Electronic contribution:      0.082322212      -0.010760179       0.002069471
Nuclear contribution   :     -0.070561734       0.008746228      -0.001465544
                        -----------------------------------------
Total Dipole Moment    :      0.011760478      -0.002013952       0.000603927
                        -----------------------------------------
Magnitude (a.u.)       :      0.011946949
Magnitude (Debye)      :      0.030366730

Rotational constants in cm-1:             0.216987             0.216876             0.125699
Rotational constants in MHz :          6505.097704          6501.776713          3768.375239

                             ****ORCA TERMINATED NORMALLY****
TOTAL RUN TIME: 0 days 0 hours 1 minutes 8 seconds 20 msec
