                         Program Version 6.0.0  -   RELEASE  -
|  1> ! r2scan-3c def2/J RI DEFGRID2 scfconv6 printgap
|  2> %output
|  3>     printlevel normal
|  4> end
|  5> * xyz 0 1
|  6> C -0.3775628846 1.398128007 -0.1083451002
|  7> C 1.07381e-05 -8.7727e-06 0.3759013553
|  8> C -1.0220532499 -1.0260320632 -0.1083509129
|  9> C 1.3996106479 -0.3720880531 -0.1083556619
| 10> H 0.337372666 2.1344122232 0.2515504027
| 11> H -0.3863956067 1.4307050255 -1.1958258785
| 12> H -1.3659312807 1.6744209423 0.251598252
| 13> H 3.83016e-05 -3.34429e-05 1.4720670374
| 14> H -1.0459006366 -1.0499532861 -1.1958256957
| 15> H -2.0171292312 -0.7749835128 0.2516021707
| 16> H -0.7671728572 -2.0201378192 0.2515790242
| 17> H 1.6797629518 -1.359367382 0.2515903917
| 18> H 2.133080001 0.3457236048 0.2515652145
| 19> H 1.4322131148 -0.3807758432 -1.1958314555
| 20> *
| 21>
| 22>                          ****END OF INPUT****

CARTESIAN COORDINATES (ANGSTROEM)
---------------------------------
  C     -0.377563    1.398128   -0.108345
  C      0.000011   -0.000009    0.375901
  C     -1.022053   -1.026032   -0.108351
  C      1.399611   -0.372088   -0.108356
  H      0.337373    2.134412    0.251550
  H     -0.386396    1.430705   -1.195826
  H     -1.365931    1.674421    0.251598
  H      0.000038   -0.000033    1.472067
  H     -1.045901   -1.049953   -1.195826
  H     -2.017129   -0.774984    0.251602
  H     -0.767173   -2.020138    0.251579
  H      1.679763   -1.359367    0.251590
  H      2.133080    0.345724    0.251565
  H      1.432213   -0.380776   -1.195831

 Total Charge           Charge          ....    0
 Multiplicity           Mult            ....    1
 Number of Electrons    NEL             ....   34
 Basis Dimension        Dim             ....  126

ORBITAL ENERGIES
----------------

  NO   OCC          E(Eh)            E(eV)
   0   2.0000     -10.031226      -272.9635
   1   2.0000     -10.012184      -272.4454
   2   2.0000     -10.012184      -272.4454
   3   2.0000     -10.012177      -272.4452
   4   2.0000      -0.768306       -20.9067
   5   2.0000      -0.647182       -17.6107
   6   2.0000      -0.647178       -17.6106
   7   2.0000      -0.524237       -14.2652
   8   2.0000      -0.431126       -11.7315
   9   2.0000      -0.398563       -10.8454
  10   2.0000      -0.398562       -10.8454
  11   2.0000      -0.351448        -9.5634
  12   2.0000      -0.351443        -9.5633
  13   2.0000      -0.329674        -8.9709
  14   2.0000      -0.293940        -7.9985
  15   2.0000      -0.293937        -7.9984
  16   2.0000      -0.290571        -7.9068
  17   0.0000       0.086964         2.3664
  18   0.0000       0.138003         3.7553
  19   0.0000       0.138011         3.7555
  20   0.0000       0.140348         3.8191
  21   0.0000       0.145264         3.9528

MULLIKEN ATOMIC CHARGES
-----------------------
   0 C :   -0.463605
   1 C :   -0.023557
   2 C :   -0.463542
   3 C :   -0.463603
   4 H :    0.142463
   5 H :    0.142036
   6 H :    0.142493
   7 H :    0.133399
   8 H :    0.141995
   9 H :    0.142464
  10 H :    0.142465
  11 H :    0.142495
  12 H :    0.142463
  13 H :    0.142034
Sum of atomic charges:    0.0000000

LOEWDIN ATOMIC CHARGES
----------------------
   0 C :   -0.420542
   1 C :   -0.258417
   2 C :   -0.420532
   3 C :   -0.420540
   4 H :    0.152128
   5 H :    0.152070
   6 H :    0.152133
   7 H :    0.151045
   8 H :    0.152066
   9 H :    0.152129
  10 H :    0.152127
  11 H :    0.152134
  12 H :    0.152129
  13 H :    0.152069

  Mayer bond orders larger than 0.100000
B(  0-C ,  1-C ) :   0.9244 B(  0-C ,  4-H ) :   0.9734 B(  0-C ,  5-H ) :   0.9839
B(  0-C ,  6-H ) :   0.9734 B(  1-C ,  2-C ) :   0.9244 B(  1-C ,  3-C ) :   0.9244
B(  1-C ,  7-H ) :   0.9454 B(  2-C ,  8-H ) :   0.9839 B(  2-C ,  9-H ) :   0.9734
B(  2-C , 10-H ) :   0.9734 B(  3-C , 11-H ) :   0.9734 B(  3-C , 12-H ) :   0.9734
B(  3-C , 13-H ) :   0.9839

Dispersion correction           -0.002779947
FINAL SINGLE POINT ENERGY      -158.391274440174

DIPOLE MOMENT
-------------

Method             : SCF
Type of density    : Electron Density
Multiplicity       :   1
Irrep              :   0
Energy             :  -158.3952532849454826 Eh
Relativity type    :
Basis              : AO
                                X                 Y                 Z
Electronic contribution:      0.000025672      -0.000049220       0.611977588
Nuclear contribution   :     -0.000058708       0.000009860      -0.568466112
                        -----------------------------------------
Total Dipole Moment    :     -0.000033036      -0.000039360       0.043511475
                        -----------------------------------------
Magnitude (a.u.)       :      0.043511506
Magnitude (Debye)      :      0.110597458

Rotational constants in cm-1:             0.262422             0.262415             0.152619
Rotational constants in MHz :          7867.202436          7867.006004          4575.396923

                             ****ORCA TERMINATED NORMALLY****
TOTAL RUN TIME: 0 days 0 hours 0 minutes 8 seconds 430 msec
