                         Program Version 6.0.0  -   RELEASE  -
|  1> ! r2scan-3c def2/J RI DEFGRID2 scfconv6 printgap
|  2> %output
|  3>     printlevel normal
|  4> end
|  5> %cpcm
|  6>     smd true
|  7>     smdsolvent "water"
|  8> end
|  9> * xyz 0 1
| 10> C -0.3775628846 1.398128007 -0.1083451002
| 11> C 1.07381e-05 -8.7727e-06 0.3759013553
| 12> C -1.0220532499 -1.0260320632 -0.1083509129
| 13> C 1.3996106479 -0.3720880531 -0.1083556619
| 14> H 0.337372666 2.1344122232 0.2515504027
| 15> H -0.3863956067 1.4307050255 -1.1958258785
| 16> H -1.3659312807 1.6744209423 0.251598252
| 17> H 3.83016e-05 -3.34429e-05 1.4720670374
| 18> H -1.0459006366 -1.0499532861 -1.1958256957
| 19> H -2.0171292312 -0.7749835128 0.2516021707
| 20> H -0.7671728572 -2.0201378192 0.2515790242
| 21> H 1.6797629518 -1.359367382 0.2515903917
| 22> H 2.133080001 0.3457236048 0.2515652145
| 23> H 1.4322131148 -0.3807758432 -1.1958314555
| 24> *
| 25>
| 26>                          ****END OF INPUT****

CARTESIAN COORDINATES (ANGSTROEM)
---------------------------------
  C     -0.377563    1.398128   -0.108345
  C      0.000011   -0.000009    0.375901
  C     -1.022053   -1.026032   -0.108351
  C      1.399611   -0.372088   -0.108356
  H      0.337373    2.134412    0.251550
  H     -0.386396    1.430705   -1.195826
  H     -1.365931    1.674421    0.251598
  H      0.000038   -0.000033    1.472067
  H     -1.045901   -1.049953   -1.195826
  H     -2.017129   -0.774984    0.251602
  H     -0.767173   -2.020138    0.251579
  H      1.679763   -1.359367    0.251590
  H      2.133080    0.345724    0.251565
  H      1.432213   -0.380776   -1.195831

 Total Charge           Charge          ....    0
 Multiplicity           Mult            ....    1
 Number of Electrons    NEL             ....   34
 Basis Dimension        Dim             ....  126

ORBITAL ENERGIES
----------------

  NO   OCC          E(Eh)            E(eV)
   0   2.0000     -10.024508      -272.7807
   1   2.0000     -10.005050      -272.2513
   2   2.0000     -10.005046      -272.2512
   3   2.0000     -10.005036      -272.2509
   4   2.0000      -0.761484       -20.7210
   5   2.0000      -0.640779       -17.4365
   6   2.0000      -0.640774       -17.4364
   7   2.0000      -0.517725       -14.0880
   8   2.0000      -0.424206       -11.5432
   9   2.0000      -0.391864       -10.6632
  10   2.0000      -0.391856       -10.6629
  11   2.0000      -0.344628        -9.3778
  12   2.0000      -0.344624        -9.3777
  13   2.0000      -0.322833        -8.7847
  14   2.0000      -0.287328        -7.8186
  15   2.0000      -0.287323        -7.8185
  16   2.0000      -0.283272        -7.7082
  17   0.0000       0.094530         2.5723
  18   0.0000       0.142862         3.8875
  19   0.0000       0.142863         3.8875
  20   0.0000       0.143814         3.9134
  21   0.0000       0.153267         4.1706

MULLIKEN ATOMIC CHARGES
-----------------------
   0 C :   -0.508755
   1 C :    0.003510
   2 C :   -0.508867
   3 C :   -0.508756
   4 H :    0.153436
   5 H :    0.153952
   6 H :    0.153517
   7 H :    0.140143
   8 H :    0.153892
   9 H :    0.153513
  10 H :    0.153509
  11 H :    0.153517
  12 H :    0.153437
  13 H :    0.153952
Sum of atomic charges:   -0.0000000

LOEWDIN ATOMIC CHARGES
----------------------
   0 C :   -0.429511
   1 C :   -0.255755
   2 C :   -0.429509
   3 C :   -0.429510
   4 H :    0.154513
   5 H :    0.154684
   6 H :    0.154533
   7 H :    0.153073
   8 H :    0.154673
   9 H :    0.154541
  10 H :    0.154536
  11 H :    0.154533
  12 H :    0.154515
  13 H :    0.154684

  Mayer bond orders larger than 0.100000
B(  0-C ,  1-C ) :   0.9153 B(  0-C ,  4-H ) :   0.9713 B(  0-C ,  5-H ) :   0.9822
B(  0-C ,  6-H ) :   0.9713 B(  1-C ,  2-C ) :   0.9154 B(  1-C ,  3-C ) :   0.9153
B(  1-C ,  7-H ) :   0.9471 B(  2-C ,  8-H ) :   0.9822 B(  2-C ,  9-H ) :   0.9712
B(  2-C , 10-H ) :   0.9713 B(  3-C , 11-H ) :   0.9713 B(  3-C , 12-H ) :   0.9713
B(  3-C , 13-H ) :   0.9822

Dispersion correction           -0.002779947
FINAL SINGLE POINT ENERGY      -158.388308802484

DIPOLE MOMENT
-------------

Method             : SCF
Type of density    : Electron Density
Multiplicity       :   1
Irrep              :   0
Energy             :  -158.3922876472552446 Eh
Relativity type    :
Basis              : AO
                                X                 Y                 Z
Electronic contribution:     -0.000127062      -0.000175640       0.620243045
Nuclear contribution   :     -0.000058708       0.000009860      -0.568466112
                        -----------------------------------------
Total Dipole Moment    :     -0.000185770      -0.000165780       0.051776932
                        -----------------------------------------
Magnitude (a.u.)       :      0.051777531
Magnitude (Debye)      :      0.131608025

Rotational constants in cm-1:             0.262422             0.262415             0.152619
Rotational constants in MHz :          7867.202436          7867.006004          4575.396923

                             ****ORCA TERMINATED NORMALLY****
TOTAL RUN TIME: 0 days 0 hours 0 minutes 9 seconds 878 msec
