                         Program Version 6.0.0  -   RELEASE  -
|  1> ! pbe def2-sv(p) def2/J RI DEFGRID1 loosescf d4 GCP(DFT/SV(P)) printgap
|  2> %output
|  3>     printlevel normal
|  4> end
|  5> * xyz 0 1
|  6> C -2.6042147108 -0.934266493 -0.0002419207
|  7> C -1.1486708919 -0.577609425 0.000146767
|  8> C -0.1814333511 -1.5706076 0.0001376094
|  9> C 1.1691419987 -1.2692864875 8.0191e-05
| 10> C 1.572103776 0.0578659068 1.58257e-05
| 11> C 0.61068163 1.0621372912 5.71865e-05
| 12> C -0.7410259863 0.7612655477 0.0001544588
| 13> C -1.7531251697 1.865186792 2.03668e-05
| 14> O 2.886713414 0.42760185 -0.0001770215
| 15> H -3.0997915508 -0.5231282779 0.8780697633
| 16> H -3.0983167796 -0.5263353981 -0.8809062062
| 17> H -2.7336664778 -2.0131047322 0.0015941494
| 18> H -0.4859562039 -2.6073780205 6.36181e-05
| 19> H 1.9019045118 -2.0634299872 -2.3365e-06
| 20> H 0.9463528148 2.0883683182 3.55615e-05
| 21> H -2.3905813209 1.7969833078 -0.8801982532
| 22> H -2.3928141977 1.7954396023 0.8784652595
| 23> H -1.2633345408 2.8347991588 0.0014506629
| 24> H 3.4552471388 -0.3565179378 -0.0001771924
| 25> *
| 26>
| 27>                          ****END OF INPUT****

CARTESIAN COORDINATES (ANGSTROEM)
---------------------------------
  C     -2.604215   -0.934266   -0.000242
  C     -1.148671   -0.577609    0.000147
  C     -0.181433   -1.570608    0.000138
  C      1.169142   -1.269286    0.000080
  C      1.572104    0.057866    0.000016
  C      0.610682    1.062137    0.000057
  C     -0.741026    0.761266    0.000154
  C     -1.753125    1.865187    0.000020
  O      2.886713    0.427602   -0.000177
  H     -3.099792   -0.523128    0.878070
  H     -3.098317   -0.526335   -0.880906
  H     -2.733666   -2.013105    0.001594
  H     -0.485956   -2.607378    0.000064
  H      1.901905   -2.063430   -0.000002
  H      0.946353    2.088368    0.000036
  H     -2.390581    1.796983   -0.880198
  H     -2.392814    1.795440    0.878465
  H     -1.263335    2.834799    0.001451
  H      3.455247   -0.356518   -0.000177

 Total Charge           Charge          ....    0
 Multiplicity           Mult            ....    1
 Number of Electrons    NEL             ....   66
 Basis Dimension        Dim             ....  146

ORBITAL ENERGIES
----------------

  NO   OCC          E(Eh)            E(eV)
   0   2.0000     -18.775394      -510.9044
   1   2.0000      -9.943827      -270.5853
   2   2.0000      -9.896125      -269.2873
   3   2.0000      -9.888339      -269.0754
   4   2.0000      -9.885459      -268.9970
   5   2.0000      -9.883382      -268.9405
   6   2.0000      -9.880870      -268.8721
   7   2.0000      -9.879460      -268.8338
   8   2.0000      -9.877791      -268.7884
   9   2.0000      -0.955315       -25.9954
  10   2.0000      -0.773193       -21.0397
  11   2.0000      -0.694555       -18.8998
  12   2.0000      -0.682321       -18.5669
  13   2.0000      -0.625649       -17.0248
  14   2.0000      -0.597066       -16.2470
  15   2.0000      -0.542271       -14.7560
  16   2.0000      -0.527145       -14.3443
  17   2.0000      -0.471906       -12.8412
  18   2.0000      -0.435018       -11.8374
  19   2.0000      -0.413657       -11.2562
  20   2.0000      -0.390211       -10.6182
  21   2.0000      -0.382316       -10.4033
  22   2.0000      -0.363101        -9.8805
  23   2.0000      -0.354765        -9.6536
  24   2.0000      -0.350449        -9.5362
  25   2.0000      -0.350335        -9.5331
  26   2.0000      -0.340194        -9.2571
  27   2.0000      -0.315750        -8.5920
  28   2.0000      -0.301323        -8.1994
  29   2.0000      -0.285633        -7.7725
  30   2.0000      -0.277091        -7.5400
  31   2.0000      -0.216612        -5.8943
  32   2.0000      -0.183806        -5.0016
  33   0.0000      -0.025902        -0.7048
  34   0.0000      -0.010965        -0.2984
  35   0.0000       0.027367         0.7447
  36   0.0000       0.043349         1.1796
  37   0.0000       0.058577         1.5939

MULLIKEN ATOMIC CHARGES
-----------------------
   0 C :   -0.205719
   1 C :   -0.000226
   2 C :   -0.151048
   3 C :   -0.165266
   4 C :    0.271278
   5 C :   -0.225410
   6 C :   -0.001153
   7 C :   -0.206601
   8 O :   -0.341654
   9 H :    0.105653
  10 H :    0.105708
  11 H :    0.097939
  12 H :    0.032224
  13 H :    0.020525
  14 H :    0.027465
  15 H :    0.109502
  16 H :    0.109479
  17 H :    0.102589
  18 H :    0.314715
Sum of atomic charges:   -0.0000000

LOEWDIN ATOMIC CHARGES
----------------------
   0 C :   -0.320916
   1 C :   -0.070388
   2 C :   -0.118122
   3 C :   -0.183419
   4 C :    0.020741
   5 C :   -0.150272
   6 C :   -0.039084
   7 C :   -0.319385
   8 O :   -0.242310
   9 H :    0.126885
  10 H :    0.126928
  11 H :    0.123095
  12 H :    0.119891
  13 H :    0.118086
  14 H :    0.126811
  15 H :    0.130152
  16 H :    0.130113
  17 H :    0.124963
  18 H :    0.296229

  Mayer bond orders larger than 0.100000
B(  0-C ,  1-C ) :   1.1458 B(  0-C ,  9-H ) :   0.9243 B(  0-C , 10-H ) :   0.9243
B(  0-C , 11-H ) :   0.9375 B(  1-C ,  2-C ) :   1.4038 B(  1-C ,  6-C ) :   1.3862
B(  2-C ,  3-C ) :   1.3417 B(  2-C , 12-H ) :   0.9548 B(  3-C ,  4-C ) :   1.3145
B(  3-C , 13-H ) :   0.9603 B(  4-C ,  5-C ) :   1.3271 B(  4-C ,  8-O ) :   1.1781
B(  5-C ,  6-C ) :   1.3846 B(  5-C , 14-H ) :   0.9640 B(  6-C ,  7-C ) :   1.1464
B(  7-C , 15-H ) :   0.9232 B(  7-C , 16-H ) :   0.9232 B(  7-C , 17-H ) :   0.9374
B(  8-O , 18-H ) :   0.8440

Dispersion correction           -0.019222900
FINAL SINGLE POINT ENERGY      -385.240258536094

DIPOLE MOMENT
-------------

Method             : SCF
Type of density    : Electron Density
Multiplicity       :   1
Irrep              :   0
Energy             :  -385.2987354251077363 Eh
Relativity type    :
Basis              : AO
                                X                 Y                 Z
Electronic contribution:      8.563815854      -0.807513325       0.001181445
Nuclear contribution   :     -8.551741699       0.405711792      -0.001508359
                        -----------------------------------------
Total Dipole Moment    :      0.012074155      -0.401801533      -0.000326914
                        -----------------------------------------
Magnitude (a.u.)       :      0.401983040
Magnitude (Debye)      :      1.021759686

Rotational constants in cm-1:             0.101087             0.043776             0.030896
Rotational constants in MHz :          3030.502174          1312.365942           926.251105

                             ****ORCA TERMINATED NORMALLY****
TOTAL RUN TIME: 0 days 0 hours 0 minutes 8 seconds 233 msec
