                         Program Version 6.0.0  -   RELEASE  -
|  1> ! pbe def2-sv(p) def2/J RI DEFGRID1 loosescf d4 GCP(DFT/SV(P)) printgap
|  2> %output
|  3>     printlevel normal
|  4> end
|  5> * xyz 0 1
|  6> C -2.2082563123 -0.9803807518 -0.4426191692
|  7> C -1.1772103065 -0.2192159282 0.3988538831
|  8> H -1.691481425 0.18897855 1.2759772897
|  9> C -0.584267941 0.9381598438 -0.4130454969
| 10> H -0.4368586799 0.6141356851 -1.4584123981
| 11> C 0.783904362 1.3109532335 0.1779416216
| 12> H 0.6893117779 1.4714142919 1.2572590987
| 13> C 1.7472090832 0.1455082569 -0.0600498561
| 14> H 2.0420765039 0.1414082505 -1.1202836802
| 15> C 1.0181855885 -1.1999910734 0.2039776953
| 16> H 1.6481597613 -1.8121909694 0.8667251437
| 17> O -0.1681773391 -1.0665533068 0.9389416606
| 18> O 0.8252319654 -1.8228281677 -1.0305304313
| 19> O 2.8621641895 0.3183451639 0.7729893202
| 20> O 1.2349126042 2.5304976415 -0.3478305887
| 21> O -1.4721262462 2.0243859732 -0.385724874
| 22> O -2.8892333929 -1.9043615964 0.3736671734
| 23> H -1.6963241614 -1.4887898944 -1.2690158083
| 24> H -2.8969932663 -0.2292214449 -0.8492192823
| 25> H 0.5125578421 -2.7308080682 -0.8949683205
| 26> H 3.5813383816 -0.2707257517 0.5024833016
| 27> H 1.5515694878 2.4056514651 -1.2553790576
| 28> H -0.9441313539 2.8417789833 -0.4054269524
| 29> H -3.5838123536 -2.3342027505 -0.1453470694
| 30> *
| 31>
| 32>                          ****END OF INPUT****

CARTESIAN COORDINATES (ANGSTROEM)
---------------------------------
  C     -2.208256   -0.980381   -0.442619
  C     -1.177210   -0.219216    0.398854
  H     -1.691481    0.188979    1.275977
  C     -0.584268    0.938160   -0.413045
  H     -0.436859    0.614136   -1.458412
  C      0.783904    1.310953    0.177942
  H      0.689312    1.471414    1.257259
  C      1.747209    0.145508   -0.060050
  H      2.042077    0.141408   -1.120284
  C      1.018186   -1.199991    0.203978
  H      1.648160   -1.812191    0.866725
  O     -0.168177   -1.066553    0.938942
  O      0.825232   -1.822828   -1.030530
  O      2.862164    0.318345    0.772989
  O      1.234913    2.530498   -0.347831
  O     -1.472126    2.024386   -0.385725
  O     -2.889233   -1.904362    0.373667
  H     -1.696324   -1.488790   -1.269016
  H     -2.896993   -0.229221   -0.849219
  H      0.512558   -2.730808   -0.894968
  H      3.581338   -0.270726    0.502483
  H      1.551569    2.405651   -1.255379
  H     -0.944131    2.841779   -0.405427
  H     -3.583812   -2.334203   -0.145347

 Total Charge           Charge          ....    0
 Multiplicity           Mult            ....    1
 Number of Electrons    NEL             ....   96
 Basis Dimension        Dim             ....  192

ORBITAL ENERGIES
----------------

  NO   OCC          E(Eh)            E(eV)
   0   2.0000     -18.770000      -510.7577
   1   2.0000     -18.764452      -510.6067
   2   2.0000     -18.759656      -510.4762
   3   2.0000     -18.757706      -510.4231
   4   2.0000     -18.742714      -510.0152
   5   2.0000     -18.740846      -509.9643
   6   2.0000      -9.986671      -271.7511
   7   2.0000      -9.948289      -270.7067
   8   2.0000      -9.944150      -270.5941
   9   2.0000      -9.937985      -270.4263
  10   2.0000      -9.936379      -270.3826
  11   2.0000      -9.923510      -270.0324
  12   2.0000      -0.980054       -26.6686
  13   2.0000      -0.951197       -25.8834
  14   2.0000      -0.932757       -25.3816
  15   2.0000      -0.920719       -25.0540
  16   2.0000      -0.913562       -24.8593
  17   2.0000      -0.907592       -24.6968
  18   2.0000      -0.704791       -19.1783
  19   2.0000      -0.692700       -18.8493
  20   2.0000      -0.616749       -16.7826
  21   2.0000      -0.584029       -15.8922
  22   2.0000      -0.564268       -15.3545
  23   2.0000      -0.528498       -14.3812
  24   2.0000      -0.509951       -13.8765
  25   2.0000      -0.475541       -12.9401
  26   2.0000      -0.467882       -12.7317
  27   2.0000      -0.454694       -12.3729
  28   2.0000      -0.443075       -12.0567
  29   2.0000      -0.431233       -11.7344
  30   2.0000      -0.416556       -11.3351
  31   2.0000      -0.401153       -10.9159
  32   2.0000      -0.394894       -10.7456
  33   2.0000      -0.364205        -9.9105
  34   2.0000      -0.361644        -9.8408
  35   2.0000      -0.350317        -9.5326
  36   2.0000      -0.328206        -8.9310
  37   2.0000      -0.313766        -8.5380
  38   2.0000      -0.296948        -8.0804
  39   2.0000      -0.284943        -7.7537
  40   2.0000      -0.280101        -7.6219
  41   2.0000      -0.266145        -7.2422
  42   2.0000      -0.262222        -7.1354
  43   2.0000      -0.237175        -6.4539
  44   2.0000      -0.231822        -6.3082
  45   2.0000      -0.213598        -5.8123
  46   2.0000      -0.212552        -5.7838
  47   2.0000      -0.204941        -5.5767
  48   0.0000       0.014460         0.3935
  49   0.0000       0.019328         0.5259
  50   0.0000       0.030050         0.8177
  51   0.0000       0.036139         0.9834
  52   0.0000       0.055061         1.4983

MULLIKEN ATOMIC CHARGES
-----------------------
   0 C :    0.026627
   1 C :    0.111065
   2 H :    0.077262
   3 C :   -0.010843
   4 H :    0.047439
   5 C :    0.059434
   6 H :    0.081119
   7 C :    0.043064
   8 H :    0.050053
   9 C :    0.178639
  10 H :    0.051860
  11 O :   -0.310065
  12 O :   -0.402154
  13 O :   -0.399120
  14 O :   -0.412249
  15 O :   -0.415047
  16 O :   -0.428160
  17 H :    0.055781
  18 H :    0.083612
  19 H :    0.309847
  20 H :    0.303852
  21 H :    0.300177
  22 H :    0.299650
  23 H :    0.298157
Sum of atomic charges:    0.0000000

LOEWDIN ATOMIC CHARGES
----------------------
   0 C :   -0.139423
   1 C :   -0.051502
   2 H :    0.124732
   3 C :   -0.080629
   4 H :    0.095894
   5 C :   -0.073461
   6 H :    0.128947
   7 C :   -0.084932
   8 H :    0.101019
   9 C :   -0.008688
  10 H :    0.096637
  11 O :   -0.137681
  12 O :   -0.314859
  13 O :   -0.310146
  14 O :   -0.301295
  15 O :   -0.323837
  16 O :   -0.344687
  17 H :    0.091470
  18 H :    0.105792
  19 H :    0.288812
  20 H :    0.288288
  21 H :    0.285779
  22 H :    0.278819
  23 H :    0.284951

  Mayer bond orders larger than 0.100000
B(  0-C ,  1-C ) :   1.0835 B(  0-C , 16-O ) :   1.1088 B(  0-C , 17-H ) :   0.8942
B(  0-C , 18-H ) :   0.9116 B(  1-C ,  2-H ) :   0.8773 B(  1-C ,  3-C ) :   0.9659
B(  1-C , 11-O ) :   0.9728 B(  3-C ,  4-H ) :   0.8731 B(  3-C ,  5-C ) :   1.0132
B(  3-C , 15-O ) :   1.0912 B(  5-C ,  6-H ) :   0.8521 B(  5-C ,  7-C ) :   1.0298
B(  5-C , 14-O ) :   1.0330 B(  7-C ,  8-H ) :   0.8730 B(  7-C ,  9-C ) :   0.9672
B(  7-C , 13-O ) :   1.1108 B(  9-C , 10-H ) :   0.8967 B(  9-C , 11-O ) :   1.1109
B(  9-C , 12-O ) :   1.0867 B( 12-O , 19-H ) :   0.8336 B( 13-O , 20-H ) :   0.8471
B( 14-O , 21-H ) :   0.8455 B( 15-O , 22-H ) :   0.8191 B( 16-O , 23-H ) :   0.8532

Dispersion correction           -0.024277444
FINAL SINGLE POINT ENERGY      -685.687372646973

DIPOLE MOMENT
-------------

Method             : SCF
Type of density    : Electron Density
Multiplicity       :   1
Irrep              :   0
Energy             :  -685.8166636367200226 Eh
Relativity type    :
Basis              : AO
                                X                 Y                 Z
Electronic contribution:      1.684407239       0.340176745       2.036602251
Nuclear contribution   :     -1.143052672      -1.127039250      -3.274711681
                        -----------------------------------------
Total Dipole Moment    :      0.541354567      -0.786862505      -1.238109429
                        -----------------------------------------
Magnitude (a.u.)       :      1.563691890
Magnitude (Debye)      :      3.974588920

Rotational constants in cm-1:             0.042757             0.025771             0.018317
Rotational constants in MHz :          1281.820810           772.585859           549.116356

                             ****ORCA TERMINATED NORMALLY****
TOTAL RUN TIME: 0 days 0 hours 0 minutes 10 seconds 975 msec
