                         Program Version 6.0.0  -   RELEASE  -
|  1> ! pbe def2-sv(p) def2/J RI DEFGRID1 loosescf d4 GCP(DFT/SV(P)) printgap
|  2> %output
|  3>     printlevel normal
|  4> end
|  5> * xyz 0 1
|  6> C 2.2693573597 -0.1413860284 -0.4370488621
|  7> N 1.0848655034 0.0892939716 0.3628662615
|  8> C 0.2596314872 -1.1004939816 0.5564544054
|  9> C -0.9423334816 -1.1322021256 -0.3862612764
| 10> O -1.806169469 -0.0215513027 -0.173701112
| 11> C -1.1335280298 1.1243047994 0.3350526174
| 12> C 0.3041248788 1.2068198473 -0.1583799387
| 13> H 2.8500828992 0.7791429762 -0.4639473887
| 14> H 2.0418101821 -0.4400769682 -1.4723764795
| 15> H 2.8689566409 -0.9179479607 0.0327193783
| 16> H 0.8642727511 -1.9947307919 0.4071357569
| 17> H -0.1048859252 -1.1016251824 1.5896152871
| 18> H -0.5993967703 -1.1300405911 -1.431746092
| 19> H -1.5483292675 -2.0256556381 -0.221256838
| 20> H -1.7112648147 1.9842383164 -0.0098265102
| 21> H -1.1462070323 1.1039638845 1.4326214036
| 22> H 0.2958640633 1.217861564 -1.2620845927
| 23> H 0.7598739472 2.1379832402 0.188453917
| 24> *
| 25>
| 26>                          ****END OF INPUT****

CARTESIAN COORDINATES (ANGSTROEM)
---------------------------------
  C      2.269357   -0.141386   -0.437049
  N      1.084866    0.089294    0.362866
  C      0.259631   -1.100494    0.556454
  C     -0.942333   -1.132202   -0.386261
  O     -1.806169   -0.021551   -0.173701
  C     -1.133528    1.124305    0.335053
  C      0.304125    1.206820   -0.158380
  H      2.850083    0.779143   -0.463947
  H      2.041810   -0.440077   -1.472376
  H      2.868957   -0.917948    0.032719
  H      0.864273   -1.994731    0.407136
  H     -0.104886   -1.101625    1.589615
  H     -0.599397   -1.130041   -1.431746
  H     -1.548329   -2.025656   -0.221257
  H     -1.711265    1.984238   -0.009827
  H     -1.146207    1.103964    1.432621
  H      0.295864    1.217862   -1.262085
  H      0.759874    2.137983    0.188454

 Total Charge           Charge          ....    0
 Multiplicity           Mult            ....    1
 Number of Electrons    NEL             ....   56
 Basis Dimension        Dim             ....  120

ORBITAL ENERGIES
----------------

  NO   OCC          E(Eh)            E(eV)
   0   2.0000     -18.745576      -510.0931
   1   2.0000     -13.985404      -380.5622
   2   2.0000      -9.929571      -270.1974
   3   2.0000      -9.928142      -270.1585
   4   2.0000      -9.911307      -269.7004
   5   2.0000      -9.910968      -269.6912
   6   2.0000      -9.903297      -269.4824
   7   2.0000      -0.931286       -25.3416
   8   2.0000      -0.836017       -22.7492
   9   2.0000      -0.691695       -18.8220
  10   2.0000      -0.652725       -17.7615
  11   2.0000      -0.595350       -16.2003
  12   2.0000      -0.568414       -15.4673
  13   2.0000      -0.478427       -13.0187
  14   2.0000      -0.459964       -12.5163
  15   2.0000      -0.449853       -12.2411
  16   2.0000      -0.436531       -11.8786
  17   2.0000      -0.382855       -10.4180
  18   2.0000      -0.376521       -10.2456
  19   2.0000      -0.373406       -10.1609
  20   2.0000      -0.361541        -9.8380
  21   2.0000      -0.342615        -9.3230
  22   2.0000      -0.333852        -9.0846
  23   2.0000      -0.320279        -8.7152
  24   2.0000      -0.312366        -8.4999
  25   2.0000      -0.256100        -6.9688
  26   2.0000      -0.196362        -5.3433
  27   2.0000      -0.166524        -4.5313
  28   0.0000       0.029092         0.7916
  29   0.0000       0.060409         1.6438
  30   0.0000       0.070172         1.9095
  31   0.0000       0.078398         2.1333
  32   0.0000       0.081137         2.2079

MULLIKEN ATOMIC CHARGES
-----------------------
   0 C :   -0.170321
   1 N :   -0.311583
   2 C :   -0.087021
   3 C :    0.027319
   4 O :   -0.353282
   5 C :    0.024824
   6 C :   -0.087955
   7 H :    0.104437
   8 H :    0.073729
   9 H :    0.107519
  10 H :    0.088947
  11 H :    0.091085
  12 H :    0.069442
  13 H :    0.090586
  14 H :    0.094510
  15 H :    0.079101
  16 H :    0.066531
  17 H :    0.092130
Sum of atomic charges:   -0.0000000

LOEWDIN ATOMIC CHARGES
----------------------
   0 C :   -0.257543
   1 N :   -0.158079
   2 C :   -0.176776
   3 C :   -0.123513
   4 O :   -0.186896
   5 C :   -0.115303
   6 C :   -0.176570
   7 H :    0.114865
   8 H :    0.087624
   9 H :    0.113685
  10 H :    0.121009
  11 H :    0.114236
  12 H :    0.097471
  13 H :    0.113676
  14 H :    0.117021
  15 H :    0.101874
  16 H :    0.096289
  17 H :    0.116930

  Mayer bond orders larger than 0.100000
B(  0-C ,  1-N ) :   1.0443 B(  0-C ,  7-H ) :   0.9542 B(  0-C ,  8-H ) :   0.9232
B(  0-C ,  9-H ) :   0.9566 B(  1-N ,  2-C ) :   1.0503 B(  1-N ,  6-C ) :   1.0442
B(  2-C ,  3-C ) :   1.1463 B(  2-C , 10-H ) :   0.9123 B(  2-C , 11-H ) :   0.9094
B(  3-C ,  4-O ) :   1.0209 B(  3-C , 12-H ) :   0.9076 B(  3-C , 13-H ) :   0.9231
B(  4-O ,  5-C ) :   1.0273 B(  5-C ,  6-C ) :   1.1490 B(  5-C , 14-H ) :   0.9267
B(  5-C , 15-H ) :   0.9084 B(  6-C , 16-H ) :   0.8835 B(  6-C , 17-H ) :   0.9142

Dispersion correction           -0.015426417
FINAL SINGLE POINT ENERGY      -326.333764847808

DIPOLE MOMENT
-------------

Method             : SCF
Type of density    : Electron Density
Multiplicity       :   1
Irrep              :   0
Energy             :  -326.4067416380482882 Eh
Relativity type    :
Basis              : AO
                                X                 Y                 Z
Electronic contribution:     -3.796184628       0.281119739       1.040532851
Nuclear contribution   :      4.267303027      -0.362795083      -1.136419424
                        -----------------------------------------
Total Dipole Moment    :      0.471118398      -0.081675345      -0.095886573
                        -----------------------------------------
Magnitude (a.u.)       :      0.487665502
Magnitude (Debye)      :      1.239547198

Rotational constants in cm-1:             0.154818             0.080010             0.061409
Rotational constants in MHz :          4641.340605          2398.645325          1841.003289

                             ****ORCA TERMINATED NORMALLY****
TOTAL RUN TIME: 0 days 0 hours 0 minutes 7 seconds 984 msec
