                         Program Version 6.0.0  -   RELEASE  -
|  1> ! wb97x-v def2-tzvp def2/J RIJCOSX DEFGRID2 scfconv7 GCP(DFT/TZ) printgap
|  2> %output
|  3>     printlevel normal
|  4> end
|  5> * xyz 0 1
|  6> C 1.2462642379984588 1.4655568528844236 -0.3232877084947639
|  7> C 0.7132989466142834 0.040891113314395704 -0.4229656886999403
|  8> C 1.50077495494619 -0.9127158913403618 0.4963267991038795
|  9> C -0.7481563062417381 -0.05560670052387707 -0.03464825273397067
| 10> O -1.2501639008822454 0.7207637723174061 0.7738507954594845
| 11> C -1.5497288161025293 -1.1491237447992413 -0.6720608932849789
| 12> H 0.6702958342905746 2.1515933192237844 -0.9520652053704912
| 13> H 1.2030608142387325 1.8279722250564816 0.7080677925125614
| 14> H 2.2899081386296096 1.494982425536412 -0.6503768791668417
| 15> H 0.807082137105193 -0.3264614938751491 -1.4524992400377779
| 16> H 2.557743539609568 -0.9006763760129818 0.21414314536554827
| 17> H 1.1391172563133507 -1.9425369858245791 0.42335231940755824
| 18> H 1.4190313129758565 -0.5873996790760206 1.5388556619484153
| 19> H -0.9726541596467697 -2.076115578656773 -0.739989602733376
| 20> H -1.76983228598423 -0.8404395838662881 -1.702568047570447
| 21> H -2.4884073669110474 -1.314306345432264 -0.14061177822074825
| 22> *
| 23>
| 24>                          ****END OF INPUT****

CARTESIAN COORDINATES (ANGSTROEM)
---------------------------------
  C      1.246264    1.465557   -0.323288
  C      0.713299    0.040891   -0.422966
  C      1.500775   -0.912716    0.496327
  C     -0.748156   -0.055607   -0.034648
  O     -1.250164    0.720764    0.773851
  C     -1.549729   -1.149124   -0.672061
  H      0.670296    2.151593   -0.952065
  H      1.203061    1.827972    0.708068
  H      2.289908    1.494982   -0.650377
  H      0.807082   -0.326461   -1.452499
  H      2.557744   -0.900676    0.214143
  H      1.139117   -1.942537    0.423352
  H      1.419031   -0.587400    1.538856
  H     -0.972654   -2.076116   -0.739990
  H     -1.769832   -0.840440   -1.702568
  H     -2.488407   -1.314306   -0.140612

 Total Charge           Charge          ....    0
 Multiplicity           Mult            ....    1
 Number of Electrons    NEL             ....   48
 Basis Dimension        Dim             ....  246

ORBITAL ENERGIES
----------------

  NO   OCC          E(Eh)            E(eV)
   0   2.0000     -21.656989      -589.3166
   1   2.0000     -12.135195      -330.2154
   2   2.0000     -12.063286      -328.2587
   3   2.0000     -12.052919      -327.9766
   4   2.0000     -12.050485      -327.9104
   5   2.0000     -12.037289      -327.5513
   6   2.0000      -1.699902       -46.2567
   7   2.0000      -1.327227       -36.1157
   8   2.0000      -1.253551       -34.1108
   9   2.0000      -1.185443       -32.2575
  10   2.0000      -1.124124       -30.5890
  11   2.0000      -1.062850       -28.9216
  12   2.0000      -0.965460       -26.2715
  13   2.0000      -0.953854       -25.9557
  14   2.0000      -0.912754       -24.8373
  15   2.0000      -0.882856       -24.0237
  16   2.0000      -0.848460       -23.0878
  17   2.0000      -0.843608       -22.9558
  18   2.0000      -0.835269       -22.7288
  19   2.0000      -0.830167       -22.5900
  20   2.0000      -0.815858       -22.2006
  21   2.0000      -0.793461       -21.5912
  22   2.0000      -0.777350       -21.1528
  23   2.0000      -0.769313       -20.9341
  24   0.0000      -0.308509        -8.3950
  25   0.0000      -0.051828        -1.4103
  26   0.0000      -0.038742        -1.0542
  27   0.0000      -0.025141        -0.6841
  28   0.0000      -0.017293        -0.4706

MULLIKEN ATOMIC CHARGES
-----------------------
   0 C :   -0.334961
   1 C :   -0.007905
   2 C :   -0.365633
   3 C :    0.209323
   4 O :   -0.321513
   5 C :   -0.360579
   6 H :    0.114199
   7 H :    0.125390
   8 H :    0.110139
   9 H :    0.079518
  10 H :    0.120023
  11 H :    0.109618
  12 H :    0.129821
  13 H :    0.121393
  14 H :    0.132742
  15 H :    0.138423
Sum of atomic charges:   -0.0000000

LOEWDIN ATOMIC CHARGES
----------------------
   0 C :   -0.272355
   1 C :   -0.279652
   2 C :   -0.265013
   3 C :   -0.319624
   4 O :    0.108479
   5 C :   -0.259262
   6 H :    0.122223
   7 H :    0.126986
   8 H :    0.118918
   9 H :    0.152997
  10 H :    0.122308
  11 H :    0.117476
  12 H :    0.126918
  13 H :    0.129285
  14 H :    0.139605
  15 H :    0.130712

  Mayer bond orders larger than 0.100000
B(  0-C ,  1-C ) :   0.9837 B(  0-C ,  6-H ) :   0.9799 B(  0-C ,  7-H ) :   0.9694
B(  0-C ,  8-H ) :   0.9801 B(  1-C ,  2-C ) :   0.9552 B(  1-C ,  3-C ) :   0.9220
B(  1-C ,  9-H ) :   0.9601 B(  2-C , 10-H ) :   0.9799 B(  2-C , 11-H ) :   0.9714
B(  2-C , 12-H ) :   0.9764 B(  3-C ,  4-O ) :   2.1261 B(  3-C ,  5-C ) :   0.9774
B(  5-C , 13-H ) :   0.9613 B(  5-C , 14-H ) :   0.9510 B(  5-C , 15-H ) :   0.9815

FINAL SINGLE POINT ENERGY      -271.794119942453

DIPOLE MOMENT
-------------

Method             : SCF
Type of density    : Electron Density
Multiplicity       :   1
Irrep              :   0
Energy             :  -271.8048555044531440 Eh
Relativity type    :
Basis              : AO
                                X                 Y                 Z
Electronic contribution:     -4.127976031       1.788038231       1.610855535
Nuclear contribution   :      4.661587734      -2.528358952      -2.366361346
                        -----------------------------------------
Total Dipole Moment    :      0.533611703      -0.740320721      -0.755505811
                        -----------------------------------------
Magnitude (a.u.)       :      1.184738473
Magnitude (Debye)      :      3.011365882

Rotational constants in cm-1:             0.158657             0.094521             0.075391
Rotational constants in MHz :          4756.402765          2833.657797          2260.177924

                             ****ORCA TERMINATED NORMALLY****
TOTAL RUN TIME: 0 days 0 hours 1 minutes 34 seconds 875 msec
