                         Program Version 6.0.0  -   RELEASE  -
|  1> ! wb97x-v def2-tzvp def2/J RIJCOSX DEFGRID2 scfconv7 GCP(DFT/TZ) printgap
|  2> %output
|  3>     printlevel normal
|  4> end
|  5> %cpcm
|  6>     smd true
|  7>     smdsolvent "water"
|  8> end
|  9> * xyz 0 1
| 10> C 1.2462642379984588 1.4655568528844236 -0.3232877084947639
| 11> C 0.7132989466142834 0.040891113314395704 -0.4229656886999403
| 12> C 1.50077495494619 -0.9127158913403618 0.4963267991038795
| 13> C -0.7481563062417381 -0.05560670052387707 -0.03464825273397067
| 14> O -1.2501639008822454 0.7207637723174061 0.7738507954594845
| 15> C -1.5497288161025293 -1.1491237447992413 -0.6720608932849789
| 16> H 0.6702958342905746 2.1515933192237844 -0.9520652053704912
| 17> H 1.2030608142387325 1.8279722250564816 0.7080677925125614
| 18> H 2.2899081386296096 1.494982425536412 -0.6503768791668417
| 19> H 0.807082137105193 -0.3264614938751491 -1.4524992400377779
| 20> H 2.557743539609568 -0.9006763760129818 0.21414314536554827
| 21> H 1.1391172563133507 -1.9425369858245791 0.42335231940755824
| 22> H 1.4190313129758565 -0.5873996790760206 1.5388556619484153
| 23> H -0.9726541596467697 -2.076115578656773 -0.739989602733376
| 24> H -1.76983228598423 -0.8404395838662881 -1.702568047570447
| 25> H -2.4884073669110474 -1.314306345432264 -0.14061177822074825
| 26> *
| 27>
| 28>                          ****END OF INPUT****

CARTESIAN COORDINATES (ANGSTROEM)
---------------------------------
  C      1.246264    1.465557   -0.323288
  C      0.713299    0.040891   -0.422966
  C      1.500775   -0.912716    0.496327
  C     -0.748156   -0.055607   -0.034648
  O     -1.250164    0.720764    0.773851
  C     -1.549729   -1.149124   -0.672061
  H      0.670296    2.151593   -0.952065
  H      1.203061    1.827972    0.708068
  H      2.289908    1.494982   -0.650377
  H      0.807082   -0.326461   -1.452499
  H      2.557744   -0.900676    0.214143
  H      1.139117   -1.942537    0.423352
  H      1.419031   -0.587400    1.538856
  H     -0.972654   -2.076116   -0.739990
  H     -1.769832   -0.840440   -1.702568
  H     -2.488407   -1.314306   -0.140612

 Total Charge           Charge          ....    0
 Multiplicity           Mult            ....    1
 Number of Electrons    NEL             ....   48
 Basis Dimension        Dim             ....  246

ORBITAL ENERGIES
----------------

  NO   OCC          E(Eh)            E(eV)
   0   2.0000     -21.667008      -589.5893
   1   2.0000     -12.141578      -330.3891
   2   2.0000     -12.052857      -327.9749
   3   2.0000     -12.039136      -327.6015
   4   2.0000     -12.035484      -327.5022
   5   2.0000     -12.028956      -327.3245
   6   2.0000      -1.713407       -46.6242
   7   2.0000      -1.318508       -35.8784
   8   2.0000      -1.244471       -33.8638
   9   2.0000      -1.174193       -31.9514
  10   2.0000      -1.121149       -30.5080
  11   2.0000      -1.069658       -29.1069
  12   2.0000      -0.968788       -26.3621
  13   2.0000      -0.947160       -25.7735
  14   2.0000      -0.921952       -25.0876
  15   2.0000      -0.873612       -23.7722
  16   2.0000      -0.840360       -22.8674
  17   2.0000      -0.836776       -22.7698
  18   2.0000      -0.825114       -22.4525
  19   2.0000      -0.818438       -22.2708
  20   2.0000      -0.805714       -21.9246
  21   2.0000      -0.781590       -21.2682
  22   2.0000      -0.768486       -20.9116
  23   2.0000      -0.762573       -20.7507
  24   0.0000      -0.305566        -8.3149
  25   0.0000      -0.044941        -1.2229
  26   0.0000      -0.027938        -0.7602
  27   0.0000      -0.011616        -0.3161
  28   0.0000      -0.001930        -0.0525

MULLIKEN ATOMIC CHARGES
-----------------------
   0 C :   -0.399643
   1 C :    0.008050
   2 C :   -0.414559
   3 C :    0.295419
   4 O :   -0.464345
   5 C :   -0.404611
   6 H :    0.134315
   7 H :    0.122434
   8 H :    0.135561
   9 H :    0.109079
  10 H :    0.140221
  11 H :    0.139714
  12 H :    0.131625
  13 H :    0.158728
  14 H :    0.166133
  15 H :    0.141881
Sum of atomic charges:   -0.0000000

LOEWDIN ATOMIC CHARGES
----------------------
   0 C :   -0.281031
   1 C :   -0.271421
   2 C :   -0.265415
   3 C :   -0.297118
   4 O :    0.027813
   5 C :   -0.252690
   6 H :    0.123850
   7 H :    0.122502
   8 H :    0.125740
   9 H :    0.164813
  10 H :    0.127383
  11 H :    0.124936
  12 H :    0.125927
  13 H :    0.142390
  14 H :    0.151658
  15 H :    0.130664

  Mayer bond orders larger than 0.100000
B(  0-C ,  1-C ) :   0.9699 B(  0-C ,  6-H ) :   0.9801 B(  0-C ,  7-H ) :   0.9671
B(  0-C ,  8-H ) :   0.9783 B(  1-C ,  2-C ) :   0.9461 B(  1-C ,  3-C ) :   0.9360
B(  1-C ,  9-H ) :   0.9539 B(  2-C , 10-H ) :   0.9754 B(  2-C , 11-H ) :   0.9692
B(  2-C , 12-H ) :   0.9725 B(  3-C ,  4-O ) :   1.9663 B(  3-C ,  5-C ) :   1.0036
B(  5-C , 13-H ) :   0.9506 B(  5-C , 14-H ) :   0.9390 B(  5-C , 15-H ) :   0.9734

FINAL SINGLE POINT ENERGY      -271.801250621045

DIPOLE MOMENT
-------------

Method             : SCF
Type of density    : Electron Density
Multiplicity       :   1
Irrep              :   0
Energy             :  -271.8119861830453488 Eh
Relativity type    :
Basis              : AO
                                X                 Y                 Z
Electronic contribution:     -3.883002554       1.393999213       1.194979077
Nuclear contribution   :      4.661587734      -2.528358952      -2.366361346
                        -----------------------------------------
Total Dipole Moment    :      0.778585180      -1.134359739      -1.171382269
                        -----------------------------------------
Magnitude (a.u.)       :      1.806959689
Magnitude (Debye)      :      4.592926525

Rotational constants in cm-1:             0.158657             0.094521             0.075391
Rotational constants in MHz :          4756.402765          2833.657797          2260.177924

                             ****ORCA TERMINATED NORMALLY****
TOTAL RUN TIME: 0 days 0 hours 1 minutes 38 seconds 925 msec
