                         Program Version 6.0.0  -   RELEASE  -
|  1> ! pbe def2-sv(p) def2/J RI DEFGRID1 loosescf d4 GCP(DFT/SV(P)) printgap
|  2> %output
|  3>     printlevel normal
|  4> end
|  5> * xyz 0 1
|  6> C -2.0290632111 -0.5755260058 -0.6711337218
|  7> C -1.2069317524 -0.0714636034 0.5405455257
|  8> H -1.8570123461 -0.0043627219 1.4204253179
|  9> C -0.6163009395 1.3297369677 0.2908627505
| 10> H -1.3450721161 1.9086556141 -0.2872225585
| 11> C 0.708348021 1.2874630048 -0.5090739423
| 12> H 1.1694106072 2.2786224998 -0.4050104049
| 13> C 1.6604896254 0.242971377 0.0955471939
| 14> H 2.5212552 0.1279028115 -0.577758917
| 15> C 0.9339167978 -1.1146684657 0.1830252358
| 16> H 1.5531742559 -1.8347430454 0.7459565715
| 17> O -0.2324231508 -1.0329723249 0.9455632997
| 18> O 0.7212324347 -1.5752193066 -1.1206771977
| 19> O 2.0526027594 0.6935928823 1.3667669124
| 20> O 0.5110453999 1.0768404912 -1.8829063082
| 21> O -0.4438257572 2.0288694061 1.4992874209
| 22> O -2.1031456367 -1.9806315555 -0.7093871213
| 23> H -1.5603686745 -0.2741911315 -1.6086381459
| 24> H -3.0274485763 -0.1262967074 -0.6253650387
| 25> H 0.0018888661 -2.2334296852 -1.1161540244
| 26> H 2.7325270822 0.1125551854 1.7371995401
| 27> H 0.5459302371 0.1180281042 -2.0566628523
| 28> H 0.3367415919 1.670773615 1.9553473401
| 29> H -2.546302479 -2.3014966156 0.0888456589
| 30> *
| 31>
| 32>                          ****END OF INPUT****

CARTESIAN COORDINATES (ANGSTROEM)
---------------------------------
  C     -2.029063   -0.575526   -0.671134
  C     -1.206932   -0.071464    0.540546
  H     -1.857012   -0.004363    1.420425
  C     -0.616301    1.329737    0.290863
  H     -1.345072    1.908656   -0.287223
  C      0.708348    1.287463   -0.509074
  H      1.169411    2.278622   -0.405010
  C      1.660490    0.242971    0.095547
  H      2.521255    0.127903   -0.577759
  C      0.933917   -1.114668    0.183025
  H      1.553174   -1.834743    0.745957
  O     -0.232423   -1.032972    0.945563
  O      0.721232   -1.575219   -1.120677
  O      2.052603    0.693593    1.366767
  O      0.511045    1.076840   -1.882906
  O     -0.443826    2.028869    1.499287
  O     -2.103146   -1.980632   -0.709387
  H     -1.560369   -0.274191   -1.608638
  H     -3.027449   -0.126297   -0.625365
  H      0.001889   -2.233430   -1.116154
  H      2.732527    0.112555    1.737200
  H      0.545930    0.118028   -2.056663
  H      0.336742    1.670774    1.955347
  H     -2.546302   -2.301497    0.088846

 Total Charge           Charge          ....    0
 Multiplicity           Mult            ....    1
 Number of Electrons    NEL             ....   96
 Basis Dimension        Dim             ....  192

ORBITAL ENERGIES
----------------

  NO   OCC          E(Eh)            E(eV)
   0   2.0000     -18.780727      -511.0496
   1   2.0000     -18.778631      -510.9925
   2   2.0000     -18.773066      -510.8411
   3   2.0000     -18.767575      -510.6917
   4   2.0000     -18.742349      -510.0052
   5   2.0000     -18.732785      -509.7450
   6   2.0000      -9.996349      -272.0145
   7   2.0000      -9.953872      -270.8586
   8   2.0000      -9.942607      -270.5521
   9   2.0000      -9.940887      -270.5053
  10   2.0000      -9.938470      -270.4395
  11   2.0000      -9.935457      -270.3575
  12   2.0000      -0.994024       -27.0488
  13   2.0000      -0.954251       -25.9665
  14   2.0000      -0.939817       -25.5737
  15   2.0000      -0.923359       -25.1259
  16   2.0000      -0.922739       -25.1090
  17   2.0000      -0.906534       -24.6681
  18   2.0000      -0.701126       -19.0786
  19   2.0000      -0.694571       -18.9002
  20   2.0000      -0.623151       -16.9568
  21   2.0000      -0.593526       -16.1507
  22   2.0000      -0.580345       -15.7920
  23   2.0000      -0.530130       -14.4256
  24   2.0000      -0.502297       -13.6682
  25   2.0000      -0.492284       -13.3957
  26   2.0000      -0.473573       -12.8866
  27   2.0000      -0.462282       -12.5793
  28   2.0000      -0.439543       -11.9606
  29   2.0000      -0.430801       -11.7227
  30   2.0000      -0.424717       -11.5571
  31   2.0000      -0.411628       -11.2010
  32   2.0000      -0.388998       -10.5852
  33   2.0000      -0.377188       -10.2638
  34   2.0000      -0.371884       -10.1195
  35   2.0000      -0.353527        -9.6200
  36   2.0000      -0.344981        -9.3874
  37   2.0000      -0.327097        -8.9008
  38   2.0000      -0.303784        -8.2664
  39   2.0000      -0.298547        -8.1239
  40   2.0000      -0.288235        -7.8433
  41   2.0000      -0.263541        -7.1713
  42   2.0000      -0.255409        -6.9500
  43   2.0000      -0.253485        -6.8977
  44   2.0000      -0.241907        -6.5826
  45   2.0000      -0.229361        -6.2412
  46   2.0000      -0.220083        -5.9888
  47   2.0000      -0.194575        -5.2946
  48   0.0000       0.003879         0.1055
  49   0.0000       0.013400         0.3646
  50   0.0000       0.042698         1.1619
  51   0.0000       0.056531         1.5383
  52   0.0000       0.071992         1.9590

MULLIKEN ATOMIC CHARGES
-----------------------
   0 C :    0.002428
   1 C :    0.016647
   2 H :    0.070557
   3 C :    0.079698
   4 H :    0.077323
   5 C :    0.039664
   6 H :    0.086001
   7 C :   -0.001109
   8 H :    0.087445
   9 C :    0.199499
  10 H :    0.052573
  11 O :   -0.306165
  12 O :   -0.429543
  13 O :   -0.418215
  14 O :   -0.421050
  15 O :   -0.434125
  16 O :   -0.434395
  17 H :    0.086622
  18 H :    0.091055
  19 H :    0.321845
  20 H :    0.311684
  21 H :    0.313174
  22 H :    0.303873
  23 H :    0.304515
Sum of atomic charges:    0.0000000

LOEWDIN ATOMIC CHARGES
----------------------
   0 C :   -0.152296
   1 C :   -0.078862
   2 H :    0.115592
   3 C :   -0.069439
   4 H :    0.120275
   5 C :   -0.064330
   6 H :    0.119203
   7 C :   -0.089681
   8 H :    0.111784
   9 C :   -0.006555
  10 H :    0.090472
  11 O :   -0.140225
  12 O :   -0.315787
  13 O :   -0.303727
  14 O :   -0.320188
  15 O :   -0.324444
  16 O :   -0.326080
  17 H :    0.110991
  18 H :    0.108555
  19 H :    0.286794
  20 H :    0.294005
  21 H :    0.271735
  22 H :    0.273950
  23 H :    0.288257

  Mayer bond orders larger than 0.100000
B(  0-C ,  1-C ) :   1.0146 B(  0-C , 16-O ) :   1.0335 B(  0-C , 17-H ) :   0.9050
B(  0-C , 18-H ) :   0.9158 B(  1-C ,  2-H ) :   0.8930 B(  1-C ,  3-C ) :   0.9851
B(  1-C , 11-O ) :   1.0066 B(  3-C ,  4-H ) :   0.8919 B(  3-C ,  5-C ) :   0.9671
B(  3-C , 15-O ) :   1.0505 B(  5-C ,  6-H ) :   0.9010 B(  5-C ,  7-C ) :   1.0065
B(  5-C , 14-O ) :   1.0839 B(  7-C ,  8-H ) :   0.8976 B(  7-C ,  9-C ) :   0.9601
B(  7-C , 13-O ) :   1.0269 B(  9-C , 10-H ) :   0.9055 B(  9-C , 11-O ) :   1.0894
B(  9-C , 12-O ) :   1.0803 B( 12-O , 19-H ) :   0.7876 B( 12-O , 21-H ) :   0.1061
B( 13-O , 20-H ) :   0.8389 B( 14-O , 21-H ) :   0.7888 B( 15-O , 22-H ) :   0.8194
B( 16-O , 23-H ) :   0.8464

Dispersion correction           -0.026442954
FINAL SINGLE POINT ENERGY      -685.701387976634

DIPOLE MOMENT
-------------

Method             : SCF
Type of density    : Electron Density
Multiplicity       :   1
Irrep              :   0
Energy             :  -685.8360175927160753 Eh
Relativity type    :
Basis              : AO
                                X                 Y                 Z
Electronic contribution:      1.622997531      -0.650984426       1.269573339
Nuclear contribution   :     -1.376571670      -0.535178454      -0.682499805
                        -----------------------------------------
Total Dipole Moment    :      0.246425861      -1.186162880       0.587073534
                        -----------------------------------------
Magnitude (a.u.)       :      1.346240476
Magnitude (Debye)      :      3.421871348

Rotational constants in cm-1:             0.042562             0.029105             0.025924
Rotational constants in MHz :          1275.988930           872.546532           777.192785

                             ****ORCA TERMINATED NORMALLY****
TOTAL RUN TIME: 0 days 0 hours 0 minutes 12 seconds 546 msec
