                         Program Version 6.0.0  -   RELEASE  -
|  1> ! pbe def2-sv(p) def2/J RI DEFGRID1 loosescf d4 GCP(DFT/SV(P)) printgap
|  2> %output
|  3>     printlevel normal
|  4> end
|  5> * xyz 0 1
|  6> C -2.4185498128 -0.679240049 0.014713663
|  7> C -0.9759459286 -0.2816376795 0.3482249953
|  8> H -0.9120636881 0.0102699819 1.4069860292
|  9> C -0.51827302 0.9014563482 -0.5136258171
| 10> H -0.5044559696 0.5706899327 -1.5636497029
| 11> C 0.9129596964 1.3262568699 -0.1108964485
| 12> H 0.8275850924 2.1329892709 0.6262893615
| 13> C 1.6900022156 0.1527048221 0.5289319155
| 14> H 2.7513700771 0.269433025 0.2698909474
| 15> C 1.212482866 -1.1619793728 -0.0993380417
| 16> H 1.747854295 -2.0061743901 0.3609637197
| 17> O -0.1446840428 -1.4181363998 0.1325525798
| 18> O 1.4936394578 -1.0775768346 -1.4672829621
| 19> O 1.5139858905 0.0589208023 1.917638031
| 20> O 1.6167752966 1.8726107152 -1.1975534657
| 21> O -1.4340801065 1.9548107943 -0.3454441028
| 22> O -2.9357081957 -1.6759831339 0.8561719812
| 23> H -2.4524027908 -1.0985403812 -0.992605607
| 24> H -3.0323890917 0.2289153756 0.0520806602
| 25> H 1.2597401375 -1.9123663976 -1.9010231529
| 26> H 1.9979541748 0.7732002482 2.3580463184
| 27> H 1.7879796482 1.1682566794 -1.8423199994
| 28> H -1.1624777011 2.6996036129 -0.9022848908
| 29> H -2.8938995395 -1.3758848025 1.7750649078
| 30> *
| 31>
| 32>                          ****END OF INPUT****

CARTESIAN COORDINATES (ANGSTROEM)
---------------------------------
  C     -2.418550   -0.679240    0.014714
  C     -0.975946   -0.281638    0.348225
  H     -0.912064    0.010270    1.406986
  C     -0.518273    0.901456   -0.513626
  H     -0.504456    0.570690   -1.563650
  C      0.912960    1.326257   -0.110896
  H      0.827585    2.132989    0.626289
  C      1.690002    0.152705    0.528932
  H      2.751370    0.269433    0.269891
  C      1.212483   -1.161979   -0.099338
  H      1.747854   -2.006174    0.360964
  O     -0.144684   -1.418136    0.132553
  O      1.493639   -1.077577   -1.467283
  O      1.513986    0.058921    1.917638
  O      1.616775    1.872611   -1.197553
  O     -1.434080    1.954811   -0.345444
  O     -2.935708   -1.675983    0.856172
  H     -2.452403   -1.098540   -0.992606
  H     -3.032389    0.228915    0.052081
  H      1.259740   -1.912366   -1.901023
  H      1.997954    0.773200    2.358046
  H      1.787980    1.168257   -1.842320
  H     -1.162478    2.699604   -0.902285
  H     -2.893900   -1.375885    1.775065

 Total Charge           Charge          ....    0
 Multiplicity           Mult            ....    1
 Number of Electrons    NEL             ....   96
 Basis Dimension        Dim             ....  192

ORBITAL ENERGIES
----------------

  NO   OCC          E(Eh)            E(eV)
   0   2.0000     -18.776911      -510.9457
   1   2.0000     -18.765053      -510.6230
   2   2.0000     -18.762563      -510.5553
   3   2.0000     -18.754050      -510.3236
   4   2.0000     -18.747369      -510.1419
   5   2.0000     -18.733000      -509.7509
   6   2.0000      -9.989628      -271.8316
   7   2.0000      -9.947618      -270.6885
   8   2.0000      -9.939786      -270.4753
   9   2.0000      -9.939711      -270.4733
  10   2.0000      -9.935757      -270.3657
  11   2.0000      -9.918484      -269.8957
  12   2.0000      -0.984832       -26.7986
  13   2.0000      -0.942862       -25.6566
  14   2.0000      -0.935870       -25.4663
  15   2.0000      -0.924503       -25.1570
  16   2.0000      -0.916250       -24.9324
  17   2.0000      -0.905636       -24.6436
  18   2.0000      -0.700277       -19.0555
  19   2.0000      -0.691282       -18.8107
  20   2.0000      -0.616988       -16.7891
  21   2.0000      -0.582790       -15.8585
  22   2.0000      -0.564602       -15.3636
  23   2.0000      -0.527513       -14.3544
  24   2.0000      -0.508047       -13.8247
  25   2.0000      -0.483440       -13.1551
  26   2.0000      -0.473231       -12.8773
  27   2.0000      -0.456650       -12.4261
  28   2.0000      -0.448544       -12.2055
  29   2.0000      -0.424019       -11.5381
  30   2.0000      -0.410387       -11.1672
  31   2.0000      -0.398850       -10.8533
  32   2.0000      -0.382888       -10.4189
  33   2.0000      -0.363310        -9.8862
  34   2.0000      -0.361992        -9.8503
  35   2.0000      -0.349602        -9.5132
  36   2.0000      -0.340280        -9.2595
  37   2.0000      -0.318082        -8.6555
  38   2.0000      -0.299937        -8.1617
  39   2.0000      -0.297791        -8.1033
  40   2.0000      -0.276432        -7.5221
  41   2.0000      -0.261689        -7.1209
  42   2.0000      -0.250682        -6.8214
  43   2.0000      -0.245006        -6.6669
  44   2.0000      -0.235818        -6.4169
  45   2.0000      -0.221131        -6.0173
  46   2.0000      -0.208926        -5.6852
  47   2.0000      -0.193410        -5.2629
  48   0.0000       0.009496         0.2584
  49   0.0000       0.022785         0.6200
  50   0.0000       0.033654         0.9158
  51   0.0000       0.041564         1.1310
  52   0.0000       0.061557         1.6750

MULLIKEN ATOMIC CHARGES
-----------------------
   0 C :    0.096157
   1 C :    0.017585
   2 H :    0.051956
   3 C :    0.045318
   4 H :    0.040527
   5 C :    0.106161
   6 H :    0.045436
   7 C :   -0.018641
   8 H :    0.074531
   9 C :    0.182260
  10 H :    0.069498
  11 O :   -0.299675
  12 O :   -0.407659
  13 O :   -0.405487
  14 O :   -0.435754
  15 O :   -0.414611
  16 O :   -0.429681
  17 H :    0.066513
  18 H :    0.087935
  19 H :    0.311445
  20 H :    0.310075
  21 H :    0.305680
  22 H :    0.307593
  23 H :    0.292839
Sum of atomic charges:   -0.0000000

LOEWDIN ATOMIC CHARGES
----------------------
   0 C :   -0.128575
   1 C :   -0.067757
   2 H :    0.105299
   3 C :   -0.077469
   4 H :    0.101157
   5 C :   -0.079944
   6 H :    0.112249
   7 C :   -0.091918
   8 H :    0.109910
   9 C :    0.002111
  10 H :    0.101087
  11 O :   -0.136493
  12 O :   -0.318032
  13 O :   -0.308075
  14 O :   -0.322784
  15 O :   -0.318070
  16 O :   -0.334424
  17 H :    0.112041
  18 H :    0.104644
  19 H :    0.291516
  20 H :    0.292718
  21 H :    0.278497
  22 H :    0.290718
  23 H :    0.281594

  Mayer bond orders larger than 0.100000
B(  0-C ,  1-C ) :   1.0400 B(  0-C , 16-O ) :   1.0822 B(  0-C , 17-H ) :   0.9044
B(  0-C , 18-H ) :   0.9121 B(  1-C ,  2-H ) :   0.8555 B(  1-C ,  3-C ) :   1.0614
B(  1-C , 11-O ) :   0.9830 B(  3-C ,  4-H ) :   0.8466 B(  3-C ,  5-C ) :   1.0261
B(  3-C , 15-O ) :   1.0554 B(  5-C ,  6-H ) :   0.8522 B(  5-C ,  7-C ) :   0.9825
B(  5-C , 14-O ) :   1.0365 B(  7-C ,  8-H ) :   0.8867 B(  7-C ,  9-C ) :   1.0386
B(  7-C , 13-O ) :   1.0509 B(  9-C , 10-H ) :   0.8934 B(  9-C , 11-O ) :   1.0953
B(  9-C , 12-O ) :   1.0996 B( 12-O , 19-H ) :   0.8374 B( 13-O , 20-H ) :   0.8463
B( 14-O , 21-H ) :   0.8326 B( 15-O , 22-H ) :   0.8432 B( 16-O , 23-H ) :   0.8536

Dispersion correction           -0.024594519
FINAL SINGLE POINT ENERGY      -685.689945503893

DIPOLE MOMENT
-------------

Method             : SCF
Type of density    : Electron Density
Multiplicity       :   1
Irrep              :   0
Energy             :  -685.8199874879151139 Eh
Relativity type    :
Basis              : AO
                                X                 Y                 Z
Electronic contribution:      1.393167231      -0.952091000       0.221577862
Nuclear contribution   :     -0.547393646       1.365868905      -0.332302070
                        -----------------------------------------
Total Dipole Moment    :      0.845773586       0.413777906      -0.110724207
                        -----------------------------------------
Magnitude (a.u.)       :      0.948053249
Magnitude (Debye)      :      2.409759853

Rotational constants in cm-1:             0.040993             0.025451             0.021333
Rotational constants in MHz :          1228.933932           763.014782           639.542031

                             ****ORCA TERMINATED NORMALLY****
TOTAL RUN TIME: 0 days 0 hours 0 minutes 12 seconds 343 msec
