                         Program Version 6.0.0  -   RELEASE  -
|  1> ! r2scan-3c def2/J RI DEFGRID2 scfconv6 printgap
|  2> %output
|  3>     printlevel normal
|  4> end
|  5> * xyz 0 1
|  6> C -1.9500010273 0.6246550143 1.94982e-05
|  7> C -1.900014266 -0.75819457 4.6337e-06
|  8> C -0.6723457892 -1.3995481209 4.84525e-05
|  9> C 0.4800561694 -0.6436102759 9.3572e-05
| 10> C 0.4589540895 0.7508345577 0.0002013441
| 11> C -0.7857081756 1.3722794948 -3.78399e-05
| 12> O 1.6307466934 1.4292294977 -0.0001152453
| 13> F 1.689306702 -1.2839931113 -3.86532e-05
| 14> H -2.9022240616 1.1303353569 -0.0002357694
| 15> H -2.8068656482 -1.3395586352 5.04e-05
| 16> H -0.5921087238 -2.4742591424 0.0001665245
| 17> H -0.8357022471 2.4503597386 -0.0008796794
| 18> H 1.4723884713 2.3866018388 -0.0004718542
| 19> *
| 20>
| 21>                          ****END OF INPUT****

CARTESIAN COORDINATES (ANGSTROEM)
---------------------------------
  C     -1.950001    0.624655    0.000019
  C     -1.900014   -0.758195    0.000005
  C     -0.672346   -1.399548    0.000048
  C      0.480056   -0.643610    0.000094
  C      0.458954    0.750835    0.000201
  C     -0.785708    1.372279   -0.000038
  O      1.630747    1.429229   -0.000115
  F      1.689307   -1.283993   -0.000039
  H     -2.902224    1.130335   -0.000236
  H     -2.806866   -1.339559    0.000050
  H     -0.592109   -2.474259    0.000167
  H     -0.835702    2.450360   -0.000880
  H      1.472388    2.386602   -0.000472

 Total Charge           Charge          ....    0
 Multiplicity           Mult            ....    1
 Number of Electrons    NEL             ....   58
 Basis Dimension        Dim             ....  187

ORBITAL ENERGIES
----------------

  NO   OCC          E(Eh)            E(eV)
   0   2.0000     -24.491429      -666.4457
   1   2.0000     -18.998186      -516.9669
   2   2.0000     -10.119354      -275.3616
   3   2.0000     -10.111181      -275.1392
   4   2.0000     -10.047968      -273.4191
   5   2.0000     -10.046161      -273.3699
   6   2.0000     -10.043781      -273.3052
   7   2.0000     -10.040690      -273.2211
   8   2.0000      -1.173331       -31.9280
   9   2.0000      -1.042264       -28.3614
  10   2.0000      -0.835413       -22.7327
  11   2.0000      -0.729132       -19.8407
  12   2.0000      -0.721736       -19.6394
  13   2.0000      -0.615109       -16.7380
  14   2.0000      -0.584661       -15.9094
  15   2.0000      -0.533426       -14.5153
  16   2.0000      -0.503051       -13.6887
  17   2.0000      -0.467132       -12.7113
  18   2.0000      -0.442902       -12.0520
  19   2.0000      -0.428705       -11.6657
  20   2.0000      -0.418105       -11.3772
  21   2.0000      -0.387408       -10.5419
  22   2.0000      -0.374912       -10.2019
  23   2.0000      -0.361940        -9.8489
  24   2.0000      -0.333326        -9.0703
  25   2.0000      -0.325480        -8.8568
  26   2.0000      -0.322339        -8.7713
  27   2.0000      -0.241084        -6.5602
  28   2.0000      -0.213069        -5.7979
  29   0.0000      -0.039080        -1.0634
  30   0.0000      -0.023798        -0.6476
  31   0.0000       0.034741         0.9453
  32   0.0000       0.065341         1.7780
  33   0.0000       0.109847         2.9891

MULLIKEN ATOMIC CHARGES
-----------------------
   0 C :   -0.146974
   1 C :   -0.154993
   2 C :   -0.228354
   3 C :    0.243028
   4 C :    0.278587
   5 C :   -0.288531
   6 O :   -0.393435
   7 F :   -0.235939
   8 H :    0.149569
   9 H :    0.151592
  10 H :    0.166324
  11 H :    0.141654
  12 H :    0.317472
Sum of atomic charges:   -0.0000000

LOEWDIN ATOMIC CHARGES
----------------------
   0 C :   -0.163652
   1 C :   -0.176582
   2 C :   -0.145832
   3 C :    0.233535
   4 C :    0.182865
   5 C :   -0.163374
   6 O :   -0.475403
   7 F :   -0.274765
   8 H :    0.169475
   9 H :    0.169557
  10 H :    0.183422
  11 H :    0.171017
  12 H :    0.289736

  Mayer bond orders larger than 0.100000
B(  0-C ,  1-C ) :   1.4466 B(  0-C ,  5-C ) :   1.4122 B(  0-C ,  8-H ) :   0.9370
B(  1-C ,  2-C ) :   1.3687 B(  1-C ,  9-H ) :   0.9476 B(  2-C ,  3-C ) :   1.4166
B(  2-C , 10-H ) :   0.9319 B(  3-C ,  4-C ) :   1.4576 B(  3-C ,  6-O ) :   0.1037
B(  3-C ,  7-F ) :   0.8812 B(  4-C ,  5-C ) :   1.2887 B(  4-C ,  6-O ) :   0.9291
B(  5-C , 11-H ) :   0.9432 B(  6-O , 12-H ) :   0.8784

Dispersion correction           -0.003890370
FINAL SINGLE POINT ENERGY      -406.637937092111

DIPOLE MOMENT
-------------

Method             : SCF
Type of density    : Electron Density
Multiplicity       :   1
Irrep              :   0
Energy             :  -406.6383803436505673 Eh
Relativity type    :
Basis              : AO
                                X                 Y                 Z
Electronic contribution:      6.121094154      -2.465420749       0.000813114
Nuclear contribution   :     -6.855298454       3.231141881      -0.001251550
                        -----------------------------------------
Total Dipole Moment    :     -0.734204300       0.765721132      -0.000438436
                        -----------------------------------------
Magnitude (a.u.)       :      1.060841646
Magnitude (Debye)      :      2.696445175

Rotational constants in cm-1:             0.109088             0.075384             0.044578
Rotational constants in MHz :          3270.380059          2259.940739          1336.426125

                             ****ORCA TERMINATED NORMALLY****
TOTAL RUN TIME: 0 days 0 hours 0 minutes 24 seconds 282 msec
