                         Program Version 6.0.0  -   RELEASE  -
|  1> ! r2scan-3c def2/J RI DEFGRID2 scfconv6 printgap
|  2> %output
|  3>     printlevel normal
|  4> end
|  5> %cpcm
|  6>     smd true
|  7>     smdsolvent "water"
|  8> end
|  9> * xyz 0 1
| 10> C -1.9500010273 0.6246550143 1.94982e-05
| 11> C -1.900014266 -0.75819457 4.6337e-06
| 12> C -0.6723457892 -1.3995481209 4.84525e-05
| 13> C 0.4800561694 -0.6436102759 9.3572e-05
| 14> C 0.4589540895 0.7508345577 0.0002013441
| 15> C -0.7857081756 1.3722794948 -3.78399e-05
| 16> O 1.6307466934 1.4292294977 -0.0001152453
| 17> F 1.689306702 -1.2839931113 -3.86532e-05
| 18> H -2.9022240616 1.1303353569 -0.0002357694
| 19> H -2.8068656482 -1.3395586352 5.04e-05
| 20> H -0.5921087238 -2.4742591424 0.0001665245
| 21> H -0.8357022471 2.4503597386 -0.0008796794
| 22> H 1.4723884713 2.3866018388 -0.0004718542
| 23> *
| 24>
| 25>                          ****END OF INPUT****

CARTESIAN COORDINATES (ANGSTROEM)
---------------------------------
  C     -1.950001    0.624655    0.000019
  C     -1.900014   -0.758195    0.000005
  C     -0.672346   -1.399548    0.000048
  C      0.480056   -0.643610    0.000094
  C      0.458954    0.750835    0.000201
  C     -0.785708    1.372279   -0.000038
  O      1.630747    1.429229   -0.000115
  F      1.689307   -1.283993   -0.000039
  H     -2.902224    1.130335   -0.000236
  H     -2.806866   -1.339559    0.000050
  H     -0.592109   -2.474259    0.000167
  H     -0.835702    2.450360   -0.000880
  H      1.472388    2.386602   -0.000472

 Total Charge           Charge          ....    0
 Multiplicity           Mult            ....    1
 Number of Electrons    NEL             ....   58
 Basis Dimension        Dim             ....  187

ORBITAL ENERGIES
----------------

  NO   OCC          E(Eh)            E(eV)
   0   2.0000     -24.499927      -666.6769
   1   2.0000     -18.989780      -516.7382
   2   2.0000     -10.118564      -275.3401
   3   2.0000     -10.107944      -275.0511
   4   2.0000     -10.042296      -273.2648
   5   2.0000     -10.039866      -273.1986
   6   2.0000     -10.037226      -273.1268
   7   2.0000     -10.035045      -273.0675
   8   2.0000      -1.183169       -32.1957
   9   2.0000      -1.034730       -28.1564
  10   2.0000      -0.832147       -22.6439
  11   2.0000      -0.724298       -19.7091
  12   2.0000      -0.718022       -19.5384
  13   2.0000      -0.608533       -16.5590
  14   2.0000      -0.581953       -15.8358
  15   2.0000      -0.526027       -14.3139
  16   2.0000      -0.502651       -13.6778
  17   2.0000      -0.464960       -12.6522
  18   2.0000      -0.437326       -11.9002
  19   2.0000      -0.435206       -11.8426
  20   2.0000      -0.407925       -11.1002
  21   2.0000      -0.385875       -10.5002
  22   2.0000      -0.375944       -10.2299
  23   2.0000      -0.360795        -9.8177
  24   2.0000      -0.328939        -8.9509
  25   2.0000      -0.321352        -8.7444
  26   2.0000      -0.320915        -8.7325
  27   2.0000      -0.239478        -6.5165
  28   2.0000      -0.212052        -5.7702
  29   0.0000      -0.036046        -0.9809
  30   0.0000      -0.021955        -0.5974
  31   0.0000       0.042903         1.1675
  32   0.0000       0.095416         2.5964
  33   0.0000       0.116333         3.1656

MULLIKEN ATOMIC CHARGES
-----------------------
   0 C :   -0.175273
   1 C :   -0.199832
   2 C :   -0.249967
   3 C :    0.225592
   4 C :    0.238677
   5 C :   -0.286733
   6 O :   -0.438858
   7 F :   -0.254075
   8 H :    0.184572
   9 H :    0.186314
  10 H :    0.200102
  11 H :    0.192562
  12 H :    0.376920
Sum of atomic charges:    0.0000000

LOEWDIN ATOMIC CHARGES
----------------------
   0 C :   -0.171001
   1 C :   -0.186158
   2 C :   -0.153600
   3 C :    0.217019
   4 C :    0.176083
   5 C :   -0.155646
   6 O :   -0.491827
   7 F :   -0.294069
   8 H :    0.180943
   9 H :    0.180467
  10 H :    0.194334
  11 H :    0.190650
  12 H :    0.312805

  Mayer bond orders larger than 0.100000
B(  0-C ,  1-C ) :   1.3985 B(  0-C ,  5-C ) :   1.3677 B(  0-C ,  8-H ) :   0.9477
B(  1-C ,  2-C ) :   1.3487 B(  1-C ,  9-H ) :   0.9529 B(  2-C ,  3-C ) :   1.3785
B(  2-C , 10-H ) :   0.9361 B(  3-C ,  4-C ) :   1.4269 B(  3-C ,  6-O ) :   0.1015
B(  3-C ,  7-F ) :   0.8639 B(  4-C ,  5-C ) :   1.2888 B(  4-C ,  6-O ) :   0.9441
B(  5-C , 11-H ) :   0.9521 B(  6-O , 12-H ) :   0.8459

Dispersion correction           -0.003890370
FINAL SINGLE POINT ENERGY      -406.647711869136

DIPOLE MOMENT
-------------

Method             : SCF
Type of density    : Electron Density
Multiplicity       :   1
Irrep              :   0
Energy             :  -406.6481551206752556 Eh
Relativity type    :
Basis              : AO
                                X                 Y                 Z
Electronic contribution:      5.838588335      -2.132909880       0.000646806
Nuclear contribution   :     -6.855298454       3.231141881      -0.001251550
                        -----------------------------------------
Total Dipole Moment    :     -1.016710119       1.098232001      -0.000604744
                        -----------------------------------------
Magnitude (a.u.)       :      1.496600601
Magnitude (Debye)      :      3.804056414

Rotational constants in cm-1:             0.109088             0.075384             0.044578
Rotational constants in MHz :          3270.380059          2259.940739          1336.426125

                             ****ORCA TERMINATED NORMALLY****
TOTAL RUN TIME: 0 days 0 hours 0 minutes 29 seconds 345 msec
