                         Program Version 6.0.0  -   RELEASE  -
|  1> ! r2scan-3c def2/J RI DEFGRID2 scfconv6 printgap
|  2> %output
|  3>     printlevel normal
|  4> end
|  5> * xyz 0 1
|  6> C -4.3675168728 -1.3576739828 -0.3187249271
|  7> N -3.3390004434 -0.6818171108 0.4395726353
|  8> C -2.2033880097 -0.2388149784 -0.1057267543
|  9> O -1.8737643427 -0.3553403212 -1.2718362173
| 10> O -1.4417574136 0.382931852 0.8357046565
| 11> C -0.1922259892 0.8763409919 0.4366940369
| 12> C -0.0412681233 2.2279824486 0.284907011
| 13> C 1.2067322188 2.7586699379 -0.0719791091
| 14> C 2.2732147666 1.9316739926 -0.2830551374
| 15> C 2.1441588325 0.5348274158 -0.1349970757
| 16> C 0.8891627941 -0.016152733 0.2393025587
| 17> C 0.773688601 -1.411703866 0.4034151379
| 18> C 1.8480909571 -2.2292454969 0.1898460543
| 19> C 3.0862087303 -1.6895927952 -0.1906075453
| 20> C 3.2311564472 -0.339497524 -0.3456951209
| 21> H -5.2936405589 -0.7846166382 -0.2940039624
| 22> H -4.5423155987 -2.3522071176 0.0897369847
| 23> H -4.0212473338 -1.4428769785 -1.3468330104
| 24> H -3.4942880433 -0.5028503361 1.4201740357
| 25> H -0.8887527796 2.8769660185 0.4417387358
| 26> H 1.3069781071 3.8265079548 -0.1854271784
| 27> H 3.2333053485 2.3345409104 -0.567513393
| 28> H -0.1785616579 -1.8273370929 0.6993388022
| 29> H 1.748609291 -3.2966455018 0.3148048622
| 30> H 3.9225464158 -2.3512302085 -0.3564381434
| 31> H 4.1825983884 0.0821896228 -0.6330848818
| 32> *
| 33>
| 34>                          ****END OF INPUT****

CARTESIAN COORDINATES (ANGSTROEM)
---------------------------------
  C     -4.367517   -1.357674   -0.318725
  N     -3.339000   -0.681817    0.439573
  C     -2.203388   -0.238815   -0.105727
  O     -1.873764   -0.355340   -1.271836
  O     -1.441757    0.382932    0.835705
  C     -0.192226    0.876341    0.436694
  C     -0.041268    2.227982    0.284907
  C      1.206732    2.758670   -0.071979
  C      2.273215    1.931674   -0.283055
  C      2.144159    0.534827   -0.134997
  C      0.889163   -0.016153    0.239303
  C      0.773689   -1.411704    0.403415
  C      1.848091   -2.229245    0.189846
  C      3.086209   -1.689593   -0.190608
  C      3.231156   -0.339498   -0.345695
  H     -5.293641   -0.784617   -0.294004
  H     -4.542316   -2.352207    0.089737
  H     -4.021247   -1.442877   -1.346833
  H     -3.494288   -0.502850    1.420174
  H     -0.888753    2.876966    0.441739
  H      1.306978    3.826508   -0.185427
  H      3.233305    2.334541   -0.567513
  H     -0.178562   -1.827337    0.699339
  H      1.748609   -3.296646    0.314805
  H      3.922546   -2.351230   -0.356438
  H      4.182598    0.082190   -0.633085

 Total Charge           Charge          ....    0
 Multiplicity           Mult            ....    1
 Number of Electrons    NEL             ....  106
 Basis Dimension        Dim             ....  355

ORBITAL ENERGIES
----------------

  NO   OCC          E(Eh)            E(eV)
   0   2.0000     -19.001617      -517.0603
   1   2.0000     -18.915231      -514.7096
   2   2.0000     -14.195990      -386.2925
   3   2.0000     -10.173473      -276.8343
   4   2.0000     -10.100289      -274.8428
   5   2.0000     -10.071103      -274.0486
   6   2.0000     -10.048716      -273.4395
   7   2.0000     -10.048081      -273.4222
   8   2.0000     -10.039635      -273.1924
   9   2.0000     -10.038478      -273.1609
  10   2.0000     -10.037401      -273.1316
  11   2.0000     -10.037096      -273.1233
  12   2.0000     -10.036308      -273.1018
  13   2.0000     -10.036299      -273.1016
  14   2.0000     -10.035891      -273.0905
  15   2.0000      -1.077717       -29.3262
  16   2.0000      -0.978614       -26.6294
  17   2.0000      -0.905525       -24.6406
  18   2.0000      -0.847020       -23.0486
  19   2.0000      -0.795856       -21.6563
  20   2.0000      -0.747127       -20.3304
  21   2.0000      -0.716790       -19.5048
  22   2.0000      -0.706546       -19.2261
  23   2.0000      -0.678746       -18.4696
  24   2.0000      -0.607601       -16.5337
  25   2.0000      -0.591464       -16.0946
  26   2.0000      -0.586362       -15.9557
  27   2.0000      -0.557110       -15.1597
  28   2.0000      -0.529755       -14.4154
  29   2.0000      -0.490451       -13.3458
  30   2.0000      -0.473482       -12.8841
  31   2.0000      -0.465689       -12.6721
  32   2.0000      -0.455278       -12.3888
  33   2.0000      -0.442839       -12.0503
  34   2.0000      -0.420335       -11.4379
  35   2.0000      -0.418218       -11.3803
  36   2.0000      -0.400600       -10.9009
  37   2.0000      -0.397610       -10.8195
  38   2.0000      -0.389961       -10.6114
  39   2.0000      -0.381670       -10.3858
  40   2.0000      -0.370279       -10.0758
  41   2.0000      -0.368819       -10.0361
  42   2.0000      -0.358052        -9.7431
  43   2.0000      -0.347890        -9.4666
  44   2.0000      -0.317480        -8.6391
  45   2.0000      -0.310646        -8.4531
  46   2.0000      -0.306656        -8.3445
  47   2.0000      -0.279723        -7.6116
  48   2.0000      -0.260140        -7.0788
  49   2.0000      -0.243161        -6.6167
  50   2.0000      -0.237194        -6.4544
  51   2.0000      -0.233121        -6.3435
  52   2.0000      -0.201432        -5.4812
  53   0.0000      -0.067798        -1.8449
  54   0.0000      -0.037836        -1.0296
  55   0.0000      -0.000033        -0.0009
  56   0.0000       0.026764         0.7283
  57   0.0000       0.054905         1.4941

MULLIKEN ATOMIC CHARGES
-----------------------
   0 C :   -0.391981
   1 N :   -0.156006
   2 C :    0.329250
   3 O :   -0.472165
   4 O :   -0.193092
   5 C :    0.276529
   6 C :   -0.251609
   7 C :   -0.131676
   8 C :   -0.267409
   9 C :    0.190344
  10 C :    0.051757
  11 C :   -0.222043
  12 C :   -0.165041
  13 C :   -0.143335
  14 C :   -0.220153
  15 H :    0.144559
  16 H :    0.144550
  17 H :    0.198303
  18 H :    0.251068
  19 H :    0.156640
  20 H :    0.146781
  21 H :    0.144158
  22 H :    0.147195
  23 H :    0.144952
  24 H :    0.145013
  25 H :    0.143412
Sum of atomic charges:    0.0000000

LOEWDIN ATOMIC CHARGES
----------------------
   0 C :   -0.107594
   1 N :   -0.607104
   2 C :    0.450034
   3 O :   -0.405309
   4 O :   -0.515000
   5 C :    0.221957
   6 C :   -0.118795
   7 C :   -0.155247
   8 C :   -0.146239
   9 C :   -0.051289
  10 C :   -0.017351
  11 C :   -0.119023
  12 C :   -0.159549
  13 C :   -0.160524
  14 C :   -0.142152
  15 H :    0.169507
  16 H :    0.169603
  17 H :    0.205958
  18 H :    0.278495
  19 H :    0.180807
  20 H :    0.169549
  21 H :    0.171040
  22 H :    0.181363
  23 H :    0.168131
  24 H :    0.167812
  25 H :    0.170919

  Mayer bond orders larger than 0.100000
B(  0-C ,  1-N ) :   0.8979 B(  0-C , 15-H ) :   0.9618 B(  0-C , 16-H ) :   0.9619
B(  0-C , 17-H ) :   0.9582 B(  1-N ,  2-C ) :   1.2679 B(  1-N , 18-H ) :   0.9108
B(  2-C ,  3-O ) :   1.8353 B(  2-C ,  4-O ) :   1.0594 B(  4-O ,  5-C ) :   0.9529
B(  5-C ,  6-C ) :   1.5181 B(  5-C , 10-C ) :   1.2861 B(  6-C ,  7-C ) :   1.2227
B(  6-C , 19-H ) :   0.9295 B(  7-C ,  8-C ) :   1.5094 B(  7-C , 20-H ) :   0.9520
B(  8-C ,  9-C ) :   1.1755 B(  8-C , 21-H ) :   0.9446 B(  9-C , 10-C ) :   1.4001
B(  9-C , 14-C ) :   1.1818 B( 10-C , 11-C ) :   1.2692 B( 11-C , 12-C ) :   1.5107
B( 11-C , 22-H ) :   0.9467 B( 12-C , 13-C ) :   1.2624 B( 12-C , 23-H ) :   0.9488
B( 13-C , 14-C ) :   1.5148 B( 13-C , 24-H ) :   0.9491 B( 14-C , 25-H ) :   0.9503

Dispersion correction           -0.010785316
FINAL SINGLE POINT ENERGY      -668.978242347133

DIPOLE MOMENT
-------------

Method             : SCF
Type of density    : Electron Density
Multiplicity       :   1
Irrep              :   0
Energy             :  -668.9822367091799151 Eh
Relativity type    :
Basis              : AO
                                X                 Y                 Z
Electronic contribution:      3.252167939       3.069116940       1.160759216
Nuclear contribution   :     -3.843359759      -3.228354816      -0.395738481
                        -----------------------------------------
Total Dipole Moment    :     -0.591191820      -0.159237875       0.765020735
                        -----------------------------------------
Magnitude (a.u.)       :      0.979857741
Magnitude (Debye)      :      2.490600447

Rotational constants in cm-1:             0.036507             0.014512             0.011152
Rotational constants in MHz :          1094.464524           435.069256           334.328110

                             ****ORCA TERMINATED NORMALLY****
TOTAL RUN TIME: 0 days 0 hours 0 minutes 44 seconds 364 msec
