                         Program Version 6.0.0  -   RELEASE  -
|  1> ! r2scan-3c def2/J RI DEFGRID2 scfconv6 printgap
|  2> %output
|  3>     printlevel normal
|  4> end
|  5> %cpcm
|  6>     smd true
|  7>     smdsolvent "water"
|  8> end
|  9> * xyz 0 1
| 10> C -4.3675168728 -1.3576739828 -0.3187249271
| 11> N -3.3390004434 -0.6818171108 0.4395726353
| 12> C -2.2033880097 -0.2388149784 -0.1057267543
| 13> O -1.8737643427 -0.3553403212 -1.2718362173
| 14> O -1.4417574136 0.382931852 0.8357046565
| 15> C -0.1922259892 0.8763409919 0.4366940369
| 16> C -0.0412681233 2.2279824486 0.284907011
| 17> C 1.2067322188 2.7586699379 -0.0719791091
| 18> C 2.2732147666 1.9316739926 -0.2830551374
| 19> C 2.1441588325 0.5348274158 -0.1349970757
| 20> C 0.8891627941 -0.016152733 0.2393025587
| 21> C 0.773688601 -1.411703866 0.4034151379
| 22> C 1.8480909571 -2.2292454969 0.1898460543
| 23> C 3.0862087303 -1.6895927952 -0.1906075453
| 24> C 3.2311564472 -0.339497524 -0.3456951209
| 25> H -5.2936405589 -0.7846166382 -0.2940039624
| 26> H -4.5423155987 -2.3522071176 0.0897369847
| 27> H -4.0212473338 -1.4428769785 -1.3468330104
| 28> H -3.4942880433 -0.5028503361 1.4201740357
| 29> H -0.8887527796 2.8769660185 0.4417387358
| 30> H 1.3069781071 3.8265079548 -0.1854271784
| 31> H 3.2333053485 2.3345409104 -0.567513393
| 32> H -0.1785616579 -1.8273370929 0.6993388022
| 33> H 1.748609291 -3.2966455018 0.3148048622
| 34> H 3.9225464158 -2.3512302085 -0.3564381434
| 35> H 4.1825983884 0.0821896228 -0.6330848818
| 36> *
| 37>
| 38>                          ****END OF INPUT****

CARTESIAN COORDINATES (ANGSTROEM)
---------------------------------
  C     -4.367517   -1.357674   -0.318725
  N     -3.339000   -0.681817    0.439573
  C     -2.203388   -0.238815   -0.105727
  O     -1.873764   -0.355340   -1.271836
  O     -1.441757    0.382932    0.835705
  C     -0.192226    0.876341    0.436694
  C     -0.041268    2.227982    0.284907
  C      1.206732    2.758670   -0.071979
  C      2.273215    1.931674   -0.283055
  C      2.144159    0.534827   -0.134997
  C      0.889163   -0.016153    0.239303
  C      0.773689   -1.411704    0.403415
  C      1.848091   -2.229245    0.189846
  C      3.086209   -1.689593   -0.190608
  C      3.231156   -0.339498   -0.345695
  H     -5.293641   -0.784617   -0.294004
  H     -4.542316   -2.352207    0.089737
  H     -4.021247   -1.442877   -1.346833
  H     -3.494288   -0.502850    1.420174
  H     -0.888753    2.876966    0.441739
  H      1.306978    3.826508   -0.185427
  H      3.233305    2.334541   -0.567513
  H     -0.178562   -1.827337    0.699339
  H      1.748609   -3.296646    0.314805
  H      3.922546   -2.351230   -0.356438
  H      4.182598    0.082190   -0.633085

 Total Charge           Charge          ....    0
 Multiplicity           Mult            ....    1
 Number of Electrons    NEL             ....  106
 Basis Dimension        Dim             ....  355

ORBITAL ENERGIES
----------------

  NO   OCC          E(Eh)            E(eV)
   0   2.0000     -19.010159      -517.2927
   1   2.0000     -18.935049      -515.2489
   2   2.0000     -14.191794      -386.1783
   3   2.0000     -10.185780      -277.1692
   4   2.0000     -10.106229      -275.0045
   5   2.0000     -10.056696      -273.6566
   6   2.0000     -10.055075      -273.6125
   7   2.0000     -10.053039      -273.5571
   8   2.0000     -10.041828      -273.2520
   9   2.0000     -10.040927      -273.2275
  10   2.0000     -10.040707      -273.2215
  11   2.0000     -10.038812      -273.1700
  12   2.0000     -10.038373      -273.1580
  13   2.0000     -10.038264      -273.1550
  14   2.0000     -10.037367      -273.1306
  15   2.0000      -1.088227       -29.6122
  16   2.0000      -0.995327       -27.0842
  17   2.0000      -0.903876       -24.5957
  18   2.0000      -0.852661       -23.2021
  19   2.0000      -0.800084       -21.7714
  20   2.0000      -0.751262       -20.4429
  21   2.0000      -0.720735       -19.6122
  22   2.0000      -0.706816       -19.2334
  23   2.0000      -0.675214       -18.3735
  24   2.0000      -0.608438       -16.5564
  25   2.0000      -0.594490       -16.1769
  26   2.0000      -0.587861       -15.9965
  27   2.0000      -0.553749       -15.0683
  28   2.0000      -0.532523       -14.4907
  29   2.0000      -0.491995       -13.3879
  30   2.0000      -0.475438       -12.9373
  31   2.0000      -0.472148       -12.8478
  32   2.0000      -0.456262       -12.4155
  33   2.0000      -0.443941       -12.0802
  34   2.0000      -0.421534       -11.4705
  35   2.0000      -0.418415       -11.3856
  36   2.0000      -0.405161       -11.0250
  37   2.0000      -0.398478       -10.8431
  38   2.0000      -0.396876       -10.7996
  39   2.0000      -0.381741       -10.3877
  40   2.0000      -0.370336       -10.0774
  41   2.0000      -0.368528       -10.0282
  42   2.0000      -0.358440        -9.7537
  43   2.0000      -0.348418        -9.4809
  44   2.0000      -0.320369        -8.7177
  45   2.0000      -0.315854        -8.5948
  46   2.0000      -0.308896        -8.4055
  47   2.0000      -0.290922        -7.9164
  48   2.0000      -0.268779        -7.3138
  49   2.0000      -0.265909        -7.2358
  50   2.0000      -0.241293        -6.5659
  51   2.0000      -0.237284        -6.4568
  52   2.0000      -0.208251        -5.6668
  53   0.0000      -0.073966        -2.0127
  54   0.0000      -0.044195        -1.2026
  55   0.0000      -0.006664        -0.1813
  56   0.0000       0.016441         0.4474
  57   0.0000       0.056729         1.5437

MULLIKEN ATOMIC CHARGES
-----------------------
   0 C :   -0.406799
   1 N :   -0.178398
   2 C :    0.366024
   3 O :   -0.567419
   4 O :   -0.189163
   5 C :    0.239596
   6 C :   -0.251052
   7 C :   -0.170516
   8 C :   -0.272523
   9 C :    0.132337
  10 C :    0.031003
  11 C :   -0.255218
  12 C :   -0.193526
  13 C :   -0.172574
  14 C :   -0.228298
  15 H :    0.170794
  16 H :    0.170914
  17 H :    0.186839
  18 H :    0.307392
  19 H :    0.192637
  20 H :    0.183421
  21 H :    0.181322
  22 H :    0.182081
  23 H :    0.180224
  24 H :    0.180123
  25 H :    0.180779
Sum of atomic charges:    0.0000000

LOEWDIN ATOMIC CHARGES
----------------------
   0 C :   -0.103642
   1 N :   -0.577863
   2 C :    0.453084
   3 O :   -0.481087
   4 O :   -0.514801
   5 C :    0.203764
   6 C :   -0.120836
   7 C :   -0.159165
   8 C :   -0.147890
   9 C :   -0.064524
  10 C :   -0.035169
  11 C :   -0.136931
  12 C :   -0.162494
  13 C :   -0.165572
  14 C :   -0.144748
  15 H :    0.181265
  16 H :    0.181596
  17 H :    0.200075
  18 H :    0.295555
  19 H :    0.193977
  20 H :    0.182889
  21 H :    0.184909
  22 H :    0.191751
  23 H :    0.180846
  24 H :    0.180289
  25 H :    0.184722

  Mayer bond orders larger than 0.100000
B(  0-C ,  1-N ) :   0.8881 B(  0-C , 15-H ) :   0.9541 B(  0-C , 16-H ) :   0.9538
B(  0-C , 17-H ) :   0.9594 B(  1-N ,  2-C ) :   1.3278 B(  1-N , 18-H ) :   0.8886
B(  2-C ,  3-O ) :   1.7504 B(  2-C ,  4-O ) :   1.0640 B(  4-O ,  5-C ) :   0.9332
B(  5-C ,  6-C ) :   1.5037 B(  5-C , 10-C ) :   1.2482 B(  6-C ,  7-C ) :   1.1982
B(  6-C , 19-H ) :   0.9443 B(  7-C ,  8-C ) :   1.4699 B(  7-C , 20-H ) :   0.9647
B(  8-C ,  9-C ) :   1.1812 B(  8-C , 21-H ) :   0.9556 B(  9-C , 10-C ) :   1.3189
B(  9-C , 14-C ) :   1.1893 B( 10-C , 11-C ) :   1.2265 B( 11-C , 12-C ) :   1.4840
B( 11-C , 22-H ) :   0.9632 B( 12-C , 13-C ) :   1.2295 B( 12-C , 23-H ) :   0.9598
B( 13-C , 14-C ) :   1.4748 B( 13-C , 24-H ) :   0.9605 B( 14-C , 25-H ) :   0.9570

Dispersion correction           -0.010785316
FINAL SINGLE POINT ENERGY      -668.993642236692

DIPOLE MOMENT
-------------

Method             : SCF
Type of density    : Electron Density
Multiplicity       :   1
Irrep              :   0
Energy             :  -668.9976365987391773 Eh
Relativity type    :
Basis              : AO
                                X                 Y                 Z
Electronic contribution:      3.121780990       3.060946646       1.630298591
Nuclear contribution   :     -3.843359759      -3.228354816      -0.395738481
                        -----------------------------------------
Total Dipole Moment    :     -0.721578769      -0.167408169       1.234560110
                        -----------------------------------------
Magnitude (a.u.)       :      1.439736115
Magnitude (Debye)      :      3.659518377

Rotational constants in cm-1:             0.036507             0.014512             0.011152
Rotational constants in MHz :          1094.464524           435.069256           334.328110

                             ****ORCA TERMINATED NORMALLY****
TOTAL RUN TIME: 0 days 0 hours 1 minutes 4 seconds 835 msec
