                         Program Version 6.0.0  -   RELEASE  -
|  1> ! pbe def2-sv(p) def2/J RI DEFGRID1 loosescf d4 GCP(DFT/SV(P)) printgap
|  2> %output
|  3>     printlevel normal
|  4> end
|  5> * xyz 0 1
|  6> C -2.5267829875 -0.9539980982 0.3386604749
|  7> C -1.1006449543 -0.4806452042 0.6366158685
|  8> H -0.9637691168 -0.4171955013 1.7305316383
|  9> C -0.8314841732 0.8982050593 0.0133102853
| 10> H -1.0601952489 0.8426268471 -1.0557730095
| 11> C 0.6422230244 1.2751097348 0.2032308138
| 12> H 0.839104831 1.4208470292 1.2812974195
| 13> C 1.570910007 0.1607261937 -0.2922784889
| 14> H 1.4886031553 0.0780847862 -1.3849483264
| 15> C 1.1504942755 -1.185486359 0.3141640154
| 16> H 1.3669032161 -1.150919538 1.4047113986
| 17> O -0.2171169948 -1.452871244 0.1158836463
| 18> O 1.8635991346 -2.1893376482 -0.3034621588
| 19> O 2.8965193432 0.4044905014 0.0966757144
| 20> O 0.9678367418 2.4530352682 -0.4957736054
| 21> O -1.6672757623 1.8989388571 0.5368031423
| 22> O -2.7397827754 -0.9290884733 -1.0518619773
| 23> H -3.2248541891 -0.2787733437 0.8488060909
| 24> H -2.6337111526 -1.9704693813 0.7334973924
| 25> H 1.4709691009 -3.0481941548 -0.0779027994
| 26> H 3.1749538822 1.2488765763 -0.2909119563
| 27> H 0.2285666638 3.0757463074 -0.414640875
| 28> H -1.5416993323 1.9646614933 1.4959071214
| 29> H -3.6139132791 -1.2953576127 -1.245158462
| 30> *
| 31>
| 32>                          ****END OF INPUT****

CARTESIAN COORDINATES (ANGSTROEM)
---------------------------------
  C     -2.526783   -0.953998    0.338660
  C     -1.100645   -0.480645    0.636616
  H     -0.963769   -0.417196    1.730532
  C     -0.831484    0.898205    0.013310
  H     -1.060195    0.842627   -1.055773
  C      0.642223    1.275110    0.203231
  H      0.839105    1.420847    1.281297
  C      1.570910    0.160726   -0.292278
  H      1.488603    0.078085   -1.384948
  C      1.150494   -1.185486    0.314164
  H      1.366903   -1.150920    1.404711
  O     -0.217117   -1.452871    0.115884
  O      1.863599   -2.189338   -0.303462
  O      2.896519    0.404491    0.096676
  O      0.967837    2.453035   -0.495774
  O     -1.667276    1.898939    0.536803
  O     -2.739783   -0.929088   -1.051862
  H     -3.224854   -0.278773    0.848806
  H     -2.633711   -1.970469    0.733497
  H      1.470969   -3.048194   -0.077903
  H      3.174954    1.248877   -0.290912
  H      0.228567    3.075746   -0.414641
  H     -1.541699    1.964661    1.495907
  H     -3.613913   -1.295358   -1.245158

 Total Charge           Charge          ....    0
 Multiplicity           Mult            ....    1
 Number of Electrons    NEL             ....   96
 Basis Dimension        Dim             ....  192

ORBITAL ENERGIES
----------------

  NO   OCC          E(Eh)            E(eV)
   0   2.0000     -18.769009      -510.7307
   1   2.0000     -18.768418      -510.7146
   2   2.0000     -18.753737      -510.3151
   3   2.0000     -18.750734      -510.2334
   4   2.0000     -18.750535      -510.2280
   5   2.0000     -18.740381      -509.9517
   6   2.0000      -9.982227      -271.6302
   7   2.0000      -9.951775      -270.8016
   8   2.0000      -9.941802      -270.5302
   9   2.0000      -9.939284      -270.4617
  10   2.0000      -9.938573      -270.4423
  11   2.0000      -9.932941      -270.2891
  12   2.0000      -0.980871       -26.6909
  13   2.0000      -0.951145       -25.8820
  14   2.0000      -0.932945       -25.3867
  15   2.0000      -0.926777       -25.2189
  16   2.0000      -0.912537       -24.8314
  17   2.0000      -0.906423       -24.6650
  18   2.0000      -0.703049       -19.1309
  19   2.0000      -0.691658       -18.8210
  20   2.0000      -0.620553       -16.8861
  21   2.0000      -0.582436       -15.8489
  22   2.0000      -0.554580       -15.0909
  23   2.0000      -0.530777       -14.4432
  24   2.0000      -0.489565       -13.3217
  25   2.0000      -0.487331       -13.2609
  26   2.0000      -0.483733       -13.1630
  27   2.0000      -0.471376       -12.8268
  28   2.0000      -0.446451       -12.1485
  29   2.0000      -0.426526       -11.6064
  30   2.0000      -0.415493       -11.3061
  31   2.0000      -0.397518       -10.8170
  32   2.0000      -0.386387       -10.5141
  33   2.0000      -0.379612       -10.3298
  34   2.0000      -0.365949        -9.9580
  35   2.0000      -0.347447        -9.4545
  36   2.0000      -0.315788        -8.5930
  37   2.0000      -0.309525        -8.4226
  38   2.0000      -0.299653        -8.1540
  39   2.0000      -0.292988        -7.9726
  40   2.0000      -0.286054        -7.7839
  41   2.0000      -0.274059        -7.4575
  42   2.0000      -0.253068        -6.8863
  43   2.0000      -0.236601        -6.4382
  44   2.0000      -0.227330        -6.1860
  45   2.0000      -0.222147        -6.0449
  46   2.0000      -0.207938        -5.6583
  47   2.0000      -0.203912        -5.5487
  48   0.0000       0.008393         0.2284
  49   0.0000       0.022466         0.6113
  50   0.0000       0.034286         0.9330
  51   0.0000       0.040998         1.1156
  52   0.0000       0.063613         1.7310

MULLIKEN ATOMIC CHARGES
-----------------------
   0 C :    0.094061
   1 C :    0.001642
   2 H :    0.037323
   3 C :    0.028414
   4 H :    0.090311
   5 C :    0.065504
   6 H :    0.029810
   7 C :    0.058924
   8 H :    0.066269
   9 C :    0.202051
  10 H :    0.032053
  11 O :   -0.311039
  12 O :   -0.370702
  13 O :   -0.413095
  14 O :   -0.423244
  15 O :   -0.417949
  16 O :   -0.431595
  17 H :    0.063835
  18 H :    0.078683
  19 H :    0.303307
  20 H :    0.308926
  21 H :    0.304500
  22 H :    0.297623
  23 H :    0.304387
Sum of atomic charges:   -0.0000000

LOEWDIN ATOMIC CHARGES
----------------------
   0 C :   -0.121700
   1 C :   -0.067785
   2 H :    0.095448
   3 C :   -0.086450
   4 H :    0.129167
   5 C :   -0.085286
   6 H :    0.091328
   7 C :   -0.076602
   8 H :    0.113682
   9 C :    0.010947
  10 H :    0.077584
  11 O :   -0.147220
  12 O :   -0.288147
  13 O :   -0.314399
  14 O :   -0.328292
  15 O :   -0.305824
  16 O :   -0.334495
  17 H :    0.098941
  18 H :    0.102813
  19 H :    0.288310
  20 H :    0.290326
  21 H :    0.284387
  22 H :    0.283018
  23 H :    0.290249

  Mayer bond orders larger than 0.100000
B(  0-C ,  1-C ) :   1.0536 B(  0-C , 16-O ) :   1.0962 B(  0-C , 17-H ) :   0.9038
B(  0-C , 18-H ) :   0.9130 B(  1-C ,  2-H ) :   0.8735 B(  1-C ,  3-C ) :   1.0038
B(  1-C , 11-O ) :   0.9921 B(  3-C ,  4-H ) :   0.8538 B(  3-C ,  5-C ) :   1.0211
B(  3-C , 15-O ) :   0.9956 B(  5-C ,  6-H ) :   0.8645 B(  5-C ,  7-C ) :   1.0097
B(  5-C , 14-O ) :   1.0921 B(  7-C ,  8-H ) :   0.8672 B(  7-C ,  9-C ) :   0.9904
B(  7-C , 13-O ) :   1.0773 B(  9-C , 10-H ) :   0.8835 B(  9-C , 11-O ) :   1.0085
B(  9-C , 12-O ) :   1.1933 B( 12-O , 19-H ) :   0.8408 B( 13-O , 20-H ) :   0.8414
B( 14-O , 21-H ) :   0.8311 B( 15-O , 22-H ) :   0.8450 B( 16-O , 23-H ) :   0.8489

Dispersion correction           -0.023847608
FINAL SINGLE POINT ENERGY      -685.694497045807

DIPOLE MOMENT
-------------

Method             : SCF
Type of density    : Electron Density
Multiplicity       :   1
Irrep              :   0
Energy             :  -685.8233644686798698 Eh
Relativity type    :
Basis              : AO
                                X                 Y                 Z
Electronic contribution:      2.850258698      -0.436321511      -1.909953767
Nuclear contribution   :     -4.176369228       0.443620733       2.822032894
                        -----------------------------------------
Total Dipole Moment    :     -1.326110530       0.007299222       0.912079127
                        -----------------------------------------
Magnitude (a.u.)       :      1.609506369
Magnitude (Debye)      :      4.091040069

Rotational constants in cm-1:             0.039573             0.026950             0.017779
Rotational constants in MHz :          1186.355981           807.926257           532.998425

                             ****ORCA TERMINATED NORMALLY****
TOTAL RUN TIME: 0 days 0 hours 0 minutes 11 seconds 917 msec
