                         Program Version 6.0.0  -   RELEASE  -
|  1> ! r2scan-3c def2/J RI DEFGRID2 scfconv6 printgap
|  2> %output
|  3>     printlevel normal
|  4> end
|  5> * xyz 0 1
|  6> C -1.4751016376 0.7739305637 0.0006499365
|  7> C -1.3315302334 -0.6574447873 -0.5070492518
|  8> C -0.1811954203 -1.201805248 0.3372997574
|  9> C 0.7953537688 -0.0166543355 0.4888246822
| 10> C -0.0272207092 1.241778909 0.150440951
| 11> O 1.8864272287 -0.0771066127 -0.4125321207
| 12> H -1.9706802763 0.7728213494 0.9726876678
| 13> H -2.0429181029 1.4081599904 -0.6772241048
| 14> H -2.243602074 -1.2408886977 -0.3951042507
| 15> H -1.0458006453 -0.6484803136 -1.5595916525
| 16> H -0.5478794465 -1.4978562685 1.3203635972
| 17> H 0.3036219947 -2.0595728284 -0.1262932962
| 18> H 1.1865490889 0.0306867767 1.5154282541
| 19> H 0.0867016509 2.0176843449 0.9043170954
| 20> H 0.3508208913 1.6257008152 -0.7977884194
| 21> H 2.4298280679 -0.8503025342 -0.2111636948
| 22> *
| 23>
| 24>                          ****END OF INPUT****

CARTESIAN COORDINATES (ANGSTROEM)
---------------------------------
  C     -1.475102    0.773931    0.000650
  C     -1.331530   -0.657445   -0.507049
  C     -0.181195   -1.201805    0.337300
  C      0.795354   -0.016654    0.488825
  C     -0.027221    1.241779    0.150441
  O      1.886427   -0.077107   -0.412532
  H     -1.970680    0.772821    0.972688
  H     -2.042918    1.408160   -0.677224
  H     -2.243602   -1.240889   -0.395104
  H     -1.045801   -0.648480   -1.559592
  H     -0.547879   -1.497856    1.320364
  H      0.303622   -2.059573   -0.126293
  H      1.186549    0.030687    1.515428
  H      0.086702    2.017684    0.904317
  H      0.350821    1.625701   -0.797788
  H      2.429828   -0.850303   -0.211164

 Total Charge           Charge          ....    0
 Multiplicity           Mult            ....    1
 Number of Electrons    NEL             ....   48
 Basis Dimension        Dim             ....  169

ORBITAL ENERGIES
----------------

  NO   OCC          E(Eh)            E(eV)
   0   2.0000     -18.943178      -515.4701
   1   2.0000     -10.076226      -274.1881
   2   2.0000     -10.022179      -272.7173
   3   2.0000     -10.021696      -272.7042
   4   2.0000     -10.021463      -272.6979
   5   2.0000     -10.018592      -272.6197
   6   2.0000      -0.981392       -26.7050
   7   2.0000      -0.795104       -21.6359
   8   2.0000      -0.677551       -18.4371
   9   2.0000      -0.663432       -18.0529
  10   2.0000      -0.545121       -14.8335
  11   2.0000      -0.528486       -14.3808
  12   2.0000      -0.473048       -12.8723
  13   2.0000      -0.452373       -12.3097
  14   2.0000      -0.434194       -11.8150
  15   2.0000      -0.387648       -10.5484
  16   2.0000      -0.350815        -9.5462
  17   2.0000      -0.337812        -9.1923
  18   2.0000      -0.321763        -8.7556
  19   2.0000      -0.306289        -8.3346
  20   2.0000      -0.304135        -8.2759
  21   2.0000      -0.293420        -7.9844
  22   2.0000      -0.275274        -7.4906
  23   2.0000      -0.229736        -6.2514
  24   0.0000       0.062253         1.6940
  25   0.0000       0.092264         2.5106
  26   0.0000       0.105639         2.8746
  27   0.0000       0.129305         3.5186
  28   0.0000       0.135707         3.6928

MULLIKEN ATOMIC CHARGES
-----------------------
   0 C :   -0.271603
   1 C :   -0.286036
   2 C :   -0.316463
   3 C :    0.028727
   4 C :   -0.374283
   5 O :   -0.426005
   6 H :    0.147781
   7 H :    0.151547
   8 H :    0.150507
   9 H :    0.158238
  10 H :    0.148618
  11 H :    0.142418
  12 H :    0.138855
  13 H :    0.152473
  14 H :    0.173626
  15 H :    0.281603
Sum of atomic charges:   -0.0000000

LOEWDIN ATOMIC CHARGES
----------------------
   0 C :   -0.300151
   1 C :   -0.301101
   2 C :   -0.290238
   3 C :    0.065742
   4 C :   -0.269575
   5 O :   -0.620686
   6 H :    0.153962
   7 H :    0.157260
   8 H :    0.155418
   9 H :    0.159486
  10 H :    0.158895
  11 H :    0.163861
  12 H :    0.160809
  13 H :    0.159264
  14 H :    0.180992
  15 H :    0.266062

  Mayer bond orders larger than 0.100000
B(  0-C ,  1-C ) :   0.8974 B(  0-C ,  4-C ) :   0.9167 B(  0-C ,  6-H ) :   0.9844
B(  0-C ,  7-H ) :   0.9535 B(  1-C ,  2-C ) :   0.9143 B(  1-C ,  8-H ) :   0.9533
B(  1-C ,  9-H ) :   0.9884 B(  2-C ,  3-C ) :   0.9493 B(  2-C , 10-H ) :   0.9791
B(  2-C , 11-H ) :   0.9578 B(  3-C ,  4-C ) :   0.9648 B(  3-C ,  5-O ) :   0.9323
B(  3-C , 12-H ) :   0.9595 B(  4-C , 13-H ) :   0.9578 B(  4-C , 14-H ) :   0.9909
B(  5-O , 15-H ) :   0.9040

Dispersion correction           -0.003959885
FINAL SINGLE POINT ENERGY      -271.697897717774

DIPOLE MOMENT
-------------

Method             : SCF
Type of density    : Electron Density
Multiplicity       :   1
Irrep              :   0
Energy             :  -271.7015939223340979 Eh
Relativity type    :
Basis              : AO
                                X                 Y                 Z
Electronic contribution:      3.109343272       0.029789446      -0.502550370
Nuclear contribution   :     -3.249367526      -0.415857308       0.881039508
                        -----------------------------------------
Total Dipole Moment    :     -0.140024254      -0.386067862       0.378489139
                        -----------------------------------------
Magnitude (a.u.)       :      0.558488329
Magnitude (Debye)      :      1.419564519

Rotational constants in cm-1:             0.195030             0.108871             0.083594
Rotational constants in MHz :          5846.839718          3263.862387          2506.076817

                             ****ORCA TERMINATED NORMALLY****
TOTAL RUN TIME: 0 days 0 hours 0 minutes 20 seconds 187 msec
