                         Program Version 6.0.0  -   RELEASE  -
|  1> ! r2scan-3c def2/J RI DEFGRID2 scfconv6 printgap
|  2> %output
|  3>     printlevel normal
|  4> end
|  5> %cpcm
|  6>     smd true
|  7>     smdsolvent "water"
|  8> end
|  9> * xyz 0 1
| 10> C -1.4751016376 0.7739305637 0.0006499365
| 11> C -1.3315302334 -0.6574447873 -0.5070492518
| 12> C -0.1811954203 -1.201805248 0.3372997574
| 13> C 0.7953537688 -0.0166543355 0.4888246822
| 14> C -0.0272207092 1.241778909 0.150440951
| 15> O 1.8864272287 -0.0771066127 -0.4125321207
| 16> H -1.9706802763 0.7728213494 0.9726876678
| 17> H -2.0429181029 1.4081599904 -0.6772241048
| 18> H -2.243602074 -1.2408886977 -0.3951042507
| 19> H -1.0458006453 -0.6484803136 -1.5595916525
| 20> H -0.5478794465 -1.4978562685 1.3203635972
| 21> H 0.3036219947 -2.0595728284 -0.1262932962
| 22> H 1.1865490889 0.0306867767 1.5154282541
| 23> H 0.0867016509 2.0176843449 0.9043170954
| 24> H 0.3508208913 1.6257008152 -0.7977884194
| 25> H 2.4298280679 -0.8503025342 -0.2111636948
| 26> *
| 27>
| 28>                          ****END OF INPUT****

CARTESIAN COORDINATES (ANGSTROEM)
---------------------------------
  C     -1.475102    0.773931    0.000650
  C     -1.331530   -0.657445   -0.507049
  C     -0.181195   -1.201805    0.337300
  C      0.795354   -0.016654    0.488825
  C     -0.027221    1.241779    0.150441
  O      1.886427   -0.077107   -0.412532
  H     -1.970680    0.772821    0.972688
  H     -2.042918    1.408160   -0.677224
  H     -2.243602   -1.240889   -0.395104
  H     -1.045801   -0.648480   -1.559592
  H     -0.547879   -1.497856    1.320364
  H      0.303622   -2.059573   -0.126293
  H      1.186549    0.030687    1.515428
  H      0.086702    2.017684    0.904317
  H      0.350821    1.625701   -0.797788
  H      2.429828   -0.850303   -0.211164

 Total Charge           Charge          ....    0
 Multiplicity           Mult            ....    1
 Number of Electrons    NEL             ....   48
 Basis Dimension        Dim             ....  169

ORBITAL ENERGIES
----------------

  NO   OCC          E(Eh)            E(eV)
   0   2.0000     -18.947397      -515.5849
   1   2.0000     -10.071832      -274.0685
   2   2.0000     -10.015291      -272.5299
   3   2.0000     -10.014600      -272.5111
   4   2.0000     -10.014532      -272.5093
   5   2.0000     -10.013165      -272.4721
   6   2.0000      -0.984414       -26.7873
   7   2.0000      -0.789413       -21.4810
   8   2.0000      -0.671837       -18.2816
   9   2.0000      -0.658199       -17.9105
  10   2.0000      -0.539627       -14.6840
  11   2.0000      -0.524542       -14.2735
  12   2.0000      -0.469322       -12.7709
  13   2.0000      -0.447003       -12.1636
  14   2.0000      -0.428943       -11.6721
  15   2.0000      -0.381859       -10.3909
  16   2.0000      -0.351105        -9.5540
  17   2.0000      -0.337407        -9.1813
  18   2.0000      -0.316353        -8.6084
  19   2.0000      -0.300093        -8.1659
  20   2.0000      -0.297272        -8.0892
  21   2.0000      -0.287536        -7.8242
  22   2.0000      -0.273644        -7.4462
  23   2.0000      -0.233877        -6.3641
  24   0.0000       0.076206         2.0737
  25   0.0000       0.099911         2.7187
  26   0.0000       0.116716         3.1760
  27   0.0000       0.135071         3.6755
  28   0.0000       0.143261         3.8983

MULLIKEN ATOMIC CHARGES
-----------------------
   0 C :   -0.285858
   1 C :   -0.307524
   2 C :   -0.350732
   3 C :    0.042735
   4 C :   -0.381940
   5 O :   -0.513425
   6 H :    0.161098
   7 H :    0.160757
   8 H :    0.161211
   9 H :    0.162821
  10 H :    0.163515
  11 H :    0.163072
  12 H :    0.153251
  13 H :    0.166383
  14 H :    0.167104
  15 H :    0.337532
Sum of atomic charges:   -0.0000000

LOEWDIN ATOMIC CHARGES
----------------------
   0 C :   -0.302381
   1 C :   -0.305886
   2 C :   -0.290200
   3 C :    0.066952
   4 C :   -0.275839
   5 O :   -0.656588
   6 H :    0.158530
   7 H :    0.159442
   8 H :    0.158873
   9 H :    0.158757
  10 H :    0.165020
  11 H :    0.168982
  12 H :    0.168804
  13 H :    0.163540
  14 H :    0.177261
  15 H :    0.284733

  Mayer bond orders larger than 0.100000
B(  0-C ,  1-C ) :   0.8909 B(  0-C ,  4-C ) :   0.9210 B(  0-C ,  6-H ) :   0.9819
B(  0-C ,  7-H ) :   0.9527 B(  1-C ,  2-C ) :   0.9058 B(  1-C ,  8-H ) :   0.9498
B(  1-C ,  9-H ) :   0.9915 B(  2-C ,  3-C ) :   0.9521 B(  2-C , 10-H ) :   0.9743
B(  2-C , 11-H ) :   0.9611 B(  3-C ,  4-C ) :   0.9681 B(  3-C ,  5-O ) :   0.9101
B(  3-C , 12-H ) :   0.9553 B(  4-C , 13-H ) :   0.9543 B(  4-C , 14-H ) :   0.9852
B(  5-O , 15-H ) :   0.8778

Dispersion correction           -0.003959885
FINAL SINGLE POINT ENERGY      -271.705100497518

DIPOLE MOMENT
-------------

Method             : SCF
Type of density    : Electron Density
Multiplicity       :   1
Irrep              :   0
Energy             :  -271.7087967020779615 Eh
Relativity type    :
Basis              : AO
                                X                 Y                 Z
Electronic contribution:      3.047102096      -0.155162248      -0.283302970
Nuclear contribution   :     -3.249367526      -0.415857308       0.881039508
                        -----------------------------------------
Total Dipole Moment    :     -0.202265430      -0.571019556       0.597736539
                        -----------------------------------------
Magnitude (a.u.)       :      0.851036784
Magnitude (Debye)      :      2.163163595

Rotational constants in cm-1:             0.195030             0.108871             0.083594
Rotational constants in MHz :          5846.839718          3263.862387          2506.076817

                             ****ORCA TERMINATED NORMALLY****
TOTAL RUN TIME: 0 days 0 hours 0 minutes 23 seconds 758 msec
