                         Program Version 6.0.0  -   RELEASE  -
|  1> ! pbe def2-sv(p) def2/J RI DEFGRID1 loosescf d4 GCP(DFT/SV(P)) printgap
|  2> %output
|  3>     printlevel normal
|  4> end
|  5> * xyz 0 1
|  6> C -3.6064999304 -1.030772396 0.0330608713
|  7> C -2.1112762939 -1.3243235123 -0.0078023659
|  8> C -1.2075283237 -0.1177236925 0.0211098748
|  9> C -1.6995612422 1.1607514252 0.0816221859
| 10> C -0.8509467918 2.2779244057 0.1076074101
| 11> C 0.502908819 2.1177861535 0.0724573382
| 12> C 1.0619972685 0.8241351453 0.009944782
| 13> C 0.2048832465 -0.3093587973 -0.015900749
| 14> C 0.8039856455 -1.5870591412 -0.0778632338
| 15> C 2.1632895187 -1.7347366264 -0.1124473357
| 16> C 3.0031969189 -0.6126992915 -0.0873267376
| 17> C 2.4599556168 0.6390840007 -0.0273009003
| 18> H -3.8764051557 -0.5043283703 0.9454189571
| 19> H -4.1584027189 -1.9676238574 0.0069716534
| 20> H -3.9107917826 -0.4348818237 -0.8240256375
| 21> H -1.8940706934 -1.8933744158 -0.9165226824
| 22> H -1.859106329 -1.96184834 0.8446335823
| 23> H -2.7628297542 1.3352076359 0.1106410197
| 24> H -1.2851200798 3.2658138048 0.1555354911
| 25> H 1.1652392506 2.9711669301 0.0917346236
| 26> H 0.1809455587 -2.466894482 -0.0982926585
| 27> H 2.5989476904 -2.7219384034 -0.1595307996
| 28> H 4.0744425978 -0.7459440885 -0.1155410211
| 29> H 3.0945272757 1.5137463476 -0.0071922379
| 30> *
| 31>
| 32>                          ****END OF INPUT****

CARTESIAN COORDINATES (ANGSTROEM)
---------------------------------
  C     -3.606500   -1.030772    0.033061
  C     -2.111276   -1.324324   -0.007802
  C     -1.207528   -0.117724    0.021110
  C     -1.699561    1.160751    0.081622
  C     -0.850947    2.277924    0.107607
  C      0.502909    2.117786    0.072457
  C      1.061997    0.824135    0.009945
  C      0.204883   -0.309359   -0.015901
  C      0.803986   -1.587059   -0.077863
  C      2.163290   -1.734737   -0.112447
  C      3.003197   -0.612699   -0.087327
  C      2.459956    0.639084   -0.027301
  H     -3.876405   -0.504328    0.945419
  H     -4.158403   -1.967624    0.006972
  H     -3.910792   -0.434882   -0.824026
  H     -1.894071   -1.893374   -0.916523
  H     -1.859106   -1.961848    0.844634
  H     -2.762830    1.335208    0.110641
  H     -1.285120    3.265814    0.155535
  H      1.165239    2.971167    0.091735
  H      0.180946   -2.466894   -0.098293
  H      2.598948   -2.721938   -0.159531
  H      4.074443   -0.745944   -0.115541
  H      3.094527    1.513746   -0.007192

 Total Charge           Charge          ....    0
 Multiplicity           Mult            ....    1
 Number of Electrons    NEL             ....   84
 Basis Dimension        Dim             ....  192

ORBITAL ENERGIES
----------------

  NO   OCC          E(Eh)            E(eV)
   0   2.0000      -9.902880      -269.4711
   1   2.0000      -9.901120      -269.4232
   2   2.0000      -9.900331      -269.4017
   3   2.0000      -9.894141      -269.2333
   4   2.0000      -9.891029      -269.1486
   5   2.0000      -9.890865      -269.1441
   6   2.0000      -9.890050      -269.1219
   7   2.0000      -9.889492      -269.1068
   8   2.0000      -9.888895      -269.0905
   9   2.0000      -9.887994      -269.0660
  10   2.0000      -9.887068      -269.0408
  11   2.0000      -9.879956      -268.8473
  12   2.0000      -0.794105       -21.6087
  13   2.0000      -0.745337       -20.2817
  14   2.0000      -0.716528       -19.4977
  15   2.0000      -0.675019       -18.3682
  16   2.0000      -0.663927       -18.0664
  17   2.0000      -0.635033       -17.2801
  18   2.0000      -0.575891       -15.6708
  19   2.0000      -0.554553       -15.0901
  20   2.0000      -0.545139       -14.8340
  21   2.0000      -0.507447       -13.8083
  22   2.0000      -0.463207       -12.6045
  23   2.0000      -0.447315       -12.1721
  24   2.0000      -0.442297       -12.0355
  25   2.0000      -0.410833       -11.1793
  26   2.0000      -0.401669       -10.9300
  27   2.0000      -0.388373       -10.5682
  28   2.0000      -0.377582       -10.2745
  29   2.0000      -0.370507       -10.0820
  30   2.0000      -0.354245        -9.6395
  31   2.0000      -0.352226        -9.5846
  32   2.0000      -0.332325        -9.0430
  33   2.0000      -0.322846        -8.7851
  34   2.0000      -0.317021        -8.6266
  35   2.0000      -0.315912        -8.5964
  36   2.0000      -0.293056        -7.9745
  37   2.0000      -0.288704        -7.8560
  38   2.0000      -0.279644        -7.6095
  39   2.0000      -0.249237        -6.7821
  40   2.0000      -0.222761        -6.0616
  41   2.0000      -0.193305        -5.2601
  42   0.0000      -0.066620        -1.8128
  43   0.0000      -0.037179        -1.0117
  44   0.0000      -0.000150        -0.0041
  45   0.0000       0.043090         1.1725
  46   0.0000       0.050994         1.3876

MULLIKEN ATOMIC CHARGES
-----------------------
   0 C :   -0.247891
   1 C :   -0.167889
   2 C :    0.020371
   3 C :   -0.181140
   4 C :   -0.021455
   5 C :   -0.120923
   6 C :    0.130901
   7 C :    0.114252
   8 C :   -0.163325
   9 C :   -0.030185
  10 C :   -0.038935
  11 C :   -0.126708
  12 H :    0.108609
  13 H :    0.102938
  14 H :    0.108557
  15 H :    0.105136
  16 H :    0.105250
  17 H :    0.039816
  18 H :    0.046549
  19 H :    0.035481
  20 H :    0.042835
  21 H :    0.048766
  22 H :    0.050847
  23 H :    0.038144
Sum of atomic charges:   -0.0000000

LOEWDIN ATOMIC CHARGES
----------------------
   0 C :   -0.338997
   1 C :   -0.224572
   2 C :   -0.029975
   3 C :   -0.131668
   4 C :   -0.123650
   5 C :   -0.116431
   6 C :   -0.023638
   7 C :   -0.023399
   8 C :   -0.118519
   9 C :   -0.122638
  10 C :   -0.126490
  11 C :   -0.109537
  12 H :    0.121116
  13 H :    0.122860
  14 H :    0.121124
  15 H :    0.130428
  16 H :    0.130450
  17 H :    0.123477
  18 H :    0.123121
  19 H :    0.122515
  20 H :    0.124247
  21 H :    0.123320
  22 H :    0.123745
  23 H :    0.123113

  Mayer bond orders larger than 0.100000
B(  0-C ,  1-C ) :   1.1975 B(  0-C , 12-H ) :   0.9413 B(  0-C , 13-H ) :   0.9447
B(  0-C , 14-H ) :   0.9414 B(  1-C ,  2-C ) :   1.0881 B(  1-C , 15-H ) :   0.8853
B(  1-C , 16-H ) :   0.8853 B(  2-C ,  3-C ) :   1.5068 B(  2-C ,  7-C ) :   1.2496
B(  3-C ,  4-C ) :   1.2217 B(  3-C , 17-H ) :   0.9461 B(  4-C ,  5-C ) :   1.4525
B(  4-C , 18-H ) :   0.9606 B(  5-C ,  6-C ) :   1.2330 B(  5-C , 19-H ) :   0.9672
B(  6-C ,  7-C ) :   1.2520 B(  6-C , 11-C ) :   1.2435 B(  7-C ,  8-C ) :   1.2737
B(  8-C ,  9-C ) :   1.4565 B(  8-C , 20-H ) :   0.9421 B(  9-C , 10-C ) :   1.2628
B(  9-C , 21-H ) :   0.9593 B( 10-C , 11-C ) :   1.4528 B( 10-C , 22-H ) :   0.9630
B( 11-C , 23-H ) :   0.9641

Dispersion correction           -0.029225940
FINAL SINGLE POINT ENERGY      -463.480809886973

DIPOLE MOMENT
-------------

Method             : SCF
Type of density    : Electron Density
Multiplicity       :   1
Irrep              :   0
Energy             :  -463.5418679127395762 Eh
Relativity type    :
Basis              : AO
                                X                 Y                 Z
Electronic contribution:      7.970488033       3.251379660      -0.034639087
Nuclear contribution   :     -8.098862171      -3.387634321       0.031738536
                        -----------------------------------------
Total Dipole Moment    :     -0.128374139      -0.136254661      -0.002900551
                        -----------------------------------------
Magnitude (a.u.)       :      0.187226241
Magnitude (Debye)      :      0.475891284

Rotational constants in cm-1:             0.055297             0.026539             0.018053
Rotational constants in MHz :          1657.763601           795.607105           541.222568

                             ****ORCA TERMINATED NORMALLY****
TOTAL RUN TIME: 0 days 0 hours 0 minutes 11 seconds 275 msec
