                         Program Version 6.0.0  -   RELEASE  -
|  1> ! wb97x-v def2-tzvp def2/J RIJCOSX DEFGRID2 scfconv7 GCP(DFT/TZ) printgap
|  2> %output
|  3>     printlevel normal
|  4> end
|  5> * xyz 0 1
|  6> C 2.44066722444836 0.03352978964647542 0.0002987186976013459
|  7> C 0.9422521094921151 -0.008326006001879304 -0.00019478149092679953
|  8> C 0.24255811604585298 -1.2171058683980434 -5.469663293402283e-05
|  9> C -1.1454994771810907 -1.202272569894659 0.00017724470891190773
| 10> C -1.8013441236953973 0.023702662628055825 0.00017612668098630654
| 11> N -1.157744437498091 1.1988785962001396 -0.00013367403328289184
| 12> C 0.18345551383114783 1.1622343792135628 -0.00031048133015986796
| 13> H 2.806597809823934 1.0630600051892711 -0.007724289304426907
| 14> H 2.8438909594421924 -0.4687752325904324 0.885936075369405
| 15> H 2.8450695950017875 -0.48335340951195094 -0.8762900959189521
| 16> H 0.7853818640885012 -2.158517606624854 -5.799121471819097e-05
| 17> H -1.7154572680360736 -2.125460365855986 0.00026630814806990967
| 18> H -2.888279507021217 0.06477030510976628 0.0002828673184747845
| 19> H 0.6898327793787288 2.126462215150286 -0.0007212143885875567
| 20> *
| 21>
| 22>                          ****END OF INPUT****

CARTESIAN COORDINATES (ANGSTROEM)
---------------------------------
  C      2.440667    0.033530    0.000299
  C      0.942252   -0.008326   -0.000195
  C      0.242558   -1.217106   -0.000055
  C     -1.145499   -1.202273    0.000177
  C     -1.801344    0.023703    0.000176
  N     -1.157744    1.198879   -0.000134
  C      0.183456    1.162234   -0.000310
  H      2.806598    1.063060   -0.007724
  H      2.843891   -0.468775    0.885936
  H      2.845070   -0.483353   -0.876290
  H      0.785382   -2.158518   -0.000058
  H     -1.715457   -2.125460    0.000266
  H     -2.888280    0.064770    0.000283
  H      0.689833    2.126462   -0.000721

 Total Charge           Charge          ....    0
 Multiplicity           Mult            ....    1
 Number of Electrons    NEL             ....   50
 Basis Dimension        Dim             ....  259

ORBITAL ENERGIES
----------------

  NO   OCC          E(Eh)            E(eV)
   0   2.0000     -16.524681      -449.6594
   1   2.0000     -12.081470      -328.7535
   2   2.0000     -12.080751      -328.7339
   3   2.0000     -12.069313      -328.4227
   4   2.0000     -12.067336      -328.3689
   5   2.0000     -12.059212      -328.1478
   6   2.0000     -12.052987      -327.9784
   7   2.0000      -1.515550       -41.2402
   8   2.0000      -1.353716       -36.8365
   9   2.0000      -1.306449       -35.5503
  10   2.0000      -1.216387       -33.0996
  11   2.0000      -1.145083       -31.1593
  12   2.0000      -1.123722       -30.5780
  13   2.0000      -0.999922       -27.2093
  14   2.0000      -0.974432       -26.5156
  15   2.0000      -0.919991       -25.0342
  16   2.0000      -0.881376       -23.9835
  17   2.0000      -0.872192       -23.7336
  18   2.0000      -0.853172       -23.2160
  19   2.0000      -0.842252       -22.9188
  20   2.0000      -0.824283       -22.4299
  21   2.0000      -0.818332       -22.2679
  22   2.0000      -0.760481       -20.6937
  23   2.0000      -0.694189       -18.8899
  24   2.0000      -0.646054       -17.5800
  25   0.0000      -0.291248        -7.9253
  26   0.0000      -0.244653        -6.6573
  27   0.0000      -0.097132        -2.6431
  28   0.0000      -0.051022        -1.3884
  29   0.0000      -0.024644        -0.6706

MULLIKEN ATOMIC CHARGES
-----------------------
   0 C :   -0.348455
   1 C :    0.143519
   2 C :   -0.198534
   3 C :   -0.083775
   4 C :   -0.052400
   5 N :   -0.218047
   6 C :   -0.102384
   7 H :    0.119917
   8 H :    0.126438
   9 H :    0.126316
  10 H :    0.127484
  11 H :    0.122918
  12 H :    0.121437
  13 H :    0.115566
Sum of atomic charges:    0.0000000

LOEWDIN ATOMIC CHARGES
----------------------
   0 C :   -0.250759
   1 C :   -0.183029
   2 C :   -0.094148
   3 C :   -0.151886
   4 C :   -0.206262
   5 N :    0.121415
   6 C :   -0.179736
   7 H :    0.126854
   8 H :    0.128618
   9 H :    0.128554
  10 H :    0.146473
  11 H :    0.143521
  12 H :    0.134099
  13 H :    0.136285

  Mayer bond orders larger than 0.100000
B(  0-C ,  1-C ) :   0.9244 B(  0-C ,  7-H ) :   0.9916 B(  0-C ,  8-H ) :   0.9734
B(  0-C ,  9-H ) :   0.9740 B(  1-C ,  2-C ) :   1.3897 B(  1-C ,  6-C ) :   1.3846
B(  2-C ,  3-C ) :   1.4707 B(  2-C , 10-H ) :   0.9693 B(  3-C ,  4-C ) :   1.4034
B(  3-C , 11-H ) :   0.9653 B(  4-C ,  5-N ) :   1.5016 B(  4-C , 12-H ) :   0.9827
B(  5-N ,  6-C ) :   1.5167 B(  6-C , 13-H ) :   0.9938

FINAL SINGLE POINT ENERGY      -287.610680334226

DIPOLE MOMENT
-------------

Method             : SCF
Type of density    : Electron Density
Multiplicity       :   1
Irrep              :   0
Energy             :  -287.6181888709261329 Eh
Relativity type    :
Basis              : AO
                                X                 Y                 Z
Electronic contribution:     -4.449077856       1.090817143      -0.001064040
Nuclear contribution   :      5.060752102      -1.872654316       0.001520039
                        -----------------------------------------
Total Dipole Moment    :      0.611674246      -0.781837174       0.000455999
                        -----------------------------------------
Magnitude (a.u.)       :      0.992680693
Magnitude (Debye)      :      2.523193799

Rotational constants in cm-1:             0.190472             0.086395             0.060099
Rotational constants in MHz :          5710.202777          2590.059759          1801.729595

                             ****ORCA TERMINATED NORMALLY****
TOTAL RUN TIME: 0 days 0 hours 1 minutes 50 seconds 718 msec
