                         Program Version 6.0.0  -   RELEASE  -
|  1> ! wb97x-v def2-tzvp def2/J RIJCOSX DEFGRID2 scfconv7 GCP(DFT/TZ) printgap
|  2> %output
|  3>     printlevel normal
|  4> end
|  5> %cpcm
|  6>     smd true
|  7>     smdsolvent "water"
|  8> end
|  9> * xyz 0 1
| 10> C 2.44066722444836 0.03352978964647542 0.0002987186976013459
| 11> C 0.9422521094921151 -0.008326006001879304 -0.00019478149092679953
| 12> C 0.24255811604585298 -1.2171058683980434 -5.469663293402283e-05
| 13> C -1.1454994771810907 -1.202272569894659 0.00017724470891190773
| 14> C -1.8013441236953973 0.023702662628055825 0.00017612668098630654
| 15> N -1.157744437498091 1.1988785962001396 -0.00013367403328289184
| 16> C 0.18345551383114783 1.1622343792135628 -0.00031048133015986796
| 17> H 2.806597809823934 1.0630600051892711 -0.007724289304426907
| 18> H 2.8438909594421924 -0.4687752325904324 0.885936075369405
| 19> H 2.8450695950017875 -0.48335340951195094 -0.8762900959189521
| 20> H 0.7853818640885012 -2.158517606624854 -5.799121471819097e-05
| 21> H -1.7154572680360736 -2.125460365855986 0.00026630814806990967
| 22> H -2.888279507021217 0.06477030510976628 0.0002828673184747845
| 23> H 0.6898327793787288 2.126462215150286 -0.0007212143885875567
| 24> *
| 25>
| 26>                          ****END OF INPUT****

CARTESIAN COORDINATES (ANGSTROEM)
---------------------------------
  C      2.440667    0.033530    0.000299
  C      0.942252   -0.008326   -0.000195
  C      0.242558   -1.217106   -0.000055
  C     -1.145499   -1.202273    0.000177
  C     -1.801344    0.023703    0.000176
  N     -1.157744    1.198879   -0.000134
  C      0.183456    1.162234   -0.000310
  H      2.806598    1.063060   -0.007724
  H      2.843891   -0.468775    0.885936
  H      2.845070   -0.483353   -0.876290
  H      0.785382   -2.158518   -0.000058
  H     -1.715457   -2.125460    0.000266
  H     -2.888280    0.064770    0.000283
  H      0.689833    2.126462   -0.000721

 Total Charge           Charge          ....    0
 Multiplicity           Mult            ....    1
 Number of Electrons    NEL             ....   50
 Basis Dimension        Dim             ....  259

ORBITAL ENERGIES
----------------

  NO   OCC          E(Eh)            E(eV)
   0   2.0000     -16.528435      -449.7616
   1   2.0000     -12.079057      -328.6878
   2   2.0000     -12.077838      -328.6547
   3   2.0000     -12.063395      -328.2617
   4   2.0000     -12.060940      -328.1949
   5   2.0000     -12.052966      -327.9779
   6   2.0000     -12.036802      -327.5380
   7   2.0000      -1.518337       -41.3160
   8   2.0000      -1.348392       -36.6916
   9   2.0000      -1.302459       -35.4417
  10   2.0000      -1.207763       -32.8649
  11   2.0000      -1.140372       -31.0311
  12   2.0000      -1.118235       -30.4287
  13   2.0000      -0.995763       -27.0961
  14   2.0000      -0.969396       -26.3786
  15   2.0000      -0.910967       -24.7887
  16   2.0000      -0.874519       -23.7969
  17   2.0000      -0.866889       -23.5892
  18   2.0000      -0.844449       -22.9786
  19   2.0000      -0.832958       -22.6659
  20   2.0000      -0.815354       -22.1869
  21   2.0000      -0.811533       -22.0829
  22   2.0000      -0.762501       -20.7487
  23   2.0000      -0.691264       -18.8103
  24   2.0000      -0.642871       -17.4934
  25   0.0000      -0.289759        -7.8847
  26   0.0000      -0.241682        -6.5765
  27   0.0000      -0.092916        -2.5284
  28   0.0000      -0.041659        -1.1336
  29   0.0000      -0.017410        -0.4737

MULLIKEN ATOMIC CHARGES
-----------------------
   0 C :   -0.378975
   1 C :    0.115534
   2 C :   -0.219434
   3 C :   -0.130769
   4 C :   -0.066500
   5 N :   -0.297523
   6 C :   -0.109880
   7 H :    0.142910
   8 H :    0.144401
   9 H :    0.144427
  10 H :    0.169987
  11 H :    0.168195
  12 H :    0.160179
  13 H :    0.157448
Sum of atomic charges:    0.0000000

LOEWDIN ATOMIC CHARGES
----------------------
   0 C :   -0.249602
   1 C :   -0.181993
   2 C :   -0.085353
   3 C :   -0.151567
   4 C :   -0.218292
   5 N :    0.075373
   6 C :   -0.189065
   7 H :    0.131924
   8 H :    0.134152
   9 H :    0.134112
  10 H :    0.158991
  11 H :    0.155025
  12 H :    0.141659
  13 H :    0.144637

  Mayer bond orders larger than 0.100000
B(  0-C ,  1-C ) :   0.9312 B(  0-C ,  7-H ) :   0.9878 B(  0-C ,  8-H ) :   0.9666
B(  0-C ,  9-H ) :   0.9672 B(  1-C ,  2-C ) :   1.3760 B(  1-C ,  6-C ) :   1.4084
B(  2-C ,  3-C ) :   1.4596 B(  2-C , 10-H ) :   0.9697 B(  3-C ,  4-C ) :   1.4221
B(  3-C , 11-H ) :   0.9616 B(  4-C ,  5-N ) :   1.4885 B(  4-C , 12-H ) :   0.9649
B(  5-N ,  6-C ) :   1.4992 B(  6-C , 13-H ) :   0.9702

FINAL SINGLE POINT ENERGY      -287.617977001865

DIPOLE MOMENT
-------------

Method             : SCF
Type of density    : Electron Density
Multiplicity       :   1
Irrep              :   0
Energy             :  -287.6254855385645897 Eh
Relativity type    :
Basis              : AO
                                X                 Y                 Z
Electronic contribution:     -4.184004620       0.734072474      -0.000954442
Nuclear contribution   :      5.060752102      -1.872654316       0.001520039
                        -----------------------------------------
Total Dipole Moment    :      0.876747483      -1.138581842       0.000565598
                        -----------------------------------------
Magnitude (a.u.)       :      1.437029951
Magnitude (Debye)      :      3.652639854

Rotational constants in cm-1:             0.190472             0.086395             0.060099
Rotational constants in MHz :          5710.202777          2590.059759          1801.729595

                             ****ORCA TERMINATED NORMALLY****
TOTAL RUN TIME: 0 days 0 hours 1 minutes 59 seconds 115 msec
