                         Program Version 6.0.0  -   RELEASE  -
|  1> ! pbe def2-sv(p) def2/J RI DEFGRID1 loosescf d4 GCP(DFT/SV(P)) printgap
|  2> %output
|  3>     printlevel normal
|  4> end
|  5> * xyz 0 1
|  6> C -2.5444116783 -0.6738459977 -0.3609402696
|  7> C -1.1631981473 -0.326831848 0.2106924521
|  8> H -1.2089072283 -0.3032432844 1.3122734045
|  9> C -0.7017818453 1.0590438904 -0.2968285947
| 10> H -0.7173526379 1.0626767556 -1.3920578904
| 11> C 0.7348594772 1.3271587849 0.1719117445
| 12> H 0.7480305621 1.4087241818 1.2731317588
| 13> C 1.641766451 0.1543827212 -0.2192184003
| 14> H 1.701156914 0.1029332562 -1.3173763752
| 15> C 1.0407554415 -1.1652772886 0.3069482595
| 16> H 1.0422219708 -1.1355142331 1.4120922866
| 17> O -0.2591407696 -1.3401312146 -0.1884445351
| 18> O 1.8080286268 -2.2543873642 -0.0697818616
| 19> O 2.9125671839 0.3884012135 0.334959768
| 20> O 1.1786062717 2.530336701 -0.3998385066
| 21> O -1.5952368477 2.0636874586 0.0957506284
| 22> O -3.1866745773 -1.7236100879 0.3119649785
| 23> H -2.4127940024 -1.0147199617 -1.3892242057
| 24> H -3.1530480586 0.2377028688 -0.3563226245
| 25> H 1.468389299 -2.6015219492 -0.9095875878
| 26> H 3.4542749544 -0.4083311453 0.2297793205
| 27> H 2.1200797921 2.6372350209 -0.1951582056
| 28> H -1.4253653138 2.3242468795 1.0130245581
| 29> H -3.4173089203 -1.4456510394 1.2099530975
| 30> *
| 31>
| 32>                          ****END OF INPUT****

CARTESIAN COORDINATES (ANGSTROEM)
---------------------------------
  C     -2.544412   -0.673846   -0.360940
  C     -1.163198   -0.326832    0.210692
  H     -1.208907   -0.303243    1.312273
  C     -0.701782    1.059044   -0.296829
  H     -0.717353    1.062677   -1.392058
  C      0.734859    1.327159    0.171912
  H      0.748031    1.408724    1.273132
  C      1.641766    0.154383   -0.219218
  H      1.701157    0.102933   -1.317376
  C      1.040755   -1.165277    0.306948
  H      1.042222   -1.135514    1.412092
  O     -0.259141   -1.340131   -0.188445
  O      1.808029   -2.254387   -0.069782
  O      2.912567    0.388401    0.334960
  O      1.178606    2.530337   -0.399839
  O     -1.595237    2.063687    0.095751
  O     -3.186675   -1.723610    0.311965
  H     -2.412794   -1.014720   -1.389224
  H     -3.153048    0.237703   -0.356323
  H      1.468389   -2.601522   -0.909588
  H      3.454275   -0.408331    0.229779
  H      2.120080    2.637235   -0.195158
  H     -1.425365    2.324247    1.013025
  H     -3.417309   -1.445651    1.209953

 Total Charge           Charge          ....    0
 Multiplicity           Mult            ....    1
 Number of Electrons    NEL             ....   96
 Basis Dimension        Dim             ....  192

ORBITAL ENERGIES
----------------

  NO   OCC          E(Eh)            E(eV)
   0   2.0000     -18.779730      -511.0224
   1   2.0000     -18.770065      -510.7594
   2   2.0000     -18.763155      -510.5714
   3   2.0000     -18.758848      -510.4542
   4   2.0000     -18.749953      -510.2122
   5   2.0000     -18.746477      -510.1176
   6   2.0000      -9.992127      -271.8996
   7   2.0000      -9.949535      -270.7406
   8   2.0000      -9.949196      -270.7314
   9   2.0000      -9.948374      -270.7090
  10   2.0000      -9.943197      -270.5681
  11   2.0000      -9.930897      -270.2335
  12   2.0000      -0.993828       -27.0434
  13   2.0000      -0.948251       -25.8032
  14   2.0000      -0.941854       -25.6291
  15   2.0000      -0.927039       -25.2260
  16   2.0000      -0.919412       -25.0185
  17   2.0000      -0.916422       -24.9371
  18   2.0000      -0.708304       -19.2739
  19   2.0000      -0.694722       -18.9044
  20   2.0000      -0.618016       -16.8171
  21   2.0000      -0.589704       -16.0467
  22   2.0000      -0.563997       -15.3471
  23   2.0000      -0.549374       -14.9492
  24   2.0000      -0.505869       -13.7654
  25   2.0000      -0.499386       -13.5890
  26   2.0000      -0.477901       -13.0044
  27   2.0000      -0.459194       -12.4953
  28   2.0000      -0.448859       -12.2141
  29   2.0000      -0.440113       -11.9761
  30   2.0000      -0.422165       -11.4877
  31   2.0000      -0.397386       -10.8134
  32   2.0000      -0.389948       -10.6110
  33   2.0000      -0.381756       -10.3881
  34   2.0000      -0.358322        -9.7504
  35   2.0000      -0.352694        -9.5973
  36   2.0000      -0.332294        -9.0422
  37   2.0000      -0.323548        -8.8042
  38   2.0000      -0.313171        -8.5218
  39   2.0000      -0.302267        -8.2251
  40   2.0000      -0.276998        -7.5375
  41   2.0000      -0.274984        -7.4827
  42   2.0000      -0.266094        -7.2408
  43   2.0000      -0.250243        -6.8095
  44   2.0000      -0.232614        -6.3298
  45   2.0000      -0.227069        -6.1789
  46   2.0000      -0.214576        -5.8389
  47   2.0000      -0.202258        -5.5037
  48   0.0000       0.010998         0.2993
  49   0.0000       0.020877         0.5681
  50   0.0000       0.029625         0.8061
  51   0.0000       0.042305         1.1512
  52   0.0000       0.048957         1.3322

MULLIKEN ATOMIC CHARGES
-----------------------
   0 C :    0.090254
   1 C :    0.001665
   2 H :    0.024650
   3 C :    0.053808
   4 H :    0.071674
   5 C :    0.065356
   6 H :    0.036325
   7 C :    0.033288
   8 H :    0.046118
   9 C :    0.183158
  10 H :    0.050108
  11 O :   -0.299356
  12 O :   -0.393177
  13 O :   -0.425230
  14 O :   -0.404828
  15 O :   -0.402367
  16 O :   -0.429259
  17 H :    0.085080
  18 H :    0.090170
  19 H :    0.309819
  20 H :    0.308783
  21 H :    0.309272
  22 H :    0.301258
  23 H :    0.293431
Sum of atomic charges:    0.0000000

LOEWDIN ATOMIC CHARGES
----------------------
   0 C :   -0.129470
   1 C :   -0.075421
   2 H :    0.091805
   3 C :   -0.067964
   4 H :    0.122932
   5 C :   -0.075454
   6 H :    0.094867
   7 C :   -0.100633
   8 H :    0.102152
   9 C :   -0.003069
  10 H :    0.093509
  11 O :   -0.143870
  12 O :   -0.300903
  13 O :   -0.325374
  14 O :   -0.317525
  15 O :   -0.299766
  16 O :   -0.331413
  17 H :    0.119805
  18 H :    0.106225
  19 H :    0.293085
  20 H :    0.289104
  21 H :    0.288996
  22 H :    0.286772
  23 H :    0.281610

  Mayer bond orders larger than 0.100000
B(  0-C ,  1-C ) :   1.0307 B(  0-C , 16-O ) :   1.0897 B(  0-C , 17-H ) :   0.9053
B(  0-C , 18-H ) :   0.9150 B(  1-C ,  2-H ) :   0.8689 B(  1-C ,  3-C ) :   0.9581
B(  1-C , 11-O ) :   0.9810 B(  3-C ,  4-H ) :   0.8709 B(  3-C ,  5-C ) :   1.0155
B(  3-C , 15-O ) :   1.0379 B(  5-C ,  6-H ) :   0.8658 B(  5-C ,  7-C ) :   1.0069
B(  5-C , 14-O ) :   1.1126 B(  7-C ,  8-H ) :   0.8624 B(  7-C ,  9-C ) :   0.9698
B(  7-C , 13-O ) :   1.0671 B(  9-C , 10-H ) :   0.8794 B(  9-C , 11-O ) :   1.0288
B(  9-C , 12-O ) :   1.1192 B( 12-O , 19-H ) :   0.8381 B( 13-O , 20-H ) :   0.8322
B( 14-O , 21-H ) :   0.8378 B( 15-O , 22-H ) :   0.8458 B( 16-O , 23-H ) :   0.8543

Dispersion correction           -0.023536601
FINAL SINGLE POINT ENERGY      -685.694557479601

DIPOLE MOMENT
-------------

Method             : SCF
Type of density    : Electron Density
Multiplicity       :   1
Irrep              :   0
Energy             :  -685.8239286832326798 Eh
Relativity type    :
Basis              : AO
                                X                 Y                 Z
Electronic contribution:      2.100296897      -0.797178945      -0.285933786
Nuclear contribution   :     -1.676577328       0.806109834       0.836719785
                        -----------------------------------------
Total Dipole Moment    :      0.423719569       0.008930889       0.550786000
                        -----------------------------------------
Magnitude (a.u.)       :      0.694969965
Magnitude (Debye)      :      1.766473266

Rotational constants in cm-1:             0.039633             0.025383             0.016247
Rotational constants in MHz :          1188.157714           760.955655           487.078115

                             ****ORCA TERMINATED NORMALLY****
TOTAL RUN TIME: 0 days 0 hours 0 minutes 11 seconds 880 msec
