                         Program Version 6.0.0  -   RELEASE  -
|  1> ! pbe def2-sv(p) def2/J RI DEFGRID1 loosescf d4 GCP(DFT/SV(P)) printgap
|  2> %output
|  3>     printlevel normal
|  4> end
|  5> * xyz 0 1
|  6> C 3.6879042958 0.3738251577 0.0481831581
|  7> C 2.213296804 0.3081467167 -0.3405618008
|  8> H 2.1350699784 0.3681386171 -1.4324889286
|  9> C 1.4289770902 1.4712451957 0.2646194949
| 10> C -0.0419606282 1.3894999899 -0.1305726096
| 11> C -0.6673198162 0.0786500073 0.3467222302
| 12> H -0.5406302726 0.004270669 1.4331386814
| 13> C 0.1084500177 -1.1015438232 -0.2583441336
| 14> H 0.0132548043 -1.071581708 -1.3562357724
| 15> C 1.5913553274 -1.0106457142 0.115517139
| 16> O -0.4624393859 -2.3060157296 0.2272994375
| 17> C -2.1807810979 -0.030639034 0.0677199465
| 18> C -2.9812919202 0.8428896728 1.0330417706
| 19> C -2.5653964612 0.3069492013 -1.3718860017
| 20> H 4.1283450536 1.3083429939 -0.2905048053
| 21> H 3.7974114056 0.3140515273 1.128700219
| 22> H 4.2397574713 -0.4492351084 -0.3994327504
| 23> H 1.5189817303 1.4392859873 1.3527203277
| 24> H 1.8499139566 2.4181141664 -0.0793029951
| 25> H -0.5834909989 2.2308088425 0.3025466191
| 26> H -0.1193184166 1.4565259462 -1.2168800349
| 27> H 1.6775946399 -1.101631776 1.2010626841
| 28> H 2.1306750888 -1.8476316439 -0.335938224
| 29> H 0.0448103501 -3.0548806097 -0.1125847363
| 30> H -2.4488618166 -1.075742321 0.2574234607
| 31> H -4.0465660537 0.688741401 0.8787295237
| 32> H -2.7652689032 1.8965583947 0.8735520142
| 33> H -2.7456438402 0.5929125148 2.0647291944
| 34> H -2.4202602177 1.3649361276 -1.5747533858
| 35> H -3.6151939101 0.0726474889 -1.5330981439
| 36> H -1.9792993641 -0.270945157 -2.0815573448
| 37> *
| 38>
| 39>                          ****END OF INPUT****

CARTESIAN COORDINATES (ANGSTROEM)
---------------------------------
  C      3.687904    0.373825    0.048183
  C      2.213297    0.308147   -0.340562
  H      2.135070    0.368139   -1.432489
  C      1.428977    1.471245    0.264619
  C     -0.041961    1.389500   -0.130573
  C     -0.667320    0.078650    0.346722
  H     -0.540630    0.004271    1.433139
  C      0.108450   -1.101544   -0.258344
  H      0.013255   -1.071582   -1.356236
  C      1.591355   -1.010646    0.115517
  O     -0.462439   -2.306016    0.227299
  C     -2.180781   -0.030639    0.067720
  C     -2.981292    0.842890    1.033042
  C     -2.565396    0.306949   -1.371886
  H      4.128345    1.308343   -0.290505
  H      3.797411    0.314052    1.128700
  H      4.239757   -0.449235   -0.399433
  H      1.518982    1.439286    1.352720
  H      1.849914    2.418114   -0.079303
  H     -0.583491    2.230809    0.302547
  H     -0.119318    1.456526   -1.216880
  H      1.677595   -1.101632    1.201063
  H      2.130675   -1.847632   -0.335938
  H      0.044810   -3.054881   -0.112585
  H     -2.448862   -1.075742    0.257423
  H     -4.046566    0.688741    0.878730
  H     -2.765269    1.896558    0.873552
  H     -2.745644    0.592913    2.064729
  H     -2.420260    1.364936   -1.574753
  H     -3.615194    0.072647   -1.533098
  H     -1.979299   -0.270945   -2.081557

 Total Charge           Charge          ....    0
 Multiplicity           Mult            ....    1
 Number of Electrons    NEL             ....   88
 Basis Dimension        Dim             ....  194

ORBITAL ENERGIES
----------------

  NO   OCC          E(Eh)            E(eV)
   0   2.0000     -18.738151      -509.8910
   1   2.0000      -9.931222      -270.2423
   2   2.0000      -9.893978      -269.2288
   3   2.0000      -9.884049      -268.9586
   4   2.0000      -9.880450      -268.8607
   5   2.0000      -9.880137      -268.8522
   6   2.0000      -9.879895      -268.8456
   7   2.0000      -9.879428      -268.8329
   8   2.0000      -9.872704      -268.6499
   9   2.0000      -9.864927      -268.4383
  10   2.0000      -9.863699      -268.4049
  11   2.0000      -0.915989       -24.9253
  12   2.0000      -0.758652       -20.6440
  13   2.0000      -0.718393       -19.5485
  14   2.0000      -0.666958       -18.1488
  15   2.0000      -0.655048       -17.8248
  16   2.0000      -0.602856       -16.4045
  17   2.0000      -0.601983       -16.3808
  18   2.0000      -0.550092       -14.9688
  19   2.0000      -0.528658       -14.3855
  20   2.0000      -0.502070       -13.6620
  21   2.0000      -0.479023       -13.0349
  22   2.0000      -0.452868       -12.3232
  23   2.0000      -0.421145       -11.4599
  24   2.0000      -0.413393       -11.2490
  25   2.0000      -0.401201       -10.9172
  26   2.0000      -0.394013       -10.7216
  27   2.0000      -0.372874       -10.1464
  28   2.0000      -0.362409        -9.8617
  29   2.0000      -0.352663        -9.5965
  30   2.0000      -0.345740        -9.4081
  31   2.0000      -0.336853        -9.1662
  32   2.0000      -0.330775        -9.0009
  33   2.0000      -0.327602        -8.9145
  34   2.0000      -0.316005        -8.5989
  35   2.0000      -0.299338        -8.1454
  36   2.0000      -0.297533        -8.0963
  37   2.0000      -0.290380        -7.9016
  38   2.0000      -0.283746        -7.7211
  39   2.0000      -0.278293        -7.5727
  40   2.0000      -0.269073        -7.3219
  41   2.0000      -0.256360        -6.9759
  42   2.0000      -0.244353        -6.6492
  43   2.0000      -0.208318        -5.6686
  44   0.0000       0.027680         0.7532
  45   0.0000       0.039435         1.0731
  46   0.0000       0.045756         1.2451
  47   0.0000       0.046131         1.2553
  48   0.0000       0.076388         2.0786

MULLIKEN ATOMIC CHARGES
-----------------------
   0 C :   -0.194763
   1 C :   -0.218754
   2 H :    0.062631
   3 C :   -0.094726
   4 C :   -0.116936
   5 C :   -0.157477
   6 H :    0.052459
   7 C :    0.068856
   8 H :    0.045776
   9 C :   -0.091543
  10 O :   -0.414609
  11 C :   -0.107011
  12 C :   -0.239067
  13 C :   -0.266055
  14 H :    0.095811
  15 H :    0.090641
  16 H :    0.094032
  17 H :    0.066153
  18 H :    0.076968
  19 H :    0.085318
  20 H :    0.075024
  21 H :    0.068450
  22 H :    0.061943
  23 H :    0.295204
  24 H :    0.082375
  25 H :    0.094537
  26 H :    0.092698
  27 H :    0.095144
  28 H :    0.098503
  29 H :    0.096250
  30 H :    0.102168
Sum of atomic charges:    0.0000000

LOEWDIN ATOMIC CHARGES
----------------------
   0 C :   -0.326434
   1 C :   -0.153028
   2 H :    0.113188
   3 C :   -0.213764
   4 C :   -0.216151
   5 C :   -0.138492
   6 H :    0.116733
   7 C :   -0.046412
   8 H :    0.092991
   9 C :   -0.227605
  10 O :   -0.324932
  11 C :   -0.152410
  12 C :   -0.328600
  13 C :   -0.331108
  14 H :    0.117280
  15 H :    0.117133
  16 H :    0.116279
  17 H :    0.114210
  18 H :    0.115048
  19 H :    0.117911
  20 H :    0.116277
  21 H :    0.117622
  22 H :    0.107652
  23 H :    0.282175
  24 H :    0.121908
  25 H :    0.116903
  26 H :    0.111788
  27 H :    0.116099
  28 H :    0.114501
  29 H :    0.118808
  30 H :    0.114428

  Mayer bond orders larger than 0.100000
B(  0-C ,  1-C ) :   1.1112 B(  0-C , 14-H ) :   0.9481 B(  0-C , 15-H ) :   0.9461
B(  0-C , 16-H ) :   0.9488 B(  1-C ,  2-H ) :   0.8901 B(  1-C ,  3-C ) :   1.0984
B(  1-C ,  9-C ) :   1.0791 B(  3-C ,  4-C ) :   1.1417 B(  3-C , 17-H ) :   0.9037
B(  3-C , 18-H ) :   0.9131 B(  4-C ,  5-C ) :   1.0817 B(  4-C , 19-H ) :   0.9093
B(  4-C , 20-H ) :   0.8910 B(  5-C ,  6-H ) :   0.8728 B(  5-C ,  7-C ) :   1.0491
B(  5-C , 11-C ) :   1.0419 B(  7-C ,  8-H ) :   0.8812 B(  7-C ,  9-C ) :   1.0939
B(  7-C , 10-O ) :   1.0588 B(  9-C , 21-H ) :   0.8884 B(  9-C , 22-H ) :   0.9060
B( 10-O , 23-H ) :   0.8493 B( 11-C , 12-C ) :   1.1161 B( 11-C , 13-C ) :   1.1043
B( 11-C , 24-H ) :   0.8861 B( 12-C , 25-H ) :   0.9504 B( 12-C , 26-H ) :   0.9425
B( 12-C , 27-H ) :   0.9482 B( 13-C , 28-H ) :   0.9402 B( 13-C , 29-H ) :   0.9475
B( 13-C , 30-H ) :   0.9473

Dispersion correction           -0.031411997
FINAL SINGLE POINT ENERGY      -467.200257235864

DIPOLE MOMENT
-------------

Method             : SCF
Type of density    : Electron Density
Multiplicity       :   1
Irrep              :   0
Energy             :  -467.3123811391460549 Eh
Relativity type    :
Basis              : AO
                                X                 Y                 Z
Electronic contribution:      0.225484608      -5.014690378       0.543997445
Nuclear contribution   :      0.247644500       4.922751239      -0.859902336
                        -----------------------------------------
Total Dipole Moment    :      0.473129108      -0.091939139      -0.315904892
                        -----------------------------------------
Magnitude (a.u.)       :      0.576281058
Magnitude (Debye)      :      1.464790042

Rotational constants in cm-1:             0.059641             0.023190             0.019331
Rotational constants in MHz :          1787.980178           695.230082           579.538055

                             ****ORCA TERMINATED NORMALLY****
TOTAL RUN TIME: 0 days 0 hours 0 minutes 14 seconds 499 msec
