                         Program Version 6.0.0  -   RELEASE  -
|  1> ! pbe def2-sv(p) def2/J RI DEFGRID1 loosescf d4 GCP(DFT/SV(P)) printgap
|  2> %output
|  3>     printlevel normal
|  4> end
|  5> * xyz 0 1
|  6> C -2.5316745759 -0.7569137482 -0.3678465222
|  7> C -1.1537579112 -0.3557415889 0.1600792714
|  8> H -1.2006925157 -0.3197896067 1.2614524212
|  9> C -0.7028438188 1.0101004341 -0.3811441479
| 10> H -0.6617763295 0.9627406177 -1.4747895737
| 11> C 0.7001743127 1.3217897738 0.157720318
| 12> H 0.6444729348 1.442972935 1.254227769
| 13> C 1.6761624116 0.1746752616 -0.1371331986
| 14> H 1.8690385952 0.1348350325 -1.2184195202
| 15> C 1.0702938568 -1.1742123868 0.2809489738
| 16> H 1.0366395 -1.2041296608 1.3908806755
| 17> O -0.2293278347 -1.350404008 -0.2344875328
| 18> O 1.8600376547 -2.1818640441 -0.2263885965
| 19> O 2.8704332535 0.338482502 0.5798035602
| 20> O 1.2286504939 2.4911677178 -0.4209409361
| 21> O -1.5991054806 2.0466689608 -0.0770287571
| 22> O -3.1516420764 -1.5937361584 0.5812631579
| 23> H -2.3862160617 -1.2746474241 -1.3216927671
| 24> H -3.1227267498 0.1537411226 -0.5268509904
| 25> H 1.4239566792 -3.0375137877 -0.0839460551
| 26> H 3.2790698449 1.1735769597 0.3036196364
| 27> H 0.5273608881 3.1597814985 -0.4664656461
| 28> H -1.747132281 2.0844862356 0.880225689
| 29> H -3.9819091175 -1.930661473 0.216315158
| 30> *
| 31>
| 32>                          ****END OF INPUT****

CARTESIAN COORDINATES (ANGSTROEM)
---------------------------------
  C     -2.531675   -0.756914   -0.367847
  C     -1.153758   -0.355742    0.160079
  H     -1.200693   -0.319790    1.261452
  C     -0.702844    1.010100   -0.381144
  H     -0.661776    0.962741   -1.474790
  C      0.700174    1.321790    0.157720
  H      0.644473    1.442973    1.254228
  C      1.676162    0.174675   -0.137133
  H      1.869039    0.134835   -1.218420
  C      1.070294   -1.174212    0.280949
  H      1.036639   -1.204130    1.390881
  O     -0.229328   -1.350404   -0.234488
  O      1.860038   -2.181864   -0.226389
  O      2.870433    0.338483    0.579804
  O      1.228650    2.491168   -0.420941
  O     -1.599105    2.046669   -0.077029
  O     -3.151642   -1.593736    0.581263
  H     -2.386216   -1.274647   -1.321693
  H     -3.122727    0.153741   -0.526851
  H      1.423957   -3.037514   -0.083946
  H      3.279070    1.173577    0.303620
  H      0.527361    3.159781   -0.466466
  H     -1.747132    2.084486    0.880226
  H     -3.981909   -1.930661    0.216315

 Total Charge           Charge          ....    0
 Multiplicity           Mult            ....    1
 Number of Electrons    NEL             ....   96
 Basis Dimension        Dim             ....  192

ORBITAL ENERGIES
----------------

  NO   OCC          E(Eh)            E(eV)
   0   2.0000     -18.773077      -510.8414
   1   2.0000     -18.769962      -510.7566
   2   2.0000     -18.754372      -510.3324
   3   2.0000     -18.753140      -510.2989
   4   2.0000     -18.751124      -510.2440
   5   2.0000     -18.743258      -510.0300
   6   2.0000      -9.982838      -271.6468
   7   2.0000      -9.948957      -270.7249
   8   2.0000      -9.948647      -270.7164
   9   2.0000      -9.942545      -270.5504
  10   2.0000      -9.936302      -270.3805
  11   2.0000      -9.934662      -270.3359
  12   2.0000      -0.981753       -26.7149
  13   2.0000      -0.955615       -26.0036
  14   2.0000      -0.934331       -25.4244
  15   2.0000      -0.926481       -25.2108
  16   2.0000      -0.915373       -24.9086
  17   2.0000      -0.908898       -24.7324
  18   2.0000      -0.706171       -19.2159
  19   2.0000      -0.692278       -18.8378
  20   2.0000      -0.621093       -16.9008
  21   2.0000      -0.585300       -15.9268
  22   2.0000      -0.555194       -15.1076
  23   2.0000      -0.534096       -14.5335
  24   2.0000      -0.491448       -13.3730
  25   2.0000      -0.489757       -13.3270
  26   2.0000      -0.482367       -13.1259
  27   2.0000      -0.474662       -12.9162
  28   2.0000      -0.451261       -12.2794
  29   2.0000      -0.429672       -11.6920
  30   2.0000      -0.414023       -11.2662
  31   2.0000      -0.398046       -10.8314
  32   2.0000      -0.387474       -10.5437
  33   2.0000      -0.378250       -10.2927
  34   2.0000      -0.367278        -9.9941
  35   2.0000      -0.353034        -9.6065
  36   2.0000      -0.316952        -8.6247
  37   2.0000      -0.311689        -8.4815
  38   2.0000      -0.302555        -8.2330
  39   2.0000      -0.296746        -8.0749
  40   2.0000      -0.286338        -7.7916
  41   2.0000      -0.275645        -7.5007
  42   2.0000      -0.256999        -6.9933
  43   2.0000      -0.239922        -6.5286
  44   2.0000      -0.231834        -6.3085
  45   2.0000      -0.219074        -5.9613
  46   2.0000      -0.210381        -5.7248
  47   2.0000      -0.206698        -5.6245
  48   0.0000       0.008962         0.2439
  49   0.0000       0.026368         0.7175
  50   0.0000       0.031010         0.8438
  51   0.0000       0.038837         1.0568
  52   0.0000       0.058348         1.5877

MULLIKEN ATOMIC CHARGES
-----------------------
   0 C :    0.079767
   1 C :   -0.000224
   2 H :    0.050998
   3 C :    0.022360
   4 H :    0.073086
   5 C :    0.065955
   6 H :    0.035399
   7 C :    0.052646
   8 H :    0.063125
   9 C :    0.199513
  10 H :    0.039938
  11 O :   -0.306879
  12 O :   -0.370859
  13 O :   -0.412085
  14 O :   -0.422389
  15 O :   -0.412291
  16 O :   -0.436463
  17 H :    0.078860
  18 H :    0.075955
  19 H :    0.305864
  20 H :    0.308978
  21 H :    0.304149
  22 H :    0.303981
  23 H :    0.300615
Sum of atomic charges:    0.0000000

LOEWDIN ATOMIC CHARGES
----------------------
   0 C :   -0.126965
   1 C :   -0.066150
   2 H :    0.103099
   3 C :   -0.086364
   4 H :    0.121570
   5 C :   -0.084974
   6 H :    0.095066
   7 C :   -0.076111
   8 H :    0.112132
   9 C :    0.009381
  10 H :    0.082096
  11 O :   -0.149502
  12 O :   -0.287439
  13 O :   -0.313788
  14 O :   -0.327548
  15 O :   -0.305133
  16 O :   -0.345034
  17 H :    0.106300
  18 H :    0.099881
  19 H :    0.290052
  20 H :    0.290570
  21 H :    0.284172
  22 H :    0.287858
  23 H :    0.286832

  Mayer bond orders larger than 0.100000
B(  0-C ,  1-C ) :   1.0525 B(  0-C , 16-O ) :   1.1025 B(  0-C , 17-H ) :   0.9017
B(  0-C , 18-H ) :   0.9122 B(  1-C ,  2-H ) :   0.8751 B(  1-C ,  3-C ) :   0.9847
B(  1-C , 11-O ) :   1.0031 B(  3-C ,  4-H ) :   0.8639 B(  3-C ,  5-C ) :   1.0067
B(  3-C , 15-O ) :   1.0025 B(  5-C ,  6-H ) :   0.8646 B(  5-C ,  7-C ) :   1.0127
B(  5-C , 14-O ) :   1.0905 B(  7-C ,  8-H ) :   0.8664 B(  7-C ,  9-C ) :   0.9913
B(  7-C , 13-O ) :   1.0780 B(  9-C , 10-H ) :   0.8849 B(  9-C , 11-O ) :   1.0057
B(  9-C , 12-O ) :   1.1964 B( 12-O , 19-H ) :   0.8407 B( 13-O , 20-H ) :   0.8417
B( 14-O , 21-H ) :   0.8313 B( 15-O , 22-H ) :   0.8436 B( 16-O , 23-H ) :   0.8510

Dispersion correction           -0.023466126
FINAL SINGLE POINT ENERGY      -685.694473215933

DIPOLE MOMENT
-------------

Method             : SCF
Type of density    : Electron Density
Multiplicity       :   1
Irrep              :   0
Energy             :  -685.8235011244407815 Eh
Relativity type    :
Basis              : AO
                                X                 Y                 Z
Electronic contribution:      2.830032088      -0.931844035      -0.102140507
Nuclear contribution   :     -4.038310734       1.258508036       0.204286575
                        -----------------------------------------
Total Dipole Moment    :     -1.208278646       0.326664001       0.102146068
                        -----------------------------------------
Magnitude (a.u.)       :      1.255818647
Magnitude (Debye)      :      3.192037327

Rotational constants in cm-1:             0.039662             0.025323             0.016397
Rotational constants in MHz :          1189.048220           759.150142           491.557445

                             ****ORCA TERMINATED NORMALLY****
TOTAL RUN TIME: 0 days 0 hours 0 minutes 11 seconds 633 msec
