                         Program Version 6.0.0  -   RELEASE  -
|  1> ! pbe def2-sv(p) def2/J RI DEFGRID1 loosescf d4 GCP(DFT/SV(P)) printgap
|  2> %output
|  3>     printlevel normal
|  4> end
|  5> * xyz 0 1
|  6> C -2.163482109 0.3545460392 0.4029413361
|  7> C -1.0301753119 0.1159010227 -0.5959046526
|  8> C -0.0001537523 -0.8073584215 -0.0220982571
|  9> C 1.2757636012 -0.5501256407 0.2230841212
| 10> C 2.0181498727 0.7222958514 -0.0251555363
| 11> H -1.7780105636 0.8260089031 1.3040696924
| 12> H -2.630378721 -0.5875987611 0.6816725212
| 13> H -2.9219912848 1.0017266935 -0.0306146045
| 14> H -1.4447605904 -0.3413198773 -1.4989546607
| 15> H -0.5883386682 1.0709186199 -0.8778026191
| 16> H -0.3844025974 -1.7901041024 0.2246318406
| 17> H 1.8860454815 -1.3372302187 0.6503004952
| 18> H 2.8201251322 0.5464549927 -0.7415002103
| 19> H 2.4744294796 1.0673681619 0.9020519292
| 20> H 1.3744520022 1.5068497388 -0.4096957552
| 21> *
| 22>
| 23>                          ****END OF INPUT****

CARTESIAN COORDINATES (ANGSTROEM)
---------------------------------
  C     -2.163482    0.354546    0.402941
  C     -1.030175    0.115901   -0.595905
  C     -0.000154   -0.807358   -0.022098
  C      1.275764   -0.550126    0.223084
  C      2.018150    0.722296   -0.025156
  H     -1.778011    0.826009    1.304070
  H     -2.630379   -0.587599    0.681673
  H     -2.921991    1.001727   -0.030615
  H     -1.444761   -0.341320   -1.498955
  H     -0.588339    1.070919   -0.877803
  H     -0.384403   -1.790104    0.224632
  H      1.886045   -1.337230    0.650300
  H      2.820125    0.546455   -0.741500
  H      2.474429    1.067368    0.902052
  H      1.374452    1.506850   -0.409696

 Total Charge           Charge          ....    0
 Multiplicity           Mult            ....    1
 Number of Electrons    NEL             ....   40
 Basis Dimension        Dim             ....   90

ORBITAL ENERGIES
----------------

  NO   OCC          E(Eh)            E(eV)
   0   2.0000      -9.884910      -268.9821
   1   2.0000      -9.880933      -268.8738
   2   2.0000      -9.878886      -268.8182
   3   2.0000      -9.877100      -268.7696
   4   2.0000      -9.873939      -268.6835
   5   2.0000      -0.722404       -19.6576
   6   2.0000      -0.672959       -18.3122
   7   2.0000      -0.606589       -16.5061
   8   2.0000      -0.546789       -14.8789
   9   2.0000      -0.465007       -12.6535
  10   2.0000      -0.430928       -11.7262
  11   2.0000      -0.386625       -10.5206
  12   2.0000      -0.378758       -10.3065
  13   2.0000      -0.364885        -9.9290
  14   2.0000      -0.336274        -9.1505
  15   2.0000      -0.324674        -8.8348
  16   2.0000      -0.321659        -8.7528
  17   2.0000      -0.296611        -8.0712
  18   2.0000      -0.277616        -7.5543
  19   2.0000      -0.209628        -5.7043
  20   0.0000      -0.002082        -0.0567
  21   0.0000       0.043936         1.1956
  22   0.0000       0.063391         1.7250
  23   0.0000       0.071717         1.9515
  24   0.0000       0.096684         2.6309

MULLIKEN ATOMIC CHARGES
-----------------------
   0 C :   -0.290339
   1 C :   -0.127662
   2 C :   -0.128610
   3 C :   -0.161203
   4 C :   -0.226943
   5 H :    0.106135
   6 H :    0.100993
   7 H :    0.102494
   8 H :    0.092079
   9 H :    0.086861
  10 H :    0.057968
  11 H :    0.063449
  12 H :    0.111969
  13 H :    0.109078
  14 H :    0.103732
Sum of atomic charges:   -0.0000000

LOEWDIN ATOMIC CHARGES
----------------------
   0 C :   -0.335990
   1 C :   -0.230983
   2 C :   -0.149619
   3 C :   -0.155593
   4 C :   -0.337902
   5 H :    0.119597
   6 H :    0.117114
   7 H :    0.117769
   8 H :    0.124256
   9 H :    0.117152
  10 H :    0.117119
  11 H :    0.117438
  12 H :    0.129881
  13 H :    0.128809
  14 H :    0.120952

  Mayer bond orders larger than 0.100000
B(  0-C ,  1-C ) :   1.1277 B(  0-C ,  5-H ) :   0.9575 B(  0-C ,  6-H ) :   0.9586
B(  0-C ,  7-H ) :   0.9506 B(  1-C ,  2-C ) :   1.0835 B(  1-C ,  8-H ) :   0.9085
B(  1-C ,  9-H ) :   0.9130 B(  2-C ,  3-C ) :   2.0080 B(  2-C , 10-H ) :   0.9231
B(  3-C ,  4-C ) :   1.1216 B(  3-C , 11-H ) :   0.9249 B(  4-C , 12-H ) :   0.9355
B(  4-C , 13-H ) :   0.9357 B(  4-C , 14-H ) :   0.9390

Dispersion correction           -0.009746813
FINAL SINGLE POINT ENERGY      -196.030989648251

DIPOLE MOMENT
-------------

Method             : SCF
Type of density    : Electron Density
Multiplicity       :   1
Irrep              :   0
Energy             :  -196.0790705316621825 Eh
Relativity type    :
Basis              : AO
                                X                 Y                 Z
Electronic contribution:      1.136943155      -1.757074160      -0.222294709
Nuclear contribution   :     -1.119079366       1.841700133       0.191535798
                        -----------------------------------------
Total Dipole Moment    :      0.017863789       0.084625973      -0.030758911
                        -----------------------------------------
Magnitude (a.u.)       :      0.091797499
Magnitude (Debye)      :      0.233330699

Rotational constants in cm-1:             0.370009             0.087623             0.080218
Rotational constants in MHz :         11092.578965          2626.882718          2404.878020

                             ****ORCA TERMINATED NORMALLY****
TOTAL RUN TIME: 0 days 0 hours 0 minutes 6 seconds 123 msec
