                         Program Version 6.0.0  -   RELEASE  -
|  1> ! wb97x-v def2-tzvp def2/J RIJCOSX DEFGRID2 scfconv7 GCP(DFT/TZ) printgap
|  2> %output
|  3>     printlevel normal
|  4> end
|  5> * xyz 0 1
|  6> C -1.07867035500263 -1.877419382785828 8.204604122856005e-06
|  7> C 0.2566727653554073 -1.4951831855909559 2.2442714459337378e-05
|  8> C 0.5355118836783491 -0.13198779723424328 4.028163828848899e-05
|  9> C -0.449500681105367 0.8477347740469975 0.0001019538575640545
| 10> C -1.7779611125819565 0.4338627080556054 7.906497408125838e-05
| 11> C -2.0945666752611776 -0.9279136956789095 -1.2655594351909546e-05
| 12> O -2.7354613321828736 1.4093836962482087 5.802988803122584e-05
| 13> N 1.9368626301623308 0.2993229682952452 -6.414451312654252e-05
| 14> O 2.813037018335751 -0.5644721328126417 -9.06481073168731e-05
| 15> O 2.177784055057438 1.5057260470098894 2.856631606705524e-05
| 16> H -1.3343679007789444 -2.9312265290524744 -3.0952257098011586e-05
| 17> H 1.0528278398754771 -2.227162678186794 5.388252789029472e-05
| 18> H -0.20095548280869904 1.9011409526111114 0.00017756141977912665
| 19> H -3.1362858204643334 -1.235326721688865 -0.00011647252618507117
| 20> H -3.6134187151783834 1.0010371784126322 -2.532011068980048e-05
| 21> *
| 22>
| 23>                          ****END OF INPUT****

CARTESIAN COORDINATES (ANGSTROEM)
---------------------------------
  C     -1.078670   -1.877419    0.000008
  C      0.256673   -1.495183    0.000022
  C      0.535512   -0.131988    0.000040
  C     -0.449501    0.847735    0.000102
  C     -1.777961    0.433863    0.000079
  C     -2.094567   -0.927914   -0.000013
  O     -2.735461    1.409384    0.000058
  N      1.936863    0.299323   -0.000064
  O      2.813037   -0.564472   -0.000091
  O      2.177784    1.505726    0.000029
  H     -1.334368   -2.931227   -0.000031
  H      1.052828   -2.227163    0.000054
  H     -0.200955    1.901141    0.000178
  H     -3.136286   -1.235327   -0.000116
  H     -3.613419    1.001037   -0.000025

 Total Charge           Charge          ....    0
 Multiplicity           Mult            ....    1
 Number of Electrons    NEL             ....   72
 Basis Dimension        Dim             ....  340

ORBITAL ENERGIES
----------------

  NO   OCC          E(Eh)            E(eV)
   0   2.0000     -21.728636      -591.2662
   1   2.0000     -21.709052      -590.7334
   2   2.0000     -21.708813      -590.7268
   3   2.0000     -16.775063      -456.4727
   4   2.0000     -12.145489      -330.4955
   5   2.0000     -12.127149      -329.9965
   6   2.0000     -12.087118      -328.9072
   7   2.0000     -12.084954      -328.8483
   8   2.0000     -12.082491      -328.7813
   9   2.0000     -12.080468      -328.7262
  10   2.0000      -1.902183       -51.7610
  11   2.0000      -1.746808       -47.5331
  12   2.0000      -1.745167       -47.4884
  13   2.0000      -1.442797       -39.2605
  14   2.0000      -1.376095       -37.4454
  15   2.0000      -1.317556       -35.8525
  16   2.0000      -1.276916       -34.7467
  17   2.0000      -1.193783       -32.4845
  18   2.0000      -1.176794       -32.0222
  19   2.0000      -1.144745       -31.1501
  20   2.0000      -1.130141       -30.7527
  21   2.0000      -1.075960       -29.2784
  22   2.0000      -1.058571       -28.8052
  23   2.0000      -1.034171       -28.1412
  24   2.0000      -0.982830       -26.7442
  25   2.0000      -0.974616       -26.5207
  26   2.0000      -0.973760       -26.4974
  27   2.0000      -0.925620       -25.1874
  28   2.0000      -0.914958       -24.8973
  29   2.0000      -0.903400       -24.5828
  30   2.0000      -0.894461       -24.3395
  31   2.0000      -0.875928       -23.8352
  32   2.0000      -0.857087       -23.3225
  33   2.0000      -0.809000       -22.0140
  34   2.0000      -0.691058       -18.8046
  35   2.0000      -0.669645       -18.2220
  36   0.0000      -0.484916       -13.1952
  37   0.0000      -0.275015        -7.4835
  38   0.0000      -0.269303        -7.3281
  39   0.0000      -0.238339        -6.4855
  40   0.0000      -0.166468        -4.5298

MULLIKEN ATOMIC CHARGES
-----------------------
   0 C :   -0.077236
   1 C :   -0.220812
   2 C :    0.097560
   3 C :   -0.264346
   4 C :    0.292529
   5 C :   -0.202621
   6 O :   -0.374066
   7 N :    0.452250
   8 O :   -0.309496
   9 O :   -0.307494
  10 H :    0.135369
  11 H :    0.165666
  12 H :    0.172283
  13 H :    0.122292
  14 H :    0.318122
Sum of atomic charges:   -0.0000000

LOEWDIN ATOMIC CHARGES
----------------------
   0 C :   -0.122640
   1 C :   -0.105987
   2 C :   -0.155007
   3 C :   -0.067589
   4 C :   -0.258319
   5 C :   -0.121542
   6 O :    0.083904
   7 N :   -0.000725
   8 O :   -0.029347
   9 O :   -0.028320
  10 H :    0.149244
  11 H :    0.157050
  12 H :    0.164320
  13 H :    0.144785
  14 H :    0.190174

  Mayer bond orders larger than 0.100000
B(  0-C ,  1-C ) :   1.4372 B(  0-C ,  5-C ) :   1.4297 B(  0-C , 10-H ) :   0.9606
B(  1-C ,  2-C ) :   1.4291 B(  1-C , 11-H ) :   0.9352 B(  2-C ,  3-C ) :   1.4353
B(  2-C ,  7-N ) :   0.9847 B(  3-C ,  4-C ) :   1.3907 B(  3-C , 12-H ) :   0.9397
B(  4-C ,  5-C ) :   1.3664 B(  4-C ,  6-O ) :   1.1748 B(  5-C , 13-H ) :   0.9538
B(  6-O , 14-H ) :   0.8842 B(  7-N ,  8-O ) :   1.6484 B(  7-N ,  9-O ) :   1.6535
B(  8-O ,  9-O ) :   0.2033

FINAL SINGLE POINT ENERGY      -512.010147855582

DIPOLE MOMENT
-------------

Method             : SCF
Type of density    : Electron Density
Multiplicity       :   1
Irrep              :   0
Energy             :  -512.0181698979821476 Eh
Relativity type    :
Basis              : AO
                                X                 Y                 Z
Electronic contribution:      4.617434182       2.341550841      -0.000020917
Nuclear contribution   :     -6.760491165      -3.254105960      -0.000012479
                        -----------------------------------------
Total Dipole Moment    :     -2.143056984      -0.912555119      -0.000033397
                        -----------------------------------------
Magnitude (a.u.)       :      2.329259556
Magnitude (Debye)      :      5.920507282

Rotational constants in cm-1:             0.091195             0.032918             0.024187
Rotational constants in MHz :          2733.948666           986.864465           725.120208

                             ****ORCA TERMINATED NORMALLY****
TOTAL RUN TIME: 0 days 0 hours 3 minutes 10 seconds 443 msec
