                         Program Version 6.0.0  -   RELEASE  -
|  1> ! wb97x-v def2-tzvp def2/J RIJCOSX DEFGRID2 scfconv7 GCP(DFT/TZ) printgap
|  2> %output
|  3>     printlevel normal
|  4> end
|  5> %cpcm
|  6>     smd true
|  7>     smdsolvent "water"
|  8> end
|  9> * xyz 0 1
| 10> C -1.07867035500263 -1.877419382785828 8.204604122856005e-06
| 11> C 0.2566727653554073 -1.4951831855909559 2.2442714459337378e-05
| 12> C 0.5355118836783491 -0.13198779723424328 4.028163828848899e-05
| 13> C -0.449500681105367 0.8477347740469975 0.0001019538575640545
| 14> C -1.7779611125819565 0.4338627080556054 7.906497408125838e-05
| 15> C -2.0945666752611776 -0.9279136956789095 -1.2655594351909546e-05
| 16> O -2.7354613321828736 1.4093836962482087 5.802988803122584e-05
| 17> N 1.9368626301623308 0.2993229682952452 -6.414451312654252e-05
| 18> O 2.813037018335751 -0.5644721328126417 -9.06481073168731e-05
| 19> O 2.177784055057438 1.5057260470098894 2.856631606705524e-05
| 20> H -1.3343679007789444 -2.9312265290524744 -3.0952257098011586e-05
| 21> H 1.0528278398754771 -2.227162678186794 5.388252789029472e-05
| 22> H -0.20095548280869904 1.9011409526111114 0.00017756141977912665
| 23> H -3.1362858204643334 -1.235326721688865 -0.00011647252618507117
| 24> H -3.6134187151783834 1.0010371784126322 -2.532011068980048e-05
| 25> *
| 26>
| 27>                          ****END OF INPUT****

CARTESIAN COORDINATES (ANGSTROEM)
---------------------------------
  C     -1.078670   -1.877419    0.000008
  C      0.256673   -1.495183    0.000022
  C      0.535512   -0.131988    0.000040
  C     -0.449501    0.847735    0.000102
  C     -1.777961    0.433863    0.000079
  C     -2.094567   -0.927914   -0.000013
  O     -2.735461    1.409384    0.000058
  N      1.936863    0.299323   -0.000064
  O      2.813037   -0.564472   -0.000091
  O      2.177784    1.505726    0.000029
  H     -1.334368   -2.931227   -0.000031
  H      1.052828   -2.227163    0.000054
  H     -0.200955    1.901141    0.000178
  H     -3.136286   -1.235327   -0.000116
  H     -3.613419    1.001037   -0.000025

 Total Charge           Charge          ....    0
 Multiplicity           Mult            ....    1
 Number of Electrons    NEL             ....   72
 Basis Dimension        Dim             ....  340

ORBITAL ENERGIES
----------------

  NO   OCC          E(Eh)            E(eV)
   0   2.0000     -21.722911      -591.1105
   1   2.0000     -21.722734      -591.1056
   2   2.0000     -21.709702      -590.7510
   3   2.0000     -16.787703      -456.8166
   4   2.0000     -12.130378      -330.0844
   5   2.0000     -12.119096      -329.7774
   6   2.0000     -12.071549      -328.4835
   7   2.0000     -12.069668      -328.4324
   8   2.0000     -12.068094      -328.3895
   9   2.0000     -12.066196      -328.3379
  10   2.0000      -1.915930       -52.1351
  11   2.0000      -1.761289       -47.9271
  12   2.0000      -1.726485       -46.9800
  13   2.0000      -1.437572       -39.1183
  14   2.0000      -1.370168       -37.2842
  15   2.0000      -1.303660       -35.4744
  16   2.0000      -1.272805       -34.6348
  17   2.0000      -1.191530       -32.4232
  18   2.0000      -1.172324       -31.9006
  19   2.0000      -1.153714       -31.3942
  20   2.0000      -1.121821       -30.5263
  21   2.0000      -1.088643       -29.6235
  22   2.0000      -1.046505       -28.4769
  23   2.0000      -1.021179       -27.7877
  24   2.0000      -0.967346       -26.3228
  25   2.0000      -0.959399       -26.1066
  26   2.0000      -0.958224       -26.0746
  27   2.0000      -0.933612       -25.4049
  28   2.0000      -0.923623       -25.1331
  29   2.0000      -0.912533       -24.8313
  30   2.0000      -0.898161       -24.4402
  31   2.0000      -0.858858       -23.3707
  32   2.0000      -0.840348       -22.8670
  33   2.0000      -0.797841       -21.7103
  34   2.0000      -0.678890       -18.4735
  35   2.0000      -0.656674       -17.8690
  36   0.0000      -0.493979       -13.4419
  37   0.0000      -0.261705        -7.1214
  38   0.0000      -0.256065        -6.9679
  39   0.0000      -0.242526        -6.5995
  40   0.0000      -0.157712        -4.2916

MULLIKEN ATOMIC CHARGES
-----------------------
   0 C :   -0.105183
   1 C :   -0.242587
   2 C :    0.137701
   3 C :   -0.280423
   4 C :    0.297958
   5 C :   -0.235154
   6 O :   -0.452197
   7 N :    0.509900
   8 O :   -0.369614
   9 O :   -0.369324
  10 H :    0.177049
  11 H :    0.184326
  12 H :    0.182798
  13 H :    0.180869
  14 H :    0.383879
Sum of atomic charges:   -0.0000000

LOEWDIN ATOMIC CHARGES
----------------------
   0 C :   -0.118735
   1 C :   -0.106200
   2 C :   -0.161910
   3 C :   -0.073243
   4 C :   -0.258961
   5 C :   -0.097755
   6 O :    0.061733
   7 N :    0.013177
   8 O :   -0.063650
   9 O :   -0.063562
  10 H :    0.160735
  11 H :    0.161685
  12 H :    0.166642
  13 H :    0.163751
  14 H :    0.216293

  Mayer bond orders larger than 0.100000
B(  0-C ,  1-C ) :   1.4303 B(  0-C ,  5-C ) :   1.3906 B(  0-C , 10-H ) :   0.9605
B(  1-C ,  2-C ) :   1.3726 B(  1-C , 11-H ) :   0.9454 B(  2-C ,  3-C ) :   1.4040
B(  2-C ,  7-N ) :   0.9965 B(  3-C ,  4-C ) :   1.4094 B(  3-C , 12-H ) :   0.9377
B(  4-C ,  5-C ) :   1.3604 B(  4-C ,  6-O ) :   1.1323 B(  5-C , 13-H ) :   0.9611
B(  6-O , 14-H ) :   0.8429 B(  7-N ,  8-O ) :   1.6129 B(  7-N ,  9-O ) :   1.6181
B(  8-O ,  9-O ) :   0.1898

FINAL SINGLE POINT ENERGY      -512.022179646898

DIPOLE MOMENT
-------------

Method             : SCF
Type of density    : Electron Density
Multiplicity       :   1
Irrep              :   0
Energy             :  -512.0302016892981101 Eh
Relativity type    :
Basis              : AO
                                X                 Y                 Z
Electronic contribution:      3.818602388       1.953110492      -0.000038093
Nuclear contribution   :     -6.760491165      -3.254105960      -0.000012479
                        -----------------------------------------
Total Dipole Moment    :     -2.941888777      -1.300995468      -0.000050572
                        -----------------------------------------
Magnitude (a.u.)       :      3.216721745
Magnitude (Debye)      :      8.176256898

Rotational constants in cm-1:             0.091195             0.032918             0.024187
Rotational constants in MHz :          2733.948666           986.864465           725.120208

                             ****ORCA TERMINATED NORMALLY****
TOTAL RUN TIME: 0 days 0 hours 3 minutes 1 seconds 264 msec
