                         Program Version 6.0.0  -   RELEASE  -
|  1> ! wb97x-v def2-tzvp def2/J RIJCOSX DEFGRID2 scfconv7 GCP(DFT/TZ) printgap
|  2> %output
|  3>     printlevel normal
|  4> end
|  5> * xyz 0 1
|  6> C -2.5766611293653052 -0.6912916379788935 -0.2709893213546664
|  7> C -1.2069109684486328 -0.2948602597743918 0.2393822868601629
|  8> H -1.2120439718478901 -0.26190822465888863 1.3410918730157844
|  9> C -0.7436227114638363 1.0603204448130361 -0.3078481026928325
| 10> H -0.7778084001975352 1.0409575983906771 -1.4066874637290356
| 11> C 0.6848081535099196 1.3236303994308087 0.15054167391337608
| 12> H 0.6801861220676682 1.4402981491902913 1.2464497487026964
| 13> C 1.6012814196038265 0.16252519436999444 -0.21032553038077254
| 14> H 1.6719521462356315 0.0835576097572578 -1.308085683264638
| 15> C 1.0222931282981524 -1.144442835472411 0.3248300734767763
| 16> H 0.9819051664358275 -1.1322363144302405 1.4239407088479288
| 17> O -0.29431335585105756 -1.31637176610618 -0.20686679882862952
| 18> O 1.784750160447023 -2.2638194906467675 -0.03715457926886077
| 19> O 2.897613469011273 0.32800079686826683 0.36668886811304974
| 20> O 1.2328378215968105 2.49528200449599 -0.46397089246670126
| 21> O -1.5460980849465649 2.133137185047701 0.20135043217808934
| 22> O -3.0372941225047687 -1.9140258907989776 0.3155125562638975
| 23> H -2.5465197474418004 -0.7707183555105761 -1.3675377281037764
| 24> H -3.3031554682117403 0.07842847278626326 0.003381285098856297
| 25> H 1.9746877157199552 -2.209581850599367 -0.9862493488392913
| 26> H 3.2301910644089906 1.1890896990163011 0.0788705365346213
| 27> H 0.7250503905407994 3.2522564471438664 -0.14251477409469201
| 28> H -2.3318719005143684 2.2107434821515417 -0.35415924718652336
| 29> H -2.413098008088011 -2.6055136104983108 0.05822739256508499
| 30> *
| 31>
| 32>                          ****END OF INPUT****

CARTESIAN COORDINATES (ANGSTROEM)
---------------------------------
  C     -2.576661   -0.691292   -0.270989
  C     -1.206911   -0.294860    0.239382
  H     -1.212044   -0.261908    1.341092
  C     -0.743623    1.060320   -0.307848
  H     -0.777808    1.040958   -1.406687
  C      0.684808    1.323630    0.150542
  H      0.680186    1.440298    1.246450
  C      1.601281    0.162525   -0.210326
  H      1.671952    0.083558   -1.308086
  C      1.022293   -1.144443    0.324830
  H      0.981905   -1.132236    1.423941
  O     -0.294313   -1.316372   -0.206867
  O      1.784750   -2.263819   -0.037155
  O      2.897613    0.328001    0.366689
  O      1.232838    2.495282   -0.463971
  O     -1.546098    2.133137    0.201350
  O     -3.037294   -1.914026    0.315513
  H     -2.546520   -0.770718   -1.367538
  H     -3.303155    0.078428    0.003381
  H      1.974688   -2.209582   -0.986249
  H      3.230191    1.189090    0.078871
  H      0.725050    3.252256   -0.142515
  H     -2.331872    2.210743   -0.354159
  H     -2.413098   -2.605514    0.058227

 Total Charge           Charge          ....    0
 Multiplicity           Mult            ....    1
 Number of Electrons    NEL             ....   96
 Basis Dimension        Dim             ....  444

ORBITAL ENERGIES
----------------

  NO   OCC          E(Eh)            E(eV)
   0   2.0000     -21.703047      -590.5699
   1   2.0000     -21.696047      -590.3795
   2   2.0000     -21.692511      -590.2832
   3   2.0000     -21.688218      -590.1664
   4   2.0000     -21.681339      -589.9792
   5   2.0000     -21.677012      -589.8615
   6   2.0000     -12.159382      -330.8736
   7   2.0000     -12.120991      -329.8289
   8   2.0000     -12.117213      -329.7261
   9   2.0000     -12.114843      -329.6617
  10   2.0000     -12.114238      -329.6452
  11   2.0000     -12.106927      -329.4462
  12   2.0000      -1.724698       -46.9314
  13   2.0000      -1.706153       -46.4268
  14   2.0000      -1.695002       -46.1233
  15   2.0000      -1.683984       -45.8235
  16   2.0000      -1.681190       -45.7475
  17   2.0000      -1.675432       -45.5908
  18   2.0000      -1.347358       -36.6635
  19   2.0000      -1.327790       -36.1310
  20   2.0000      -1.243711       -33.8431
  21   2.0000      -1.207659       -32.8621
  22   2.0000      -1.174173       -31.9509
  23   2.0000      -1.133232       -30.8368
  24   2.0000      -1.094832       -29.7919
  25   2.0000      -1.068587       -29.0777
  26   2.0000      -1.061095       -28.8739
  27   2.0000      -1.043803       -28.4033
  28   2.0000      -1.041628       -28.3441
  29   2.0000      -1.021129       -27.7863
  30   2.0000      -1.005767       -27.3683
  31   2.0000      -0.991739       -26.9866
  32   2.0000      -0.987381       -26.8680
  33   2.0000      -0.971338       -26.4314
  34   2.0000      -0.961333       -26.1592
  35   2.0000      -0.954984       -25.9864
  36   2.0000      -0.944180       -25.6924
  37   2.0000      -0.936723       -25.4895
  38   2.0000      -0.927533       -25.2394
  39   2.0000      -0.914497       -24.8847
  40   2.0000      -0.907119       -24.6840
  41   2.0000      -0.893214       -24.3056
  42   2.0000      -0.854028       -23.2393
  43   2.0000      -0.840348       -22.8670
  44   2.0000      -0.829145       -22.5622
  45   2.0000      -0.818339       -22.2681
  46   2.0000      -0.800961       -21.7953
  47   2.0000      -0.780560       -21.2401
  48   0.0000      -0.249007        -6.7758
  49   0.0000      -0.201511        -5.4834
  50   0.0000      -0.182624        -4.9694
  51   0.0000      -0.164305        -4.4710
  52   0.0000      -0.130069        -3.5394

MULLIKEN ATOMIC CHARGES
-----------------------
   0 C :   -0.026226
   1 C :    0.036997
   2 H :    0.087363
   3 C :    0.001240
   4 H :    0.092114
   5 C :    0.048393
   6 H :    0.097951
   7 C :    0.059775
   8 H :    0.072689
   9 C :    0.121498
  10 H :    0.085441
  11 O :   -0.269897
  12 O :   -0.389935
  13 O :   -0.419695
  14 O :   -0.459834
  15 O :   -0.444764
  16 O :   -0.448776
  17 H :    0.096573
  18 H :    0.088686
  19 H :    0.305587
  20 H :    0.315794
  21 H :    0.319584
  22 H :    0.314982
  23 H :    0.314459
Sum of atomic charges:   -0.0000000

LOEWDIN ATOMIC CHARGES
----------------------
   0 C :   -0.315029
   1 C :   -0.305207
   2 H :    0.146056
   3 C :   -0.307818
   4 H :    0.142354
   5 C :   -0.313038
   6 H :    0.148015
   7 C :   -0.317954
   8 H :    0.139723
   9 C :   -0.398408
  10 H :    0.136616
  11 O :    0.179024
  12 O :    0.020499
  13 O :   -0.005528
  14 O :   -0.018602
  15 O :   -0.011480
  16 O :   -0.046244
  17 H :    0.120729
  18 H :    0.127809
  19 H :    0.178036
  20 H :    0.176472
  21 H :    0.177364
  22 H :    0.172865
  23 H :    0.173745

  Mayer bond orders larger than 0.100000
B(  0-C ,  1-C ) :   0.9523 B(  0-C , 16-O ) :   1.0404 B(  0-C , 17-H ) :   0.9735
B(  0-C , 18-H ) :   0.9695 B(  1-C ,  2-H ) :   0.9594 B(  1-C ,  3-C ) :   0.9168
B(  1-C , 11-O ) :   0.9598 B(  3-C ,  4-H ) :   0.9620 B(  3-C ,  5-C ) :   0.9391
B(  3-C , 15-O ) :   1.1018 B(  5-C ,  6-H ) :   0.9810 B(  5-C ,  7-C ) :   0.9682
B(  5-C , 14-O ) :   1.0648 B(  7-C ,  8-H ) :   0.9485 B(  7-C ,  9-C ) :   0.9704
B(  7-C , 13-O ) :   1.1139 B(  9-C , 10-H ) :   0.9740 B(  9-C , 11-O ) :   1.0181
B(  9-C , 12-O ) :   1.1628 B( 12-O , 19-H ) :   0.8885 B( 13-O , 20-H ) :   0.8845
B( 14-O , 21-H ) :   0.8866 B( 15-O , 22-H ) :   0.8966 B( 16-O , 23-H ) :   0.8890

FINAL SINGLE POINT ENERGY      -687.247192100030

DIPOLE MOMENT
-------------

Method             : SCF
Type of density    : Electron Density
Multiplicity       :   1
Irrep              :   0
Energy             :  -687.2659632517299997 Eh
Relativity type    :
Basis              : AO
                                X                 Y                 Z
Electronic contribution:      2.608086678      -1.172122332       0.448989580
Nuclear contribution   :     -3.012514508       2.244589470      -1.354194438
                        -----------------------------------------
Total Dipole Moment    :     -0.404427830       1.072467137      -0.905204858
                        -----------------------------------------
Magnitude (a.u.)       :      1.460528488
Magnitude (Debye)      :      3.712368391

Rotational constants in cm-1:             0.038686             0.026013             0.016295
Rotational constants in MHz :          1159.777280           779.852896           488.522616

                             ****ORCA TERMINATED NORMALLY****
TOTAL RUN TIME: 0 days 0 hours 4 minutes 47 seconds 563 msec
