                         Program Version 6.0.0  -   RELEASE  -
|  1> ! wb97x-v def2-tzvp def2/J RIJCOSX DEFGRID2 scfconv7 GCP(DFT/TZ) printgap
|  2> %output
|  3>     printlevel normal
|  4> end
|  5> %cpcm
|  6>     smd true
|  7>     smdsolvent "water"
|  8> end
|  9> * xyz 0 1
| 10> C -2.5766611293653052 -0.6912916379788935 -0.2709893213546664
| 11> C -1.2069109684486328 -0.2948602597743918 0.2393822868601629
| 12> H -1.2120439718478901 -0.26190822465888863 1.3410918730157844
| 13> C -0.7436227114638363 1.0603204448130361 -0.3078481026928325
| 14> H -0.7778084001975352 1.0409575983906771 -1.4066874637290356
| 15> C 0.6848081535099196 1.3236303994308087 0.15054167391337608
| 16> H 0.6801861220676682 1.4402981491902913 1.2464497487026964
| 17> C 1.6012814196038265 0.16252519436999444 -0.21032553038077254
| 18> H 1.6719521462356315 0.0835576097572578 -1.308085683264638
| 19> C 1.0222931282981524 -1.144442835472411 0.3248300734767763
| 20> H 0.9819051664358275 -1.1322363144302405 1.4239407088479288
| 21> O -0.29431335585105756 -1.31637176610618 -0.20686679882862952
| 22> O 1.784750160447023 -2.2638194906467675 -0.03715457926886077
| 23> O 2.897613469011273 0.32800079686826683 0.36668886811304974
| 24> O 1.2328378215968105 2.49528200449599 -0.46397089246670126
| 25> O -1.5460980849465649 2.133137185047701 0.20135043217808934
| 26> O -3.0372941225047687 -1.9140258907989776 0.3155125562638975
| 27> H -2.5465197474418004 -0.7707183555105761 -1.3675377281037764
| 28> H -3.3031554682117403 0.07842847278626326 0.003381285098856297
| 29> H 1.9746877157199552 -2.209581850599367 -0.9862493488392913
| 30> H 3.2301910644089906 1.1890896990163011 0.0788705365346213
| 31> H 0.7250503905407994 3.2522564471438664 -0.14251477409469201
| 32> H -2.3318719005143684 2.2107434821515417 -0.35415924718652336
| 33> H -2.413098008088011 -2.6055136104983108 0.05822739256508499
| 34> *
| 35>
| 36>                          ****END OF INPUT****

CARTESIAN COORDINATES (ANGSTROEM)
---------------------------------
  C     -2.576661   -0.691292   -0.270989
  C     -1.206911   -0.294860    0.239382
  H     -1.212044   -0.261908    1.341092
  C     -0.743623    1.060320   -0.307848
  H     -0.777808    1.040958   -1.406687
  C      0.684808    1.323630    0.150542
  H      0.680186    1.440298    1.246450
  C      1.601281    0.162525   -0.210326
  H      1.671952    0.083558   -1.308086
  C      1.022293   -1.144443    0.324830
  H      0.981905   -1.132236    1.423941
  O     -0.294313   -1.316372   -0.206867
  O      1.784750   -2.263819   -0.037155
  O      2.897613    0.328001    0.366689
  O      1.232838    2.495282   -0.463971
  O     -1.546098    2.133137    0.201350
  O     -3.037294   -1.914026    0.315513
  H     -2.546520   -0.770718   -1.367538
  H     -3.303155    0.078428    0.003381
  H      1.974688   -2.209582   -0.986249
  H      3.230191    1.189090    0.078871
  H      0.725050    3.252256   -0.142515
  H     -2.331872    2.210743   -0.354159
  H     -2.413098   -2.605514    0.058227

 Total Charge           Charge          ....    0
 Multiplicity           Mult            ....    1
 Number of Electrons    NEL             ....   96
 Basis Dimension        Dim             ....  444

ORBITAL ENERGIES
----------------

  NO   OCC          E(Eh)            E(eV)
   0   2.0000     -21.691863      -590.2656
   1   2.0000     -21.691331      -590.2511
   2   2.0000     -21.684122      -590.0549
   3   2.0000     -21.682472      -590.0101
   4   2.0000     -21.682280      -590.0048
   5   2.0000     -21.677571      -589.8767
   6   2.0000     -12.153694      -330.7188
   7   2.0000     -12.104614      -329.3833
   8   2.0000     -12.103566      -329.3548
   9   2.0000     -12.102486      -329.3254
  10   2.0000     -12.101488      -329.2982
  11   2.0000     -12.091771      -329.0338
  12   2.0000      -1.723593       -46.9013
  13   2.0000      -1.691267       -46.0217
  14   2.0000      -1.686846       -45.9014
  15   2.0000      -1.681722       -45.7620
  16   2.0000      -1.679053       -45.6894
  17   2.0000      -1.675833       -45.6017
  18   2.0000      -1.333599       -36.2891
  19   2.0000      -1.319310       -35.9003
  20   2.0000      -1.233919       -33.5766
  21   2.0000      -1.198963       -32.6254
  22   2.0000      -1.166964       -31.7547
  23   2.0000      -1.127154       -30.6714
  24   2.0000      -1.088864       -29.6295
  25   2.0000      -1.057681       -28.7810
  26   2.0000      -1.049251       -28.5516
  27   2.0000      -1.039211       -28.2784
  28   2.0000      -1.035967       -28.1901
  29   2.0000      -1.019624       -27.7454
  30   2.0000      -1.002663       -27.2838
  31   2.0000      -0.984264       -26.7832
  32   2.0000      -0.978105       -26.6156
  33   2.0000      -0.967697       -26.3324
  34   2.0000      -0.960625       -26.1399
  35   2.0000      -0.952568       -25.9207
  36   2.0000      -0.938301       -25.5325
  37   2.0000      -0.933537       -25.4028
  38   2.0000      -0.923290       -25.1240
  39   2.0000      -0.906841       -24.6764
  40   2.0000      -0.902621       -24.5616
  41   2.0000      -0.890065       -24.2199
  42   2.0000      -0.844876       -22.9902
  43   2.0000      -0.830610       -22.6020
  44   2.0000      -0.816850       -22.2276
  45   2.0000      -0.807052       -21.9610
  46   2.0000      -0.789589       -21.4858
  47   2.0000      -0.766527       -20.8583
  48   0.0000      -0.237053        -6.4505
  49   0.0000      -0.192303        -5.2328
  50   0.0000      -0.174214        -4.7406
  51   0.0000      -0.152075        -4.1382
  52   0.0000      -0.118100        -3.2137

MULLIKEN ATOMIC CHARGES
-----------------------
   0 C :   -0.017434
   1 C :    0.024201
   2 H :    0.102613
   3 C :    0.015771
   4 H :    0.115518
   5 C :    0.096455
   6 H :    0.107011
   7 C :    0.063667
   8 H :    0.110487
   9 C :    0.143586
  10 H :    0.119723
  11 O :   -0.328892
  12 O :   -0.496317
  13 O :   -0.520777
  14 O :   -0.531375
  15 O :   -0.530234
  16 O :   -0.549017
  17 H :    0.120327
  18 H :    0.129310
  19 H :    0.369793
  20 H :    0.361775
  21 H :    0.362894
  22 H :    0.373091
  23 H :    0.357824
Sum of atomic charges:   -0.0000000

LOEWDIN ATOMIC CHARGES
----------------------
   0 C :   -0.308313
   1 C :   -0.299408
   2 H :    0.151945
   3 C :   -0.296648
   4 H :    0.153073
   5 C :   -0.308002
   6 H :    0.154157
   7 C :   -0.311092
   8 H :    0.152773
   9 C :   -0.401640
  10 H :    0.144125
  11 O :    0.162151
  12 O :   -0.018806
  13 O :   -0.042961
  14 O :   -0.042977
  15 O :   -0.035659
  16 O :   -0.087853
  17 H :    0.129757
  18 H :    0.138451
  19 H :    0.200943
  20 H :    0.191704
  21 H :    0.192012
  22 H :    0.195484
  23 H :    0.186782

  Mayer bond orders larger than 0.100000
B(  0-C ,  1-C ) :   0.9657 B(  0-C , 16-O ) :   0.9834 B(  0-C , 17-H ) :   0.9722
B(  0-C , 18-H ) :   0.9641 B(  1-C ,  2-H ) :   0.9508 B(  1-C ,  3-C ) :   0.9647
B(  1-C , 11-O ) :   0.9351 B(  3-C ,  4-H ) :   0.9594 B(  3-C ,  5-C ) :   0.9624
B(  3-C , 15-O ) :   1.0681 B(  5-C ,  6-H ) :   0.9605 B(  5-C ,  7-C ) :   0.9835
B(  5-C , 14-O ) :   1.0401 B(  7-C ,  8-H ) :   0.9528 B(  7-C ,  9-C ) :   0.9777
B(  7-C , 13-O ) :   1.0508 B(  9-C , 10-H ) :   0.9710 B(  9-C , 11-O ) :   1.0093
B(  9-C , 12-O ) :   1.1161 B( 12-O , 19-H ) :   0.8496 B( 13-O , 20-H ) :   0.8568
B( 14-O , 21-H ) :   0.8586 B( 15-O , 22-H ) :   0.8603 B( 16-O , 23-H ) :   0.8634

FINAL SINGLE POINT ENERGY      -687.287528915845

DIPOLE MOMENT
-------------

Method             : SCF
Type of density    : Electron Density
Multiplicity       :   1
Irrep              :   0
Energy             :  -687.3063000675451804 Eh
Relativity type    :
Basis              : AO
                                X                 Y                 Z
Electronic contribution:      2.365808232      -0.758811526       0.068867167
Nuclear contribution   :     -3.012514508       2.244589470      -1.354194438
                        -----------------------------------------
Total Dipole Moment    :     -0.646706276       1.485777944      -1.285327271
                        -----------------------------------------
Magnitude (a.u.)       :      2.068291880
Magnitude (Debye)      :      5.257180164

Rotational constants in cm-1:             0.038686             0.026013             0.016295
Rotational constants in MHz :          1159.777280           779.852896           488.522616

                             ****ORCA TERMINATED NORMALLY****
TOTAL RUN TIME: 0 days 0 hours 5 minutes 21 seconds 903 msec
