                         Program Version 6.0.0  -   RELEASE  -
|  1> ! r2scan-3c def2/J RI DEFGRID2 scfconv6 printgap
|  2> %output
|  3>     printlevel normal
|  4> end
|  5> * xyz 0 1
|  6> C -3.2036340606 0.5626629245 -0.0088804593
|  7> O -2.297277911 -0.5194686044 -0.0009625331
|  8> C -0.9483693202 -0.2383536217 0.001444633
|  9> C -0.0978856201 -1.3425833568 0.0023355459
| 10> C 1.2692232552 -1.1770958075 0.0079238392
| 11> C 1.8359990583 0.100882434 0.010945852
| 12> C 0.9763743454 1.1977156118 0.012088888
| 13> C -0.3979673268 1.035702893 0.0062470528
| 14> N 3.2042033086 0.2689068955 -0.0610880149
| 15> H -3.0906124807 1.1818111205 0.8859019224
| 16> H -4.1925339883 0.1092228459 -0.0158794149
| 17> H -3.076828776 1.1800447953 -0.9029602701
| 18> H -0.5376233548 -2.3277869247 0.0013227555
| 19> H 1.9126758198 -2.0442411695 0.0077280875
| 20> H 1.3893539126 2.1957149449 0.0150782424
| 21> H -1.0247622636 1.9132091763 0.008196785
| 22> H 3.7558879713 -0.5181279759 0.2384636394
| 23> H 3.5509186136 1.1635975836 0.2437675317
| 24> *
| 25>
| 26>                          ****END OF INPUT****

CARTESIAN COORDINATES (ANGSTROEM)
---------------------------------
  C     -3.203634    0.562663   -0.008880
  O     -2.297278   -0.519469   -0.000963
  C     -0.948369   -0.238354    0.001445
  C     -0.097886   -1.342583    0.002336
  C      1.269223   -1.177096    0.007924
  C      1.835999    0.100882    0.010946
  C      0.976374    1.197716    0.012089
  C     -0.397967    1.035703    0.006247
  N      3.204203    0.268907   -0.061088
  H     -3.090612    1.181811    0.885902
  H     -4.192534    0.109223   -0.015879
  H     -3.076829    1.180045   -0.902960
  H     -0.537623   -2.327787    0.001323
  H      1.912676   -2.044241    0.007728
  H      1.389354    2.195715    0.015078
  H     -1.024762    1.913209    0.008197
  H      3.755888   -0.518128    0.238464
  H      3.550919    1.163598    0.243768

 Total Charge           Charge          ....    0
 Multiplicity           Mult            ....    1
 Number of Electrons    NEL             ....   66
 Basis Dimension        Dim             ....  226

ORBITAL ENERGIES
----------------

  NO   OCC          E(Eh)            E(eV)
   0   2.0000     -18.971767      -516.2480
   1   2.0000     -14.162187      -385.3727
   2   2.0000     -10.078401      -274.2472
   3   2.0000     -10.077538      -274.2237
   4   2.0000     -10.064024      -273.8560
   5   2.0000     -10.027258      -272.8555
   6   2.0000     -10.025247      -272.8008
   7   2.0000     -10.024549      -272.7818
   8   2.0000     -10.023926      -272.7649
   9   2.0000      -1.017173       -27.6787
  10   2.0000      -0.885990       -24.1090
  11   2.0000      -0.801950       -21.8222
  12   2.0000      -0.714981       -19.4556
  13   2.0000      -0.702467       -19.1151
  14   2.0000      -0.648944       -17.6587
  15   2.0000      -0.583343       -15.8736
  16   2.0000      -0.555006       -15.1025
  17   2.0000      -0.500342       -13.6150
  18   2.0000      -0.486189       -13.2299
  19   2.0000      -0.469945       -12.7878
  20   2.0000      -0.427648       -11.6369
  21   2.0000      -0.424356       -11.5473
  22   2.0000      -0.410524       -11.1709
  23   2.0000      -0.387040       -10.5319
  24   2.0000      -0.372923       -10.1478
  25   2.0000      -0.363867        -9.9013
  26   2.0000      -0.353027        -9.6064
  27   2.0000      -0.319462        -8.6930
  28   2.0000      -0.311038        -8.4638
  29   2.0000      -0.287765        -7.8305
  30   2.0000      -0.248340        -6.7577
  31   2.0000      -0.230841        -6.2815
  32   2.0000      -0.164099        -4.4654
  33   0.0000      -0.026597        -0.7237
  34   0.0000       0.006434         0.1751
  35   0.0000       0.070820         1.9271
  36   0.0000       0.077683         2.1139
  37   0.0000       0.091832         2.4989

MULLIKEN ATOMIC CHARGES
-----------------------
   0 C :   -0.337446
   1 O :   -0.193969
   2 C :    0.298264
   3 C :   -0.283212
   4 C :   -0.358501
   5 C :    0.525340
   6 C :   -0.394615
   7 C :   -0.248673
   8 N :   -0.542987
   9 H :    0.148689
  10 H :    0.151709
  11 H :    0.149372
  12 H :    0.156943
  13 H :    0.138178
  14 H :    0.136842
  15 H :    0.147423
  16 H :    0.253507
  17 H :    0.253134
Sum of atomic charges:    0.0000000

LOEWDIN ATOMIC CHARGES
----------------------
   0 C :   -0.060200
   1 O :   -0.697500
   2 C :    0.166447
   3 C :   -0.122046
   4 C :   -0.152710
   5 C :    0.110830
   6 C :   -0.157917
   7 C :   -0.163265
   8 N :   -0.617104
   9 H :    0.161750
  10 H :    0.178577
  11 H :    0.162185
  12 H :    0.180408
  13 H :    0.168654
  14 H :    0.167679
  15 H :    0.174441
  16 H :    0.249925
  17 H :    0.249846

  Mayer bond orders larger than 0.100000
B(  0-C ,  1-O ) :   0.8646 B(  0-C ,  9-H ) :   0.9646 B(  0-C , 10-H ) :   0.9686
B(  0-C , 11-H ) :   0.9643 B(  1-O ,  2-C ) :   1.0247 B(  2-C ,  3-C ) :   1.4320
B(  2-C ,  7-C ) :   1.4064 B(  3-C ,  4-C ) :   1.3905 B(  3-C , 12-H ) :   0.9342
B(  4-C ,  5-C ) :   1.3149 B(  4-C , 13-H ) :   0.9399 B(  5-C ,  6-C ) :   1.3644
B(  5-C ,  8-N ) :   0.9275 B(  6-C ,  7-C ) :   1.3836 B(  6-C , 14-H ) :   0.9350
B(  7-C , 15-H ) :   0.9110 B(  8-N , 16-H ) :   0.9281 B(  8-N , 17-H ) :   0.9276

Dispersion correction           -0.005691698
FINAL SINGLE POINT ENERGY      -402.026663256013

DIPOLE MOMENT
-------------

Method             : SCF
Type of density    : Electron Density
Multiplicity       :   1
Irrep              :   0
Energy             :  -402.0308710710025366 Eh
Relativity type    :
Basis              : AO
                                X                 Y                 Z
Electronic contribution:      1.602563285      -2.198854110      -0.131669563
Nuclear contribution   :     -1.248768630       2.670793004       0.451491147
                        -----------------------------------------
Total Dipole Moment    :      0.353794655       0.471938894       0.319821584
                        -----------------------------------------
Magnitude (a.u.)       :      0.670956648
Magnitude (Debye)      :      1.705436266

Rotational constants in cm-1:             0.163962             0.033170             0.027751
Rotational constants in MHz :          4915.446968           994.425763           831.969039

                             ****ORCA TERMINATED NORMALLY****
TOTAL RUN TIME: 0 days 0 hours 0 minutes 29 seconds 493 msec
