                         Program Version 6.0.0  -   RELEASE  -
|  1> ! r2scan-3c def2/J RI DEFGRID2 scfconv6 printgap
|  2> %output
|  3>     printlevel normal
|  4> end
|  5> %cpcm
|  6>     smd true
|  7>     smdsolvent "water"
|  8> end
|  9> * xyz 0 1
| 10> C -3.2036340606 0.5626629245 -0.0088804593
| 11> O -2.297277911 -0.5194686044 -0.0009625331
| 12> C -0.9483693202 -0.2383536217 0.001444633
| 13> C -0.0978856201 -1.3425833568 0.0023355459
| 14> C 1.2692232552 -1.1770958075 0.0079238392
| 15> C 1.8359990583 0.100882434 0.010945852
| 16> C 0.9763743454 1.1977156118 0.012088888
| 17> C -0.3979673268 1.035702893 0.0062470528
| 18> N 3.2042033086 0.2689068955 -0.0610880149
| 19> H -3.0906124807 1.1818111205 0.8859019224
| 20> H -4.1925339883 0.1092228459 -0.0158794149
| 21> H -3.076828776 1.1800447953 -0.9029602701
| 22> H -0.5376233548 -2.3277869247 0.0013227555
| 23> H 1.9126758198 -2.0442411695 0.0077280875
| 24> H 1.3893539126 2.1957149449 0.0150782424
| 25> H -1.0247622636 1.9132091763 0.008196785
| 26> H 3.7558879713 -0.5181279759 0.2384636394
| 27> H 3.5509186136 1.1635975836 0.2437675317
| 28> *
| 29>
| 30>                          ****END OF INPUT****

CARTESIAN COORDINATES (ANGSTROEM)
---------------------------------
  C     -3.203634    0.562663   -0.008880
  O     -2.297278   -0.519469   -0.000963
  C     -0.948369   -0.238354    0.001445
  C     -0.097886   -1.342583    0.002336
  C      1.269223   -1.177096    0.007924
  C      1.835999    0.100882    0.010946
  C      0.976374    1.197716    0.012089
  C     -0.397967    1.035703    0.006247
  N      3.204203    0.268907   -0.061088
  H     -3.090612    1.181811    0.885902
  H     -4.192534    0.109223   -0.015879
  H     -3.076829    1.180045   -0.902960
  H     -0.537623   -2.327787    0.001323
  H      1.912676   -2.044241    0.007728
  H      1.389354    2.195715    0.015078
  H     -1.024762    1.913209    0.008197
  H      3.755888   -0.518128    0.238464
  H      3.550919    1.163598    0.243768

 Total Charge           Charge          ....    0
 Multiplicity           Mult            ....    1
 Number of Electrons    NEL             ....   66
 Basis Dimension        Dim             ....  226

ORBITAL ENERGIES
----------------

  NO   OCC          E(Eh)            E(eV)
   0   2.0000     -18.979630      -516.4620
   1   2.0000     -14.153667      -385.1409
   2   2.0000     -10.083242      -274.3790
   3   2.0000     -10.069904      -274.0160
   4   2.0000     -10.066092      -273.9123
   5   2.0000     -10.029829      -272.9255
   6   2.0000     -10.029197      -272.9083
   7   2.0000     -10.026948      -272.8471
   8   2.0000     -10.025485      -272.8073
   9   2.0000      -1.024330       -27.8734
  10   2.0000      -0.881244       -23.9799
  11   2.0000      -0.805356       -21.9149
  12   2.0000      -0.718192       -19.5430
  13   2.0000      -0.703519       -19.1437
  14   2.0000      -0.646878       -17.6025
  15   2.0000      -0.584084       -15.8937
  16   2.0000      -0.554288       -15.0829
  17   2.0000      -0.499990       -13.6054
  18   2.0000      -0.480378       -13.0718
  19   2.0000      -0.467555       -12.7228
  20   2.0000      -0.427244       -11.6259
  21   2.0000      -0.421154       -11.4602
  22   2.0000      -0.408369       -11.1123
  23   2.0000      -0.387526       -10.5451
  24   2.0000      -0.370398       -10.0790
  25   2.0000      -0.366566        -9.9748
  26   2.0000      -0.355719        -9.6796
  27   2.0000      -0.319710        -8.6998
  28   2.0000      -0.313307        -8.5255
  29   2.0000      -0.291359        -7.9283
  30   2.0000      -0.252199        -6.8627
  31   2.0000      -0.238202        -6.4818
  32   2.0000      -0.168563        -4.5868
  33   0.0000      -0.032658        -0.8887
  34   0.0000       0.000546         0.0148
  35   0.0000       0.073032         1.9873
  36   0.0000       0.089117         2.4250
  37   0.0000       0.097761         2.6602

MULLIKEN ATOMIC CHARGES
-----------------------
   0 C :   -0.340305
   1 O :   -0.244386
   2 C :    0.278708
   3 C :   -0.323116
   4 C :   -0.382565
   5 C :    0.445988
   6 C :   -0.426399
   7 C :   -0.246845
   8 N :   -0.603471
   9 H :    0.166753
  10 H :    0.170247
  11 H :    0.166743
  12 H :    0.182912
  13 H :    0.178675
  14 H :    0.176100
  15 H :    0.184578
  16 H :    0.308363
  17 H :    0.308022
Sum of atomic charges:    0.0000000

LOEWDIN ATOMIC CHARGES
----------------------
   0 C :   -0.056373
   1 O :   -0.731371
   2 C :    0.146506
   3 C :   -0.142459
   4 C :   -0.161875
   5 C :    0.098903
   6 C :   -0.166758
   7 C :   -0.168552
   8 N :   -0.614637
   9 H :    0.171271
  10 H :    0.185575
  11 H :    0.171402
  12 H :    0.187853
  13 H :    0.183153
  14 H :    0.182427
  15 H :    0.188315
  16 H :    0.263333
  17 H :    0.263289

  Mayer bond orders larger than 0.100000
B(  0-C ,  1-O ) :   0.8579 B(  0-C ,  9-H ) :   0.9570 B(  0-C , 10-H ) :   0.9609
B(  0-C , 11-H ) :   0.9569 B(  1-O ,  2-C ) :   0.9992 B(  2-C ,  3-C ) :   1.3652
B(  2-C ,  7-C ) :   1.3720 B(  3-C ,  4-C ) :   1.3678 B(  3-C , 12-H ) :   0.9494
B(  4-C ,  5-C ) :   1.2956 B(  4-C , 13-H ) :   0.9561 B(  5-C ,  6-C ) :   1.3273
B(  5-C ,  8-N ) :   0.9435 B(  6-C ,  7-C ) :   1.3417 B(  6-C , 14-H ) :   0.9652
B(  7-C , 15-H ) :   0.9248 B(  8-N , 16-H ) :   0.9034 B(  8-N , 17-H ) :   0.9031

Dispersion correction           -0.005691698
FINAL SINGLE POINT ENERGY      -402.037084794220

DIPOLE MOMENT
-------------

Method             : SCF
Type of density    : Electron Density
Multiplicity       :   1
Irrep              :   0
Energy             :  -402.0412926092100747 Eh
Relativity type    :
Basis              : AO
                                X                 Y                 Z
Electronic contribution:      1.835156355      -1.922580858      -0.013597699
Nuclear contribution   :     -1.248768630       2.670793004       0.451491147
                        -----------------------------------------
Total Dipole Moment    :      0.586387725       0.748212147       0.437893447
                        -----------------------------------------
Magnitude (a.u.)       :      1.046624408
Magnitude (Debye)      :      2.660307827

Rotational constants in cm-1:             0.163962             0.033170             0.027751
Rotational constants in MHz :          4915.446968           994.425763           831.969039

                             ****ORCA TERMINATED NORMALLY****
TOTAL RUN TIME: 0 days 0 hours 0 minutes 35 seconds 790 msec
