                         Program Version 6.0.0  -   RELEASE  -
|  1> ! wb97x-v def2-tzvp def2/J RIJCOSX DEFGRID2 scfconv7 GCP(DFT/TZ) printgap
|  2> %output
|  3>     printlevel normal
|  4> end
|  5> * xyz 0 1
|  6> C -2.9762316071536064 1.2639054270847732 -0.0009674925659383868
|  7> C -1.7494210923321207 0.39455182928105154 0.0007166710269943947
|  8> C -1.8402963379516863 -0.9939953799384664 0.0007196555309836347
|  9> C -0.6882774701726141 -1.7852070471767447 7.233783431812465e-05
| 10> C 0.5651163614705986 -1.1958909906601294 -0.00041443698222156874
| 11> C 0.6750106912442569 0.2075559747991551 -0.0001920589137868166
| 12> C -0.4764665877274625 0.9863311229686629 0.0004242900849115096
| 13> O 1.9567265524422568 0.6956387841620632 -0.00023824086459138443
| 14> C 2.1097042001955537 2.123148005246317 0.000450793608493725
| 15> O 1.741472782812443 -1.9156421537665862 -0.0007129455531888746
| 16> H -2.9912868874478753 1.9307124901580093 0.8681883540772815
| 17> H -3.0107124807803465 1.899454209691167 -0.892902155815724
| 18> H -3.885707251923706 0.6583288088022218 0.019186380254993793
| 19> H -2.814435961331583 -1.4734719734878317 0.0012474027350386045
| 20> H -0.7622116062490738 -2.8696100898762364 0.0002640329630247972
| 21> H -0.40013511046644756 2.0678964833285294 0.0006972257073869847
| 22> H 1.6633002858933617 2.565519688576689 0.8981341032969785
| 23> H 1.6626647151292069 2.5664878495918186 -0.8964324079413825
| 24> H 3.1852883611858123 2.3028482525964344 0.00016221236291355954
| 25> H 1.5219593318104465 -2.857408762231219 -0.0006474945776989556
| 26> *
| 27>
| 28>                          ****END OF INPUT****

CARTESIAN COORDINATES (ANGSTROEM)
---------------------------------
  C     -2.976232    1.263905   -0.000967
  C     -1.749421    0.394552    0.000717
  C     -1.840296   -0.993995    0.000720
  C     -0.688277   -1.785207    0.000072
  C      0.565116   -1.195891   -0.000414
  C      0.675011    0.207556   -0.000192
  C     -0.476467    0.986331    0.000424
  O      1.956727    0.695639   -0.000238
  C      2.109704    2.123148    0.000451
  O      1.741473   -1.915642   -0.000713
  H     -2.991287    1.930712    0.868188
  H     -3.010712    1.899454   -0.892902
  H     -3.885707    0.658329    0.019186
  H     -2.814436   -1.473472    0.001247
  H     -0.762212   -2.869610    0.000264
  H     -0.400135    2.067896    0.000697
  H      1.663300    2.565520    0.898134
  H      1.662665    2.566488   -0.896432
  H      3.185288    2.302848    0.000162
  H      1.521959   -2.857409   -0.000647

 Total Charge           Charge          ....    0
 Multiplicity           Mult            ....    1
 Number of Electrons    NEL             ....   74
 Basis Dimension        Dim             ....  370

ORBITAL ENERGIES
----------------

  NO   OCC          E(Eh)            E(eV)
   0   2.0000     -21.698256      -590.4396
   1   2.0000     -21.696158      -590.3825
   2   2.0000     -12.107270      -329.4556
   3   2.0000     -12.104689      -329.3853
   4   2.0000     -12.098744      -329.2236
   5   2.0000     -12.054222      -328.0121
   6   2.0000     -12.049568      -327.8854
   7   2.0000     -12.045429      -327.7728
   8   2.0000     -12.042469      -327.6922
   9   2.0000     -12.041298      -327.6604
  10   2.0000      -1.714408       -46.6514
  11   2.0000      -1.704766       -46.3890
  12   2.0000      -1.385920       -37.7128
  13   2.0000      -1.305042       -35.5120
  14   2.0000      -1.284025       -34.9401
  15   2.0000      -1.227928       -33.4136
  16   2.0000      -1.200166       -32.6582
  17   2.0000      -1.137396       -30.9501
  18   2.0000      -1.108360       -30.1600
  19   2.0000      -1.061180       -28.8762
  20   2.0000      -1.035645       -28.1813
  21   2.0000      -1.009949       -27.4821
  22   2.0000      -0.973472       -26.4895
  23   2.0000      -0.967500       -26.3270
  24   2.0000      -0.937879       -25.5210
  25   2.0000      -0.928744       -25.2724
  26   2.0000      -0.911771       -24.8106
  27   2.0000      -0.895046       -24.3554
  28   2.0000      -0.839984       -22.8571
  29   2.0000      -0.835873       -22.7453
  30   2.0000      -0.833775       -22.6882
  31   2.0000      -0.825947       -22.4752
  32   2.0000      -0.820270       -22.3207
  33   2.0000      -0.806123       -21.9357
  34   2.0000      -0.754115       -20.5205
  35   2.0000      -0.639830       -17.4107
  36   2.0000      -0.627499       -17.0751
  37   0.0000      -0.245294        -6.6748
  38   0.0000      -0.244474        -6.6525
  39   0.0000      -0.194491        -5.2924
  40   0.0000      -0.139305        -3.7907
  41   0.0000      -0.089573        -2.4374

MULLIKEN ATOMIC CHARGES
-----------------------
   0 C :   -0.369178
   1 C :    0.142313
   2 C :   -0.245416
   3 C :   -0.145209
   4 C :    0.137504
   5 C :    0.263076
   6 C :   -0.329405
   7 O :   -0.237831
   8 C :   -0.217790
   9 O :   -0.379165
  10 H :    0.120142
  11 H :    0.120482
  12 H :    0.114325
  13 H :    0.108967
  14 H :    0.101335
  15 H :    0.128385
  16 H :    0.120024
  17 H :    0.120033
  18 H :    0.137956
  19 H :    0.309452
Sum of atomic charges:    0.0000000

LOEWDIN ATOMIC CHARGES
----------------------
   0 C :   -0.254377
   1 C :   -0.181597
   2 C :   -0.136685
   3 C :   -0.144249
   4 C :   -0.240890
   5 C :   -0.220382
   6 C :   -0.115923
   7 O :    0.224279
   8 C :   -0.310847
   9 O :    0.068275
  10 H :    0.125057
  11 H :    0.125188
  12 H :    0.123936
  13 H :    0.141885
  14 H :    0.140471
  15 H :    0.148652
  16 H :    0.105197
  17 H :    0.105193
  18 H :    0.112942
  19 H :    0.183874

  Mayer bond orders larger than 0.100000
B(  0-C ,  1-C ) :   0.9121 B(  0-C , 10-H ) :   0.9784 B(  0-C , 11-H ) :   0.9768
B(  0-C , 12-H ) :   0.9950 B(  1-C ,  2-C ) :   1.4830 B(  1-C ,  6-C ) :   1.3490
B(  2-C ,  3-C ) :   1.3848 B(  2-C , 13-H ) :   0.9607 B(  3-C ,  4-C ) :   1.4433
B(  3-C , 14-H ) :   0.9669 B(  4-C ,  5-C ) :   1.3247 B(  4-C ,  9-O ) :   1.1991
B(  5-C ,  6-C ) :   1.4056 B(  5-C ,  7-O ) :   1.2066 B(  6-C , 15-H ) :   0.9574
B(  7-O ,  8-C ) :   0.9573 B(  8-C , 16-H ) :   0.9732 B(  8-C , 17-H ) :   0.9732
B(  8-C , 18-H ) :   0.9781 B(  9-O , 19-H ) :   0.8896

FINAL SINGLE POINT ENERGY      -461.329598215114

DIPOLE MOMENT
-------------

Method             : SCF
Type of density    : Electron Density
Multiplicity       :   1
Irrep              :   0
Energy             :  -461.3418851272144821 Eh
Relativity type    :
Basis              : AO
                                X                 Y                 Z
Electronic contribution:      5.044710187      -6.209013429       0.000971882
Nuclear contribution   :     -5.461780617       6.397702714      -0.001467995
                        -----------------------------------------
Total Dipole Moment    :     -0.417070430       0.188689285      -0.000496114
                        -----------------------------------------
Magnitude (a.u.)       :      0.457768103
Magnitude (Debye)      :      1.163554048

Rotational constants in cm-1:             0.061579             0.039359             0.024232
Rotational constants in MHz :          1846.080098          1179.954310           726.445061

                             ****ORCA TERMINATED NORMALLY****
TOTAL RUN TIME: 0 days 0 hours 4 minutes 29 seconds 784 msec
