                         Program Version 6.0.0  -   RELEASE  -
|  1> ! wb97x-v def2-tzvp def2/J RIJCOSX DEFGRID2 scfconv7 GCP(DFT/TZ) printgap
|  2> %output
|  3>     printlevel normal
|  4> end
|  5> %cpcm
|  6>     smd true
|  7>     smdsolvent "water"
|  8> end
|  9> * xyz 0 1
| 10> C -2.9762316071536064 1.2639054270847732 -0.0009674925659383868
| 11> C -1.7494210923321207 0.39455182928105154 0.0007166710269943947
| 12> C -1.8402963379516863 -0.9939953799384664 0.0007196555309836347
| 13> C -0.6882774701726141 -1.7852070471767447 7.233783431812465e-05
| 14> C 0.5651163614705986 -1.1958909906601294 -0.00041443698222156874
| 15> C 0.6750106912442569 0.2075559747991551 -0.0001920589137868166
| 16> C -0.4764665877274625 0.9863311229686629 0.0004242900849115096
| 17> O 1.9567265524422568 0.6956387841620632 -0.00023824086459138443
| 18> C 2.1097042001955537 2.123148005246317 0.000450793608493725
| 19> O 1.741472782812443 -1.9156421537665862 -0.0007129455531888746
| 20> H -2.9912868874478753 1.9307124901580093 0.8681883540772815
| 21> H -3.0107124807803465 1.899454209691167 -0.892902155815724
| 22> H -3.885707251923706 0.6583288088022218 0.019186380254993793
| 23> H -2.814435961331583 -1.4734719734878317 0.0012474027350386045
| 24> H -0.7622116062490738 -2.8696100898762364 0.0002640329630247972
| 25> H -0.40013511046644756 2.0678964833285294 0.0006972257073869847
| 26> H 1.6633002858933617 2.565519688576689 0.8981341032969785
| 27> H 1.6626647151292069 2.5664878495918186 -0.8964324079413825
| 28> H 3.1852883611858123 2.3028482525964344 0.00016221236291355954
| 29> H 1.5219593318104465 -2.857408762231219 -0.0006474945776989556
| 30> *
| 31>
| 32>                          ****END OF INPUT****

CARTESIAN COORDINATES (ANGSTROEM)
---------------------------------
  C     -2.976232    1.263905   -0.000967
  C     -1.749421    0.394552    0.000717
  C     -1.840296   -0.993995    0.000720
  C     -0.688277   -1.785207    0.000072
  C      0.565116   -1.195891   -0.000414
  C      0.675011    0.207556   -0.000192
  C     -0.476467    0.986331    0.000424
  O      1.956727    0.695639   -0.000238
  C      2.109704    2.123148    0.000451
  O      1.741473   -1.915642   -0.000713
  H     -2.991287    1.930712    0.868188
  H     -3.010712    1.899454   -0.892902
  H     -3.885707    0.658329    0.019186
  H     -2.814436   -1.473472    0.001247
  H     -0.762212   -2.869610    0.000264
  H     -0.400135    2.067896    0.000697
  H      1.663300    2.565520    0.898134
  H      1.662665    2.566488   -0.896432
  H      3.185288    2.302848    0.000162
  H      1.521959   -2.857409   -0.000647

 Total Charge           Charge          ....    0
 Multiplicity           Mult            ....    1
 Number of Electrons    NEL             ....   74
 Basis Dimension        Dim             ....  370

ORBITAL ENERGIES
----------------

  NO   OCC          E(Eh)            E(eV)
   0   2.0000     -21.705415      -590.6344
   1   2.0000     -21.700819      -590.5093
   2   2.0000     -12.110659      -329.5478
   3   2.0000     -12.107656      -329.4661
   4   2.0000     -12.088180      -328.9361
   5   2.0000     -12.054905      -328.0306
   6   2.0000     -12.048253      -327.8496
   7   2.0000     -12.044923      -327.7590
   8   2.0000     -12.041572      -327.6678
   9   2.0000     -12.032848      -327.4304
  10   2.0000      -1.721317       -46.8394
  11   2.0000      -1.710537       -46.5461
  12   2.0000      -1.388275       -37.7769
  13   2.0000      -1.306534       -35.5526
  14   2.0000      -1.284586       -34.9554
  15   2.0000      -1.226596       -33.3774
  16   2.0000      -1.198569       -32.6147
  17   2.0000      -1.138054       -30.9680
  18   2.0000      -1.107742       -30.1432
  19   2.0000      -1.063661       -28.9437
  20   2.0000      -1.037851       -28.2414
  21   2.0000      -1.012517       -27.5520
  22   2.0000      -0.980150       -26.6712
  23   2.0000      -0.973768       -26.4976
  24   2.0000      -0.945780       -25.7360
  25   2.0000      -0.931773       -25.3548
  26   2.0000      -0.909499       -24.7487
  27   2.0000      -0.890364       -24.2280
  28   2.0000      -0.836461       -22.7612
  29   2.0000      -0.829661       -22.5762
  30   2.0000      -0.827134       -22.5075
  31   2.0000      -0.820129       -22.3169
  32   2.0000      -0.812769       -22.1166
  33   2.0000      -0.799841       -21.7648
  34   2.0000      -0.756667       -20.5899
  35   2.0000      -0.641733       -17.4624
  36   2.0000      -0.631869       -17.1940
  37   0.0000      -0.248064        -6.7502
  38   0.0000      -0.246521        -6.7082
  39   0.0000      -0.195473        -5.3191
  40   0.0000      -0.137020        -3.7285
  41   0.0000      -0.090390        -2.4596

MULLIKEN ATOMIC CHARGES
-----------------------
   0 C :   -0.397434
   1 C :    0.114878
   2 C :   -0.284862
   3 C :   -0.203370
   4 C :    0.147169
   5 C :    0.266263
   6 C :   -0.360923
   7 O :   -0.315019
   8 C :   -0.232978
   9 O :   -0.477726
  10 H :    0.139079
  11 H :    0.139000
  12 H :    0.139627
  13 H :    0.157272
  14 H :    0.166482
  15 H :    0.175125
  16 H :    0.145185
  17 H :    0.145208
  18 H :    0.158223
  19 H :    0.378801
Sum of atomic charges:    0.0000000

LOEWDIN ATOMIC CHARGES
----------------------
   0 C :   -0.255753
   1 C :   -0.189401
   2 C :   -0.145599
   3 C :   -0.141518
   4 C :   -0.255986
   5 C :   -0.236103
   6 C :   -0.114813
   7 O :    0.190832
   8 C :   -0.305006
   9 O :    0.034900
  10 H :    0.130316
  11 H :    0.130394
  12 H :    0.129211
  13 H :    0.152016
  14 H :    0.157374
  15 H :    0.161830
  16 H :    0.114313
  17 H :    0.114313
  18 H :    0.117952
  19 H :    0.210728

  Mayer bond orders larger than 0.100000
B(  0-C ,  1-C ) :   0.9295 B(  0-C , 10-H ) :   0.9719 B(  0-C , 11-H ) :   0.9704
B(  0-C , 12-H ) :   0.9904 B(  1-C ,  2-C ) :   1.4449 B(  1-C ,  6-C ) :   1.3257
B(  2-C ,  3-C ) :   1.3464 B(  2-C , 13-H ) :   0.9696 B(  3-C ,  4-C ) :   1.4480
B(  3-C , 14-H ) :   0.9730 B(  4-C ,  5-C ) :   1.3095 B(  4-C ,  9-O ) :   1.1151
B(  5-C ,  6-C ) :   1.4071 B(  5-C ,  7-O ) :   1.1447 B(  6-C , 15-H ) :   0.9629
B(  7-O ,  8-C ) :   0.9176 B(  8-C , 16-H ) :   0.9708 B(  8-C , 17-H ) :   0.9708
B(  8-C , 18-H ) :   0.9697 B(  9-O , 19-H ) :   0.8473

FINAL SINGLE POINT ENERGY      -461.342231064387

DIPOLE MOMENT
-------------

Method             : SCF
Type of density    : Electron Density
Multiplicity       :   1
Irrep              :   0
Energy             :  -461.3545179764870454 Eh
Relativity type    :
Basis              : AO
                                X                 Y                 Z
Electronic contribution:      4.688727070      -6.117803763       0.000770939
Nuclear contribution   :     -5.461780617       6.397702714      -0.001467995
                        -----------------------------------------
Total Dipole Moment    :     -0.773053547       0.279898951      -0.000697056
                        -----------------------------------------
Magnitude (a.u.)       :      0.822165248
Magnitude (Debye)      :      2.089777982

Rotational constants in cm-1:             0.061579             0.039359             0.024232
Rotational constants in MHz :          1846.080098          1179.954310           726.445061

                             ****ORCA TERMINATED NORMALLY****
TOTAL RUN TIME: 0 days 0 hours 4 minutes 38 seconds 547 msec
