                         Program Version 6.0.0  -   RELEASE  -
|  1> ! pbe def2-sv(p) def2/J RI DEFGRID1 loosescf d4 GCP(DFT/SV(P)) printgap
|  2> %output
|  3>     printlevel normal
|  4> end
|  5> * xyz 0 1
|  6> C 1.8246683139 -1.1318587347 -1.81886e-05
|  7> C 2.3136395277 0.1696525798 1.26867e-05
|  8> C 1.4504722214 1.2481067753 2.23e-08
|  9> C 0.0714555836 1.0517343692 -4.18687e-05
| 10> C -0.4309914268 -0.2653906568 -2.83445e-05
| 11> C 0.4644223499 -1.3413243248 2.1408e-06
| 12> C -1.8617929322 -0.5054964192 -1.14309e-05
| 13> O -2.3936857733 -1.6016775555 -8.3578e-06
| 14> O -0.795689892 2.0802885152 4.75009e-05
| 15> H 2.5048668216 -1.9679892626 6.88947e-05
| 16> H 3.378436749 0.3431609176 0.0002475546
| 17> H 1.8451273177 2.2532566138 4.59792e-05
| 18> H 0.0441320194 -2.3358035337 -5.3047e-06
| 19> H -2.4798811016 0.4081567188 -8.89203e-05
| 20> H -0.32761769 2.9319952411 0.0001231295
| 21> *
| 22>
| 23>                          ****END OF INPUT****

CARTESIAN COORDINATES (ANGSTROEM)
---------------------------------
  C      1.824668   -1.131859   -0.000018
  C      2.313640    0.169653    0.000013
  C      1.450472    1.248107    0.000000
  C      0.071456    1.051734   -0.000042
  C     -0.430991   -0.265391   -0.000028
  C      0.464422   -1.341324    0.000002
  C     -1.861793   -0.505496   -0.000011
  O     -2.393686   -1.601678   -0.000008
  O     -0.795690    2.080289    0.000048
  H      2.504867   -1.967989    0.000069
  H      3.378437    0.343161    0.000248
  H      1.845127    2.253257    0.000046
  H      0.044132   -2.335804   -0.000005
  H     -2.479881    0.408157   -0.000089
  H     -0.327618    2.931995    0.000123

 Total Charge           Charge          ....    0
 Multiplicity           Mult            ....    1
 Number of Electrons    NEL             ....   64
 Basis Dimension        Dim             ....  138

ORBITAL ENERGIES
----------------

  NO   OCC          E(Eh)            E(eV)
   0   2.0000     -18.807133      -511.7681
   1   2.0000     -18.735143      -509.8092
   2   2.0000      -9.975459      -271.4460
   3   2.0000      -9.958022      -270.9716
   4   2.0000      -9.915667      -269.8190
   5   2.0000      -9.908582      -269.6262
   6   2.0000      -9.908198      -269.6158
   7   2.0000      -9.905306      -269.5371
   8   2.0000      -9.902650      -269.4648
   9   2.0000      -0.991583       -26.9823
  10   2.0000      -0.926459       -25.2102
  11   2.0000      -0.788727       -21.4624
  12   2.0000      -0.701183       -19.0801
  13   2.0000      -0.681931       -18.5563
  14   2.0000      -0.593678       -16.1548
  15   2.0000      -0.580438       -15.7945
  16   2.0000      -0.518244       -14.1021
  17   2.0000      -0.506465       -13.7816
  18   2.0000      -0.461700       -12.5635
  19   2.0000      -0.429524       -11.6879
  20   2.0000      -0.407881       -11.0990
  21   2.0000      -0.396165       -10.7802
  22   2.0000      -0.392367       -10.6769
  23   2.0000      -0.361946        -9.8490
  24   2.0000      -0.360805        -9.8180
  25   2.0000      -0.341197        -9.2845
  26   2.0000      -0.328395        -8.9361
  27   2.0000      -0.314888        -8.5685
  28   2.0000      -0.314373        -8.5545
  29   2.0000      -0.243343        -6.6217
  30   2.0000      -0.216145        -5.8816
  31   2.0000      -0.194248        -5.2858
  32   0.0000      -0.091256        -2.4832
  33   0.0000      -0.037222        -1.0129
  34   0.0000       0.004227         0.1150
  35   0.0000       0.004556         0.1240
  36   0.0000       0.038591         1.0501

MULLIKEN ATOMIC CHARGES
-----------------------
   0 C :   -0.039016
   1 C :   -0.040398
   2 C :   -0.161118
   3 C :    0.202188
   4 C :    0.002079
   5 C :   -0.105914
   6 C :    0.032605
   7 O :   -0.173552
   8 O :   -0.312508
   9 H :    0.058802
  10 H :    0.063971
  11 H :    0.031977
  12 H :    0.063696
  13 H :    0.050219
  14 H :    0.326969
Sum of atomic charges:    0.0000000

LOEWDIN ATOMIC CHARGES
----------------------
   0 C :   -0.141758
   1 C :   -0.094945
   2 C :   -0.174431
   3 C :    0.041955
   4 C :   -0.120108
   5 C :   -0.072017
   6 C :    0.000202
   7 O :   -0.136786
   8 O :   -0.209860
   9 H :    0.127716
  10 H :    0.129142
  11 H :    0.123335
  12 H :    0.135857
  13 H :    0.086401
  14 H :    0.305298

  Mayer bond orders larger than 0.100000
B(  0-C ,  1-C ) :   1.3293 B(  0-C ,  5-C ) :   1.3684 B(  0-C ,  9-H ) :   0.9715
B(  1-C ,  2-C ) :   1.3858 B(  1-C , 10-H ) :   0.9612 B(  2-C ,  3-C ) :   1.3038
B(  2-C , 11-H ) :   0.9556 B(  3-C ,  4-C ) :   1.3088 B(  3-C ,  8-O ) :   1.2418
B(  4-C ,  5-C ) :   1.3532 B(  4-C ,  6-C ) :   1.0311 B(  5-C , 12-H ) :   0.9596
B(  6-C ,  7-O ) :   2.1260 B(  6-C , 13-H ) :   0.9199 B(  8-O , 14-H ) :   0.8330

Dispersion correction           -0.015696652
FINAL SINGLE POINT ENERGY      -419.924259782590

DIPOLE MOMENT
-------------

Method             : SCF
Type of density    : Electron Density
Multiplicity       :   1
Irrep              :   0
Energy             :  -419.9708773472621033 Eh
Relativity type    :
Basis              : AO
                                X                 Y                 Z
Electronic contribution:     -3.295732067      -0.162189796      -0.000250997
Nuclear contribution   :      4.610817070       1.538924884       0.000367719
                        -----------------------------------------
Total Dipole Moment    :      1.315085003       1.376735088       0.000116722
                        -----------------------------------------
Magnitude (a.u.)       :      1.903903381
Magnitude (Debye)      :      4.839337805

Rotational constants in cm-1:             0.087696             0.052644             0.032896
Rotational constants in MHz :          2629.057692          1578.229751           986.207176

                             ****ORCA TERMINATED NORMALLY****
TOTAL RUN TIME: 0 days 0 hours 0 minutes 7 seconds 613 msec
