                         Program Version 6.0.0  -   RELEASE  -
|  1> ! pbe def2-sv(p) def2/J RI DEFGRID1 loosescf d4 GCP(DFT/SV(P)) printgap
|  2> %output
|  3>     printlevel normal
|  4> end
|  5> * xyz 0 1
|  6> C -2.2819960979 -1.0755995897 -0.1830299643
|  7> C -0.9011555341 -0.5592650347 0.2201342978
|  8> H -0.7754766584 -0.6522238764 1.3096786316
|  9> C -0.7306656152 0.9271269096 -0.1517208501
| 10> H -1.2197509914 1.11555348 -1.1198336242
| 11> C 0.75938492 1.2627310667 -0.3446706781
| 12> H 0.9069913213 2.2859981715 0.0393304503
| 13> C 1.643457264 0.2964280175 0.4620049953
| 14> H 2.7032580844 0.4942625403 0.23560556
| 15> C 1.3754873619 -1.1554040236 0.0216349745
| 16> H 1.5410397782 -1.801570268 0.910632715
| 17> O 0.05974738 -1.3584315652 -0.4421569615
| 18> O 2.2541716012 -1.4763703139 -0.9959173385
| 19> O 1.4109413198 0.3753167291 1.8434754026
| 20> O 1.0349001768 1.2083391755 -1.7194079345
| 21> O -1.2510880213 1.7712008185 0.8416815338
| 22> O -3.2504364257 -0.2634880211 0.4387752618
| 23> H -2.3721707704 -2.1208453586 0.1338918887
| 24> H -2.3603038881 -1.0265226295 -1.2758966896
| 25> H 1.929271069 -2.2639370487 -1.4595066864
| 26> H 1.4808506751 1.2961127612 2.1364459618
| 27> H 1.9875175804 1.2918634619 -1.8710605332
| 28> H -2.1718294391 1.5077229305 1.004303572
| 29> H -4.1340467971 -0.5766369729 0.1987733451
| 30> *
| 31>
| 32>                          ****END OF INPUT****

CARTESIAN COORDINATES (ANGSTROEM)
---------------------------------
  C     -2.281996   -1.075600   -0.183030
  C     -0.901156   -0.559265    0.220134
  H     -0.775477   -0.652224    1.309679
  C     -0.730666    0.927127   -0.151721
  H     -1.219751    1.115553   -1.119834
  C      0.759385    1.262731   -0.344671
  H      0.906991    2.285998    0.039330
  C      1.643457    0.296428    0.462005
  H      2.703258    0.494263    0.235606
  C      1.375487   -1.155404    0.021635
  H      1.541040   -1.801570    0.910633
  O      0.059747   -1.358432   -0.442157
  O      2.254172   -1.476370   -0.995917
  O      1.410941    0.375317    1.843475
  O      1.034900    1.208339   -1.719408
  O     -1.251088    1.771201    0.841682
  O     -3.250436   -0.263488    0.438775
  H     -2.372171   -2.120845    0.133892
  H     -2.360304   -1.026523   -1.275897
  H      1.929271   -2.263937   -1.459507
  H      1.480851    1.296113    2.136446
  H      1.987518    1.291863   -1.871061
  H     -2.171829    1.507723    1.004304
  H     -4.134047   -0.576637    0.198773

 Total Charge           Charge          ....    0
 Multiplicity           Mult            ....    1
 Number of Electrons    NEL             ....   96
 Basis Dimension        Dim             ....  192

ORBITAL ENERGIES
----------------

  NO   OCC          E(Eh)            E(eV)
   0   2.0000     -18.769629      -510.7476
   1   2.0000     -18.761746      -510.5331
   2   2.0000     -18.754320      -510.3310
   3   2.0000     -18.753670      -510.3133
   4   2.0000     -18.744734      -510.0701
   5   2.0000     -18.734028      -509.7788
   6   2.0000      -9.980379      -271.5799
   7   2.0000      -9.938150      -270.4308
   8   2.0000      -9.937664      -270.4176
   9   2.0000      -9.935648      -270.3627
  10   2.0000      -9.934121      -270.3212
  11   2.0000      -9.927784      -270.1487
  12   2.0000      -0.977402       -26.5965
  13   2.0000      -0.943196       -25.6657
  14   2.0000      -0.933306       -25.3965
  15   2.0000      -0.921377       -25.0719
  16   2.0000      -0.912325       -24.8256
  17   2.0000      -0.905979       -24.6529
  18   2.0000      -0.692231       -18.8366
  19   2.0000      -0.683042       -18.5865
  20   2.0000      -0.626677       -17.0528
  21   2.0000      -0.563047       -15.3213
  22   2.0000      -0.561222       -15.2716
  23   2.0000      -0.507646       -13.8137
  24   2.0000      -0.498457       -13.5637
  25   2.0000      -0.489211       -13.3121
  26   2.0000      -0.483881       -13.1671
  27   2.0000      -0.457999       -12.4628
  28   2.0000      -0.437763       -11.9121
  29   2.0000      -0.424580       -11.5534
  30   2.0000      -0.418004       -11.3745
  31   2.0000      -0.393362       -10.7039
  32   2.0000      -0.373430       -10.1615
  33   2.0000      -0.370226       -10.0744
  34   2.0000      -0.348450        -9.4818
  35   2.0000      -0.344472        -9.3736
  36   2.0000      -0.322426        -8.7737
  37   2.0000      -0.320998        -8.7348
  38   2.0000      -0.306830        -8.3493
  39   2.0000      -0.299824        -8.1586
  40   2.0000      -0.269079        -7.3220
  41   2.0000      -0.265162        -7.2154
  42   2.0000      -0.238215        -6.4821
  43   2.0000      -0.236735        -6.4419
  44   2.0000      -0.233480        -6.3533
  45   2.0000      -0.213016        -5.7965
  46   2.0000      -0.208212        -5.6657
  47   2.0000      -0.189639        -5.1603
  48   0.0000       0.009715         0.2643
  49   0.0000       0.028220         0.7679
  50   0.0000       0.031127         0.8470
  51   0.0000       0.053153         1.4464
  52   0.0000       0.068810         1.8724

MULLIKEN ATOMIC CHARGES
-----------------------
   0 C :    0.067252
   1 C :   -0.021075
   2 H :    0.077713
   3 C :    0.096204
   4 H :    0.057859
   5 C :    0.050580
   6 H :    0.058581
   7 C :   -0.034659
   8 H :    0.067360
   9 C :    0.236918
  10 H :    0.059166
  11 O :   -0.323734
  12 O :   -0.394409
  13 O :   -0.404460
  14 O :   -0.406082
  15 O :   -0.429456
  16 O :   -0.446314
  17 H :    0.080778
  18 H :    0.078939
  19 H :    0.304836
  20 H :    0.307464
  21 H :    0.298383
  22 H :    0.304557
  23 H :    0.313600
Sum of atomic charges:   -0.0000000

LOEWDIN ATOMIC CHARGES
----------------------
   0 C :   -0.121861
   1 C :   -0.071561
   2 H :    0.110618
   3 C :   -0.060967
   4 H :    0.106328
   5 C :   -0.067807
   6 H :    0.097709
   7 C :   -0.093568
   8 H :    0.101823
   9 C :    0.015003
  10 H :    0.084973
  11 O :   -0.155096
  12 O :   -0.301843
  13 O :   -0.306008
  14 O :   -0.310327
  15 O :   -0.325746
  16 O :   -0.336566
  17 H :    0.101156
  18 H :    0.100907
  19 H :    0.289266
  20 H :    0.289382
  21 H :    0.283072
  22 H :    0.276692
  23 H :    0.294420

  Mayer bond orders larger than 0.100000
B(  0-C ,  1-C ) :   1.0592 B(  0-C , 16-O ) :   1.0603 B(  0-C , 17-H ) :   0.9186
B(  0-C , 18-H ) :   0.9073 B(  1-C ,  2-H ) :   0.8635 B(  1-C ,  3-C ) :   1.0188
B(  1-C , 11-O ) :   1.0230 B(  3-C ,  4-H ) :   0.8819 B(  3-C ,  5-C ) :   0.9851
B(  3-C , 15-O ) :   1.0905 B(  5-C ,  6-H ) :   0.8904 B(  5-C ,  7-C ) :   1.0341
B(  5-C , 14-O ) :   1.0772 B(  7-C ,  8-H ) :   0.8959 B(  7-C ,  9-C ) :   0.9285
B(  7-C , 13-O ) :   1.0653 B(  9-C , 10-H ) :   0.9136 B(  9-C , 11-O ) :   1.0232
B(  9-C , 12-O ) :   1.1592 B( 12-O , 19-H ) :   0.8402 B( 13-O , 20-H ) :   0.8398
B( 14-O , 21-H ) :   0.8412 B( 15-O , 22-H ) :   0.8204 B( 16-O , 23-H ) :   0.8442

Dispersion correction           -0.024835293
FINAL SINGLE POINT ENERGY      -685.689214396231

DIPOLE MOMENT
-------------

Method             : SCF
Type of density    : Electron Density
Multiplicity       :   1
Irrep              :   0
Energy             :  -685.8195604782229111 Eh
Relativity type    :
Basis              : AO
                                X                 Y                 Z
Electronic contribution:      1.817707347       0.043566355      -0.361343800
Nuclear contribution   :     -2.327198782      -0.418584678       0.226882190
                        -----------------------------------------
Total Dipole Moment    :     -0.509491436      -0.375018323      -0.134461610
                        -----------------------------------------
Magnitude (a.u.)       :      0.646761309
Magnitude (Debye)      :      1.643936601

Rotational constants in cm-1:             0.044264             0.025127             0.021880
Rotational constants in MHz :          1326.987103           753.283469           655.938907

                             ****ORCA TERMINATED NORMALLY****
TOTAL RUN TIME: 0 days 0 hours 0 minutes 12 seconds 135 msec
