                         Program Version 6.0.0  -   RELEASE  -
|  1> ! pbe def2-sv(p) def2/J RI DEFGRID1 loosescf d4 GCP(DFT/SV(P)) printgap
|  2> %output
|  3>     printlevel normal
|  4> end
|  5> * xyz 0 1
|  6> C -2.3354869251 -0.1745720774 -0.5448152415
|  7> C -1.275606402 -0.6005009712 0.4723471375
|  8> C 0.0097370743 0.1468594344 0.2293284489
|  9> O 0.13382459 1.3529924328 0.2699739931
| 10> O 1.0140842969 -0.6761833528 -0.0509767231
| 11> C 2.2951413193 -0.0960790876 -0.3123891542
| 12> H -2.4640913998 0.9047206786 -0.5149339136
| 13> H -2.0352197864 -0.4601553764 -1.549803565
| 14> H -3.2831999249 -0.6509198878 -0.3137912759
| 15> H -1.0760736532 -1.6688988929 0.4079573826
| 16> H -1.6193949226 -0.3517167156 1.4774343685
| 17> H 2.6056941819 0.5177280975 0.5338304266
| 18> H 2.2450675509 0.5291431523 -1.2044642734
| 19> H 2.9710533959 -0.932380552 -0.4591524676
| 20> *
| 21>
| 22>                          ****END OF INPUT****

CARTESIAN COORDINATES (ANGSTROEM)
---------------------------------
  C     -2.335487   -0.174572   -0.544815
  C     -1.275606   -0.600501    0.472347
  C      0.009737    0.146859    0.229328
  O      0.133825    1.352992    0.269974
  O      1.014084   -0.676183   -0.050977
  C      2.295141   -0.096079   -0.312389
  H     -2.464091    0.904721   -0.514934
  H     -2.035220   -0.460155   -1.549804
  H     -3.283200   -0.650920   -0.313791
  H     -1.076074   -1.668899    0.407957
  H     -1.619395   -0.351717    1.477434
  H      2.605694    0.517728    0.533830
  H      2.245068    0.529143   -1.204464
  H      2.971053   -0.932381   -0.459152

 Total Charge           Charge          ....    0
 Multiplicity           Mult            ....    1
 Number of Electrons    NEL             ....   48
 Basis Dimension        Dim             ....  100

ORBITAL ENERGIES
----------------

  NO   OCC          E(Eh)            E(eV)
   0   2.0000     -18.800092      -511.5765
   1   2.0000     -18.731100      -509.6992
   2   2.0000     -10.003894      -272.2198
   3   2.0000      -9.941811      -270.5304
   4   2.0000      -9.898915      -269.3632
   5   2.0000      -9.884857      -268.9806
   6   2.0000      -1.005388       -27.3580
   7   2.0000      -0.908116       -24.7111
   8   2.0000      -0.714007       -19.4291
   9   2.0000      -0.658537       -17.9197
  10   2.0000      -0.573512       -15.6061
  11   2.0000      -0.505103       -13.7446
  12   2.0000      -0.449072       -12.2199
  13   2.0000      -0.434118       -11.8130
  14   2.0000      -0.421566       -11.4714
  15   2.0000      -0.396306       -10.7840
  16   2.0000      -0.376706       -10.2507
  17   2.0000      -0.360430        -9.8078
  18   2.0000      -0.332725        -9.0539
  19   2.0000      -0.320472        -8.7205
  20   2.0000      -0.309245        -8.4150
  21   2.0000      -0.298371        -8.1191
  22   2.0000      -0.257773        -7.0144
  23   2.0000      -0.217279        -5.9125
  24   0.0000      -0.020438        -0.5561
  25   0.0000       0.046809         1.2737
  26   0.0000       0.063805         1.7362
  27   0.0000       0.084561         2.3010
  28   0.0000       0.092701         2.5225

MULLIKEN ATOMIC CHARGES
-----------------------
   0 C :   -0.298576
   1 C :   -0.149483
   2 C :    0.092818
   3 O :   -0.214689
   4 O :   -0.236547
   5 C :   -0.110840
   6 H :    0.123916
   7 H :    0.108861
   8 H :    0.111542
   9 H :    0.098278
  10 H :    0.114196
  11 H :    0.120124
  12 H :    0.119106
  13 H :    0.121295
Sum of atomic charges:   -0.0000000

LOEWDIN ATOMIC CHARGES
----------------------
   0 C :   -0.331786
   1 C :   -0.253037
   2 C :    0.034542
   3 O :   -0.172342
   4 O :   -0.074018
   5 C :   -0.203981
   6 H :    0.127654
   7 H :    0.121646
   8 H :    0.122531
   9 H :    0.127851
  10 H :    0.140803
  11 H :    0.120213
  12 H :    0.119489
  13 H :    0.120435

  Mayer bond orders larger than 0.100000
B(  0-C ,  1-C ) :   1.1418 B(  0-C ,  6-H ) :   0.9492 B(  0-C ,  7-H ) :   0.9572
B(  0-C ,  8-H ) :   0.9534 B(  1-C ,  2-C ) :   1.0251 B(  1-C ,  9-H ) :   0.9141
B(  1-C , 10-H ) :   0.9018 B(  2-C ,  3-O ) :   2.0507 B(  2-C ,  4-O ) :   1.2232
B(  4-O ,  5-C ) :   0.9391 B(  5-C , 11-H ) :   0.9504 B(  5-C , 12-H ) :   0.9534
B(  5-C , 13-H ) :   0.9593

Dispersion correction           -0.009089853
FINAL SINGLE POINT ENERGY      -307.026799253818

DIPOLE MOMENT
-------------

Method             : SCF
Type of density    : Electron Density
Multiplicity       :   1
Irrep              :   0
Energy             :  -307.0810057350166744 Eh
Relativity type    :
Basis              : AO
                                X                 Y                 Z
Electronic contribution:      2.687708445       1.331628203       1.404349810
Nuclear contribution   :     -2.474891467      -1.971818411      -1.519330246
                        -----------------------------------------
Total Dipole Moment    :      0.212816978      -0.640190209      -0.114980436
                        -----------------------------------------
Magnitude (a.u.)       :      0.684364720
Magnitude (Debye)      :      1.739516877

Rotational constants in cm-1:             0.264981             0.074290             0.065104
Rotational constants in MHz :          7943.918182          2227.171535          1951.779215

                             ****ORCA TERMINATED NORMALLY****
TOTAL RUN TIME: 0 days 0 hours 0 minutes 6 seconds 271 msec
