                         Program Version 6.0.0  -   RELEASE  -
|  1> ! r2scan-3c def2/J RI DEFGRID2 scfconv6 printgap
|  2> %output
|  3>     printlevel normal
|  4> end
|  5> * xyz 0 1
|  6> C -2.391045414 -1.1598430172 -0.3111699512
|  7> C -1.0693024002 -0.6233476264 0.2484204194
|  8> H -1.1112799034 -0.6116299974 1.3498645017
|  9> C -0.7770081939 0.804737494 -0.2361022379
| 10> H -0.8317605493 0.8222785778 -1.3375794973
| 11> C 0.6392481386 1.2455039308 0.1726885312
| 12> H 0.6617620899 1.3880202331 1.2643681514
| 13> C 1.6826252197 0.1877162275 -0.188922682
| 14> H 1.796697674 0.1653598972 -1.281674518
| 15> C 1.2184807752 -1.2026426443 0.2815315623
| 16> H 1.2110123903 -1.205052546 1.3928957791
| 17> O -0.0696943957 -1.5199973819 -0.19023183
| 18> O 2.1034750132 -2.1361902241 -0.2175364048
| 19> O 2.8905751054 0.5270695694 0.4379404203
| 20> O 0.9852881943 2.4411452171 -0.4779999118
| 21> O -1.6633694798 1.746485285 0.3153538951
| 22> O -3.4509775011 -0.3619843346 0.1610050937
| 23> H -2.4965496659 -2.200036158 0.0159522643
| 24> H -2.3332921888 -1.1380274009 -1.4062054418
| 25> H 1.7477023765 -3.0297415796 -0.0893078254
| 26> H 3.5742944864 -0.1012869274 0.1602147422
| 27> H 0.319129731 3.1088934973 -0.253836915
| 28> H -2.5644244257 1.3783773177 0.2888566842
| 29> H -4.2917603992 -0.7215124083 -0.1565905731
| 30> *
| 31>
| 32>                          ****END OF INPUT****

CARTESIAN COORDINATES (ANGSTROEM)
---------------------------------
  C     -2.391045   -1.159843   -0.311170
  C     -1.069302   -0.623348    0.248420
  H     -1.111280   -0.611630    1.349865
  C     -0.777008    0.804737   -0.236102
  H     -0.831761    0.822279   -1.337579
  C      0.639248    1.245504    0.172689
  H      0.661762    1.388020    1.264368
  C      1.682625    0.187716   -0.188923
  H      1.796698    0.165360   -1.281675
  C      1.218481   -1.202643    0.281532
  H      1.211012   -1.205053    1.392896
  O     -0.069694   -1.519997   -0.190232
  O      2.103475   -2.136190   -0.217536
  O      2.890575    0.527070    0.437940
  O      0.985288    2.441145   -0.478000
  O     -1.663369    1.746485    0.315354
  O     -3.450978   -0.361984    0.161005
  H     -2.496550   -2.200036    0.015952
  H     -2.333292   -1.138027   -1.406205
  H      1.747702   -3.029742   -0.089308
  H      3.574294   -0.101287    0.160215
  H      0.319130    3.108893   -0.253837
  H     -2.564424    1.378377    0.288857
  H     -4.291760   -0.721512   -0.156591

 Total Charge           Charge          ....    0
 Multiplicity           Mult            ....    1
 Number of Electrons    NEL             ....   96
 Basis Dimension        Dim             ....  318

ORBITAL ENERGIES
----------------

  NO   OCC          E(Eh)            E(eV)
   0   2.0000     -18.986814      -516.6575
   1   2.0000     -18.976456      -516.3756
   2   2.0000     -18.973189      -516.2867
   3   2.0000     -18.949557      -515.6437
   4   2.0000     -18.949210      -515.6342
   5   2.0000     -18.943457      -515.4777
   6   2.0000     -10.139422      -275.9077
   7   2.0000     -10.100162      -274.8394
   8   2.0000     -10.100034      -274.8359
   9   2.0000     -10.085468      -274.4395
  10   2.0000     -10.083619      -274.3892
  11   2.0000     -10.082537      -274.3598
  12   2.0000      -1.056854       -28.7585
  13   2.0000      -1.024660       -27.8824
  14   2.0000      -1.001008       -27.2388
  15   2.0000      -0.995825       -27.0978
  16   2.0000      -0.984088       -26.7784
  17   2.0000      -0.972907       -26.4741
  18   2.0000      -0.750554       -20.4236
  19   2.0000      -0.739760       -20.1299
  20   2.0000      -0.662709       -18.0332
  21   2.0000      -0.616100       -16.7649
  22   2.0000      -0.590899       -16.0792
  23   2.0000      -0.551113       -14.9966
  24   2.0000      -0.533052       -14.5051
  25   2.0000      -0.513451       -13.9717
  26   2.0000      -0.495438       -13.4816
  27   2.0000      -0.489724       -13.3261
  28   2.0000      -0.480360       -13.0713
  29   2.0000      -0.468412       -12.7461
  30   2.0000      -0.433613       -11.7992
  31   2.0000      -0.421851       -11.4791
  32   2.0000      -0.409258       -11.1365
  33   2.0000      -0.385792       -10.4979
  34   2.0000      -0.379541       -10.3278
  35   2.0000      -0.371452       -10.1077
  36   2.0000      -0.361194        -9.8286
  37   2.0000      -0.353112        -9.6087
  38   2.0000      -0.333270        -9.0687
  39   2.0000      -0.322134        -8.7657
  40   2.0000      -0.299131        -8.1398
  41   2.0000      -0.289835        -7.8868
  42   2.0000      -0.276016        -7.5108
  43   2.0000      -0.267526        -7.2797
  44   2.0000      -0.260964        -7.1012
  45   2.0000      -0.241888        -6.5821
  46   2.0000      -0.234290        -6.3753
  47   2.0000      -0.220061        -5.9882
  48   0.0000       0.018142         0.4937
  49   0.0000       0.050969         1.3870
  50   0.0000       0.060906         1.6573
  51   0.0000       0.082169         2.2359
  52   0.0000       0.094606         2.5744

MULLIKEN ATOMIC CHARGES
-----------------------
   0 C :   -0.200059
   1 C :   -0.094172
   2 H :    0.179664
   3 C :    0.058481
   4 H :    0.169196
   5 C :   -0.076032
   6 H :    0.171061
   7 C :   -0.014706
   8 H :    0.173775
   9 C :   -0.029420
  10 H :    0.141452
  11 O :   -0.200188
  12 O :   -0.398054
  13 O :   -0.413586
  14 O :   -0.421127
  15 O :   -0.445776
  16 O :   -0.429121
  17 H :    0.137378
  18 H :    0.138545
  19 H :    0.308723
  20 H :    0.309535
  21 H :    0.312746
  22 H :    0.313474
  23 H :    0.308210
Sum of atomic charges:   -0.0000000

LOEWDIN ATOMIC CHARGES
----------------------
   0 C :    0.056017
   1 C :    0.122715
   2 H :    0.186438
   3 C :    0.106836
   4 H :    0.182308
   5 C :    0.120472
   6 H :    0.189698
   7 C :    0.128263
   8 H :    0.191192
   9 C :    0.298433
  10 H :    0.180469
  11 O :   -0.688882
  12 O :   -0.501744
  13 O :   -0.553931
  14 O :   -0.557058
  15 O :   -0.590270
  16 O :   -0.625136
  17 H :    0.171474
  18 H :    0.170424
  19 H :    0.284931
  20 H :    0.280263
  21 H :    0.281880
  22 H :    0.287909
  23 H :    0.277300

  Mayer bond orders larger than 0.100000
B(  0-C ,  1-C ) :   0.9750 B(  0-C , 16-O ) :   0.9726 B(  0-C , 17-H ) :   0.9566
B(  0-C , 18-H ) :   0.9731 B(  1-C ,  2-H ) :   0.9545 B(  1-C ,  3-C ) :   0.8029
B(  1-C , 11-O ) :   0.8117 B(  3-C ,  4-H ) :   0.9588 B(  3-C ,  5-C ) :   0.8465
B(  3-C , 15-O ) :   0.8626 B(  5-C ,  6-H ) :   1.0010 B(  5-C ,  7-C ) :   0.9301
B(  5-C , 14-O ) :   0.9298 B(  7-C ,  8-H ) :   0.9887 B(  7-C ,  9-C ) :   0.7988
B(  7-C , 13-O ) :   0.9377 B(  9-C , 10-H ) :   1.0022 B(  9-C , 11-O ) :   0.9055
B(  9-C , 12-O ) :   1.0568 B( 12-O , 19-H ) :   0.8794 B( 13-O , 20-H ) :   0.8842
B( 14-O , 21-H ) :   0.8778 B( 15-O , 22-H ) :   0.8469 B( 16-O , 23-H ) :   0.8910

Dispersion correction           -0.007946596
FINAL SINGLE POINT ENERGY      -687.073907402974

DIPOLE MOMENT
-------------

Method             : SCF
Type of density    : Electron Density
Multiplicity       :   1
Irrep              :   0
Energy             :  -687.0858939321273056 Eh
Relativity type    :
Basis              : AO
                                X                 Y                 Z
Electronic contribution:      2.643086936       0.588076072      -0.030198655
Nuclear contribution   :     -4.039676074      -2.001453414      -0.049340351
                        -----------------------------------------
Total Dipole Moment    :     -1.396589138      -1.413377342      -0.079539006
                        -----------------------------------------
Magnitude (a.u.)       :      1.988573153
Magnitude (Debye)      :      5.054551263

Rotational constants in cm-1:             0.043987             0.024544             0.016539
Rotational constants in MHz :          1318.700179           735.795997           495.833569

                             ****ORCA TERMINATED NORMALLY****
TOTAL RUN TIME: 0 days 0 hours 0 minutes 48 seconds 773 msec
