                         Program Version 6.0.0  -   RELEASE  -
|  1> ! r2scan-3c def2/J RI DEFGRID2 scfconv6 printgap
|  2> %output
|  3>     printlevel normal
|  4> end
|  5> %cpcm
|  6>     smd true
|  7>     smdsolvent "water"
|  8> end
|  9> * xyz 0 1
| 10> C -2.391045414 -1.1598430172 -0.3111699512
| 11> C -1.0693024002 -0.6233476264 0.2484204194
| 12> H -1.1112799034 -0.6116299974 1.3498645017
| 13> C -0.7770081939 0.804737494 -0.2361022379
| 14> H -0.8317605493 0.8222785778 -1.3375794973
| 15> C 0.6392481386 1.2455039308 0.1726885312
| 16> H 0.6617620899 1.3880202331 1.2643681514
| 17> C 1.6826252197 0.1877162275 -0.188922682
| 18> H 1.796697674 0.1653598972 -1.281674518
| 19> C 1.2184807752 -1.2026426443 0.2815315623
| 20> H 1.2110123903 -1.205052546 1.3928957791
| 21> O -0.0696943957 -1.5199973819 -0.19023183
| 22> O 2.1034750132 -2.1361902241 -0.2175364048
| 23> O 2.8905751054 0.5270695694 0.4379404203
| 24> O 0.9852881943 2.4411452171 -0.4779999118
| 25> O -1.6633694798 1.746485285 0.3153538951
| 26> O -3.4509775011 -0.3619843346 0.1610050937
| 27> H -2.4965496659 -2.200036158 0.0159522643
| 28> H -2.3332921888 -1.1380274009 -1.4062054418
| 29> H 1.7477023765 -3.0297415796 -0.0893078254
| 30> H 3.5742944864 -0.1012869274 0.1602147422
| 31> H 0.319129731 3.1088934973 -0.253836915
| 32> H -2.5644244257 1.3783773177 0.2888566842
| 33> H -4.2917603992 -0.7215124083 -0.1565905731
| 34> *
| 35>
| 36>                          ****END OF INPUT****

CARTESIAN COORDINATES (ANGSTROEM)
---------------------------------
  C     -2.391045   -1.159843   -0.311170
  C     -1.069302   -0.623348    0.248420
  H     -1.111280   -0.611630    1.349865
  C     -0.777008    0.804737   -0.236102
  H     -0.831761    0.822279   -1.337579
  C      0.639248    1.245504    0.172689
  H      0.661762    1.388020    1.264368
  C      1.682625    0.187716   -0.188923
  H      1.796698    0.165360   -1.281675
  C      1.218481   -1.202643    0.281532
  H      1.211012   -1.205053    1.392896
  O     -0.069694   -1.519997   -0.190232
  O      2.103475   -2.136190   -0.217536
  O      2.890575    0.527070    0.437940
  O      0.985288    2.441145   -0.478000
  O     -1.663369    1.746485    0.315354
  O     -3.450978   -0.361984    0.161005
  H     -2.496550   -2.200036    0.015952
  H     -2.333292   -1.138027   -1.406205
  H      1.747702   -3.029742   -0.089308
  H      3.574294   -0.101287    0.160215
  H      0.319130    3.108893   -0.253837
  H     -2.564424    1.378377    0.288857
  H     -4.291760   -0.721512   -0.156591

 Total Charge           Charge          ....    0
 Multiplicity           Mult            ....    1
 Number of Electrons    NEL             ....   96
 Basis Dimension        Dim             ....  318

ORBITAL ENERGIES
----------------

  NO   OCC          E(Eh)            E(eV)
   0   2.0000     -18.976369      -516.3732
   1   2.0000     -18.969884      -516.1968
   2   2.0000     -18.966115      -516.0942
   3   2.0000     -18.962398      -515.9931
   4   2.0000     -18.959355      -515.9103
   5   2.0000     -18.955700      -515.8108
   6   2.0000     -10.137087      -275.8442
   7   2.0000     -10.091458      -274.6025
   8   2.0000     -10.088306      -274.5168
   9   2.0000     -10.087924      -274.5064
  10   2.0000     -10.085291      -274.4347
  11   2.0000     -10.080933      -274.3161
  12   2.0000      -1.055232       -28.7143
  13   2.0000      -1.013203       -27.5707
  14   2.0000      -1.007566       -27.4173
  15   2.0000      -0.996676       -27.1209
  16   2.0000      -0.985442       -26.8152
  17   2.0000      -0.983558       -26.7640
  18   2.0000      -0.747770       -20.3479
  19   2.0000      -0.738363       -20.0919
  20   2.0000      -0.656031       -17.8515
  21   2.0000      -0.618127       -16.8201
  22   2.0000      -0.584627       -15.9085
  23   2.0000      -0.549757       -14.9597
  24   2.0000      -0.524609       -14.2753
  25   2.0000      -0.515722       -14.0335
  26   2.0000      -0.494479       -13.4554
  27   2.0000      -0.488791       -13.3007
  28   2.0000      -0.477361       -12.9896
  29   2.0000      -0.462584       -12.5876
  30   2.0000      -0.430020       -11.7014
  31   2.0000      -0.415053       -11.2942
  32   2.0000      -0.406685       -11.0665
  33   2.0000      -0.395430       -10.7602
  34   2.0000      -0.381605       -10.3840
  35   2.0000      -0.372780       -10.1439
  36   2.0000      -0.362806        -9.8724
  37   2.0000      -0.348840        -9.4924
  38   2.0000      -0.337705        -9.1894
  39   2.0000      -0.329779        -8.9737
  40   2.0000      -0.304461        -8.2848
  41   2.0000      -0.291412        -7.9297
  42   2.0000      -0.277709        -7.5569
  43   2.0000      -0.267724        -7.2851
  44   2.0000      -0.257548        -7.0082
  45   2.0000      -0.248090        -6.7509
  46   2.0000      -0.242803        -6.6070
  47   2.0000      -0.225963        -6.1488
  48   0.0000       0.034079         0.9273
  49   0.0000       0.062280         1.6947
  50   0.0000       0.081056         2.2056
  51   0.0000       0.086439         2.3521
  52   0.0000       0.100067         2.7230

MULLIKEN ATOMIC CHARGES
-----------------------
   0 C :   -0.212054
   1 C :   -0.091523
   2 H :    0.204873
   3 C :    0.034684
   4 H :    0.185622
   5 C :   -0.031100
   6 H :    0.179335
   7 C :    0.002942
   8 H :    0.186462
   9 C :   -0.048588
  10 H :    0.168089
  11 O :   -0.240198
  12 O :   -0.452531
  13 O :   -0.488187
  14 O :   -0.495647
  15 O :   -0.505151
  16 O :   -0.482126
  17 H :    0.156642
  18 H :    0.156145
  19 H :    0.360160
  20 H :    0.354861
  21 H :    0.353861
  22 H :    0.346842
  23 H :    0.356585
Sum of atomic charges:    0.0000000

LOEWDIN ATOMIC CHARGES
----------------------
   0 C :    0.059755
   1 C :    0.124539
   2 H :    0.194772
   3 C :    0.109357
   4 H :    0.189723
   5 C :    0.116640
   6 H :    0.196001
   7 C :    0.124207
   8 H :    0.196564
   9 C :    0.301475
  10 H :    0.191730
  11 O :   -0.700750
  12 O :   -0.517653
  13 O :   -0.586381
  14 O :   -0.593981
  15 O :   -0.614000
  16 O :   -0.633347
  17 H :    0.178860
  18 H :    0.176849
  19 H :    0.303120
  20 H :    0.296274
  21 H :    0.295582
  22 H :    0.294753
  23 H :    0.295913

  Mayer bond orders larger than 0.100000
B(  0-C ,  1-C ) :   0.9481 B(  0-C , 16-O ) :   0.9700 B(  0-C , 17-H ) :   0.9587
B(  0-C , 18-H ) :   0.9704 B(  1-C ,  2-H ) :   0.9506 B(  1-C ,  3-C ) :   0.8119
B(  1-C , 11-O ) :   0.8082 B(  3-C ,  4-H ) :   0.9556 B(  3-C ,  5-C ) :   0.8789
B(  3-C , 15-O ) :   0.8489 B(  5-C ,  6-H ) :   0.9712 B(  5-C ,  7-C ) :   0.9351
B(  5-C , 14-O ) :   0.9037 B(  7-C ,  8-H ) :   0.9673 B(  7-C ,  9-C ) :   0.8195
B(  7-C , 13-O ) :   0.9069 B(  9-C , 10-H ) :   1.0019 B(  9-C , 11-O ) :   0.9180
B(  9-C , 12-O ) :   1.0536 B( 12-O , 19-H ) :   0.8531 B( 13-O , 20-H ) :   0.8616
B( 14-O , 21-H ) :   0.8583 B( 15-O , 22-H ) :   0.8302 B( 16-O , 23-H ) :   0.8641

Dispersion correction           -0.007946596
FINAL SINGLE POINT ENERGY      -687.107750785681

DIPOLE MOMENT
-------------

Method             : SCF
Type of density    : Electron Density
Multiplicity       :   1
Irrep              :   0
Energy             :  -687.1197373148339693 Eh
Relativity type    :
Basis              : AO
                                X                 Y                 Z
Electronic contribution:      2.166485665       0.050382371      -0.005098913
Nuclear contribution   :     -4.039676074      -2.001453414      -0.049340351
                        -----------------------------------------
Total Dipole Moment    :     -1.873190409      -1.951071043      -0.054439264
                        -----------------------------------------
Magnitude (a.u.)       :      2.705269701
Magnitude (Debye)      :      6.876249116

Rotational constants in cm-1:             0.043987             0.024544             0.016539
Rotational constants in MHz :          1318.700179           735.795997           495.833569

                             ****ORCA TERMINATED NORMALLY****
TOTAL RUN TIME: 0 days 0 hours 0 minutes 56 seconds 954 msec
