                         Program Version 6.0.0  -   RELEASE  -
|  1> ! pbe def2-sv(p) def2/J RI DEFGRID1 loosescf d4 GCP(DFT/SV(P)) printgap
|  2> %output
|  3>     printlevel normal
|  4> end
|  5> * xyz 0 1
|  6> C -3.1823089029 -0.1755281736 0.0065381271
|  7> O -1.9635363522 -0.8900687993 -0.0041999039
|  8> C -0.7891104091 -0.1808976435 -0.0018387585
|  9> C -0.7004868653 1.2059020483 0.0032069286
| 10> C 0.5542434107 1.797419128 0.0008296761
| 11> C 1.7051307148 1.0412365934 -0.0071854253
| 12> C 1.6261677162 -0.3563843122 -0.0109842838
| 13> C 0.3675051354 -0.9516075057 -0.0113469279
| 14> N 2.7635523155 -1.1239870932 0.0535988331
| 15> H -3.281472467 0.4521468246 -0.8834955367
| 16> H -3.27186189 0.4414400079 0.9049042256
| 17> H -3.9604258823 -0.9357757711 0.006154527
| 18> H -1.5812773192 1.8263113013 0.0077800007
| 19> H 0.6243408187 2.8752709704 0.0023291561
| 20> H 2.672650646 1.5198645692 -0.0081344922
| 21> H 0.2663232666 -2.026115898 -0.0153067223
| 22> H 3.6198822037 -0.6790062277 -0.2307664911
| 23> H 2.6676429352 -2.0890245461 -0.2140136144
| 24> *
| 25>
| 26>                          ****END OF INPUT****

CARTESIAN COORDINATES (ANGSTROEM)
---------------------------------
  C     -3.182309   -0.175528    0.006538
  O     -1.963536   -0.890069   -0.004200
  C     -0.789110   -0.180898   -0.001839
  C     -0.700487    1.205902    0.003207
  C      0.554243    1.797419    0.000830
  C      1.705131    1.041237   -0.007185
  C      1.626168   -0.356384   -0.010984
  C      0.367505   -0.951608   -0.011347
  N      2.763552   -1.123987    0.053599
  H     -3.281472    0.452147   -0.883496
  H     -3.271862    0.441440    0.904904
  H     -3.960426   -0.935776    0.006155
  H     -1.581277    1.826311    0.007780
  H      0.624341    2.875271    0.002329
  H      2.672651    1.519865   -0.008134
  H      0.266323   -2.026116   -0.015307
  H      3.619882   -0.679006   -0.230766
  H      2.667643   -2.089025   -0.214014

 Total Charge           Charge          ....    0
 Multiplicity           Mult            ....    1
 Number of Electrons    NEL             ....   66
 Basis Dimension        Dim             ....  144

ORBITAL ENERGIES
----------------

  NO   OCC          E(Eh)            E(eV)
   0   2.0000     -18.771752      -510.8053
   1   2.0000     -13.991468      -380.7272
   2   2.0000      -9.937435      -270.4114
   3   2.0000      -9.932369      -270.2735
   4   2.0000      -9.925356      -270.0827
   5   2.0000      -9.882836      -268.9256
   6   2.0000      -9.872156      -268.6350
   7   2.0000      -9.870337      -268.5855
   8   2.0000      -9.869146      -268.5531
   9   2.0000      -0.953417       -25.9438
  10   2.0000      -0.832816       -22.6621
  11   2.0000      -0.748249       -20.3609
  12   2.0000      -0.672702       -18.3051
  13   2.0000      -0.644227       -17.5303
  14   2.0000      -0.615308       -16.7434
  15   2.0000      -0.542756       -14.7691
  16   2.0000      -0.526119       -14.3164
  17   2.0000      -0.481336       -13.0978
  18   2.0000      -0.466836       -12.7033
  19   2.0000      -0.427251       -11.6261
  20   2.0000      -0.416487       -11.3332
  21   2.0000      -0.410382       -11.1671
  22   2.0000      -0.405114       -11.0237
  23   2.0000      -0.367380        -9.9969
  24   2.0000      -0.357889        -9.7387
  25   2.0000      -0.340559        -9.2671
  26   2.0000      -0.317339        -8.6352
  27   2.0000      -0.311888        -8.4869
  28   2.0000      -0.291934        -7.9439
  29   2.0000      -0.271013        -7.3746
  30   2.0000      -0.251127        -6.8335
  31   2.0000      -0.185308        -5.0425
  32   2.0000      -0.167549        -4.5592
  33   0.0000      -0.016153        -0.4396
  34   0.0000       0.003130         0.0852
  35   0.0000       0.037328         1.0158
  36   0.0000       0.052563         1.4303
  37   0.0000       0.066865         1.8195

MULLIKEN ATOMIC CHARGES
-----------------------
   0 C :   -0.111831
   1 O :   -0.278772
   2 C :    0.270131
   3 C :   -0.199104
   4 C :   -0.063326
   5 C :   -0.123095
   6 C :    0.169505
   7 C :   -0.209237
   8 N :   -0.334521
   9 H :    0.107642
  10 H :    0.108430
  11 H :    0.120856
  12 H :    0.029002
  13 H :    0.045501
  14 H :    0.014042
  15 H :    0.011286
  16 H :    0.221591
  17 H :    0.221899
Sum of atomic charges:    0.0000000

LOEWDIN ATOMIC CHARGES
----------------------
   0 C :   -0.202819
   1 O :   -0.099870
   2 C :    0.040239
   3 C :   -0.210257
   4 C :   -0.110238
   5 C :   -0.183550
   6 C :   -0.002130
   7 C :   -0.188360
   8 N :   -0.312490
   9 H :    0.107576
  10 H :    0.108015
  11 H :    0.119921
  12 H :    0.122322
  13 H :    0.121616
  14 H :    0.115864
  15 H :    0.123261
  16 H :    0.225293
  17 H :    0.225606

  Mayer bond orders larger than 0.100000
B(  0-C ,  1-O ) :   0.9942 B(  0-C ,  9-H ) :   0.9421 B(  0-C , 10-H ) :   0.9421
B(  0-C , 11-H ) :   0.9596 B(  1-O ,  2-C ) :   1.1242 B(  2-C ,  3-C ) :   1.3000
B(  2-C ,  7-C ) :   1.3509 B(  3-C ,  4-C ) :   1.3322 B(  3-C , 12-H ) :   0.9652
B(  4-C ,  5-C ) :   1.4024 B(  4-C , 13-H ) :   0.9573 B(  5-C ,  6-C ) :   1.3011
B(  5-C , 14-H ) :   0.9641 B(  6-C ,  7-C ) :   1.3070 B(  6-C ,  8-N ) :   1.2395
B(  7-C , 15-H ) :   0.9643 B(  8-N , 16-H ) :   0.8826 B(  8-N , 17-H ) :   0.8831

Dispersion correction           -0.017601202
FINAL SINGLE POINT ENERGY      -401.251731225104

DIPOLE MOMENT
-------------

Method             : SCF
Type of density    : Electron Density
Multiplicity       :   1
Irrep              :   0
Energy             :  -401.3120806884238050 Eh
Relativity type    :
Basis              : AO
                                X                 Y                 Z
Electronic contribution:      2.329123451      -1.377897545       0.092389973
Nuclear contribution   :     -2.119370276       1.280114977      -0.403696093
                        -----------------------------------------
Total Dipole Moment    :      0.209753175      -0.097782568      -0.311306121
                        -----------------------------------------
Magnitude (a.u.)       :      0.387903758
Magnitude (Debye)      :      0.985972997

Rotational constants in cm-1:             0.121369             0.037845             0.029024
Rotational constants in MHz :          3638.538657          1134.556034           870.107475

                             ****ORCA TERMINATED NORMALLY****
TOTAL RUN TIME: 0 days 0 hours 0 minutes 9 seconds 483 msec
