                         Program Version 6.0.0  -   RELEASE  -
|  1> ! r2scan-3c def2/J RI DEFGRID2 scfconv6 printgap
|  2> %output
|  3>     printlevel normal
|  4> end
|  5> * xyz 0 1
|  6> C -2.0957821664 0.6139123138 1.3499976432
|  7> C -1.3943940857 0.3366974204 0.0208144352
|  8> C -2.4070065941 -0.1649673234 -1.0081937035
|  9> C -0.2455459483 -0.6755257903 0.2015836206
| 10> C 1.1749751268 -0.1483532785 -0.0747855071
| 11> C 1.3153974847 0.2947239145 -1.5332083641
| 12> C 1.5196801414 1.0139950018 0.8591915927
| 13> C 2.1621279456 -1.2927125361 0.1845644021
| 14> H -2.8834160217 1.353318171 1.2194861041
| 15> H -2.5449608006 -0.2978043001 1.7389441195
| 16> H -1.3895656719 0.9925488602 2.0848556218
| 17> H -0.9924553887 1.2849023937 -0.3466806656
| 18> H -1.9262495208 -0.3279352654 -1.9699270602
| 19> H -2.8504715301 -1.1025161193 -0.6789104127
| 20> H -3.2056889491 0.5614863549 -1.1437549117
| 21> H -0.2678418301 -1.0579125702 1.2242714181
| 22> H -0.416169499 -1.5282344681 -0.4590116201
| 23> H 2.3342851615 0.6202574728 -1.7310844705
| 24> H 0.6471440724 1.1202707653 -1.7628658256
| 25> H 1.0835221026 -0.5298905885 -2.2037097632
| 26> H 0.8598765268 1.8618483186 0.6964658836
| 27> H 2.5419165065 1.343782456 0.6868405712
| 28> H 1.4312598699 0.7045179595 1.8982552562
| 29> H 1.9463967923 -2.1399001811 -0.4626818839
| 30> H 2.0996505883 -1.6269782526 1.2178011222
| 31> H 3.1817934665 -0.9668459688 -0.0078658943
| 32> *
| 33>
| 34>                          ****END OF INPUT****

CARTESIAN COORDINATES (ANGSTROEM)
---------------------------------
  C     -2.095782    0.613912    1.349998
  C     -1.394394    0.336697    0.020814
  C     -2.407007   -0.164967   -1.008194
  C     -0.245546   -0.675526    0.201584
  C      1.174975   -0.148353   -0.074786
  C      1.315397    0.294724   -1.533208
  C      1.519680    1.013995    0.859192
  C      2.162128   -1.292713    0.184564
  H     -2.883416    1.353318    1.219486
  H     -2.544961   -0.297804    1.738944
  H     -1.389566    0.992549    2.084856
  H     -0.992455    1.284902   -0.346681
  H     -1.926250   -0.327935   -1.969927
  H     -2.850472   -1.102516   -0.678910
  H     -3.205689    0.561486   -1.143755
  H     -0.267842   -1.057913    1.224271
  H     -0.416169   -1.528234   -0.459012
  H      2.334285    0.620257   -1.731084
  H      0.647144    1.120271   -1.762866
  H      1.083522   -0.529891   -2.203710
  H      0.859877    1.861848    0.696466
  H      2.541917    1.343782    0.686841
  H      1.431260    0.704518    1.898255
  H      1.946397   -2.139900   -0.462682
  H      2.099651   -1.626978    1.217801
  H      3.181793   -0.966846   -0.007866

 Total Charge           Charge          ....    0
 Multiplicity           Mult            ....    1
 Number of Electrons    NEL             ....   66
 Basis Dimension        Dim             ....  242

ORBITAL ENERGIES
----------------

  NO   OCC          E(Eh)            E(eV)
   0   2.0000     -10.039398      -273.1859
   1   2.0000     -10.029231      -272.9093
   2   2.0000     -10.016152      -272.5533
   3   2.0000     -10.012422      -272.4518
   4   2.0000     -10.012315      -272.4489
   5   2.0000     -10.012275      -272.4478
   6   2.0000     -10.012215      -272.4462
   7   2.0000     -10.011588      -272.4292
   8   2.0000      -0.796091       -21.6627
   9   2.0000      -0.751578       -20.4515
  10   2.0000      -0.652611       -17.7584
  11   2.0000      -0.649448       -17.6724
  12   2.0000      -0.644561       -17.5394
  13   2.0000      -0.640022       -17.4159
  14   2.0000      -0.533060       -14.5053
  15   2.0000      -0.496416       -13.5082
  16   2.0000      -0.436744       -11.8844
  17   2.0000      -0.422829       -11.5058
  18   2.0000      -0.411275       -11.1914
  19   2.0000      -0.394245       -10.7280
  20   2.0000      -0.387631       -10.5480
  21   2.0000      -0.385319       -10.4851
  22   2.0000      -0.353093        -9.6081
  23   2.0000      -0.352497        -9.5919
  24   2.0000      -0.349572        -9.5123
  25   2.0000      -0.330619        -8.9966
  26   2.0000      -0.323724        -8.8090
  27   2.0000      -0.316479        -8.6118
  28   2.0000      -0.304013        -8.2726
  29   2.0000      -0.296066        -8.0564
  30   2.0000      -0.281232        -7.6527
  31   2.0000      -0.274935        -7.4814
  32   2.0000      -0.268565        -7.3080
  33   0.0000       0.073311         1.9949
  34   0.0000       0.096416         2.6236
  35   0.0000       0.106133         2.8880
  36   0.0000       0.114832         3.1247
  37   0.0000       0.125627         3.4185

MULLIKEN ATOMIC CHARGES
-----------------------
   0 C :   -0.519232
   1 C :    0.039193
   2 C :   -0.515415
   3 C :   -0.380711
   4 C :    0.124744
   5 C :   -0.504060
   6 C :   -0.507319
   7 C :   -0.490107
   8 H :    0.144829
   9 H :    0.152635
  10 H :    0.151078
  11 H :    0.147194
  12 H :    0.149704
  13 H :    0.152633
  14 H :    0.144213
  15 H :    0.163361
  16 H :    0.164258
  17 H :    0.152300
  18 H :    0.152762
  19 H :    0.156186
  20 H :    0.154808
  21 H :    0.151996
  22 H :    0.157376
  23 H :    0.151616
  24 H :    0.151920
  25 H :    0.154039
Sum of atomic charges:    0.0000000

LOEWDIN ATOMIC CHARGES
----------------------
   0 C :   -0.417090
   1 C :   -0.248465
   2 C :   -0.416911
   3 C :   -0.287714
   4 C :   -0.209192
   5 C :   -0.407316
   6 C :   -0.407375
   7 C :   -0.409178
   8 H :    0.151294
   9 H :    0.153007
  10 H :    0.153108
  11 H :    0.154375
  12 H :    0.152643
  13 H :    0.153252
  14 H :    0.151244
  15 H :    0.165048
  16 H :    0.164793
  17 H :    0.156557
  18 H :    0.154778
  19 H :    0.157054
  20 H :    0.155336
  21 H :    0.156593
  22 H :    0.157043
  23 H :    0.156091
  24 H :    0.155948
  25 H :    0.155076

  Mayer bond orders larger than 0.100000
B(  0-C ,  1-C ) :   0.8934 B(  0-C ,  8-H ) :   0.9778 B(  0-C ,  9-H ) :   0.9896
B(  0-C , 10-H ) :   0.9757 B(  1-C ,  2-C ) :   0.8905 B(  1-C ,  3-C ) :   0.7909
B(  1-C , 11-H ) :   0.9648 B(  2-C , 12-H ) :   0.9780 B(  2-C , 13-H ) :   0.9888
B(  2-C , 14-H ) :   0.9773 B(  3-C ,  4-C ) :   0.8753 B(  3-C , 15-H ) :   0.9908
B(  3-C , 16-H ) :   0.9938 B(  4-C ,  5-C ) :   0.9245 B(  4-C ,  6-C ) :   0.9146
B(  4-C ,  7-C ) :   0.9393 B(  5-C , 17-H ) :   0.9747 B(  5-C , 18-H ) :   0.9680
B(  5-C , 19-H ) :   0.9790 B(  6-C , 20-H ) :   0.9681 B(  6-C , 21-H ) :   0.9739
B(  6-C , 22-H ) :   0.9791 B(  7-C , 23-H ) :   0.9765 B(  7-C , 24-H ) :   0.9770
B(  7-C , 25-H ) :   0.9791

Dispersion correction           -0.008000710
FINAL SINGLE POINT ENERGY      -315.587514152942

DIPOLE MOMENT
-------------

Method             : SCF
Type of density    : Electron Density
Multiplicity       :   1
Irrep              :   0
Energy             :  -315.5923161490166535 Eh
Relativity type    :
Basis              : AO
                                X                 Y                 Z
Electronic contribution:      0.350177231      -0.228069311      -0.010236687
Nuclear contribution   :     -0.329270458       0.248533125       0.000401147
                        -----------------------------------------
Total Dipole Moment    :      0.020906772       0.020463814      -0.009835539
                        -----------------------------------------
Magnitude (a.u.)       :      0.030864197
Magnitude (Debye)      :      0.078450554

Rotational constants in cm-1:             0.097818             0.041124             0.036817
Rotational constants in MHz :          2932.509571          1232.877630          1103.737496

                             ****ORCA TERMINATED NORMALLY****
TOTAL RUN TIME: 0 days 0 hours 0 minutes 27 seconds 806 msec
