                         Program Version 6.0.0  -   RELEASE  -
|  1> ! r2scan-3c def2/J RI DEFGRID2 scfconv6 printgap
|  2> %output
|  3>     printlevel normal
|  4> end
|  5> %cpcm
|  6>     smd true
|  7>     smdsolvent "water"
|  8> end
|  9> * xyz 0 1
| 10> C -2.0957821664 0.6139123138 1.3499976432
| 11> C -1.3943940857 0.3366974204 0.0208144352
| 12> C -2.4070065941 -0.1649673234 -1.0081937035
| 13> C -0.2455459483 -0.6755257903 0.2015836206
| 14> C 1.1749751268 -0.1483532785 -0.0747855071
| 15> C 1.3153974847 0.2947239145 -1.5332083641
| 16> C 1.5196801414 1.0139950018 0.8591915927
| 17> C 2.1621279456 -1.2927125361 0.1845644021
| 18> H -2.8834160217 1.353318171 1.2194861041
| 19> H -2.5449608006 -0.2978043001 1.7389441195
| 20> H -1.3895656719 0.9925488602 2.0848556218
| 21> H -0.9924553887 1.2849023937 -0.3466806656
| 22> H -1.9262495208 -0.3279352654 -1.9699270602
| 23> H -2.8504715301 -1.1025161193 -0.6789104127
| 24> H -3.2056889491 0.5614863549 -1.1437549117
| 25> H -0.2678418301 -1.0579125702 1.2242714181
| 26> H -0.416169499 -1.5282344681 -0.4590116201
| 27> H 2.3342851615 0.6202574728 -1.7310844705
| 28> H 0.6471440724 1.1202707653 -1.7628658256
| 29> H 1.0835221026 -0.5298905885 -2.2037097632
| 30> H 0.8598765268 1.8618483186 0.6964658836
| 31> H 2.5419165065 1.343782456 0.6868405712
| 32> H 1.4312598699 0.7045179595 1.8982552562
| 33> H 1.9463967923 -2.1399001811 -0.4626818839
| 34> H 2.0996505883 -1.6269782526 1.2178011222
| 35> H 3.1817934665 -0.9668459688 -0.0078658943
| 36> *
| 37>
| 38>                          ****END OF INPUT****

CARTESIAN COORDINATES (ANGSTROEM)
---------------------------------
  C     -2.095782    0.613912    1.349998
  C     -1.394394    0.336697    0.020814
  C     -2.407007   -0.164967   -1.008194
  C     -0.245546   -0.675526    0.201584
  C      1.174975   -0.148353   -0.074786
  C      1.315397    0.294724   -1.533208
  C      1.519680    1.013995    0.859192
  C      2.162128   -1.292713    0.184564
  H     -2.883416    1.353318    1.219486
  H     -2.544961   -0.297804    1.738944
  H     -1.389566    0.992549    2.084856
  H     -0.992455    1.284902   -0.346681
  H     -1.926250   -0.327935   -1.969927
  H     -2.850472   -1.102516   -0.678910
  H     -3.205689    0.561486   -1.143755
  H     -0.267842   -1.057913    1.224271
  H     -0.416169   -1.528234   -0.459012
  H      2.334285    0.620257   -1.731084
  H      0.647144    1.120271   -1.762866
  H      1.083522   -0.529891   -2.203710
  H      0.859877    1.861848    0.696466
  H      2.541917    1.343782    0.686841
  H      1.431260    0.704518    1.898255
  H      1.946397   -2.139900   -0.462682
  H      2.099651   -1.626978    1.217801
  H      3.181793   -0.966846   -0.007866

 Total Charge           Charge          ....    0
 Multiplicity           Mult            ....    1
 Number of Electrons    NEL             ....   66
 Basis Dimension        Dim             ....  242

ORBITAL ENERGIES
----------------

  NO   OCC          E(Eh)            E(eV)
   0   2.0000     -10.031620      -272.9743
   1   2.0000     -10.020927      -272.6833
   2   2.0000     -10.007599      -272.3206
   3   2.0000     -10.004867      -272.2463
   4   2.0000     -10.004717      -272.2422
   5   2.0000     -10.003601      -272.2118
   6   2.0000     -10.003571      -272.2110
   7   2.0000     -10.003560      -272.2107
   8   2.0000      -0.787871       -21.4390
   9   2.0000      -0.743757       -20.2386
  10   2.0000      -0.644914       -17.5490
  11   2.0000      -0.641764       -17.4633
  12   2.0000      -0.637306       -17.3420
  13   2.0000      -0.632311       -17.2060
  14   2.0000      -0.525332       -14.2950
  15   2.0000      -0.488609       -13.2957
  16   2.0000      -0.428632       -11.6637
  17   2.0000      -0.414683       -11.2841
  18   2.0000      -0.403483       -10.9793
  19   2.0000      -0.386533       -10.5181
  20   2.0000      -0.379851       -10.3363
  21   2.0000      -0.377299       -10.2668
  22   2.0000      -0.345713        -9.4073
  23   2.0000      -0.344800        -9.3825
  24   2.0000      -0.341478        -9.2921
  25   2.0000      -0.322387        -8.7726
  26   2.0000      -0.315911        -8.5964
  27   2.0000      -0.308461        -8.3937
  28   2.0000      -0.295731        -8.0473
  29   2.0000      -0.288480        -7.8500
  30   2.0000      -0.273170        -7.4333
  31   2.0000      -0.266628        -7.2553
  32   2.0000      -0.260624        -7.0919
  33   0.0000       0.082342         2.2406
  34   0.0000       0.104652         2.8477
  35   0.0000       0.115224         3.1354
  36   0.0000       0.121998         3.3197
  37   0.0000       0.133236         3.6255

MULLIKEN ATOMIC CHARGES
-----------------------
   0 C :   -0.559340
   1 C :    0.046858
   2 C :   -0.555308
   3 C :   -0.399813
   4 C :    0.182803
   5 C :   -0.554785
   6 C :   -0.555811
   7 C :   -0.543577
   8 H :    0.155313
   9 H :    0.162348
  10 H :    0.158829
  11 H :    0.162134
  12 H :    0.157903
  13 H :    0.162137
  14 H :    0.154738
  15 H :    0.169913
  16 H :    0.170886
  17 H :    0.163596
  18 H :    0.165169
  19 H :    0.166822
  20 H :    0.166367
  21 H :    0.163172
  22 H :    0.167850
  23 H :    0.162918
  24 H :    0.163215
  25 H :    0.165661
Sum of atomic charges:   -0.0000000

LOEWDIN ATOMIC CHARGES
----------------------
   0 C :   -0.425471
   1 C :   -0.247166
   2 C :   -0.425414
   3 C :   -0.290226
   4 C :   -0.204015
   5 C :   -0.415920
   6 C :   -0.415656
   7 C :   -0.418496
   8 H :    0.153190
   9 H :    0.154965
  10 H :    0.154666
  11 H :    0.158723
  12 H :    0.154322
  13 H :    0.155140
  14 H :    0.153161
  15 H :    0.166441
  16 H :    0.166200
  17 H :    0.158705
  18 H :    0.157656
  19 H :    0.159290
  20 H :    0.158055
  21 H :    0.158652
  22 H :    0.159346
  23 H :    0.158202
  24 H :    0.158099
  25 H :    0.157551

  Mayer bond orders larger than 0.100000
B(  0-C ,  1-C ) :   0.8852 B(  0-C ,  8-H ) :   0.9767 B(  0-C ,  9-H ) :   0.9871
B(  0-C , 10-H ) :   0.9737 B(  1-C ,  2-C ) :   0.8827 B(  1-C ,  3-C ) :   0.7889
B(  1-C , 11-H ) :   0.9653 B(  2-C , 12-H ) :   0.9755 B(  2-C , 13-H ) :   0.9864
B(  2-C , 14-H ) :   0.9764 B(  3-C ,  4-C ) :   0.8717 B(  3-C , 15-H ) :   0.9900
B(  3-C , 16-H ) :   0.9931 B(  4-C ,  5-C ) :   0.9119 B(  4-C ,  6-C ) :   0.9036
B(  4-C ,  7-C ) :   0.9206 B(  5-C , 17-H ) :   0.9739 B(  5-C , 18-H ) :   0.9669
B(  5-C , 19-H ) :   0.9769 B(  6-C , 20-H ) :   0.9669 B(  6-C , 21-H ) :   0.9733
B(  6-C , 22-H ) :   0.9768 B(  7-C , 23-H ) :   0.9758 B(  7-C , 24-H ) :   0.9761
B(  7-C , 25-H ) :   0.9776

Dispersion correction           -0.008000710
FINAL SINGLE POINT ENERGY      -315.583369046987

DIPOLE MOMENT
-------------

Method             : SCF
Type of density    : Electron Density
Multiplicity       :   1
Irrep              :   0
Energy             :  -315.5881710430618909 Eh
Relativity type    :
Basis              : AO
                                X                 Y                 Z
Electronic contribution:      0.357964988      -0.210355247      -0.016234644
Nuclear contribution   :     -0.329270458       0.248533125       0.000401147
                        -----------------------------------------
Total Dipole Moment    :      0.028694530       0.038177877      -0.015833497
                        -----------------------------------------
Magnitude (a.u.)       :      0.050315266
Magnitude (Debye)      :      0.127891242

Rotational constants in cm-1:             0.097818             0.041124             0.036817
Rotational constants in MHz :          2932.509571          1232.877630          1103.737496

                             ****ORCA TERMINATED NORMALLY****
TOTAL RUN TIME: 0 days 0 hours 0 minutes 34 seconds 830 msec
