                         Program Version 6.0.0  -   RELEASE  -
|  1> ! r2scan-3c def2/J RI DEFGRID2 scfconv6 printgap
|  2> %output
|  3>     printlevel normal
|  4> end
|  5> * xyz 0 1
|  6> C -3.4268450295 -0.1218726031 0.0003692911
|  7> C -2.9891221013 1.1945318745 0.0002621646
|  8> C -1.6362326664 1.4920942724 -7.43446e-05
|  9> C -0.726774391 0.4463675623 -0.0002987218
| 10> C -1.1707689124 -0.8854978374 -0.0002276255
| 11> C -2.5197732306 -1.1729449469 0.0001112624
| 12> C -1.10066e-05 -1.8243270764 -0.0003368674
| 13> C 1.1707558688 -0.88551572 -0.0001211756
| 14> C 0.726782735 0.4463768826 -0.0003763276
| 15> C 1.6362478329 1.4920837216 -0.0003913859
| 16> C 2.9891535377 1.1945161944 0.0001446519
| 17> C 3.4268292379 -0.1218820229 0.0005148405
| 18> C 2.5197504438 -1.172952416 0.000253157
| 19> H -4.486370438 -0.3307362377 0.0008700719
| 20> H -3.7130210011 1.9961163357 0.0006481274
| 21> H -1.298771165 2.5178039179 -7.23524e-05
| 22> H -2.8679602905 -2.1954291355 0.0002139459
| 23> H -8.88382e-05 -2.4704440506 0.8798995014
| 24> H 5.01432e-05 -2.4699302824 -0.880958891
| 25> H 1.2988788599 2.5178431832 -0.0002413199
| 26> H 3.7131366389 1.9960267325 0.0003601803
| 27> H 4.4863250646 -0.3308130025 0.0009232168
| 28> H 2.8679125667 -2.1954393207 0.000396266
| 29> *
| 30>
| 31>                          ****END OF INPUT****

CARTESIAN COORDINATES (ANGSTROEM)
---------------------------------
  C     -3.426845   -0.121873    0.000369
  C     -2.989122    1.194532    0.000262
  C     -1.636233    1.492094   -0.000074
  C     -0.726774    0.446368   -0.000299
  C     -1.170769   -0.885498   -0.000228
  C     -2.519773   -1.172945    0.000111
  C     -0.000011   -1.824327   -0.000337
  C      1.170756   -0.885516   -0.000121
  C      0.726783    0.446377   -0.000376
  C      1.636248    1.492084   -0.000391
  C      2.989154    1.194516    0.000145
  C      3.426829   -0.121882    0.000515
  C      2.519750   -1.172952    0.000253
  H     -4.486370   -0.330736    0.000870
  H     -3.713021    1.996116    0.000648
  H     -1.298771    2.517804   -0.000072
  H     -2.867960   -2.195429    0.000214
  H     -0.000089   -2.470444    0.879900
  H      0.000050   -2.469930   -0.880959
  H      1.298879    2.517843   -0.000241
  H      3.713137    1.996027    0.000360
  H      4.486325   -0.330813    0.000923
  H      2.867913   -2.195439    0.000396

 Total Charge           Charge          ....    0
 Multiplicity           Mult            ....    1
 Number of Electrons    NEL             ....   88
 Basis Dimension        Dim             ....  297

ORBITAL ENERGIES
----------------

  NO   OCC          E(Eh)            E(eV)
   0   2.0000     -10.044898      -273.3356
   1   2.0000     -10.042282      -273.2644
   2   2.0000     -10.042274      -273.2642
   3   2.0000     -10.040538      -273.2169
   4   2.0000     -10.040297      -273.2104
   5   2.0000     -10.035503      -273.0799
   6   2.0000     -10.035496      -273.0797
   7   2.0000     -10.035225      -273.0723
   8   2.0000     -10.035220      -273.0722
   9   2.0000     -10.034127      -273.0425
  10   2.0000     -10.034125      -273.0424
  11   2.0000     -10.033663      -273.0299
  12   2.0000     -10.033660      -273.0298
  13   2.0000      -0.861135       -23.4327
  14   2.0000      -0.816935       -22.2299
  15   2.0000      -0.772045       -21.0084
  16   2.0000      -0.738436       -20.0939
  17   2.0000      -0.714607       -19.4454
  18   2.0000      -0.684962       -18.6388
  19   2.0000      -0.660848       -17.9826
  20   2.0000      -0.605633       -16.4801
  21   2.0000      -0.556184       -15.1345
  22   2.0000      -0.554631       -15.0923
  23   2.0000      -0.545756       -14.8508
  24   2.0000      -0.489483       -13.3195
  25   2.0000      -0.462746       -12.5920
  26   2.0000      -0.449584       -12.2338
  27   2.0000      -0.424377       -11.5479
  28   2.0000      -0.422934       -11.5086
  29   2.0000      -0.409553       -11.1445
  30   2.0000      -0.398416       -10.8414
  31   2.0000      -0.391283       -10.6474
  32   2.0000      -0.377970       -10.2851
  33   2.0000      -0.370932       -10.0936
  34   2.0000      -0.345980        -9.4146
  35   2.0000      -0.335733        -9.1358
  36   2.0000      -0.322839        -8.7849
  37   2.0000      -0.322573        -8.7777
  38   2.0000      -0.302437        -8.2297
  39   2.0000      -0.302358        -8.2276
  40   2.0000      -0.267648        -7.2831
  41   2.0000      -0.237468        -6.4618
  42   2.0000      -0.228862        -6.2276
  43   2.0000      -0.203284        -5.5316
  44   0.0000      -0.057870        -1.5747
  45   0.0000      -0.040994        -1.1155
  46   0.0000      -0.020213        -0.5500
  47   0.0000       0.009896         0.2693
  48   0.0000       0.079323         2.1585

MULLIKEN ATOMIC CHARGES
-----------------------
   0 C :   -0.149646
   1 C :   -0.128899
   2 C :   -0.269984
   3 C :    0.171344
   4 C :    0.053558
   5 C :   -0.230061
   6 C :   -0.397703
   7 C :    0.053538
   8 C :    0.171332
   9 C :   -0.269990
  10 C :   -0.128905
  11 C :   -0.149636
  12 C :   -0.230038
  13 H :    0.143753
  14 H :    0.143868
  15 H :    0.138415
  16 H :    0.146839
  17 H :    0.179658
  18 H :    0.179683
  19 H :    0.138419
  20 H :    0.143869
  21 H :    0.143748
  22 H :    0.146837
Sum of atomic charges:   -0.0000000

LOEWDIN ATOMIC CHARGES
----------------------
   0 C :   -0.165617
   1 C :   -0.163399
   2 C :   -0.146420
   3 C :   -0.049770
   4 C :   -0.060037
   5 C :   -0.153291
   6 C :   -0.236867
   7 C :   -0.060035
   8 C :   -0.049769
   9 C :   -0.146422
  10 C :   -0.163400
  11 C :   -0.165618
  12 C :   -0.153291
  13 H :    0.166569
  14 H :    0.166915
  15 H :    0.169510
  16 H :    0.169334
  17 H :    0.184632
  18 H :    0.184651
  19 H :    0.169512
  20 H :    0.166916
  21 H :    0.166565
  22 H :    0.169333

  Mayer bond orders larger than 0.100000
B(  0-C ,  1-C ) :   1.4133 B(  0-C ,  5-C ) :   1.4049 B(  0-C , 13-H ) :   0.9500
B(  1-C ,  2-C ) :   1.3997 B(  1-C , 14-H ) :   0.9483 B(  2-C ,  3-C ) :   1.3505
B(  2-C , 15-H ) :   0.9467 B(  3-C ,  4-C ) :   1.4707 B(  3-C ,  8-C ) :   0.9576
B(  4-C ,  5-C ) :   1.3603 B(  4-C ,  6-C ) :   0.8911 B(  5-C , 16-H ) :   0.9326
B(  6-C ,  7-C ) :   0.8911 B(  6-C , 17-H ) :   0.9839 B(  6-C , 18-H ) :   0.9837
B(  7-C ,  8-C ) :   1.4706 B(  7-C , 12-C ) :   1.3603 B(  8-C ,  9-C ) :   1.3505
B(  9-C , 10-C ) :   1.3997 B(  9-C , 19-H ) :   0.9467 B( 10-C , 11-C ) :   1.4134
B( 10-C , 20-H ) :   0.9483 B( 11-C , 12-C ) :   1.4049 B( 11-C , 21-H ) :   0.9500
B( 12-C , 22-H ) :   0.9326

Dispersion correction           -0.009875822
FINAL SINGLE POINT ENERGY      -501.283970941018

DIPOLE MOMENT
-------------

Method             : SCF
Type of density    : Electron Density
Multiplicity       :   1
Irrep              :   0
Energy             :  -501.2788601549582381 Eh
Relativity type    :
Basis              : AO
                                X                 Y                 Z
Electronic contribution:     -0.000071143       0.663919203      -0.001569371
Nuclear contribution   :      0.000085881      -0.905336540       0.001912692
                        -----------------------------------------
Total Dipole Moment    :      0.000014737      -0.241417338       0.000343321
                        -----------------------------------------
Magnitude (a.u.)       :      0.241417582
Magnitude (Debye)      :      0.613634728

Rotational constants in cm-1:             0.073494             0.019854             0.015676
Rotational constants in MHz :          2203.284790           595.196733           469.968947

                             ****ORCA TERMINATED NORMALLY****
TOTAL RUN TIME: 0 days 0 hours 0 minutes 36 seconds 692 msec
