                         Program Version 6.0.0  -   RELEASE  -
|  1> ! wb97x-v def2-tzvp def2/J RIJCOSX DEFGRID2 scfconv7 GCP(DFT/TZ) printgap
|  2> %output
|  3>     printlevel normal
|  4> end
|  5> %cpcm
|  6>     smd true
|  7>     smdsolvent "water"
|  8> end
|  9> * xyz 0 1
| 10> C -1.1213129251820189 -1.3729430927040434 -0.43918520496126845
| 11> C -0.7067001989795334 -0.18078571906674634 0.41580503727021434
| 12> C -1.565913905023084 1.0437292457593141 0.20087645164588763
| 13> N 0.7521522894309107 0.11455530610529785 0.06621653105141583
| 14> O 0.9995049150975983 0.9996830297818246 -0.742744880544804
| 15> O 1.6072016387082377 -0.5930381659673253 0.589630130307449
| 16> H -0.48047856900441244 -2.2380438371296583 -0.2538471010362952
| 17> H -2.1485977438454005 -1.6368742392318107 -0.17571972234500413
| 18> H -1.089747373207598 -1.113007954515374 -1.5012984047580458
| 19> H -0.6643673589277832 -0.46600885083094673 1.4698566257530297
| 20> H -2.5708519936928855 0.8101400641267977 0.5637792117713809
| 21> H -1.6341637432267142 1.3038966113759947 -0.857946255090773
| 22> H -1.189460102975764 1.9028334713203265 0.7621318967575074
| 23> *
| 24>
| 25>                          ****END OF INPUT****

CARTESIAN COORDINATES (ANGSTROEM)
---------------------------------
  C     -1.121313   -1.372943   -0.439185
  C     -0.706700   -0.180786    0.415805
  C     -1.565914    1.043729    0.200876
  N      0.752152    0.114555    0.066217
  O      0.999505    0.999683   -0.742745
  O      1.607202   -0.593038    0.589630
  H     -0.480479   -2.238044   -0.253847
  H     -2.148598   -1.636874   -0.175720
  H     -1.089747   -1.113008   -1.501298
  H     -0.664367   -0.466009    1.469857
  H     -2.570852    0.810140    0.563779
  H     -1.634164    1.303897   -0.857946
  H     -1.189460    1.902833    0.762132

 Total Charge           Charge          ....    0
 Multiplicity           Mult            ....    1
 Number of Electrons    NEL             ....   48
 Basis Dimension        Dim             ....  228

ORBITAL ENERGIES
----------------

  NO   OCC          E(Eh)            E(eV)
   0   2.0000     -21.721578      -591.0742
   1   2.0000     -21.719228      -591.0102
   2   2.0000     -16.772352      -456.3989
   3   2.0000     -12.109914      -329.5275
   4   2.0000     -12.044937      -327.7594
   5   2.0000     -12.040520      -327.6392
   6   2.0000      -1.912149       -52.0322
   7   2.0000      -1.759799       -47.8866
   8   2.0000      -1.390739       -37.8439
   9   2.0000      -1.267607       -34.4933
  10   2.0000      -1.194627       -32.5075
  11   2.0000      -1.167488       -31.7690
  12   2.0000      -1.152950       -31.3734
  13   2.0000      -1.082013       -29.4431
  14   2.0000      -1.022730       -27.8299
  15   2.0000      -0.936362       -25.4797
  16   2.0000      -0.910621       -24.7793
  17   2.0000      -0.905181       -24.6312
  18   2.0000      -0.894051       -24.3284
  19   2.0000      -0.862068       -23.4581
  20   2.0000      -0.821449       -22.3528
  21   2.0000      -0.818101       -22.2617
  22   2.0000      -0.799569       -21.7574
  23   2.0000      -0.787531       -21.4298
  24   0.0000      -0.482704       -13.1350
  25   0.0000      -0.230223        -6.2647
  26   0.0000      -0.124758        -3.3948
  27   0.0000      -0.090487        -2.4623
  28   0.0000      -0.019921        -0.5421

MULLIKEN ATOMIC CHARGES
-----------------------
   0 C :   -0.397198
   1 C :    0.022660
   2 C :   -0.381218
   3 N :    0.472932
   4 O :   -0.369151
   5 O :   -0.379996
   6 H :    0.149765
   7 H :    0.149588
   8 H :    0.144893
   9 H :    0.150176
  10 H :    0.147529
  11 H :    0.140001
  12 H :    0.150018
Sum of atomic charges:    0.0000000

LOEWDIN ATOMIC CHARGES
----------------------
   0 C :   -0.264981
   1 C :   -0.268404
   2 C :   -0.276723
   3 N :   -0.010490
   4 O :   -0.063876
   5 O :   -0.079216
   6 H :    0.128959
   7 H :    0.139178
   8 H :    0.131714
   9 H :    0.165391
  10 H :    0.139420
  11 H :    0.128947
  12 H :    0.130082

  Mayer bond orders larger than 0.100000
B(  0-C ,  1-C ) :   0.9678 B(  0-C ,  6-H ) :   0.9685 B(  0-C ,  7-H ) :   0.9661
B(  0-C ,  8-H ) :   0.9635 B(  1-C ,  2-C ) :   0.9895 B(  1-C ,  3-N ) :   0.8467
B(  1-C ,  9-H ) :   0.9524 B(  2-C , 10-H ) :   0.9604 B(  2-C , 11-H ) :   0.9592
B(  2-C , 12-H ) :   0.9732 B(  3-N ,  4-O ) :   1.6254 B(  3-N ,  5-O ) :   1.6209
B(  4-O ,  5-O ) :   0.2014

FINAL SINGLE POINT ENERGY      -323.675487351269

DIPOLE MOMENT
-------------

Method             : SCF
Type of density    : Electron Density
Multiplicity       :   1
Irrep              :   0
Energy             :  -323.6843758885685247 Eh
Relativity type    :
Basis              : AO
                                X                 Y                 Z
Electronic contribution:      7.253025186       1.020451626       0.436576337
Nuclear contribution   :     -9.250514983      -1.381319581      -0.041076614
                        -----------------------------------------
Total Dipole Moment    :     -1.997489796      -0.360867955       0.395499723
                        -----------------------------------------
Magnitude (a.u.)       :      2.067996905
Magnitude (Debye)      :      5.256430396

Rotational constants in cm-1:             0.171063             0.106751             0.081432
Rotational constants in MHz :          5128.352918          3200.308007          2441.262080

                             ****ORCA TERMINATED NORMALLY****
TOTAL RUN TIME: 0 days 0 hours 1 minutes 28 seconds 155 msec
