                         Program Version 6.0.0  -   RELEASE  -
|  1> ! r2scan-3c def2/J RI DEFGRID2 scfconv6 printgap
|  2> %output
|  3>     printlevel normal
|  4> end
|  5> * xyz 0 1
|  6> C -0.5290824286 1.4138132095 -0.0001071224
|  7> N -0.4148624084 -0.0279704446 0.0004435871
|  8> C -1.6566837817 -0.7617329559 -9.68577e-05
|  9> C 0.7718821661 -0.6183868886 -0.0001450643
| 10> O 1.857747873 -0.0490873298 1.02239e-05
| 11> H -1.0611987719 1.7460724288 -0.8916894046
| 12> H 0.4743120867 1.8347199011 0.0043037439
| 13> H -1.0693389835 1.7460760865 0.8865019996
| 14> H -2.2389316602 -0.5025869603 -0.8854654507
| 15> H -2.2369519986 -0.5076864953 0.8880434667
| 16> H -1.4566351295 -1.8300400941 -0.0034292181
| 17> H 0.7131240559 -1.7201807784 -0.0004324174
| 18> *
| 19>
| 20>                          ****END OF INPUT****

CARTESIAN COORDINATES (ANGSTROEM)
---------------------------------
  C     -0.529082    1.413813   -0.000107
  N     -0.414862   -0.027970    0.000444
  C     -1.656684   -0.761733   -0.000097
  C      0.771882   -0.618387   -0.000145
  O      1.857748   -0.049087    0.000010
  H     -1.061199    1.746072   -0.891689
  H      0.474312    1.834720    0.004304
  H     -1.069339    1.746076    0.886502
  H     -2.238932   -0.502587   -0.885465
  H     -2.236952   -0.507686    0.888043
  H     -1.456635   -1.830040   -0.003429
  H      0.713124   -1.720181   -0.000432

 Total Charge           Charge          ....    0
 Multiplicity           Mult            ....    1
 Number of Electrons    NEL             ....   40
 Basis Dimension        Dim             ....  140

ORBITAL ENERGIES
----------------

  NO   OCC          E(Eh)            E(eV)
   0   2.0000     -18.908187      -514.5179
   1   2.0000     -14.201938      -386.4544
   2   2.0000     -10.116320      -275.2790
   3   2.0000     -10.079267      -274.2708
   4   2.0000     -10.065879      -273.9065
   5   2.0000      -0.994566       -27.0635
   6   2.0000      -0.914969       -24.8976
   7   2.0000      -0.707070       -19.2403
   8   2.0000      -0.682755       -18.5787
   9   2.0000      -0.540489       -14.7075
  10   2.0000      -0.489963       -13.3326
  11   2.0000      -0.457988       -12.4625
  12   2.0000      -0.438621       -11.9355
  13   2.0000      -0.387001       -10.5308
  14   2.0000      -0.385679       -10.4948
  15   2.0000      -0.369224       -10.0471
  16   2.0000      -0.357539        -9.7291
  17   2.0000      -0.346423        -9.4266
  18   2.0000      -0.222325        -6.0498
  19   2.0000      -0.217278        -5.9124
  20   0.0000      -0.000916        -0.0249
  21   0.0000       0.067872         1.8469
  22   0.0000       0.099187         2.6990
  23   0.0000       0.105764         2.8780
  24   0.0000       0.118729         3.2308

MULLIKEN ATOMIC CHARGES
-----------------------
   0 C :   -0.413594
   1 N :    0.084044
   2 C :   -0.356782
   3 C :    0.110833
   4 O :   -0.455900
   5 H :    0.145440
   6 H :    0.201894
   7 H :    0.145080
   8 H :    0.150007
   9 H :    0.150226
  10 H :    0.148706
  11 H :    0.090047
Sum of atomic charges:   -0.0000000

LOEWDIN ATOMIC CHARGES
----------------------
   0 C :   -0.114436
   1 N :   -0.854234
   2 C :   -0.110574
   3 C :    0.304067
   4 O :   -0.488641
   5 H :    0.174419
   6 H :    0.208011
   7 H :    0.174411
   8 H :    0.173068
   9 H :    0.173009
  10 H :    0.182767
  11 H :    0.178132

  Mayer bond orders larger than 0.100000
B(  0-C ,  1-N ) :   0.9230 B(  0-C ,  5-H ) :   0.9547 B(  0-C ,  6-H ) :   0.9492
B(  0-C ,  7-H ) :   0.9547 B(  1-N ,  2-C ) :   0.9448 B(  1-N ,  3-C ) :   1.2317
B(  2-C ,  8-H ) :   0.9545 B(  2-C ,  9-H ) :   0.9546 B(  2-C , 10-H ) :   0.9601
B(  3-C ,  4-O ) :   1.7970 B(  3-C , 11-H ) :   0.9833

Dispersion correction           -0.002518256
FINAL SINGLE POINT ENERGY      -248.443750096082

DIPOLE MOMENT
-------------

Method             : SCF
Type of density    : Electron Density
Multiplicity       :   1
Irrep              :   0
Energy             :  -248.4545273186334953 Eh
Relativity type    :
Basis              : AO
                                X                 Y                 Z
Electronic contribution:      4.728700345      -0.857563578       0.001626327
Nuclear contribution   :     -6.425205368       0.718108168      -0.002030689
                        -----------------------------------------
Total Dipole Moment    :     -1.696505023      -0.139455411      -0.000404362
                        -----------------------------------------
Magnitude (a.u.)       :      1.702227149
Magnitude (Debye)      :      4.326717563

Rotational constants in cm-1:             0.305328             0.141006             0.100101
Rotational constants in MHz :          9153.515962          4227.259637          3000.956002

                             ****ORCA TERMINATED NORMALLY****
TOTAL RUN TIME: 0 days 0 hours 0 minutes 13 seconds 956 msec
