                         Program Version 6.0.0  -   RELEASE  -
|  1> ! r2scan-3c def2/J RI DEFGRID2 scfconv6 printgap
|  2> %output
|  3>     printlevel normal
|  4> end
|  5> %cpcm
|  6>     smd true
|  7>     smdsolvent "water"
|  8> end
|  9> * xyz 0 1
| 10> C -0.5290824286 1.4138132095 -0.0001071224
| 11> N -0.4148624084 -0.0279704446 0.0004435871
| 12> C -1.6566837817 -0.7617329559 -9.68577e-05
| 13> C 0.7718821661 -0.6183868886 -0.0001450643
| 14> O 1.857747873 -0.0490873298 1.02239e-05
| 15> H -1.0611987719 1.7460724288 -0.8916894046
| 16> H 0.4743120867 1.8347199011 0.0043037439
| 17> H -1.0693389835 1.7460760865 0.8865019996
| 18> H -2.2389316602 -0.5025869603 -0.8854654507
| 19> H -2.2369519986 -0.5076864953 0.8880434667
| 20> H -1.4566351295 -1.8300400941 -0.0034292181
| 21> H 0.7131240559 -1.7201807784 -0.0004324174
| 22> *
| 23>
| 24>                          ****END OF INPUT****

CARTESIAN COORDINATES (ANGSTROEM)
---------------------------------
  C     -0.529082    1.413813   -0.000107
  N     -0.414862   -0.027970    0.000444
  C     -1.656684   -0.761733   -0.000097
  C      0.771882   -0.618387   -0.000145
  O      1.857748   -0.049087    0.000010
  H     -1.061199    1.746072   -0.891689
  H      0.474312    1.834720    0.004304
  H     -1.069339    1.746076    0.886502
  H     -2.238932   -0.502587   -0.885465
  H     -2.236952   -0.507686    0.888043
  H     -1.456635   -1.830040   -0.003429
  H      0.713124   -1.720181   -0.000432

 Total Charge           Charge          ....    0
 Multiplicity           Mult            ....    1
 Number of Electrons    NEL             ....   40
 Basis Dimension        Dim             ....  140

ORBITAL ENERGIES
----------------

  NO   OCC          E(Eh)            E(eV)
   0   2.0000     -18.923154      -514.9252
   1   2.0000     -14.200819      -386.4239
   2   2.0000     -10.121694      -275.4253
   3   2.0000     -10.055662      -273.6285
   4   2.0000     -10.052011      -273.5291
   5   2.0000      -1.007356       -27.4116
   6   2.0000      -0.913413       -24.8552
   7   2.0000      -0.692231       -18.8366
   8   2.0000      -0.672176       -18.2908
   9   2.0000      -0.531122       -14.4526
  10   2.0000      -0.482378       -13.1262
  11   2.0000      -0.444727       -12.1016
  12   2.0000      -0.439878       -11.9697
  13   2.0000      -0.379472       -10.3260
  14   2.0000      -0.367069        -9.9885
  15   2.0000      -0.365261        -9.9392
  16   2.0000      -0.354381        -9.6432
  17   2.0000      -0.347504        -9.4561
  18   2.0000      -0.235974        -6.4212
  19   2.0000      -0.224051        -6.0967
  20   0.0000      -0.005854        -0.1593
  21   0.0000       0.084944         2.3114
  22   0.0000       0.115120         3.1326
  23   0.0000       0.124669         3.3924
  24   0.0000       0.126485         3.4418

MULLIKEN ATOMIC CHARGES
-----------------------
   0 C :   -0.434466
   1 N :    0.083025
   2 C :   -0.387533
   3 C :    0.133172
   4 O :   -0.582531
   5 H :    0.175860
   6 H :    0.185684
   7 H :    0.175607
   8 H :    0.172301
   9 H :    0.172456
  10 H :    0.174450
  11 H :    0.131976
Sum of atomic charges:   -0.0000000

LOEWDIN ATOMIC CHARGES
----------------------
   0 C :   -0.112835
   1 N :   -0.834162
   2 C :   -0.103437
   3 C :    0.306325
   4 O :   -0.588931
   5 H :    0.187399
   6 H :    0.200170
   7 H :    0.187435
   8 H :    0.183929
   9 H :    0.183857
  10 H :    0.192603
  11 H :    0.197647

  Mayer bond orders larger than 0.100000
B(  0-C ,  1-N ) :   0.9138 B(  0-C ,  5-H ) :   0.9459 B(  0-C ,  6-H ) :   0.9534
B(  0-C ,  7-H ) :   0.9459 B(  1-N ,  2-C ) :   0.9393 B(  1-N ,  3-C ) :   1.3189
B(  2-C ,  8-H ) :   0.9460 B(  2-C ,  9-H ) :   0.9461 B(  2-C , 10-H ) :   0.9540
B(  3-C ,  4-O ) :   1.6947 B(  3-C , 11-H ) :   0.9673

Dispersion correction           -0.002518256
FINAL SINGLE POINT ENERGY      -248.454496486691

DIPOLE MOMENT
-------------

Method             : SCF
Type of density    : Electron Density
Multiplicity       :   1
Irrep              :   0
Energy             :  -248.4652737092422683 Eh
Relativity type    :
Basis              : AO
                                X                 Y                 Z
Electronic contribution:      3.989319801      -0.977803532       0.001375275
Nuclear contribution   :     -6.425205368       0.718108168      -0.002030689
                        -----------------------------------------
Total Dipole Moment    :     -2.435885567      -0.259695364      -0.000655415
                        -----------------------------------------
Magnitude (a.u.)       :      2.449689900
Magnitude (Debye)      :      6.226616888

Rotational constants in cm-1:             0.305328             0.141006             0.100101
Rotational constants in MHz :          9153.515962          4227.259637          3000.956002

                             ****ORCA TERMINATED NORMALLY****
TOTAL RUN TIME: 0 days 0 hours 0 minutes 15 seconds 48 msec
