                         Program Version 6.0.0  -   RELEASE  -
|  1> ! pbe def2-sv(p) def2/J RI DEFGRID1 loosescf d4 GCP(DFT/SV(P)) printgap
|  2> %output
|  3>     printlevel normal
|  4> end
|  5> * xyz 0 1
|  6> C -2.4504916823 -0.5809772077 -0.0509339651
|  7> C -1.0011358632 -0.2227655726 0.2867358402
|  8> H -0.8853776082 -0.1743598385 1.377275496
|  9> C -0.6112340768 1.1305245448 -0.3210070034
| 10> H -0.8944399585 1.1210495369 -1.3832559142
| 11> C 0.9241382832 1.3305315883 -0.2694783554
| 12> H 1.1154172833 2.2921131 0.2280103924
| 13> C 1.6222955998 0.2151583465 0.5363829237
| 14> H 2.7077604778 0.2730399263 0.3585885653
| 15> C 1.1911095565 -1.165993583 0.0033200749
| 16> H 1.4721296683 -1.9265346901 0.7485168775
| 17> O -0.1926793568 -1.2598865729 -0.2492186603
| 18> O 1.8766742126 -1.4931744484 -1.156385074
| 19> O 1.3467871733 0.2702700477 1.9111843664
| 20> O 1.39604003 1.3475562057 -1.5982884123
| 21> O -1.3008125285 2.1312087906 0.3812849226
| 22> O -2.877356021 -1.7471330163 0.6024492813
| 23> H -2.5393239247 -0.6950899162 -1.1393552104
| 24> H -3.1019034854 0.2251014023 0.2895015248
| 25> H 1.6035707926 -0.8825921033 -1.8646898837
| 26> H 1.7225529476 1.0767230939 2.2949992413
| 27> H 2.296218375 1.702815046 -1.6300890388
| 28> H -1.3057780803 2.9521462833 -0.132246552
| 29> H -2.2611809533 -2.4595159696 0.3777394867
| 30> *
| 31>
| 32>                          ****END OF INPUT****

CARTESIAN COORDINATES (ANGSTROEM)
---------------------------------
  C     -2.450492   -0.580977   -0.050934
  C     -1.001136   -0.222766    0.286736
  H     -0.885378   -0.174360    1.377275
  C     -0.611234    1.130525   -0.321007
  H     -0.894440    1.121050   -1.383256
  C      0.924138    1.330532   -0.269478
  H      1.115417    2.292113    0.228010
  C      1.622296    0.215158    0.536383
  H      2.707760    0.273040    0.358589
  C      1.191110   -1.165994    0.003320
  H      1.472130   -1.926535    0.748517
  O     -0.192679   -1.259887   -0.249219
  O      1.876674   -1.493174   -1.156385
  O      1.346787    0.270270    1.911184
  O      1.396040    1.347556   -1.598288
  O     -1.300813    2.131209    0.381285
  O     -2.877356   -1.747133    0.602449
  H     -2.539324   -0.695090   -1.139355
  H     -3.101903    0.225101    0.289502
  H      1.603571   -0.882592   -1.864690
  H      1.722553    1.076723    2.294999
  H      2.296218    1.702815   -1.630089
  H     -1.305778    2.952146   -0.132247
  H     -2.261181   -2.459516    0.377739

 Total Charge           Charge          ....    0
 Multiplicity           Mult            ....    1
 Number of Electrons    NEL             ....   96
 Basis Dimension        Dim             ....  192

ORBITAL ENERGIES
----------------

  NO   OCC          E(Eh)            E(eV)
   0   2.0000     -18.780674      -511.0481
   1   2.0000     -18.767755      -510.6966
   2   2.0000     -18.764828      -510.6169
   3   2.0000     -18.762036      -510.5409
   4   2.0000     -18.746311      -510.1131
   5   2.0000     -18.730838      -509.6920
   6   2.0000      -9.982510      -271.6379
   7   2.0000      -9.955844      -270.9123
   8   2.0000      -9.950025      -270.7539
   9   2.0000      -9.947092      -270.6741
  10   2.0000      -9.932163      -270.2679
  11   2.0000      -9.919130      -269.9132
  12   2.0000      -0.978771       -26.6337
  13   2.0000      -0.954252       -25.9665
  14   2.0000      -0.940988       -25.6056
  15   2.0000      -0.938373       -25.5344
  16   2.0000      -0.913819       -24.8663
  17   2.0000      -0.898479       -24.4489
  18   2.0000      -0.706287       -19.2190
  19   2.0000      -0.686179       -18.6719
  20   2.0000      -0.621884       -16.9223
  21   2.0000      -0.583886       -15.8884
  22   2.0000      -0.567513       -15.4428
  23   2.0000      -0.516366       -14.0510
  24   2.0000      -0.511234       -13.9114
  25   2.0000      -0.492026       -13.3887
  26   2.0000      -0.483727       -13.1629
  27   2.0000      -0.465504       -12.6670
  28   2.0000      -0.445908       -12.1338
  29   2.0000      -0.425336       -11.5740
  30   2.0000      -0.423491       -11.5238
  31   2.0000      -0.387361       -10.5406
  32   2.0000      -0.385525       -10.4907
  33   2.0000      -0.378020       -10.2864
  34   2.0000      -0.359011        -9.7692
  35   2.0000      -0.351008        -9.5514
  36   2.0000      -0.336350        -9.1525
  37   2.0000      -0.312431        -8.5017
  38   2.0000      -0.303484        -8.2582
  39   2.0000      -0.295114        -8.0305
  40   2.0000      -0.281679        -7.6649
  41   2.0000      -0.265793        -7.2326
  42   2.0000      -0.258859        -7.0439
  43   2.0000      -0.249500        -6.7893
  44   2.0000      -0.238052        -6.4777
  45   2.0000      -0.218971        -5.9585
  46   2.0000      -0.204732        -5.5710
  47   2.0000      -0.201812        -5.4916
  48   0.0000      -0.001491        -0.0406
  49   0.0000       0.011262         0.3064
  50   0.0000       0.018675         0.5082
  51   0.0000       0.053582         1.4580
  52   0.0000       0.061035         1.6609

MULLIKEN ATOMIC CHARGES
-----------------------
   0 C :    0.098280
   1 C :    0.005907
   2 H :    0.084691
   3 C :    0.044251
   4 H :    0.058369
   5 C :    0.065600
   6 H :    0.036568
   7 C :   -0.035749
   8 H :    0.062470
   9 C :    0.229156
  10 H :    0.071294
  11 O :   -0.322969
  12 O :   -0.399146
  13 O :   -0.396293
  14 O :   -0.414233
  15 O :   -0.410223
  16 O :   -0.435549
  17 H :    0.058240
  18 H :    0.089786
  19 H :    0.291031
  20 H :    0.306654
  21 H :    0.308038
  22 H :    0.305355
  23 H :    0.298474
Sum of atomic charges:   -0.0000000

LOEWDIN ATOMIC CHARGES
----------------------
   0 C :   -0.123992
   1 C :   -0.077970
   2 H :    0.116947
   3 C :   -0.066935
   4 H :    0.107365
   5 C :   -0.080885
   6 H :    0.095443
   7 C :   -0.104662
   8 H :    0.102233
   9 C :    0.015972
  10 H :    0.104905
  11 O :   -0.152506
  12 O :   -0.305422
  13 O :   -0.304457
  14 O :   -0.311089
  15 O :   -0.312377
  16 O :   -0.336252
  17 H :    0.094833
  18 H :    0.118944
  19 H :    0.269238
  20 H :    0.289654
  21 H :    0.289700
  22 H :    0.289682
  23 H :    0.281630

  Mayer bond orders larger than 0.100000
B(  0-C ,  1-C ) :   1.0510 B(  0-C , 16-O ) :   1.0825 B(  0-C , 17-H ) :   0.9032
B(  0-C , 18-H ) :   0.9163 B(  1-C ,  2-H ) :   0.8499 B(  1-C ,  3-C ) :   1.0514
B(  1-C , 11-O ) :   0.9876 B(  3-C ,  4-H ) :   0.8705 B(  3-C ,  5-C ) :   0.9713
B(  3-C , 15-O ) :   1.0761 B(  5-C ,  6-H ) :   0.8752 B(  5-C ,  7-C ) :   1.0014
B(  5-C , 14-O ) :   1.0392 B(  7-C ,  8-H ) :   0.8981 B(  7-C ,  9-C ) :   0.9589
B(  7-C , 13-O ) :   1.0537 B(  9-C , 10-H ) :   0.9006 B(  9-C , 11-O ) :   1.0395
B(  9-C , 12-O ) :   1.1431 B( 12-O , 19-H ) :   0.8208 B( 13-O , 20-H ) :   0.8431
B( 14-O , 21-H ) :   0.8394 B( 15-O , 22-H ) :   0.8472 B( 16-O , 23-H ) :   0.8457

Dispersion correction           -0.024544465
FINAL SINGLE POINT ENERGY      -685.689425083786

DIPOLE MOMENT
-------------

Method             : SCF
Type of density    : Electron Density
Multiplicity       :   1
Irrep              :   0
Energy             :  -685.8195178647113153 Eh
Relativity type    :
Basis              : AO
                                X                 Y                 Z
Electronic contribution:      1.294116235      -1.451262875       0.068465583
Nuclear contribution   :     -0.062320782       3.277060534      -0.447249899
                        -----------------------------------------
Total Dipole Moment    :      1.231795453       1.825797659      -0.378784316
                        -----------------------------------------
Magnitude (a.u.)       :      2.234800816
Magnitude (Debye)      :      5.680412245

Rotational constants in cm-1:             0.039001             0.026393             0.021566
Rotational constants in MHz :          1169.205696           791.247100           646.519022

                             ****ORCA TERMINATED NORMALLY****
TOTAL RUN TIME: 0 days 0 hours 0 minutes 11 seconds 996 msec
