                         Program Version 6.0.0  -   RELEASE  -
|  1> ! r2scan-3c def2/J RI DEFGRID2 scfconv6 printgap
|  2> %output
|  3>     printlevel normal
|  4> end
|  5> * xyz 0 1
|  6> C -2.9865114533 1.2333729247 0.0001404397
|  7> C -1.7553536534 0.3775807803 0.0003006038
|  8> C -1.8331126403 -1.0041682084 -0.0008686022
|  9> C -0.6841127753 -1.779211085 -0.0008885116
| 10> C 0.5623518471 -1.1808884641 8.88103e-05
| 11> C 0.6535117108 0.2210095868 0.0008706128
| 12> C -0.4997011908 0.9822848212 0.0011393078
| 13> O 1.9395966573 0.7162663962 0.0013716463
| 14> C 2.1181571524 2.1174002502 -0.0020120953
| 15> O 1.6870206284 -1.9537680603 0.0001632816
| 16> H -3.0055979404 1.8698186537 -0.8828912293
| 17> H -3.8818068771 0.6186569842 0.0054654022
| 18> H -3.0004545242 1.8780422472 0.877228819
| 19> H -2.7966051932 -1.4900721029 -0.0017066719
| 20> H -0.735913477 -2.8562022363 -0.0017222362
| 21> H -0.4431060388 2.0593463893 0.0020493868
| 22> H 3.1952513245 2.2689268596 -0.0039860533
| 23> H 1.6837574883 2.5717559048 0.8920883608
| 24> H 1.6810221642 2.5676200314 -0.8968660079
| 25> H 2.4639093856 -1.3719331428 0.000625787
| 26> *
| 27>
| 28>                          ****END OF INPUT****

CARTESIAN COORDINATES (ANGSTROEM)
---------------------------------
  C     -2.986511    1.233373    0.000140
  C     -1.755354    0.377581    0.000301
  C     -1.833113   -1.004168   -0.000869
  C     -0.684113   -1.779211   -0.000889
  C      0.562352   -1.180888    0.000089
  C      0.653512    0.221010    0.000871
  C     -0.499701    0.982285    0.001139
  O      1.939597    0.716266    0.001372
  C      2.118157    2.117400   -0.002012
  O      1.687021   -1.953768    0.000163
  H     -3.005598    1.869819   -0.882891
  H     -3.881807    0.618657    0.005465
  H     -3.000455    1.878042    0.877229
  H     -2.796605   -1.490072   -0.001707
  H     -0.735913   -2.856202   -0.001722
  H     -0.443106    2.059346    0.002049
  H      3.195251    2.268927   -0.003986
  H      1.683757    2.571756    0.892088
  H      1.681022    2.567620   -0.896866
  H      2.463909   -1.371933    0.000626

 Total Charge           Charge          ....    0
 Multiplicity           Mult            ....    1
 Number of Electrons    NEL             ....   74
 Basis Dimension        Dim             ....  250

ORBITAL ENERGIES
----------------

  NO   OCC          E(Eh)            E(eV)
   0   2.0000     -18.995650      -516.8979
   1   2.0000     -18.974906      -516.3334
   2   2.0000     -10.094337      -274.6809
   3   2.0000     -10.092618      -274.6341
   4   2.0000     -10.087314      -274.4898
   5   2.0000     -10.034943      -273.0647
   6   2.0000     -10.030199      -272.9356
   7   2.0000     -10.024888      -272.7911
   8   2.0000     -10.024107      -272.7698
   9   2.0000     -10.022602      -272.7289
  10   2.0000      -1.044417       -28.4200
  11   2.0000      -1.012132       -27.5415
  12   2.0000      -0.821322       -22.3493
  13   2.0000      -0.738404       -20.0930
  14   2.0000      -0.721426       -19.6310
  15   2.0000      -0.678192       -18.4545
  16   2.0000      -0.644913       -17.5490
  17   2.0000      -0.576363       -15.6836
  18   2.0000      -0.557210       -15.1624
  19   2.0000      -0.520446       -14.1621
  20   2.0000      -0.487445       -13.2641
  21   2.0000      -0.456686       -12.4271
  22   2.0000      -0.445872       -12.1328
  23   2.0000      -0.416373       -11.3301
  24   2.0000      -0.413498       -11.2518
  25   2.0000      -0.394883       -10.7453
  26   2.0000      -0.392181       -10.6718
  27   2.0000      -0.372753       -10.1431
  28   2.0000      -0.367789       -10.0081
  29   2.0000      -0.344621        -9.3776
  30   2.0000      -0.337763        -9.1910
  31   2.0000      -0.312290        -8.4978
  32   2.0000      -0.312048        -8.4913
  33   2.0000      -0.304502        -8.2859
  34   2.0000      -0.286958        -7.8085
  35   2.0000      -0.218287        -5.9399
  36   2.0000      -0.184460        -5.0194
  37   0.0000      -0.022043        -0.5998
  38   0.0000      -0.005492        -0.1494
  39   0.0000       0.038819         1.0563
  40   0.0000       0.076613         2.0847
  41   0.0000       0.097887         2.6636

MULLIKEN ATOMIC CHARGES
-----------------------
   0 C :   -0.543264
   1 C :    0.183309
   2 C :   -0.227225
   3 C :   -0.298566
   4 C :    0.216679
   5 C :    0.213821
   6 C :   -0.308323
   7 O :   -0.215701
   8 C :   -0.326775
   9 O :   -0.394032
  10 H :    0.158452
  11 H :    0.150509
  12 H :    0.158001
  13 H :    0.146610
  14 H :    0.157099
  15 H :    0.144133
  16 H :    0.153770
  17 H :    0.154681
  18 H :    0.154755
  19 H :    0.322067
Sum of atomic charges:    0.0000000

LOEWDIN ATOMIC CHARGES
----------------------
   0 C :   -0.390101
   1 C :   -0.110407
   2 C :   -0.175078
   3 C :   -0.136659
   4 C :    0.201315
   5 C :    0.193726
   6 C :   -0.163426
   7 O :   -0.708825
   8 C :   -0.049053
   9 O :   -0.476425
  10 H :    0.161247
  11 H :    0.159121
  12 H :    0.161184
  13 H :    0.167855
  14 H :    0.180280
  15 H :    0.176797
  16 H :    0.180241
  17 H :    0.166450
  18 H :    0.166539
  19 H :    0.295217

  Mayer bond orders larger than 0.100000
B(  0-C ,  1-C ) :   0.7823 B(  0-C , 10-H ) :   0.9790 B(  0-C , 11-H ) :   0.9947
B(  0-C , 12-H ) :   0.9794 B(  1-C ,  2-C ) :   1.4473 B(  1-C ,  6-C ) :   1.3653
B(  2-C ,  3-C ) :   1.3789 B(  2-C , 13-H ) :   0.9325 B(  3-C ,  4-C ) :   1.3886
B(  3-C , 14-H ) :   0.9531 B(  4-C ,  5-C ) :   1.4157 B(  4-C ,  9-O ) :   0.9747
B(  5-C ,  6-C ) :   1.3244 B(  5-C ,  7-O ) :   1.0587 B(  6-C , 15-H ) :   0.9236
B(  7-O ,  8-C ) :   0.8602 B(  8-C , 16-H ) :   0.9680 B(  8-C , 17-H ) :   0.9605
B(  8-C , 18-H ) :   0.9605 B(  9-O , 19-H ) :   0.8530

Dispersion correction           -0.006568872
FINAL SINGLE POINT ENERGY      -461.205409302926

DIPOLE MOMENT
-------------

Method             : SCF
Type of density    : Electron Density
Multiplicity       :   1
Irrep              :   0
Energy             :  -461.2091777843442060 Eh
Relativity type    :
Basis              : AO
                                X                 Y                 Z
Electronic contribution:      4.678587072      -6.523742751       0.007453693
Nuclear contribution   :     -4.486578853       7.595811100      -0.009091053
                        -----------------------------------------
Total Dipole Moment    :      0.192008219       1.072068349      -0.001637360
                        -----------------------------------------
Magnitude (a.u.)       :      1.089128267
Magnitude (Debye)      :      2.768344051

Rotational constants in cm-1:             0.062914             0.039300             0.024412
Rotational constants in MHz :          1886.122510          1178.187164           731.857276

                             ****ORCA TERMINATED NORMALLY****
TOTAL RUN TIME: 0 days 0 hours 0 minutes 30 seconds 943 msec
