                         Program Version 6.0.0  -   RELEASE  -
|  1> ! r2scan-3c def2/J RI DEFGRID2 scfconv6 printgap
|  2> %output
|  3>     printlevel normal
|  4> end
|  5> %cpcm
|  6>     smd true
|  7>     smdsolvent "water"
|  8> end
|  9> * xyz 0 1
| 10> C -2.9865114533 1.2333729247 0.0001404397
| 11> C -1.7553536534 0.3775807803 0.0003006038
| 12> C -1.8331126403 -1.0041682084 -0.0008686022
| 13> C -0.6841127753 -1.779211085 -0.0008885116
| 14> C 0.5623518471 -1.1808884641 8.88103e-05
| 15> C 0.6535117108 0.2210095868 0.0008706128
| 16> C -0.4997011908 0.9822848212 0.0011393078
| 17> O 1.9395966573 0.7162663962 0.0013716463
| 18> C 2.1181571524 2.1174002502 -0.0020120953
| 19> O 1.6870206284 -1.9537680603 0.0001632816
| 20> H -3.0055979404 1.8698186537 -0.8828912293
| 21> H -3.8818068771 0.6186569842 0.0054654022
| 22> H -3.0004545242 1.8780422472 0.877228819
| 23> H -2.7966051932 -1.4900721029 -0.0017066719
| 24> H -0.735913477 -2.8562022363 -0.0017222362
| 25> H -0.4431060388 2.0593463893 0.0020493868
| 26> H 3.1952513245 2.2689268596 -0.0039860533
| 27> H 1.6837574883 2.5717559048 0.8920883608
| 28> H 1.6810221642 2.5676200314 -0.8968660079
| 29> H 2.4639093856 -1.3719331428 0.000625787
| 30> *
| 31>
| 32>                          ****END OF INPUT****

CARTESIAN COORDINATES (ANGSTROEM)
---------------------------------
  C     -2.986511    1.233373    0.000140
  C     -1.755354    0.377581    0.000301
  C     -1.833113   -1.004168   -0.000869
  C     -0.684113   -1.779211   -0.000889
  C      0.562352   -1.180888    0.000089
  C      0.653512    0.221010    0.000871
  C     -0.499701    0.982285    0.001139
  O      1.939597    0.716266    0.001372
  C      2.118157    2.117400   -0.002012
  O      1.687021   -1.953768    0.000163
  H     -3.005598    1.869819   -0.882891
  H     -3.881807    0.618657    0.005465
  H     -3.000455    1.878042    0.877229
  H     -2.796605   -1.490072   -0.001707
  H     -0.735913   -2.856202   -0.001722
  H     -0.443106    2.059346    0.002049
  H      3.195251    2.268927   -0.003986
  H      1.683757    2.571756    0.892088
  H      1.681022    2.567620   -0.896866
  H      2.463909   -1.371933    0.000626

 Total Charge           Charge          ....    0
 Multiplicity           Mult            ....    1
 Number of Electrons    NEL             ....   74
 Basis Dimension        Dim             ....  250

ORBITAL ENERGIES
----------------

  NO   OCC          E(Eh)            E(eV)
   0   2.0000     -18.991815      -516.7936
   1   2.0000     -18.981632      -516.5165
   2   2.0000     -10.094994      -274.6988
   3   2.0000     -10.091630      -274.6072
   4   2.0000     -10.074276      -274.1350
   5   2.0000     -10.037633      -273.1379
   6   2.0000     -10.029392      -272.9136
   7   2.0000     -10.028572      -272.8913
   8   2.0000     -10.024109      -272.7699
   9   2.0000     -10.016684      -272.5678
  10   2.0000      -1.042791       -28.3758
  11   2.0000      -1.016236       -27.6532
  12   2.0000      -0.824460       -22.4347
  13   2.0000      -0.737368       -20.0648
  14   2.0000      -0.721391       -19.6301
  15   2.0000      -0.669543       -18.2192
  16   2.0000      -0.643459       -17.5094
  17   2.0000      -0.574065       -15.6211
  18   2.0000      -0.556904       -15.1541
  19   2.0000      -0.519954       -14.1487
  20   2.0000      -0.482741       -13.1361
  21   2.0000      -0.455475       -12.3941
  22   2.0000      -0.435713       -11.8563
  23   2.0000      -0.414698       -11.2845
  24   2.0000      -0.407374       -11.0852
  25   2.0000      -0.390325       -10.6213
  26   2.0000      -0.389821       -10.6076
  27   2.0000      -0.373673       -10.1682
  28   2.0000      -0.369153       -10.0452
  29   2.0000      -0.340493        -9.2653
  30   2.0000      -0.335766        -9.1367
  31   2.0000      -0.312088        -8.4923
  32   2.0000      -0.310524        -8.4498
  33   2.0000      -0.301785        -8.2120
  34   2.0000      -0.288389        -7.8475
  35   2.0000      -0.222000        -6.0409
  36   2.0000      -0.189584        -5.1589
  37   0.0000      -0.026352        -0.7171
  38   0.0000      -0.010030        -0.2729
  39   0.0000       0.045337         1.2337
  40   0.0000       0.088804         2.4165
  41   0.0000       0.111099         3.0232

MULLIKEN ATOMIC CHARGES
-----------------------
   0 C :   -0.559843
   1 C :    0.129567
   2 C :   -0.268162
   3 C :   -0.332933
   4 C :    0.194148
   5 C :    0.194298
   6 C :   -0.285335
   7 O :   -0.239547
   8 C :   -0.335715
   9 O :   -0.442912
  10 H :    0.175138
  11 H :    0.169430
  12 H :    0.174782
  13 H :    0.178585
  14 H :    0.183799
  15 H :    0.182512
  16 H :    0.174379
  17 H :    0.171591
  18 H :    0.171604
  19 H :    0.364614
Sum of atomic charges:    0.0000000

LOEWDIN ATOMIC CHARGES
----------------------
   0 C :   -0.394410
   1 C :   -0.117499
   2 C :   -0.190894
   3 C :   -0.154629
   4 C :    0.185704
   5 C :    0.188606
   6 C :   -0.161528
   7 O :   -0.716414
   8 C :   -0.044776
   9 O :   -0.500943
  10 H :    0.168049
  11 H :    0.164446
  12 H :    0.168001
  13 H :    0.178569
  14 H :    0.188298
  15 H :    0.192554
  16 H :    0.188157
  17 H :    0.175001
  18 H :    0.175068
  19 H :    0.308640

  Mayer bond orders larger than 0.100000
B(  0-C ,  1-C ) :   0.8115 B(  0-C , 10-H ) :   0.9704 B(  0-C , 11-H ) :   0.9898
B(  0-C , 12-H ) :   0.9708 B(  1-C ,  2-C ) :   1.4124 B(  1-C ,  6-C ) :   1.3338
B(  2-C ,  3-C ) :   1.3510 B(  2-C , 13-H ) :   0.9474 B(  3-C ,  4-C ) :   1.3385
B(  3-C , 14-H ) :   0.9690 B(  4-C ,  5-C ) :   1.3781 B(  4-C ,  9-O ) :   0.9639
B(  5-C ,  6-C ) :   1.3292 B(  5-C ,  7-O ) :   1.0434 B(  6-C , 15-H ) :   0.9298
B(  7-O ,  8-C ) :   0.8523 B(  8-C , 16-H ) :   0.9601 B(  8-C , 17-H ) :   0.9533
B(  8-C , 18-H ) :   0.9534 B(  9-O , 19-H ) :   0.8322

Dispersion correction           -0.006568872
FINAL SINGLE POINT ENERGY      -461.212187086578

DIPOLE MOMENT
-------------

Method             : SCF
Type of density    : Electron Density
Multiplicity       :   1
Irrep              :   0
Energy             :  -461.2159555679961613 Eh
Relativity type    :
Basis              : AO
                                X                 Y                 Z
Electronic contribution:      4.670853789      -6.039238835       0.006861493
Nuclear contribution   :     -4.486578853       7.595811100      -0.009091053
                        -----------------------------------------
Total Dipole Moment    :      0.184274936       1.556572265      -0.002229560
                        -----------------------------------------
Magnitude (a.u.)       :      1.567443600
Magnitude (Debye)      :      3.984125008

Rotational constants in cm-1:             0.062914             0.039300             0.024412
Rotational constants in MHz :          1886.122510          1178.187164           731.857276

                             ****ORCA TERMINATED NORMALLY****
TOTAL RUN TIME: 0 days 0 hours 0 minutes 40 seconds 481 msec
