                         Program Version 6.0.0  -   RELEASE  -
|  1> ! pbe def2-sv(p) def2/J RI DEFGRID1 loosescf d4 GCP(DFT/SV(P)) printgap
|  2> %output
|  3>     printlevel normal
|  4> end
|  5> * xyz 0 1
|  6> C -1.4206273963 -1.2152475398 3.537e-07
|  7> C -0.0553109906 -1.2158646242 6.7019e-06
|  8> C 0.6488463895 2.813e-07 1.0813e-06
|  9> C -0.0553101968 1.2158652776 7.1293e-06
| 10> C -1.4206275194 1.2152474584 1.64882e-05
| 11> C -2.1437775982 7.24e-08 2.57428e-05
| 12> N -3.4793417881 -3.009e-07 -1.80832e-05
| 13> N 2.0369618284 -1.927e-07 -3.4464e-06
| 14> O 2.6430214516 1.0793078178 -3.01654e-05
| 15> O 2.6430220049 -1.0793082655 2.27079e-05
| 16> H -1.9602463693 -2.148577613 -0.0001622383
| 17> H 0.5095476844 -2.1350783928 -8.97033e-05
| 18> H 0.5095497584 2.1350821416 4.0143e-06
| 19> H -1.9602470759 2.1485777071 6.25987e-05
| 20> H -3.9866917268 -0.8680911416 -3.12363e-05
| 21> H -3.9866918168 0.8680902336 -5.10171e-05
| 22> *
| 23>
| 24>                          ****END OF INPUT****

CARTESIAN COORDINATES (ANGSTROEM)
---------------------------------
  C     -1.420627   -1.215248    0.000000
  C     -0.055311   -1.215865    0.000007
  C      0.648846    0.000000    0.000001
  C     -0.055310    1.215865    0.000007
  C     -1.420628    1.215247    0.000016
  C     -2.143778    0.000000    0.000026
  N     -3.479342   -0.000000   -0.000018
  N      2.036962   -0.000000   -0.000003
  O      2.643021    1.079308   -0.000030
  O      2.643022   -1.079308    0.000023
  H     -1.960246   -2.148578   -0.000162
  H      0.509548   -2.135078   -0.000090
  H      0.509550    2.135082    0.000004
  H     -1.960247    2.148578    0.000063
  H     -3.986692   -0.868091   -0.000031
  H     -3.986692    0.868090   -0.000051

 Total Charge           Charge          ....    0
 Multiplicity           Mult            ....    1
 Number of Electrons    NEL             ....   72
 Basis Dimension        Dim             ....  152

ORBITAL ENERGIES
----------------

  NO   OCC          E(Eh)            E(eV)
   0   2.0000     -18.749332      -510.1952
   1   2.0000     -18.749300      -510.1944
   2   2.0000     -14.182713      -385.9312
   3   2.0000     -14.036941      -381.9646
   4   2.0000      -9.968453      -271.2554
   5   2.0000      -9.933203      -270.2962
   6   2.0000      -9.912819      -269.7415
   7   2.0000      -9.912796      -269.7409
   8   2.0000      -9.909836      -269.6604
   9   2.0000      -9.909829      -269.6602
  10   2.0000      -1.094289       -29.7771
  11   2.0000      -0.920516       -25.0485
  12   2.0000      -0.880065       -23.9478
  13   2.0000      -0.794117       -21.6090
  14   2.0000      -0.720413       -19.6034
  15   2.0000      -0.695061       -18.9136
  16   2.0000      -0.623729       -16.9725
  17   2.0000      -0.581031       -15.8107
  18   2.0000      -0.535446       -14.5702
  19   2.0000      -0.506470       -13.7818
  20   2.0000      -0.505356       -13.7514
  21   2.0000      -0.462484       -12.5848
  22   2.0000      -0.460585       -12.5332
  23   2.0000      -0.430227       -11.7071
  24   2.0000      -0.409377       -11.1397
  25   2.0000      -0.398993       -10.8572
  26   2.0000      -0.397408       -10.8140
  27   2.0000      -0.375344       -10.2136
  28   2.0000      -0.373729       -10.1697
  29   2.0000      -0.318024        -8.6539
  30   2.0000      -0.302730        -8.2377
  31   2.0000      -0.253860        -6.9079
  32   2.0000      -0.239591        -6.5196
  33   2.0000      -0.235807        -6.4166
  34   2.0000      -0.204894        -5.5754
  35   2.0000      -0.202377        -5.5070
  36   0.0000      -0.096160        -2.6166
  37   0.0000      -0.050439        -1.3725
  38   0.0000      -0.006804        -0.1851
  39   0.0000       0.006327         0.1722
  40   0.0000       0.040212         1.0942

MULLIKEN ATOMIC CHARGES
-----------------------
   0 C :   -0.126457
   1 C :   -0.124841
   2 C :    0.204463
   3 C :   -0.124837
   4 C :   -0.126452
   5 C :    0.187008
   6 N :   -0.287478
   7 N :    0.208781
   8 O :   -0.247762
   9 O :   -0.247763
  10 H :    0.035763
  11 H :    0.070323
  12 H :    0.070324
  13 H :    0.035764
  14 H :    0.236582
  15 H :    0.236582
Sum of atomic charges:   -0.0000000

LOEWDIN ATOMIC CHARGES
----------------------
   0 C :   -0.158732
   1 C :   -0.092207
   2 C :   -0.078550
   3 C :   -0.092206
   4 C :   -0.158732
   5 C :    0.013870
   6 N :   -0.264245
   7 N :    0.259573
   8 O :   -0.221597
   9 O :   -0.221598
  10 H :    0.125238
  11 H :    0.142717
  12 H :    0.142717
  13 H :    0.125238
  14 H :    0.239257
  15 H :    0.239257

  Mayer bond orders larger than 0.100000
B(  0-C ,  1-C ) :   1.3922 B(  0-C ,  5-C ) :   1.2487 B(  0-C , 10-H ) :   0.9643
B(  1-C ,  2-C ) :   1.3180 B(  1-C , 11-H ) :   0.9464 B(  2-C ,  3-C ) :   1.3180
B(  2-C ,  7-N ) :   0.9510 B(  3-C ,  4-C ) :   1.3922 B(  3-C , 12-H ) :   0.9464
B(  4-C ,  5-C ) :   1.2487 B(  4-C , 13-H ) :   0.9643 B(  5-C ,  6-N ) :   1.3398
B(  6-N , 14-H ) :   0.8714 B(  6-N , 15-H ) :   0.8714 B(  7-N ,  8-O ) :   1.4974
B(  7-N ,  9-O ) :   1.4974 B(  8-O ,  9-O ) :   0.2789

Dispersion correction           -0.017132850
FINAL SINGLE POINT ENERGY      -491.133201932161

DIPOLE MOMENT
-------------

Method             : SCF
Type of density    : Electron Density
Multiplicity       :   1
Irrep              :   0
Energy             :  -491.1851177485129369 Eh
Relativity type    :
Basis              : AO
                                X                 Y                 Z
Electronic contribution:      6.880189585      -0.000003021       0.000181034
Nuclear contribution   :    -10.132047436       0.000002744      -0.000251268
                        -----------------------------------------
Total Dipole Moment    :     -3.251857851      -0.000000277      -0.000070234
                        -----------------------------------------
Magnitude (a.u.)       :      3.251857851
Magnitude (Debye)      :      8.265565783

Rotational constants in cm-1:             0.131414             0.028081             0.023137
Rotational constants in MHz :          3939.680826           841.834795           693.621158

                             ****ORCA TERMINATED NORMALLY****
TOTAL RUN TIME: 0 days 0 hours 0 minutes 9 seconds 957 msec
