                         Program Version 6.0.0  -   RELEASE  -
|  1> ! r2scan-3c def2/J RI DEFGRID2 scfconv6 printgap
|  2> %output
|  3>     printlevel normal
|  4> end
|  5> * xyz 0 1
|  6> C -1.319727253 -1.4874207601 -8.18064e-05
|  7> C 0.0354292818 -1.7640872698 -0.0001648
|  8> C 0.9600382758 -0.7304144224 -0.0002448663
|  9> C 0.5231964481 0.590706076 -3.02773e-05
| 10> C -0.8324233978 0.8783440289 0.000225077
| 11> C -1.7425926069 -0.1669338314 8.3971e-05
| 12> Cl -3.4336879968 0.194809401 5.6883e-06
| 13> Cl 1.6660457669 1.8878719699 -6.93272e-05
| 14> Cl 2.6528332657 -1.0846959853 0.0001176402
| 15> H -2.0391236099 -2.2890148499 5.59871e-05
| 16> H 0.3831806634 -2.783573929 0.0002010227
| 17> H -1.165812368 1.902690839 0.0003781542
| 18> *
| 19>
| 20>                          ****END OF INPUT****

CARTESIAN COORDINATES (ANGSTROEM)
---------------------------------
  C     -1.319727   -1.487421   -0.000082
  C      0.035429   -1.764087   -0.000165
  C      0.960038   -0.730414   -0.000245
  C      0.523196    0.590706   -0.000030
  C     -0.832423    0.878344    0.000225
  C     -1.742593   -0.166934    0.000084
  Cl    -3.433688    0.194809    0.000006
  Cl     1.666046    1.887872   -0.000069
  Cl     2.652833   -1.084696    0.000118
  H     -2.039124   -2.289015    0.000056
  H      0.383181   -2.783574    0.000201
  H     -1.165812    1.902691    0.000378

 Total Charge           Charge          ....    0
 Multiplicity           Mult            ....    1
 Number of Electrons    NEL             ....   90
 Basis Dimension        Dim             ....  210

ORBITAL ENERGIES
----------------

  NO   OCC          E(Eh)            E(eV)
   0   2.0000    -101.236748     -2754.7920
   1   2.0000    -101.235153     -2754.7486
   2   2.0000    -101.234979     -2754.7438
   3   2.0000     -10.128922      -275.6220
   4   2.0000     -10.124748      -275.5084
   5   2.0000     -10.123751      -275.4813
   6   2.0000     -10.075032      -274.1555
   7   2.0000     -10.074998      -274.1546
   8   2.0000     -10.070956      -274.0446
   9   2.0000      -9.392539      -255.5840
  10   2.0000      -9.391153      -255.5463
  11   2.0000      -9.390785      -255.5362
  12   2.0000      -7.139037      -194.2631
  13   2.0000      -7.137437      -194.2195
  14   2.0000      -7.137265      -194.2149
  15   2.0000      -7.128809      -193.9848
  16   2.0000      -7.128049      -193.9641
  17   2.0000      -7.127378      -193.9458
  18   2.0000      -7.127035      -193.9365
  19   2.0000      -7.126893      -193.9326
  20   2.0000      -7.126322      -193.9171
  21   2.0000      -0.906621       -24.6704
  22   2.0000      -0.865683       -23.5564
  23   2.0000      -0.837726       -22.7957
  24   2.0000      -0.802364       -21.8334
  25   2.0000      -0.740259       -20.1435
  26   2.0000      -0.703644       -19.1471
  27   2.0000      -0.617898       -16.8139
  28   2.0000      -0.584753       -15.9119
  29   2.0000      -0.509598       -13.8669
  30   2.0000      -0.487959       -13.2780
  31   2.0000      -0.461375       -12.5547
  32   2.0000      -0.432995       -11.7824
  33   2.0000      -0.431501       -11.7417
  34   2.0000      -0.416442       -11.3320
  35   2.0000      -0.378755       -10.3064
  36   2.0000      -0.372892       -10.1469
  37   2.0000      -0.363731        -9.8976
  38   2.0000      -0.335791        -9.1373
  39   2.0000      -0.313577        -8.5329
  40   2.0000      -0.302327        -8.2267
  41   2.0000      -0.300856        -8.1867
  42   2.0000      -0.289587        -7.8801
  43   2.0000      -0.258587        -7.0365
  44   2.0000      -0.235622        -6.4116
  45   0.0000      -0.069165        -1.8821
  46   0.0000      -0.063878        -1.7382
  47   0.0000      -0.034154        -0.9294
  48   0.0000       0.006416         0.1746
  49   0.0000       0.036822         1.0020

MULLIKEN ATOMIC CHARGES
-----------------------
   0 C :   -0.205995
   1 C :   -0.159799
   2 C :    0.100281
   3 C :    0.152422
   4 C :   -0.296549
   5 C :    0.229523
   6 Cl:   -0.127883
   7 Cl:   -0.100742
   8 Cl:   -0.105725
   9 H :    0.167174
  10 H :    0.168811
  11 H :    0.178482
Sum of atomic charges:    0.0000000

LOEWDIN ATOMIC CHARGES
----------------------
   0 C :   -0.166246
   1 C :   -0.151836
   2 C :   -0.186125
   3 C :   -0.174785
   4 C :   -0.172918
   5 C :   -0.165041
   6 Cl:    0.143497
   7 Cl:    0.160954
   8 Cl:    0.154671
   9 H :    0.182756
  10 H :    0.184200
  11 H :    0.190872

  Mayer bond orders larger than 0.100000
B(  0-C ,  1-C ) :   1.3759 B(  0-C ,  5-C ) :   1.3729 B(  0-C ,  9-H ) :   0.9410
B(  1-C ,  2-C ) :   1.3451 B(  1-C , 10-H ) :   0.9438 B(  2-C ,  3-C ) :   1.2914
B(  2-C ,  8-Cl) :   1.0513 B(  3-C ,  4-C ) :   1.3356 B(  3-C ,  7-Cl) :   1.0441
B(  4-C ,  5-C ) :   1.3731 B(  4-C , 11-H ) :   0.9314 B(  5-C ,  6-Cl) :   0.9223

Dispersion correction           -0.005523446
FINAL SINGLE POINT ENERGY     -1610.918083687185

DIPOLE MOMENT
-------------

Method             : SCF
Type of density    : Electron Density
Multiplicity       :   1
Irrep              :   0
Energy             : -1610.9188574827162483 Eh
Relativity type    :
Basis              : AO
                                X                 Y                 Z
Electronic contribution:      3.551527266       3.903065074      -0.000337020
Nuclear contribution   :     -3.835419229      -4.313432472       0.000523415
                        -----------------------------------------
Total Dipole Moment    :     -0.283891962      -0.410367398       0.000186395
                        -----------------------------------------
Magnitude (a.u.)       :      0.498995073
Magnitude (Debye)      :      1.268344678

Rotational constants in cm-1:             0.062365             0.019793             0.015024
Rotational constants in MHz :          1869.646249           593.374261           450.422545

                             ****ORCA TERMINATED NORMALLY****
TOTAL RUN TIME: 0 days 0 hours 0 minutes 14 seconds 680 msec
