                         Program Version 6.0.0  -   RELEASE  -
|  1> ! r2scan-3c def2/J RI DEFGRID2 scfconv6 printgap
|  2> %output
|  3>     printlevel normal
|  4> end
|  5> %cpcm
|  6>     smd true
|  7>     smdsolvent "water"
|  8> end
|  9> * xyz 0 1
| 10> C -1.319727253 -1.4874207601 -8.18064e-05
| 11> C 0.0354292818 -1.7640872698 -0.0001648
| 12> C 0.9600382758 -0.7304144224 -0.0002448663
| 13> C 0.5231964481 0.590706076 -3.02773e-05
| 14> C -0.8324233978 0.8783440289 0.000225077
| 15> C -1.7425926069 -0.1669338314 8.3971e-05
| 16> Cl -3.4336879968 0.194809401 5.6883e-06
| 17> Cl 1.6660457669 1.8878719699 -6.93272e-05
| 18> Cl 2.6528332657 -1.0846959853 0.0001176402
| 19> H -2.0391236099 -2.2890148499 5.59871e-05
| 20> H 0.3831806634 -2.783573929 0.0002010227
| 21> H -1.165812368 1.902690839 0.0003781542
| 22> *
| 23>
| 24>                          ****END OF INPUT****

CARTESIAN COORDINATES (ANGSTROEM)
---------------------------------
  C     -1.319727   -1.487421   -0.000082
  C      0.035429   -1.764087   -0.000165
  C      0.960038   -0.730414   -0.000245
  C      0.523196    0.590706   -0.000030
  C     -0.832423    0.878344    0.000225
  C     -1.742593   -0.166934    0.000084
  Cl    -3.433688    0.194809    0.000006
  Cl     1.666046    1.887872   -0.000069
  Cl     2.652833   -1.084696    0.000118
  H     -2.039124   -2.289015    0.000056
  H      0.383181   -2.783574    0.000201
  H     -1.165812    1.902691    0.000378

 Total Charge           Charge          ....    0
 Multiplicity           Mult            ....    1
 Number of Electrons    NEL             ....   90
 Basis Dimension        Dim             ....  210

ORBITAL ENERGIES
----------------

  NO   OCC          E(Eh)            E(eV)
   0   2.0000    -101.234960     -2754.7433
   1   2.0000    -101.233208     -2754.6956
   2   2.0000    -101.230890     -2754.6326
   3   2.0000     -10.122192      -275.4388
   4   2.0000     -10.117890      -275.3218
   5   2.0000     -10.115617      -275.2599
   6   2.0000     -10.065748      -273.9029
   7   2.0000     -10.063545      -273.8430
   8   2.0000     -10.059561      -273.7346
   9   2.0000      -9.390906      -255.5396
  10   2.0000      -9.389175      -255.4924
  11   2.0000      -9.387032      -255.4341
  12   2.0000      -7.137277      -194.2152
  13   2.0000      -7.135518      -194.1673
  14   2.0000      -7.133206      -194.1044
  15   2.0000      -7.127218      -193.9415
  16   2.0000      -7.126472      -193.9212
  17   2.0000      -7.125485      -193.8943
  18   2.0000      -7.124762      -193.8746
  19   2.0000      -7.123328      -193.8356
  20   2.0000      -7.122786      -193.8209
  21   2.0000      -0.900755       -24.5108
  22   2.0000      -0.860794       -23.4234
  23   2.0000      -0.834717       -22.7138
  24   2.0000      -0.796595       -21.6764
  25   2.0000      -0.731550       -19.9065
  26   2.0000      -0.697235       -18.9727
  27   2.0000      -0.608095       -16.5471
  28   2.0000      -0.576709       -15.6930
  29   2.0000      -0.501493       -13.6463
  30   2.0000      -0.479711       -13.0536
  31   2.0000      -0.453105       -12.3296
  32   2.0000      -0.427009       -11.6195
  33   2.0000      -0.420044       -11.4300
  34   2.0000      -0.410543       -11.1714
  35   2.0000      -0.371312       -10.1039
  36   2.0000      -0.361364        -9.8332
  37   2.0000      -0.359831        -9.7915
  38   2.0000      -0.333644        -9.0789
  39   2.0000      -0.311183        -8.4677
  40   2.0000      -0.298464        -8.1216
  41   2.0000      -0.296899        -8.0790
  42   2.0000      -0.288261        -7.8440
  43   2.0000      -0.251618        -6.8469
  44   2.0000      -0.230883        -6.2826
  45   0.0000      -0.060089        -1.6351
  46   0.0000      -0.057169        -1.5556
  47   0.0000      -0.029007        -0.7893
  48   0.0000       0.011097         0.3020
  49   0.0000       0.040949         1.1143

MULLIKEN ATOMIC CHARGES
-----------------------
   0 C :   -0.220557
   1 C :   -0.178112
   2 C :    0.100296
   3 C :    0.135846
   4 C :   -0.281800
   5 C :    0.210488
   6 Cl:   -0.142733
   7 Cl:   -0.120229
   8 Cl:   -0.125569
   9 H :    0.204068
  10 H :    0.206645
  11 H :    0.211657
Sum of atomic charges:    0.0000000

LOEWDIN ATOMIC CHARGES
----------------------
   0 C :   -0.159033
   1 C :   -0.145824
   2 C :   -0.189934
   3 C :   -0.179621
   4 C :   -0.169436
   5 C :   -0.169927
   6 Cl:    0.131830
   7 Cl:    0.146131
   8 Cl:    0.139951
   9 H :    0.195770
  10 H :    0.197835
  11 H :    0.202259

  Mayer bond orders larger than 0.100000
B(  0-C ,  1-C ) :   1.3985 B(  0-C ,  5-C ) :   1.3427 B(  0-C ,  9-H ) :   0.9371
B(  1-C ,  2-C ) :   1.3218 B(  1-C , 10-H ) :   0.9385 B(  2-C ,  3-C ) :   1.2721
B(  2-C ,  8-Cl) :   1.0355 B(  3-C ,  4-C ) :   1.3497 B(  3-C ,  7-Cl) :   1.0340
B(  4-C ,  5-C ) :   1.3723 B(  4-C , 11-H ) :   0.9144 B(  5-C ,  6-Cl) :   0.9217

Dispersion correction           -0.005523446
FINAL SINGLE POINT ENERGY     -1610.919425243411

DIPOLE MOMENT
-------------

Method             : SCF
Type of density    : Electron Density
Multiplicity       :   1
Irrep              :   0
Energy             : -1610.9201990389419734 Eh
Relativity type    :
Basis              : AO
                                X                 Y                 Z
Electronic contribution:      3.374885079       3.702768185      -0.000268642
Nuclear contribution   :     -3.835419229      -4.313432472       0.000523415
                        -----------------------------------------
Total Dipole Moment    :     -0.460534150      -0.610664287       0.000254773
                        -----------------------------------------
Magnitude (a.u.)       :      0.764854653
Magnitude (Debye)      :      1.944106027

Rotational constants in cm-1:             0.062365             0.019793             0.015024
Rotational constants in MHz :          1869.646249           593.374261           450.422545

                             ****ORCA TERMINATED NORMALLY****
TOTAL RUN TIME: 0 days 0 hours 0 minutes 17 seconds 983 msec
