                         Program Version 6.0.0  -   RELEASE  -
|  1> ! wb97x-v def2-tzvp def2/J RIJCOSX DEFGRID2 scfconv7 GCP(DFT/TZ) printgap
|  2> %output
|  3>     printlevel normal
|  4> end
|  5> * xyz 0 1
|  6> C 1.5814457164509326 1.3008581544540803 -6.8422337760015e-05
|  7> C 0.19614000428750572 1.3604651832129382 -2.7072691746591246e-05
|  8> C -0.5232295568052967 0.16362608750722404 1.0764843622549565e-05
|  9> C 0.1838349417869561 -1.0443196873412708 -1.7554760630704057e-05
| 10> N 1.515443577458584 -1.114017133952356 -6.5001301657001e-05
| 11> C 2.189813287241103 0.050779604941066085 -9.813615892888738e-05
| 12> C -1.989874400858071 0.19277576629305573 0.0001504084759589905
| 13> O -2.7015103567313665 -0.8034614440439738 -1.0346088635073121e-05
| 14> H 2.1852146011855966 2.201394783914616 -8.746241875655777e-05
| 15> H -0.3284174154313929 2.3120603263741795 -1.4408663796931584e-05
| 16> H -0.359400002023937 -1.986340534759119 4.744331958594218e-06
| 17> H 3.2745616025349245 -0.02537148598690417 -0.0001033372114028901
| 18> H -2.437520966898277 1.2061572905706204 -9.473815954501143e-05
| 19> *
| 20>
| 21>                          ****END OF INPUT****

CARTESIAN COORDINATES (ANGSTROEM)
---------------------------------
  C      1.581446    1.300858   -0.000068
  C      0.196140    1.360465   -0.000027
  C     -0.523230    0.163626    0.000011
  C      0.183835   -1.044320   -0.000018
  N      1.515444   -1.114017   -0.000065
  C      2.189813    0.050780   -0.000098
  C     -1.989874    0.192776    0.000150
  O     -2.701510   -0.803461   -0.000010
  H      2.185215    2.201395   -0.000087
  H     -0.328417    2.312060   -0.000014
  H     -0.359400   -1.986341    0.000005
  H      3.274562   -0.025371   -0.000103
  H     -2.437521    1.206157   -0.000095

 Total Charge           Charge          ....    0
 Multiplicity           Mult            ....    1
 Number of Electrons    NEL             ....   56
 Basis Dimension        Dim             ....  278

ORBITAL ENERGIES
----------------

  NO   OCC          E(Eh)            E(eV)
   0   2.0000     -21.680858      -589.9661
   1   2.0000     -16.545130      -450.2159
   2   2.0000     -12.151974      -330.6720
   3   2.0000     -12.108855      -329.4987
   4   2.0000     -12.106580      -329.4368
   5   2.0000     -12.097896      -329.2005
   6   2.0000     -12.081941      -328.7663
   7   2.0000     -12.080060      -328.7152
   8   2.0000      -1.721101       -46.8335
   9   2.0000      -1.539122       -41.8816
  10   2.0000      -1.377798       -37.4918
  11   2.0000      -1.327033       -36.1104
  12   2.0000      -1.214787       -33.0560
  13   2.0000      -1.167739       -31.7758
  14   2.0000      -1.132368       -30.8133
  15   2.0000      -1.045151       -28.4400
  16   2.0000      -1.023385       -27.8477
  17   2.0000      -0.988226       -26.8910
  18   2.0000      -0.986539       -26.8451
  19   2.0000      -0.922070       -25.0908
  20   2.0000      -0.911812       -24.8117
  21   2.0000      -0.898287       -24.4436
  22   2.0000      -0.869322       -23.6554
  23   2.0000      -0.849227       -23.1086
  24   2.0000      -0.821557       -22.3557
  25   2.0000      -0.780244       -21.2315
  26   2.0000      -0.726139       -19.7592
  27   2.0000      -0.678618       -18.4661
  28   0.0000      -0.363006        -9.8779
  29   0.0000      -0.304264        -8.2795
  30   0.0000      -0.233705        -6.3594
  31   0.0000      -0.102542        -2.7903
  32   0.0000      -0.066942        -1.8216

MULLIKEN ATOMIC CHARGES
-----------------------
   0 C :   -0.095034
   1 C :   -0.170803
   2 C :    0.128536
   3 C :   -0.071542
   4 N :   -0.207417
   5 C :   -0.030616
   6 C :    0.099315
   7 O :   -0.294206
   8 H :    0.133903
   9 H :    0.138957
  10 H :    0.157715
  11 H :    0.133048
  12 H :    0.078144
Sum of atomic charges:    0.0000000

LOEWDIN ATOMIC CHARGES
----------------------
   0 C :   -0.146236
   1 C :   -0.071842
   2 C :   -0.174797
   3 C :   -0.127426
   4 N :    0.129037
   5 C :   -0.173937
   6 C :   -0.239239
   7 O :    0.100204
   8 H :    0.146989
   9 H :    0.150917
  10 H :    0.149331
  11 H :    0.139112
  12 H :    0.117886

  Mayer bond orders larger than 0.100000
B(  0-C ,  1-C ) :   1.4576 B(  0-C ,  5-C ) :   1.4162 B(  0-C ,  8-H ) :   0.9625
B(  1-C ,  2-C ) :   1.3723 B(  1-C ,  9-H ) :   0.9554 B(  2-C ,  3-C ) :   1.3323
B(  2-C ,  6-C ) :   0.9058 B(  2-C ,  7-O ) :  -0.1046 B(  3-C ,  4-N ) :   1.5312
B(  3-C , 10-H ) :   0.9635 B(  4-N ,  5-C ) :   1.4693 B(  5-C , 11-H ) :   0.9809
B(  6-C ,  7-O ) :   2.1220 B(  6-C , 12-H ) :   1.0131

FINAL SINGLE POINT ENERGY      -361.623972449401

DIPOLE MOMENT
-------------

Method             : SCF
Type of density    : Electron Density
Multiplicity       :   1
Irrep              :   0
Energy             :  -361.6301845449011694 Eh
Relativity type    :
Basis              : AO
                                X                 Y                 Z
Electronic contribution:     -1.470304490      -1.993557262       0.000241450
Nuclear contribution   :      2.157008592       3.478617814      -0.000190627
                        -----------------------------------------
Total Dipole Moment    :      0.686704102       1.485060552       0.000050822
                        -----------------------------------------
Magnitude (a.u.)       :      1.636144055
Magnitude (Debye)      :      4.158747687

Rotational constants in cm-1:             0.178434             0.053425             0.041115
Rotational constants in MHz :          5349.312667          1601.646902          1232.593858

                             ****ORCA TERMINATED NORMALLY****
TOTAL RUN TIME: 0 days 0 hours 2 minutes 5 seconds 197 msec
