                         Program Version 6.0.0  -   RELEASE  -
|  1> ! wb97x-v def2-tzvp def2/J RIJCOSX DEFGRID2 scfconv7 GCP(DFT/TZ) printgap
|  2> %output
|  3>     printlevel normal
|  4> end
|  5> %cpcm
|  6>     smd true
|  7>     smdsolvent "water"
|  8> end
|  9> * xyz 0 1
| 10> C 1.5814457164509326 1.3008581544540803 -6.8422337760015e-05
| 11> C 0.19614000428750572 1.3604651832129382 -2.7072691746591246e-05
| 12> C -0.5232295568052967 0.16362608750722404 1.0764843622549565e-05
| 13> C 0.1838349417869561 -1.0443196873412708 -1.7554760630704057e-05
| 14> N 1.515443577458584 -1.114017133952356 -6.5001301657001e-05
| 15> C 2.189813287241103 0.050779604941066085 -9.813615892888738e-05
| 16> C -1.989874400858071 0.19277576629305573 0.0001504084759589905
| 17> O -2.7015103567313665 -0.8034614440439738 -1.0346088635073121e-05
| 18> H 2.1852146011855966 2.201394783914616 -8.746241875655777e-05
| 19> H -0.3284174154313929 2.3120603263741795 -1.4408663796931584e-05
| 20> H -0.359400002023937 -1.986340534759119 4.744331958594218e-06
| 21> H 3.2745616025349245 -0.02537148598690417 -0.0001033372114028901
| 22> H -2.437520966898277 1.2061572905706204 -9.473815954501143e-05
| 23> *
| 24>
| 25>                          ****END OF INPUT****

CARTESIAN COORDINATES (ANGSTROEM)
---------------------------------
  C      1.581446    1.300858   -0.000068
  C      0.196140    1.360465   -0.000027
  C     -0.523230    0.163626    0.000011
  C      0.183835   -1.044320   -0.000018
  N      1.515444   -1.114017   -0.000065
  C      2.189813    0.050780   -0.000098
  C     -1.989874    0.192776    0.000150
  O     -2.701510   -0.803461   -0.000010
  H      2.185215    2.201395   -0.000087
  H     -0.328417    2.312060   -0.000014
  H     -0.359400   -1.986341    0.000005
  H      3.274562   -0.025371   -0.000103
  H     -2.437521    1.206157   -0.000095

 Total Charge           Charge          ....    0
 Multiplicity           Mult            ....    1
 Number of Electrons    NEL             ....   56
 Basis Dimension        Dim             ....  278

ORBITAL ENERGIES
----------------

  NO   OCC          E(Eh)            E(eV)
   0   2.0000     -21.682213      -590.0030
   1   2.0000     -16.539443      -450.0611
   2   2.0000     -12.150342      -330.6276
   3   2.0000     -12.099150      -329.2346
   4   2.0000     -12.096754      -329.1694
   5   2.0000     -12.081865      -328.7643
   6   2.0000     -12.070707      -328.4606
   7   2.0000     -12.062642      -328.2412
   8   2.0000      -1.726250       -46.9737
   9   2.0000      -1.532707       -41.7071
  10   2.0000      -1.365028       -37.1443
  11   2.0000      -1.315619       -35.7998
  12   2.0000      -1.207289       -32.8520
  13   2.0000      -1.154474       -31.4148
  14   2.0000      -1.129206       -30.7273
  15   2.0000      -1.042619       -28.3711
  16   2.0000      -1.015166       -27.6241
  17   2.0000      -0.983932       -26.7742
  18   2.0000      -0.973478       -26.4897
  19   2.0000      -0.920829       -25.0570
  20   2.0000      -0.906300       -24.6617
  21   2.0000      -0.882684       -24.0190
  22   2.0000      -0.857052       -23.3216
  23   2.0000      -0.843244       -22.9458
  24   2.0000      -0.818993       -22.2859
  25   2.0000      -0.774771       -21.0826
  26   2.0000      -0.715175       -19.4609
  27   2.0000      -0.667190       -18.1552
  28   0.0000      -0.352512        -9.5923
  29   0.0000      -0.294134        -8.0038
  30   0.0000      -0.222025        -6.0416
  31   0.0000      -0.090040        -2.4501
  32   0.0000      -0.053671        -1.4605

MULLIKEN ATOMIC CHARGES
-----------------------
   0 C :   -0.128123
   1 C :   -0.180360
   2 C :    0.112844
   3 C :   -0.074291
   4 N :   -0.285206
   5 C :   -0.027046
   6 C :    0.163860
   7 O :   -0.419155
   8 H :    0.177857
   9 H :    0.185512
  10 H :    0.166587
  11 H :    0.170835
  12 H :    0.136687
Sum of atomic charges:    0.0000000

LOEWDIN ATOMIC CHARGES
----------------------
   0 C :   -0.135953
   1 C :   -0.048379
   2 C :   -0.174085
   3 C :   -0.136916
   4 N :    0.088382
   5 C :   -0.171627
   6 C :   -0.210498
   7 O :    0.024720
   8 H :    0.159637
   9 H :    0.167208
  10 H :    0.150280
  11 H :    0.148462
  12 H :    0.138769

  Mayer bond orders larger than 0.100000
B(  0-C ,  1-C ) :   1.4443 B(  0-C ,  5-C ) :   1.4319 B(  0-C ,  8-H ) :   0.9573
B(  1-C ,  2-C ) :   1.3618 B(  1-C ,  9-H ) :   0.9563 B(  2-C ,  3-C ) :   1.3210
B(  2-C ,  6-C ) :   0.9435 B(  3-C ,  4-N ) :   1.5328 B(  3-C , 10-H ) :   0.9623
B(  4-N ,  5-C ) :   1.4475 B(  5-C , 11-H ) :   0.9607 B(  6-C ,  7-O ) :   2.0030
B(  6-C , 12-H ) :   0.9925

FINAL SINGLE POINT ENERGY      -361.636936248440

DIPOLE MOMENT
-------------

Method             : SCF
Type of density    : Electron Density
Multiplicity       :   1
Irrep              :   0
Energy             :  -361.6431483439400267 Eh
Relativity type    :
Basis              : AO
                                X                 Y                 Z
Electronic contribution:     -1.239207321      -1.229855980       0.000267195
Nuclear contribution   :      2.157008592       3.478617814      -0.000190627
                        -----------------------------------------
Total Dipole Moment    :      0.917801272       2.248761834       0.000076568
                        -----------------------------------------
Magnitude (a.u.)       :      2.428845192
Magnitude (Debye)      :      6.173633851

Rotational constants in cm-1:             0.178434             0.053425             0.041115
Rotational constants in MHz :          5349.312667          1601.646902          1232.593858

                             ****ORCA TERMINATED NORMALLY****
TOTAL RUN TIME: 0 days 0 hours 1 minutes 51 seconds 921 msec
