                         Program Version 6.0.0  -   RELEASE  -
|  1> ! pbe def2-sv(p) def2/J RI DEFGRID1 loosescf d4 GCP(DFT/SV(P)) printgap
|  2> %output
|  3>     printlevel normal
|  4> end
|  5> * xyz 0 1
|  6> C -1.089580228 -1.8648514744 -0.0001769241
|  7> C 0.2423035026 -1.4903753134 -9.75945e-05
|  8> C 0.5512625006 -0.1332583881 1.09356e-05
|  9> C -0.440493295 0.8444984637 8.05249e-05
| 10> C -1.7737180925 0.4555391913 2.99297e-05
| 11> C -2.0880136436 -0.908649112 -0.0001135886
| 12> O -2.7891853663 1.3355951178 0.0001833199
| 13> N 1.9132519788 0.2745337624 1.52066e-05
| 14> O 2.782182181 -0.5844736209 0.0004424331
| 15> O 2.1658784711 1.4707540215 -0.000444445
| 16> H -1.3514100665 -2.9099615613 -0.000277251
| 17> H 1.0393261402 -2.2158063875 -0.0001207727
| 18> H -0.1494980785 1.8839723681 0.0001886314
| 19> H -3.1288016137 -1.189205566 -0.0001697298
| 20> H -2.4723092497 2.2527091019 0.0004680703
| 21> *
| 22>
| 23>                          ****END OF INPUT****

CARTESIAN COORDINATES (ANGSTROEM)
---------------------------------
  C     -1.089580   -1.864851   -0.000177
  C      0.242304   -1.490375   -0.000098
  C      0.551263   -0.133258    0.000011
  C     -0.440493    0.844498    0.000081
  C     -1.773718    0.455539    0.000030
  C     -2.088014   -0.908649   -0.000114
  O     -2.789185    1.335595    0.000183
  N      1.913252    0.274534    0.000015
  O      2.782182   -0.584474    0.000442
  O      2.165878    1.470754   -0.000444
  H     -1.351410   -2.909962   -0.000277
  H      1.039326   -2.215806   -0.000121
  H     -0.149498    1.883972    0.000189
  H     -3.128802   -1.189206   -0.000170
  H     -2.472309    2.252709    0.000468

 Total Charge           Charge          ....    0
 Multiplicity           Mult            ....    1
 Number of Electrons    NEL             ....   72
 Basis Dimension        Dim             ....  150

ORBITAL ENERGIES
----------------

  NO   OCC          E(Eh)            E(eV)
   0   2.0000     -18.808875      -511.8155
   1   2.0000     -18.775554      -510.9088
   2   2.0000     -18.772544      -510.8269
   3   2.0000     -14.208962      -386.6455
   4   2.0000      -9.982447      -271.6362
   5   2.0000      -9.956613      -270.9332
   6   2.0000      -9.922925      -270.0165
   7   2.0000      -9.920332      -269.9459
   8   2.0000      -9.919266      -269.9170
   9   2.0000      -9.917482      -269.8684
  10   2.0000      -1.128277       -30.7020
  11   2.0000      -0.993826       -27.0434
  12   2.0000      -0.955548       -26.0018
  13   2.0000      -0.812527       -22.1100
  14   2.0000      -0.740408       -20.1475
  15   2.0000      -0.695055       -18.9134
  16   2.0000      -0.644913       -17.5490
  17   2.0000      -0.591084       -16.0842
  18   2.0000      -0.542337       -14.7577
  19   2.0000      -0.509778       -13.8718
  20   2.0000      -0.489727       -13.3262
  21   2.0000      -0.486761       -13.2454
  22   2.0000      -0.457911       -12.4604
  23   2.0000      -0.452541       -12.3143
  24   2.0000      -0.429981       -11.7004
  25   2.0000      -0.411805       -11.2058
  26   2.0000      -0.392637       -10.6842
  27   2.0000      -0.366901        -9.9839
  28   2.0000      -0.345916        -9.4129
  29   2.0000      -0.332243        -9.0408
  30   2.0000      -0.325809        -8.8657
  31   2.0000      -0.269204        -7.3254
  32   2.0000      -0.260305        -7.0833
  33   2.0000      -0.257846        -7.0163
  34   2.0000      -0.230608        -6.2751
  35   2.0000      -0.224187        -6.1004
  36   0.0000      -0.118719        -3.2305
  37   0.0000      -0.051532        -1.4023
  38   0.0000      -0.026667        -0.7257
  39   0.0000       0.005624         0.1530
  40   0.0000       0.037983         1.0336

MULLIKEN ATOMIC CHARGES
-----------------------
   0 C :   -0.052453
   1 C :   -0.114165
   2 C :    0.208642
   3 C :   -0.240862
   4 C :    0.248125
   5 C :   -0.086636
   6 O :   -0.316393
   7 N :    0.200847
   8 O :   -0.213913
   9 O :   -0.221455
  10 H :    0.071695
  11 H :    0.071533
  12 H :    0.054789
  13 H :    0.062997
  14 H :    0.327248
Sum of atomic charges:   -0.0000000

LOEWDIN ATOMIC CHARGES
----------------------
   0 C :   -0.105251
   1 C :   -0.125926
   2 C :   -0.035078
   3 C :   -0.159293
   4 C :    0.024004
   5 C :   -0.122487
   6 O :   -0.214929
   7 N :    0.256447
   8 O :   -0.185092
   9 O :   -0.193958
  10 H :    0.134315
  11 H :    0.142946
  12 H :    0.140389
  13 H :    0.137759
  14 H :    0.306154

  Mayer bond orders larger than 0.100000
B(  0-C ,  1-C ) :   1.3050 B(  0-C ,  5-C ) :   1.3729 B(  0-C , 10-H ) :   0.9636
B(  1-C ,  2-C ) :   1.3832 B(  1-C , 11-H ) :   0.9506 B(  2-C ,  3-C ) :   1.3491
B(  2-C ,  7-N ) :   0.8876 B(  3-C ,  4-C ) :   1.2443 B(  3-C , 12-H ) :   0.9416
B(  4-C ,  5-C ) :   1.3477 B(  4-C ,  6-O ) :   1.2128 B(  5-C , 13-H ) :   0.9630
B(  6-O , 14-H ) :   0.8358 B(  7-N ,  8-O ) :   1.5421 B(  7-N ,  9-O ) :   1.5318
B(  8-O ,  9-O ) :   0.3003

Dispersion correction           -0.016057640
FINAL SINGLE POINT ENERGY      -510.971160635891

DIPOLE MOMENT
-------------

Method             : SCF
Type of density    : Electron Density
Multiplicity       :   1
Irrep              :   0
Energy             :  -511.0215168581445937 Eh
Relativity type    :
Basis              : AO
                                X                 Y                 Z
Electronic contribution:      4.185953593       2.044822359       0.000094182
Nuclear contribution   :     -5.645347536      -2.009190326       0.000086219
                        -----------------------------------------
Total Dipole Moment    :     -1.459393943       0.035632032       0.000180401
                        -----------------------------------------
Magnitude (a.u.)       :      1.459828878
Magnitude (Debye)      :      3.710590123

Rotational constants in cm-1:             0.092164             0.033401             0.024516
Rotational constants in MHz :          2763.006936          1001.326121           734.969791

                             ****ORCA TERMINATED NORMALLY****
TOTAL RUN TIME: 0 days 0 hours 0 minutes 8 seconds 70 msec
