                         Program Version 6.0.0  -   RELEASE  -
|  1> ! wb97x-v def2-tzvp def2/J RIJCOSX DEFGRID2 scfconv7 GCP(DFT/TZ) printgap
|  2> %output
|  3>     printlevel normal
|  4> end
|  5> * xyz 0 1
|  6> C -3.1006144777347253 0.3800329025613276 -0.0008041094816381691
|  7> C -1.6348221382320587 0.042590447062645594 0.0005047089636647374
|  8> C -1.189922996376885 -1.2801371191283644 0.0004043450334131775
|  9> C 0.17044155918717432 -1.5782957649334353 -2.4698150991955246e-05
| 10> C 1.1045367102538903 -0.5487248801448402 -0.00028084921222191355
| 11> C 0.6988464471314744 0.7948740938587988 6.385531590233227e-05
| 12> C -0.6712662252847541 1.0571015036089153 0.00048618826571358815
| 13> C 1.7133359299370519 1.9024286018937027 0.0002307455257593786
| 14> O 2.4402295862547194 -0.9068485401887955 -0.0005850978030068382
| 15> H -3.712245217531974 -0.5257287933116163 0.015903909002019403
| 16> H -3.369571956266205 0.9873788050804717 0.870423087393167
| 17> H -3.3748427594123576 0.9574100683712041 -0.8907327468597374
| 18> H -1.9118168172957266 -2.092097651439559 0.000733800780620549
| 19> H 0.5152055658959863 -2.607821733068963 6.113591209520388e-05
| 20> H -0.9961124532331962 2.095555222865851 0.0008376510320809053
| 21> H 2.361778898865935 1.857062305261163 -0.8842461864215574
| 22> H 1.2179151874539196 2.8754453998983105 0.001779675384699047
| 23> H 2.363614795569194 1.8551775430233615 0.8832557045334761
| 24> H 2.98606767352309 -0.10896430426919831 -0.0006586978035446431
| 25> *
| 26>
| 27>                          ****END OF INPUT****

CARTESIAN COORDINATES (ANGSTROEM)
---------------------------------
  C     -3.100614    0.380033   -0.000804
  C     -1.634822    0.042590    0.000505
  C     -1.189923   -1.280137    0.000404
  C      0.170442   -1.578296   -0.000025
  C      1.104537   -0.548725   -0.000281
  C      0.698846    0.794874    0.000064
  C     -0.671266    1.057102    0.000486
  C      1.713336    1.902429    0.000231
  O      2.440230   -0.906849   -0.000585
  H     -3.712245   -0.525729    0.015904
  H     -3.369572    0.987379    0.870423
  H     -3.374843    0.957410   -0.890733
  H     -1.911817   -2.092098    0.000734
  H      0.515206   -2.607822    0.000061
  H     -0.996112    2.095555    0.000838
  H      2.361779    1.857062   -0.884246
  H      1.217915    2.875445    0.001780
  H      2.363615    1.855178    0.883256
  H      2.986068   -0.108964   -0.000659

 Total Charge           Charge          ....    0
 Multiplicity           Mult            ....    1
 Number of Electrons    NEL             ....   66
 Basis Dimension        Dim             ....  339

ORBITAL ENERGIES
----------------

  NO   OCC          E(Eh)            E(eV)
   0   2.0000     -21.698114      -590.4357
   1   2.0000     -12.105204      -329.3994
   2   2.0000     -12.058897      -328.1393
   3   2.0000     -12.057196      -328.0930
   4   2.0000     -12.050785      -327.9185
   5   2.0000     -12.046740      -327.8085
   6   2.0000     -12.045486      -327.7743
   7   2.0000     -12.041803      -327.6741
   8   2.0000     -12.040085      -327.6274
   9   2.0000      -1.709403       -46.5152
  10   2.0000      -1.385744       -37.7080
  11   2.0000      -1.304137       -35.4874
  12   2.0000      -1.286906       -35.0185
  13   2.0000      -1.205053       -32.7912
  14   2.0000      -1.197478       -32.5850
  15   2.0000      -1.121865       -30.5275
  16   2.0000      -1.106663       -30.1138
  17   2.0000      -1.045950       -28.4618
  18   2.0000      -0.999898       -27.2086
  19   2.0000      -0.943572       -25.6759
  20   2.0000      -0.941395       -25.6166
  21   2.0000      -0.924208       -25.1490
  22   2.0000      -0.892634       -24.2898
  23   2.0000      -0.871398       -23.7120
  24   2.0000      -0.850255       -23.1366
  25   2.0000      -0.844624       -22.9834
  26   2.0000      -0.833138       -22.6708
  27   2.0000      -0.828737       -22.5511
  28   2.0000      -0.816461       -22.2170
  29   2.0000      -0.796970       -21.6866
  30   2.0000      -0.751302       -20.4440
  31   2.0000      -0.635136       -17.2829
  32   2.0000      -0.627104       -17.0644
  33   0.0000      -0.242593        -6.6013
  34   0.0000      -0.237178        -6.4540
  35   0.0000      -0.147863        -4.0236
  36   0.0000      -0.074085        -2.0159
  37   0.0000      -0.068930        -1.8757

MULLIKEN ATOMIC CHARGES
-----------------------
   0 C :   -0.367519
   1 C :    0.165131
   2 C :   -0.184514
   3 C :   -0.196758
   4 C :    0.141189
   5 C :    0.167570
   6 C :   -0.284757
   7 C :   -0.462887
   8 O :   -0.390177
   9 H :    0.114955
  10 H :    0.120077
  11 H :    0.120261
  12 H :    0.109711
  13 H :    0.118673
  14 H :    0.109595
  15 H :    0.137904
  16 H :    0.126076
  17 H :    0.137764
  18 H :    0.317705
Sum of atomic charges:    0.0000000

LOEWDIN ATOMIC CHARGES
----------------------
   0 C :   -0.255577
   1 C :   -0.182058
   2 C :   -0.118657
   3 C :   -0.120824
   4 C :   -0.231821
   5 C :   -0.167221
   6 C :   -0.092200
   7 C :   -0.264644
   8 O :    0.062097
   9 H :    0.123613
  10 H :    0.124951
  11 H :    0.125023
  12 H :    0.143008
  13 H :    0.147384
  14 H :    0.145597
  15 H :    0.125056
  16 H :    0.130194
  17 H :    0.125023
  18 H :    0.181056

  Mayer bond orders larger than 0.100000
B(  0-C ,  1-C ) :   0.9132 B(  0-C ,  9-H ) :   0.9971 B(  0-C , 10-H ) :   0.9788
B(  0-C , 11-H ) :   0.9773 B(  1-C ,  2-C ) :   1.4208 B(  1-C ,  6-C ) :   1.3951
B(  2-C ,  3-C ) :   1.4282 B(  2-C , 12-H ) :   0.9726 B(  3-C ,  4-C ) :   1.4518
B(  3-C , 13-H ) :   0.9768 B(  4-C ,  5-C ) :   1.2847 B(  4-C ,  8-O ) :   1.1610
B(  5-C ,  6-C ) :   1.3949 B(  5-C ,  7-C ) :   0.8692 B(  6-C , 14-H ) :   0.9603
B(  7-C , 15-H ) :   0.9833 B(  7-C , 16-H ) :   0.9837 B(  7-C , 17-H ) :   0.9833
B(  8-O , 18-H ) :   0.8869

FINAL SINGLE POINT ENERGY      -386.121598975487

DIPOLE MOMENT
-------------

Method             : SCF
Type of density    : Electron Density
Multiplicity       :   1
Irrep              :   0
Energy             :  -386.1328953859868989 Eh
Relativity type    :
Basis              : AO
                                X                 Y                 Z
Electronic contribution:      3.674495935      -4.253773297       0.001443873
Nuclear contribution   :     -3.652666273       4.947055421      -0.002099042
                        -----------------------------------------
Total Dipole Moment    :      0.021829662       0.693282125      -0.000655169
                        -----------------------------------------
Magnitude (a.u.)       :      0.693626029
Magnitude (Debye)      :      1.763057253

Rotational constants in cm-1:             0.099814             0.043440             0.030613
Rotational constants in MHz :          2992.349043          1302.309942           917.740563

                             ****ORCA TERMINATED NORMALLY****
TOTAL RUN TIME: 0 days 0 hours 3 minutes 22 seconds 523 msec
