                         Program Version 6.0.0  -   RELEASE  -
|  1> ! wb97x-v def2-tzvp def2/J RIJCOSX DEFGRID2 scfconv7 GCP(DFT/TZ) printgap
|  2> %output
|  3>     printlevel normal
|  4> end
|  5> %cpcm
|  6>     smd true
|  7>     smdsolvent "water"
|  8> end
|  9> * xyz 0 1
| 10> C -3.1006144777347253 0.3800329025613276 -0.0008041094816381691
| 11> C -1.6348221382320587 0.042590447062645594 0.0005047089636647374
| 12> C -1.189922996376885 -1.2801371191283644 0.0004043450334131775
| 13> C 0.17044155918717432 -1.5782957649334353 -2.4698150991955246e-05
| 14> C 1.1045367102538903 -0.5487248801448402 -0.00028084921222191355
| 15> C 0.6988464471314744 0.7948740938587988 6.385531590233227e-05
| 16> C -0.6712662252847541 1.0571015036089153 0.00048618826571358815
| 17> C 1.7133359299370519 1.9024286018937027 0.0002307455257593786
| 18> O 2.4402295862547194 -0.9068485401887955 -0.0005850978030068382
| 19> H -3.712245217531974 -0.5257287933116163 0.015903909002019403
| 20> H -3.369571956266205 0.9873788050804717 0.870423087393167
| 21> H -3.3748427594123576 0.9574100683712041 -0.8907327468597374
| 22> H -1.9118168172957266 -2.092097651439559 0.000733800780620549
| 23> H 0.5152055658959863 -2.607821733068963 6.113591209520388e-05
| 24> H -0.9961124532331962 2.095555222865851 0.0008376510320809053
| 25> H 2.361778898865935 1.857062305261163 -0.8842461864215574
| 26> H 1.2179151874539196 2.8754453998983105 0.001779675384699047
| 27> H 2.363614795569194 1.8551775430233615 0.8832557045334761
| 28> H 2.98606767352309 -0.10896430426919831 -0.0006586978035446431
| 29> *
| 30>
| 31>                          ****END OF INPUT****

CARTESIAN COORDINATES (ANGSTROEM)
---------------------------------
  C     -3.100614    0.380033   -0.000804
  C     -1.634822    0.042590    0.000505
  C     -1.189923   -1.280137    0.000404
  C      0.170442   -1.578296   -0.000025
  C      1.104537   -0.548725   -0.000281
  C      0.698846    0.794874    0.000064
  C     -0.671266    1.057102    0.000486
  C      1.713336    1.902429    0.000231
  O      2.440230   -0.906849   -0.000585
  H     -3.712245   -0.525729    0.015904
  H     -3.369572    0.987379    0.870423
  H     -3.374843    0.957410   -0.890733
  H     -1.911817   -2.092098    0.000734
  H      0.515206   -2.607822    0.000061
  H     -0.996112    2.095555    0.000838
  H      2.361779    1.857062   -0.884246
  H      1.217915    2.875445    0.001780
  H      2.363615    1.855178    0.883256
  H      2.986068   -0.108964   -0.000659

 Total Charge           Charge          ....    0
 Multiplicity           Mult            ....    1
 Number of Electrons    NEL             ....   66
 Basis Dimension        Dim             ....  339

ORBITAL ENERGIES
----------------

  NO   OCC          E(Eh)            E(eV)
   0   2.0000     -21.698828      -590.4551
   1   2.0000     -12.105842      -329.4167
   2   2.0000     -12.056948      -328.0862
   3   2.0000     -12.050421      -327.9086
   4   2.0000     -12.044890      -327.7581
   5   2.0000     -12.043468      -327.7194
   6   2.0000     -12.042547      -327.6944
   7   2.0000     -12.039101      -327.6006
   8   2.0000     -12.032139      -327.4111
   9   2.0000      -1.710603       -46.5479
  10   2.0000      -1.385938       -37.7133
  11   2.0000      -1.300765       -35.3956
  12   2.0000      -1.286258       -35.0009
  13   2.0000      -1.198962       -32.6254
  14   2.0000      -1.190705       -32.4007
  15   2.0000      -1.119617       -30.4663
  16   2.0000      -1.105645       -30.0861
  17   2.0000      -1.043540       -28.3962
  18   2.0000      -1.002580       -27.2816
  19   2.0000      -0.945172       -25.7194
  20   2.0000      -0.944090       -25.6900
  21   2.0000      -0.919996       -25.0344
  22   2.0000      -0.888397       -24.1745
  23   2.0000      -0.866704       -23.5842
  24   2.0000      -0.835797       -22.7432
  25   2.0000      -0.835688       -22.7402
  26   2.0000      -0.825251       -22.4562
  27   2.0000      -0.821194       -22.3458
  28   2.0000      -0.804876       -21.9018
  29   2.0000      -0.791984       -21.5510
  30   2.0000      -0.751338       -20.4449
  31   2.0000      -0.636026       -17.3071
  32   2.0000      -0.628364       -17.0987
  33   0.0000      -0.243595        -6.6286
  34   0.0000      -0.237790        -6.4706
  35   0.0000      -0.146286        -3.9807
  36   0.0000      -0.073479        -1.9995
  37   0.0000      -0.047868        -1.3026

MULLIKEN ATOMIC CHARGES
-----------------------
   0 C :   -0.396120
   1 C :    0.136213
   2 C :   -0.242752
   3 C :   -0.247715
   4 C :    0.171717
   5 C :    0.103898
   6 C :   -0.321023
   7 C :   -0.453291
   8 O :   -0.465466
   9 H :    0.139885
  10 H :    0.137821
  11 H :    0.137679
  12 H :    0.154666
  13 H :    0.152043
  14 H :    0.156085
  15 H :    0.155817
  16 H :    0.148783
  17 H :    0.155773
  18 H :    0.375987
Sum of atomic charges:    0.0000000

LOEWDIN ATOMIC CHARGES
----------------------
   0 C :   -0.258088
   1 C :   -0.192046
   2 C :   -0.132506
   3 C :   -0.139755
   4 C :   -0.245435
   5 C :   -0.168414
   6 C :   -0.096684
   7 C :   -0.258864
   8 O :    0.036034
   9 H :    0.128764
  10 H :    0.129588
  11 H :    0.129621
  12 H :    0.152479
  13 H :    0.153369
  14 H :    0.156786
  15 H :    0.133767
  16 H :    0.134688
  17 H :    0.133752
  18 H :    0.202945

  Mayer bond orders larger than 0.100000
B(  0-C ,  1-C ) :   0.9276 B(  0-C ,  9-H ) :   0.9929 B(  0-C , 10-H ) :   0.9726
B(  0-C , 11-H ) :   0.9712 B(  1-C ,  2-C ) :   1.4044 B(  1-C ,  6-C ) :   1.3619
B(  2-C ,  3-C ) :   1.4156 B(  2-C , 12-H ) :   0.9789 B(  3-C ,  4-C ) :   1.4219
B(  3-C , 13-H ) :   0.9860 B(  4-C ,  5-C ) :   1.2797 B(  4-C ,  8-O ) :   1.1212
B(  5-C ,  6-C ) :   1.3787 B(  5-C ,  7-C ) :   0.9226 B(  6-C , 14-H ) :   0.9698
B(  7-C , 15-H ) :   0.9713 B(  7-C , 16-H ) :   0.9780 B(  7-C , 17-H ) :   0.9714
B(  8-O , 18-H ) :   0.8491

FINAL SINGLE POINT ENERGY      -386.129899890553

DIPOLE MOMENT
-------------

Method             : SCF
Type of density    : Electron Density
Multiplicity       :   1
Irrep              :   0
Energy             :  -386.1411963010534123 Eh
Relativity type    :
Basis              : AO
                                X                 Y                 Z
Electronic contribution:      3.706254014      -3.924257515       0.001188195
Nuclear contribution   :     -3.652666273       4.947055421      -0.002099042
                        -----------------------------------------
Total Dipole Moment    :      0.053587741       1.022797907      -0.000910847
                        -----------------------------------------
Magnitude (a.u.)       :      1.024201169
Magnitude (Debye)      :      2.603312482

Rotational constants in cm-1:             0.099814             0.043440             0.030613
Rotational constants in MHz :          2992.349043          1302.309942           917.740563

                             ****ORCA TERMINATED NORMALLY****
TOTAL RUN TIME: 0 days 0 hours 3 minutes 42 seconds 856 msec
