                         Program Version 6.0.0  -   RELEASE  -
|  1> ! wb97x-v def2-tzvp def2/J RIJCOSX DEFGRID2 scfconv7 GCP(DFT/TZ) printgap
|  2> %output
|  3>     printlevel normal
|  4> end
|  5> * xyz 0 1
|  6> C -2.464128555105366 1.1407709424310484 0.4179250870818131
|  7> C -1.7254656986015755 -0.09756876286404215 -0.01009128595318008
|  8> C -2.389015456164401 -1.1969195129303705 -0.3968095843870071
|  9> C -0.24435233012289473 -0.04671617993781613 -0.003449702180563667
| 10> C 0.5213920459987301 -1.2061936376064972 0.1999896290493783
| 11> C 1.9098979913326037 -1.1586663970692261 0.18979419137616402
| 12> C 2.5715125015626215 0.05113002621740292 -0.016457536610663768
| 13> C 1.8271260995585064 1.2123810790417038 -0.20302733892566488
| 14> C 0.43586111388669113 1.1664287290839543 -0.1887737199482248
| 15> H -2.3107271165785805 1.9609833050686414 -0.2918065652069676
| 16> H -3.536717670173614 0.9466566002771825 0.47832440999633724
| 17> H -2.1110689617371743 1.4940084572432848 1.3926946025630382
| 18> H -1.8778515183209084 -2.084768426525121 -0.7553701544090523
| 19> H -3.4746565192167647 -1.222569385552276 -0.383880889934714
| 20> H 0.022256112336082844 -2.1507225556679535 0.3908591494206409
| 21> H 2.478817445698803 -2.0681554788845764 0.35663570011812273
| 22> H 3.656194032599328 0.08829828205358835 -0.020859728602931723
| 23> H 2.3300633374828226 2.161796316472171 -0.3594143509101828
| 24> H -0.12260474665843872 2.083755148294967 -0.3404533165457248
| 25> *
| 26>
| 27>                          ****END OF INPUT****

CARTESIAN COORDINATES (ANGSTROEM)
---------------------------------
  C     -2.464129    1.140771    0.417925
  C     -1.725466   -0.097569   -0.010091
  C     -2.389015   -1.196920   -0.396810
  C     -0.244352   -0.046716   -0.003450
  C      0.521392   -1.206194    0.199990
  C      1.909898   -1.158666    0.189794
  C      2.571513    0.051130   -0.016458
  C      1.827126    1.212381   -0.203027
  C      0.435861    1.166429   -0.188774
  H     -2.310727    1.960983   -0.291807
  H     -3.536718    0.946657    0.478324
  H     -2.111069    1.494008    1.392695
  H     -1.877852   -2.084768   -0.755370
  H     -3.474657   -1.222569   -0.383881
  H      0.022256   -2.150723    0.390859
  H      2.478817   -2.068155    0.356636
  H      3.656194    0.088298   -0.020860
  H      2.330063    2.161796   -0.359414
  H     -0.122605    2.083755   -0.340453

 Total Charge           Charge          ....    0
 Multiplicity           Mult            ....    1
 Number of Electrons    NEL             ....   64
 Basis Dimension        Dim             ....  339

ORBITAL ENERGIES
----------------

  NO   OCC          E(Eh)            E(eV)
   0   2.0000     -12.064328      -328.2870
   1   2.0000     -12.061916      -328.2214
   2   2.0000     -12.053474      -327.9917
   3   2.0000     -12.053105      -327.9817
   4   2.0000     -12.051516      -327.9384
   5   2.0000     -12.050743      -327.9174
   6   2.0000     -12.049803      -327.8918
   7   2.0000     -12.043838      -327.7295
   8   2.0000     -12.037445      -327.5555
   9   2.0000      -1.388312       -37.7779
  10   2.0000      -1.330120       -36.1944
  11   2.0000      -1.273752       -34.6606
  12   2.0000      -1.260705       -34.3055
  13   2.0000      -1.190924       -32.4067
  14   2.0000      -1.120407       -30.4878
  15   2.0000      -1.104121       -30.0447
  16   2.0000      -1.025694       -27.9106
  17   2.0000      -0.961758       -26.1708
  18   2.0000      -0.953958       -25.9585
  19   2.0000      -0.925177       -25.1754
  20   2.0000      -0.897649       -24.4263
  21   2.0000      -0.882208       -24.0061
  22   2.0000      -0.875099       -23.8127
  23   2.0000      -0.837731       -22.7958
  24   2.0000      -0.832605       -22.6563
  25   2.0000      -0.813886       -22.1470
  26   2.0000      -0.805921       -21.9302
  27   2.0000      -0.796649       -21.6779
  28   2.0000      -0.773137       -21.0381
  29   2.0000      -0.680210       -18.5095
  30   2.0000      -0.639076       -17.3901
  31   2.0000      -0.613231       -16.6869
  32   0.0000      -0.263117        -7.1598
  33   0.0000      -0.235844        -6.4176
  34   0.0000      -0.176740        -4.8093
  35   0.0000      -0.064681        -1.7601
  36   0.0000      -0.049491        -1.3467

MULLIKEN ATOMIC CHARGES
-----------------------
   0 C :   -0.350034
   1 C :    0.012184
   2 C :   -0.274777
   3 C :    0.178670
   4 C :   -0.198660
   5 C :   -0.120768
   6 C :   -0.116104
   7 C :   -0.135911
   8 C :   -0.184374
   9 H :    0.119086
  10 H :    0.114729
  11 H :    0.130530
  12 H :    0.118790
  13 H :    0.113001
  14 H :    0.126568
  15 H :    0.116306
  16 H :    0.117488
  17 H :    0.116057
  18 H :    0.117219
Sum of atomic charges:    0.0000000

LOEWDIN ATOMIC CHARGES
----------------------
   0 C :   -0.250054
   1 C :   -0.184544
   2 C :   -0.175131
   3 C :   -0.106180
   4 C :   -0.097662
   5 C :   -0.138959
   6 C :   -0.141055
   7 C :   -0.139632
   8 C :   -0.103079
   9 H :    0.124991
  10 H :    0.125275
  11 H :    0.128213
  12 H :    0.121315
  13 H :    0.120221
  14 H :    0.146616
  15 H :    0.141895
  16 H :    0.140792
  17 H :    0.141725
  18 H :    0.145253

  Mayer bond orders larger than 0.100000
B(  0-C ,  1-C ) :   0.9727 B(  0-C ,  9-H ) :   0.9686 B(  0-C , 10-H ) :   0.9798
B(  0-C , 11-H ) :   0.9770 B(  1-C ,  2-C ) :   1.8923 B(  1-C ,  3-C ) :   0.9237
B(  2-C , 12-H ) :   0.9675 B(  2-C , 13-H ) :   0.9654 B(  3-C ,  4-C ) :   1.3813
B(  3-C ,  8-C ) :   1.3551 B(  4-C ,  5-C ) :   1.4685 B(  4-C , 14-H ) :   0.9580
B(  5-C ,  6-C ) :   1.4114 B(  5-C , 15-H ) :   0.9737 B(  6-C ,  7-C ) :   1.4297
B(  6-C , 16-H ) :   0.9730 B(  7-C ,  8-C ) :   1.4535 B(  7-C , 17-H ) :   0.9740
B(  8-C , 18-H ) :   0.9683

FINAL SINGLE POINT ENERGY      -348.972983588721

DIPOLE MOMENT
-------------

Method             : SCF
Type of density    : Electron Density
Multiplicity       :   1
Irrep              :   0
Energy             :  -348.9833479213212968 Eh
Relativity type    :
Basis              : AO
                                X                 Y                 Z
Electronic contribution:      4.671002772      -1.042842316      -0.365983899
Nuclear contribution   :     -4.666928492       1.166812514       0.410919293
                        -----------------------------------------
Total Dipole Moment    :      0.004074280       0.123970198       0.044935394
                        -----------------------------------------
Magnitude (a.u.)       :      0.131925735
Magnitude (Debye)      :      0.335328569

Rotational constants in cm-1:             0.119616             0.040181             0.031113
Rotational constants in MHz :          3585.995607          1204.591616           932.744715

                             ****ORCA TERMINATED NORMALLY****
TOTAL RUN TIME: 0 days 0 hours 3 minutes 16 seconds 218 msec
