                         Program Version 6.0.0  -   RELEASE  -
|  1> ! wb97x-v def2-tzvp def2/J RIJCOSX DEFGRID2 scfconv7 GCP(DFT/TZ) printgap
|  2> %output
|  3>     printlevel normal
|  4> end
|  5> %cpcm
|  6>     smd true
|  7>     smdsolvent "water"
|  8> end
|  9> * xyz 0 1
| 10> C -2.464128555105366 1.1407709424310484 0.4179250870818131
| 11> C -1.7254656986015755 -0.09756876286404215 -0.01009128595318008
| 12> C -2.389015456164401 -1.1969195129303705 -0.3968095843870071
| 13> C -0.24435233012289473 -0.04671617993781613 -0.003449702180563667
| 14> C 0.5213920459987301 -1.2061936376064972 0.1999896290493783
| 15> C 1.9098979913326037 -1.1586663970692261 0.18979419137616402
| 16> C 2.5715125015626215 0.05113002621740292 -0.016457536610663768
| 17> C 1.8271260995585064 1.2123810790417038 -0.20302733892566488
| 18> C 0.43586111388669113 1.1664287290839543 -0.1887737199482248
| 19> H -2.3107271165785805 1.9609833050686414 -0.2918065652069676
| 20> H -3.536717670173614 0.9466566002771825 0.47832440999633724
| 21> H -2.1110689617371743 1.4940084572432848 1.3926946025630382
| 22> H -1.8778515183209084 -2.084768426525121 -0.7553701544090523
| 23> H -3.4746565192167647 -1.222569385552276 -0.383880889934714
| 24> H 0.022256112336082844 -2.1507225556679535 0.3908591494206409
| 25> H 2.478817445698803 -2.0681554788845764 0.35663570011812273
| 26> H 3.656194032599328 0.08829828205358835 -0.020859728602931723
| 27> H 2.3300633374828226 2.161796316472171 -0.3594143509101828
| 28> H -0.12260474665843872 2.083755148294967 -0.3404533165457248
| 29> *
| 30>
| 31>                          ****END OF INPUT****

CARTESIAN COORDINATES (ANGSTROEM)
---------------------------------
  C     -2.464129    1.140771    0.417925
  C     -1.725466   -0.097569   -0.010091
  C     -2.389015   -1.196920   -0.396810
  C     -0.244352   -0.046716   -0.003450
  C      0.521392   -1.206194    0.199990
  C      1.909898   -1.158666    0.189794
  C      2.571513    0.051130   -0.016458
  C      1.827126    1.212381   -0.203027
  C      0.435861    1.166429   -0.188774
  H     -2.310727    1.960983   -0.291807
  H     -3.536718    0.946657    0.478324
  H     -2.111069    1.494008    1.392695
  H     -1.877852   -2.084768   -0.755370
  H     -3.474657   -1.222569   -0.383881
  H      0.022256   -2.150723    0.390859
  H      2.478817   -2.068155    0.356636
  H      3.656194    0.088298   -0.020860
  H      2.330063    2.161796   -0.359414
  H     -0.122605    2.083755   -0.340453

 Total Charge           Charge          ....    0
 Multiplicity           Mult            ....    1
 Number of Electrons    NEL             ....   64
 Basis Dimension        Dim             ....  339

ORBITAL ENERGIES
----------------

  NO   OCC          E(Eh)            E(eV)
   0   2.0000     -12.062642      -328.2412
   1   2.0000     -12.061047      -328.1978
   2   2.0000     -12.050716      -327.9167
   3   2.0000     -12.050627      -327.9142
   4   2.0000     -12.049075      -327.8720
   5   2.0000     -12.048360      -327.8525
   6   2.0000     -12.047319      -327.8242
   7   2.0000     -12.033534      -327.4491
   8   2.0000     -12.032682      -327.4259
   9   2.0000      -1.387910       -37.7670
  10   2.0000      -1.327841       -36.1324
  11   2.0000      -1.272415       -34.6242
  12   2.0000      -1.258914       -34.2568
  13   2.0000      -1.184233       -32.2246
  14   2.0000      -1.118147       -30.4263
  15   2.0000      -1.101835       -29.9824
  16   2.0000      -1.022305       -27.8183
  17   2.0000      -0.957613       -26.0580
  18   2.0000      -0.952237       -25.9117
  19   2.0000      -0.920711       -25.0538
  20   2.0000      -0.893320       -24.3085
  21   2.0000      -0.877173       -23.8691
  22   2.0000      -0.871254       -23.7080
  23   2.0000      -0.829987       -22.5851
  24   2.0000      -0.826876       -22.5004
  25   2.0000      -0.806220       -21.9384
  26   2.0000      -0.800772       -21.7901
  27   2.0000      -0.791670       -21.5424
  28   2.0000      -0.773641       -21.0518
  29   2.0000      -0.679375       -18.4867
  30   2.0000      -0.639333       -17.3971
  31   2.0000      -0.613071       -16.6825
  32   0.0000      -0.262993        -7.1564
  33   0.0000      -0.235650        -6.4124
  34   0.0000      -0.175531        -4.7764
  35   0.0000      -0.063486        -1.7276
  36   0.0000      -0.042198        -1.1483

MULLIKEN ATOMIC CHARGES
-----------------------
   0 C :   -0.385866
   1 C :   -0.008906
   2 C :   -0.354598
   3 C :    0.150844
   4 C :   -0.231368
   5 C :   -0.166093
   6 C :   -0.159987
   7 C :   -0.177869
   8 C :   -0.218478
   9 H :    0.145208
  10 H :    0.139577
  11 H :    0.142755
  12 H :    0.157217
  13 H :    0.155951
  14 H :    0.164316
  15 H :    0.159735
  16 H :    0.161446
  17 H :    0.159598
  18 H :    0.166515
Sum of atomic charges:   -0.0000000

LOEWDIN ATOMIC CHARGES
----------------------
   0 C :   -0.252665
   1 C :   -0.193557
   2 C :   -0.188971
   3 C :   -0.118049
   4 C :   -0.106389
   5 C :   -0.148185
   6 C :   -0.149938
   7 C :   -0.148347
   8 C :   -0.108690
   9 H :    0.132546
  10 H :    0.130050
  11 H :    0.131487
  12 H :    0.127960
  13 H :    0.127659
  14 H :    0.155527
  15 H :    0.151547
  16 H :    0.150406
  17 H :    0.151477
  18 H :    0.156131

  Mayer bond orders larger than 0.100000
B(  0-C ,  1-C ) :   0.9767 B(  0-C ,  9-H ) :   0.9630 B(  0-C , 10-H ) :   0.9752
B(  0-C , 11-H ) :   0.9716 B(  1-C ,  2-C ) :   1.8753 B(  1-C ,  3-C ) :   0.9255
B(  2-C , 12-H ) :   0.9660 B(  2-C , 13-H ) :   0.9643 B(  3-C ,  4-C ) :   1.3536
B(  3-C ,  8-C ) :   1.3407 B(  4-C ,  5-C ) :   1.4523 B(  4-C , 14-H ) :   0.9664
B(  5-C ,  6-C ) :   1.3903 B(  5-C , 15-H ) :   0.9768 B(  6-C ,  7-C ) :   1.4070
B(  6-C , 16-H ) :   0.9745 B(  7-C ,  8-C ) :   1.4316 B(  7-C , 17-H ) :   0.9780
B(  8-C , 18-H ) :   0.9704

FINAL SINGLE POINT ENERGY      -348.974457971154

DIPOLE MOMENT
-------------

Method             : SCF
Type of density    : Electron Density
Multiplicity       :   1
Irrep              :   0
Energy             :  -348.9848223037537309 Eh
Relativity type    :
Basis              : AO
                                X                 Y                 Z
Electronic contribution:      4.673274524      -0.970978489      -0.356048360
Nuclear contribution   :     -4.666928492       1.166812514       0.410919293
                        -----------------------------------------
Total Dipole Moment    :      0.006346032       0.195834026       0.054870933
                        -----------------------------------------
Magnitude (a.u.)       :      0.203474954
Magnitude (Debye)      :      0.517192232

Rotational constants in cm-1:             0.119616             0.040181             0.031113
Rotational constants in MHz :          3585.995607          1204.591616           932.744715

                             ****ORCA TERMINATED NORMALLY****
TOTAL RUN TIME: 0 days 0 hours 3 minutes 7 seconds 588 msec
