                         Program Version 6.0.0  -   RELEASE  -
|  1> ! wb97x-v def2-tzvp def2/J RIJCOSX DEFGRID2 scfconv7 GCP(DFT/TZ) printgap
|  2> %output
|  3>     printlevel normal
|  4> end
|  5> * xyz 0 1
|  6> C -2.584197933953319 -0.6545758853556077 -0.3245331297800731
|  7> C -1.2128034873613784 -0.2896397455737745 0.20443690607594422
|  8> H -1.2331430542326562 -0.2639654596691355 1.3074442505801127
|  9> C -0.7180128234689318 1.057192285921743 -0.3300324063414067
| 10> H -0.7514229691056461 1.045350312182782 -1.4263451083775693
| 11> C 0.7197405315784225 1.3091430922579839 0.12835086460898526
| 12> H 0.71383930723343 1.4284707857158168 1.2257900284527574
| 13> C 1.6179374109669056 0.1371394201639318 -0.22203684689779865
| 14> H 1.704763590471567 0.050836885738236505 -1.3161356901103731
| 15> C 1.00039887014799 -1.1537515131143568 0.31234860661502895
| 16> H 0.933316612397366 -1.1256405264933773 1.4124461523502367
| 17> O -0.3110843931920435 -1.321784941078041 -0.23648724059204582
| 18> O 1.7921839471553835 -2.2267912097914304 -0.12258363107810544
| 19> O 2.897759700646629 0.3683001243915024 0.3714075820419846
| 20> O 1.2577770621287168 2.4826347185602677 -0.48753030693216187
| 21> O -1.562557076186946 2.1381899639263 0.07787654428976894
| 22> O -3.0794075483850025 -1.867136191164819 0.2563242551988466
| 23> H -2.5415641028344096 -0.7356079714736219 -1.4203522871746628
| 24> H -3.2941010882012374 0.13251901545515707 -0.06007673013355583
| 25> H 1.6150985179104047 -2.9864921992314044 0.4485575897059039
| 26> H 3.490648426888607 -0.32590857534277345 0.05353149174441972
| 27> H 0.6705206090651928 3.215156281787521 -0.2543445757751822
| 28> H -1.5674699228905924 2.1585384075588365 1.0464180066422537
| 29> H -2.471769877406195 -2.574123220831232 0.0017844118523222755
| 30> *
| 31>
| 32>                          ****END OF INPUT****

CARTESIAN COORDINATES (ANGSTROEM)
---------------------------------
  C     -2.584198   -0.654576   -0.324533
  C     -1.212803   -0.289640    0.204437
  H     -1.233143   -0.263965    1.307444
  C     -0.718013    1.057192   -0.330032
  H     -0.751423    1.045350   -1.426345
  C      0.719741    1.309143    0.128351
  H      0.713839    1.428471    1.225790
  C      1.617937    0.137139   -0.222037
  H      1.704764    0.050837   -1.316136
  C      1.000399   -1.153752    0.312349
  H      0.933317   -1.125641    1.412446
  O     -0.311084   -1.321785   -0.236487
  O      1.792184   -2.226791   -0.122584
  O      2.897760    0.368300    0.371408
  O      1.257777    2.482635   -0.487530
  O     -1.562557    2.138190    0.077877
  O     -3.079408   -1.867136    0.256324
  H     -2.541564   -0.735608   -1.420352
  H     -3.294101    0.132519   -0.060077
  H      1.615099   -2.986492    0.448558
  H      3.490648   -0.325909    0.053531
  H      0.670521    3.215156   -0.254345
  H     -1.567470    2.158538    1.046418
  H     -2.471770   -2.574123    0.001784

 Total Charge           Charge          ....    0
 Multiplicity           Mult            ....    1
 Number of Electrons    NEL             ....   96
 Basis Dimension        Dim             ....  444

ORBITAL ENERGIES
----------------

  NO   OCC          E(Eh)            E(eV)
   0   2.0000     -21.705194      -590.6284
   1   2.0000     -21.700301      -590.4952
   2   2.0000     -21.699857      -590.4831
   3   2.0000     -21.679312      -589.9241
   4   2.0000     -21.677685      -589.8798
   5   2.0000     -21.676111      -589.8370
   6   2.0000     -12.165665      -331.0446
   7   2.0000     -12.118022      -329.7481
   8   2.0000     -12.116095      -329.6957
   9   2.0000     -12.113869      -329.6351
  10   2.0000     -12.110712      -329.5492
  11   2.0000     -12.100885      -329.2818
  12   2.0000      -1.734073       -47.1865
  13   2.0000      -1.703121       -46.3443
  14   2.0000      -1.692396       -46.0524
  15   2.0000      -1.684743       -45.8442
  16   2.0000      -1.676674       -45.6246
  17   2.0000      -1.675482       -45.5922
  18   2.0000      -1.342953       -36.5436
  19   2.0000      -1.330494       -36.2046
  20   2.0000      -1.240428       -33.7538
  21   2.0000      -1.210702       -32.9449
  22   2.0000      -1.167263       -31.7628
  23   2.0000      -1.129557       -30.7368
  24   2.0000      -1.103867       -30.0377
  25   2.0000      -1.073688       -29.2165
  26   2.0000      -1.056451       -28.7475
  27   2.0000      -1.053835       -28.6763
  28   2.0000      -1.035867       -28.1874
  29   2.0000      -1.012020       -27.5385
  30   2.0000      -1.003519       -27.3071
  31   2.0000      -0.990068       -26.9411
  32   2.0000      -0.982029       -26.7224
  33   2.0000      -0.973372       -26.4868
  34   2.0000      -0.960378       -26.1332
  35   2.0000      -0.950898       -25.8753
  36   2.0000      -0.949157       -25.8279
  37   2.0000      -0.941090       -25.6084
  38   2.0000      -0.927417       -25.2363
  39   2.0000      -0.915746       -24.9187
  40   2.0000      -0.903860       -24.5953
  41   2.0000      -0.884525       -24.0692
  42   2.0000      -0.855925       -23.2909
  43   2.0000      -0.839458       -22.8428
  44   2.0000      -0.831264       -22.6199
  45   2.0000      -0.810614       -22.0579
  46   2.0000      -0.800177       -21.7739
  47   2.0000      -0.778907       -21.1951
  48   0.0000      -0.247254        -6.7281
  49   0.0000      -0.202659        -5.5146
  50   0.0000      -0.182995        -4.9795
  51   0.0000      -0.163502        -4.4491
  52   0.0000      -0.126164        -3.4331

MULLIKEN ATOMIC CHARGES
-----------------------
   0 C :    0.010666
   1 C :   -0.004613
   2 H :    0.075078
   3 C :    0.005031
   4 H :    0.098461
   5 C :    0.077054
   6 H :    0.072113
   7 C :    0.099758
   8 H :    0.089724
   9 C :    0.066522
  10 H :    0.070807
  11 O :   -0.278480
  12 O :   -0.411106
  13 O :   -0.423531
  14 O :   -0.413561
  15 O :   -0.435591
  16 O :   -0.451256
  17 H :    0.097449
  18 H :    0.109605
  19 H :    0.317366
  20 H :    0.310390
  21 H :    0.307109
  22 H :    0.303216
  23 H :    0.307790
Sum of atomic charges:   -0.0000000

LOEWDIN ATOMIC CHARGES
----------------------
   0 C :   -0.307107
   1 C :   -0.313474
   2 H :    0.138168
   3 C :   -0.305807
   4 H :    0.154451
   5 C :   -0.314571
   6 H :    0.139642
   7 C :   -0.305501
   8 H :    0.148504
   9 C :   -0.412089
  10 H :    0.122885
  11 O :    0.180941
  12 O :    0.014606
  13 O :   -0.003018
  14 O :   -0.003349
  15 O :   -0.010933
  16 O :   -0.051070
  17 H :    0.123689
  18 H :    0.134139
  19 H :    0.179382
  20 H :    0.175023
  21 H :    0.172616
  22 H :    0.172969
  23 H :    0.169904

  Mayer bond orders larger than 0.100000
B(  0-C ,  1-C ) :   0.9799 B(  0-C , 16-O ) :   1.0169 B(  0-C , 17-H ) :   0.9725
B(  0-C , 18-H ) :   0.9612 B(  1-C ,  2-H ) :   0.9549 B(  1-C ,  3-C ) :   0.9534
B(  1-C , 11-O ) :   0.9688 B(  3-C ,  4-H ) :   0.9287 B(  3-C ,  5-C ) :   0.9979
B(  3-C , 15-O ) :   0.9958 B(  5-C ,  6-H ) :   0.9580 B(  5-C ,  7-C ) :   0.9288
B(  5-C , 14-O ) :   1.1008 B(  7-C ,  8-H ) :   0.9684 B(  7-C ,  9-C ) :   0.9342
B(  7-C , 13-O ) :   1.1520 B(  9-C , 10-H ) :   0.9818 B(  9-C , 11-O ) :   1.0165
B(  9-C , 12-O ) :   1.2030 B( 12-O , 19-H ) :   0.8921 B( 13-O , 20-H ) :   0.8902
B( 14-O , 21-H ) :   0.8882 B( 15-O , 22-H ) :   0.8900 B( 16-O , 23-H ) :   0.8944

FINAL SINGLE POINT ENERGY      -687.245377884075

DIPOLE MOMENT
-------------

Method             : SCF
Type of density    : Electron Density
Multiplicity       :   1
Irrep              :   0
Energy             :  -687.2641252920749366 Eh
Relativity type    :
Basis              : AO
                                X                 Y                 Z
Electronic contribution:      2.501736205      -0.627386187      -0.484872946
Nuclear contribution   :     -2.486270433       0.133523419       1.206153303
                        -----------------------------------------
Total Dipole Moment    :      0.015465772      -0.493862768       0.721280357
                        -----------------------------------------
Magnitude (a.u.)       :      0.874291129
Magnitude (Debye)      :      2.222271442

Rotational constants in cm-1:             0.038831             0.025909             0.016284
Rotational constants in MHz :          1164.111539           776.737751           488.190996

                             ****ORCA TERMINATED NORMALLY****
TOTAL RUN TIME: 0 days 0 hours 4 minutes 49 seconds 573 msec
