                         Program Version 6.0.0  -   RELEASE  -
|  1> ! wb97x-v def2-tzvp def2/J RIJCOSX DEFGRID2 scfconv7 GCP(DFT/TZ) printgap
|  2> %output
|  3>     printlevel normal
|  4> end
|  5> %cpcm
|  6>     smd true
|  7>     smdsolvent "water"
|  8> end
|  9> * xyz 0 1
| 10> C -2.584197933953319 -0.6545758853556077 -0.3245331297800731
| 11> C -1.2128034873613784 -0.2896397455737745 0.20443690607594422
| 12> H -1.2331430542326562 -0.2639654596691355 1.3074442505801127
| 13> C -0.7180128234689318 1.057192285921743 -0.3300324063414067
| 14> H -0.7514229691056461 1.045350312182782 -1.4263451083775693
| 15> C 0.7197405315784225 1.3091430922579839 0.12835086460898526
| 16> H 0.71383930723343 1.4284707857158168 1.2257900284527574
| 17> C 1.6179374109669056 0.1371394201639318 -0.22203684689779865
| 18> H 1.704763590471567 0.050836885738236505 -1.3161356901103731
| 19> C 1.00039887014799 -1.1537515131143568 0.31234860661502895
| 20> H 0.933316612397366 -1.1256405264933773 1.4124461523502367
| 21> O -0.3110843931920435 -1.321784941078041 -0.23648724059204582
| 22> O 1.7921839471553835 -2.2267912097914304 -0.12258363107810544
| 23> O 2.897759700646629 0.3683001243915024 0.3714075820419846
| 24> O 1.2577770621287168 2.4826347185602677 -0.48753030693216187
| 25> O -1.562557076186946 2.1381899639263 0.07787654428976894
| 26> O -3.0794075483850025 -1.867136191164819 0.2563242551988466
| 27> H -2.5415641028344096 -0.7356079714736219 -1.4203522871746628
| 28> H -3.2941010882012374 0.13251901545515707 -0.06007673013355583
| 29> H 1.6150985179104047 -2.9864921992314044 0.4485575897059039
| 30> H 3.490648426888607 -0.32590857534277345 0.05353149174441972
| 31> H 0.6705206090651928 3.215156281787521 -0.2543445757751822
| 32> H -1.5674699228905924 2.1585384075588365 1.0464180066422537
| 33> H -2.471769877406195 -2.574123220831232 0.0017844118523222755
| 34> *
| 35>
| 36>                          ****END OF INPUT****

CARTESIAN COORDINATES (ANGSTROEM)
---------------------------------
  C     -2.584198   -0.654576   -0.324533
  C     -1.212803   -0.289640    0.204437
  H     -1.233143   -0.263965    1.307444
  C     -0.718013    1.057192   -0.330032
  H     -0.751423    1.045350   -1.426345
  C      0.719741    1.309143    0.128351
  H      0.713839    1.428471    1.225790
  C      1.617937    0.137139   -0.222037
  H      1.704764    0.050837   -1.316136
  C      1.000399   -1.153752    0.312349
  H      0.933317   -1.125641    1.412446
  O     -0.311084   -1.321785   -0.236487
  O      1.792184   -2.226791   -0.122584
  O      2.897760    0.368300    0.371408
  O      1.257777    2.482635   -0.487530
  O     -1.562557    2.138190    0.077877
  O     -3.079408   -1.867136    0.256324
  H     -2.541564   -0.735608   -1.420352
  H     -3.294101    0.132519   -0.060077
  H      1.615099   -2.986492    0.448558
  H      3.490648   -0.325909    0.053531
  H      0.670521    3.215156   -0.254345
  H     -1.567470    2.158538    1.046418
  H     -2.471770   -2.574123    0.001784

 Total Charge           Charge          ....    0
 Multiplicity           Mult            ....    1
 Number of Electrons    NEL             ....   96
 Basis Dimension        Dim             ....  444

ORBITAL ENERGIES
----------------

  NO   OCC          E(Eh)            E(eV)
   0   2.0000     -21.692488      -590.2826
   1   2.0000     -21.691853      -590.2653
   2   2.0000     -21.684742      -590.0718
   3   2.0000     -21.682705      -590.0164
   4   2.0000     -21.680075      -589.9448
   5   2.0000     -21.677351      -589.8707
   6   2.0000     -12.151879      -330.6694
   7   2.0000     -12.104073      -329.3686
   8   2.0000     -12.103684      -329.3580
   9   2.0000     -12.102803      -329.3340
  10   2.0000     -12.101967      -329.3113
  11   2.0000     -12.091047      -329.0141
  12   2.0000      -1.723616       -46.9020
  13   2.0000      -1.690870       -46.0109
  14   2.0000      -1.686966       -45.9047
  15   2.0000      -1.682104       -45.7724
  16   2.0000      -1.678434       -45.6725
  17   2.0000      -1.675787       -45.6005
  18   2.0000      -1.332447       -36.2577
  19   2.0000      -1.320099       -35.9217
  20   2.0000      -1.231297       -33.5053
  21   2.0000      -1.201526       -32.6952
  22   2.0000      -1.161775       -31.6135
  23   2.0000      -1.121646       -30.5215
  24   2.0000      -1.092862       -29.7383
  25   2.0000      -1.068244       -29.0684
  26   2.0000      -1.053069       -28.6555
  27   2.0000      -1.045122       -28.4392
  28   2.0000      -1.033101       -28.1121
  29   2.0000      -1.003228       -27.2992
  30   2.0000      -0.998844       -27.1799
  31   2.0000      -0.983064       -26.7505
  32   2.0000      -0.977281       -26.5932
  33   2.0000      -0.974357       -26.5136
  34   2.0000      -0.955895       -26.0112
  35   2.0000      -0.948710       -25.8157
  36   2.0000      -0.947398       -25.7800
  37   2.0000      -0.936001       -25.4699
  38   2.0000      -0.923367       -25.1261
  39   2.0000      -0.909318       -24.7438
  40   2.0000      -0.901232       -24.5238
  41   2.0000      -0.879356       -23.9285
  42   2.0000      -0.848799       -23.0970
  43   2.0000      -0.830617       -22.6022
  44   2.0000      -0.821719       -22.3601
  45   2.0000      -0.801530       -21.8107
  46   2.0000      -0.790187       -21.5021
  47   2.0000      -0.766855       -20.8672
  48   0.0000      -0.236301        -6.4301
  49   0.0000      -0.191485        -5.2106
  50   0.0000      -0.174164        -4.7393
  51   0.0000      -0.153258        -4.1704
  52   0.0000      -0.114050        -3.1035

MULLIKEN ATOMIC CHARGES
-----------------------
   0 C :   -0.010975
   1 C :    0.013995
   2 H :    0.114221
   3 C :    0.041275
   4 H :    0.117739
   5 C :    0.093952
   6 H :    0.114611
   7 C :    0.106934
   8 H :    0.104104
   9 C :    0.080338
  10 H :    0.106363
  11 O :   -0.331511
  12 O :   -0.489991
  13 O :   -0.523726
  14 O :   -0.525314
  15 O :   -0.530743
  16 O :   -0.549605
  17 H :    0.120090
  18 H :    0.126792
  19 H :    0.378010
  20 H :    0.362216
  21 H :    0.359129
  22 H :    0.364141
  23 H :    0.357956
Sum of atomic charges:   -0.0000000

LOEWDIN ATOMIC CHARGES
----------------------
   0 C :   -0.307383
   1 C :   -0.301426
   2 H :    0.153426
   3 C :   -0.298931
   4 H :    0.158061
   5 C :   -0.308298
   6 H :    0.154350
   7 C :   -0.307817
   8 H :    0.151960
   9 C :   -0.403786
  10 H :    0.138102
  11 O :    0.161367
  12 O :   -0.010818
  13 O :   -0.041050
  14 O :   -0.046662
  15 O :   -0.038697
  16 O :   -0.088774
  17 H :    0.129598
  18 H :    0.136776
  19 H :    0.201735
  20 H :    0.192499
  21 H :    0.190384
  22 H :    0.198698
  23 H :    0.186686

  Mayer bond orders larger than 0.100000
B(  0-C ,  1-C ) :   0.9634 B(  0-C , 16-O ) :   0.9792 B(  0-C , 17-H ) :   0.9711
B(  0-C , 18-H ) :   0.9664 B(  1-C ,  2-H ) :   0.9540 B(  1-C ,  3-C ) :   0.9737
B(  1-C , 11-O ) :   0.9453 B(  3-C ,  4-H ) :   0.9316 B(  3-C ,  5-C ) :   0.9982
B(  3-C , 15-O ) :   0.9805 B(  5-C ,  6-H ) :   0.9553 B(  5-C ,  7-C ) :   0.9515
B(  5-C , 14-O ) :   1.0360 B(  7-C ,  8-H ) :   0.9573 B(  7-C ,  9-C ) :   0.9629
B(  7-C , 13-O ) :   1.0877 B(  9-C , 10-H ) :   0.9789 B(  9-C , 11-O ) :   1.0090
B(  9-C , 12-O ) :   1.1916 B( 12-O , 19-H ) :   0.8531 B( 13-O , 20-H ) :   0.8586
B( 14-O , 21-H ) :   0.8591 B( 15-O , 22-H ) :   0.8574 B( 16-O , 23-H ) :   0.8638

FINAL SINGLE POINT ENERGY      -687.288240692304

DIPOLE MOMENT
-------------

Method             : SCF
Type of density    : Electron Density
Multiplicity       :   1
Irrep              :   0
Energy             :  -687.3069881003042383 Eh
Relativity type    :
Basis              : AO
                                X                 Y                 Z
Electronic contribution:      2.373750855      -0.772823061      -0.035647946
Nuclear contribution   :     -2.486270433       0.133523419       1.206153303
                        -----------------------------------------
Total Dipole Moment    :     -0.112519578      -0.639299641       1.170505357
                        -----------------------------------------
Magnitude (a.u.)       :      1.338449655
Magnitude (Debye)      :      3.402068656

Rotational constants in cm-1:             0.038831             0.025909             0.016284
Rotational constants in MHz :          1164.111539           776.737751           488.190996

                             ****ORCA TERMINATED NORMALLY****
TOTAL RUN TIME: 0 days 0 hours 5 minutes 23 seconds 633 msec
