                         Program Version 6.0.0  -   RELEASE  -
|  1> ! pbe def2-sv(p) def2/J RI DEFGRID1 loosescf d4 GCP(DFT/SV(P)) printgap
|  2> %output
|  3>     printlevel normal
|  4> end
|  5> * xyz 0 1
|  6> C -1.8156162867 -1.0563646993 -0.6657786294
|  7> C -1.0383230126 -0.4894087919 0.5328098751
|  8> H -1.6944178499 -0.563163426 1.4082207467
|  9> C -0.702273021 1.0022218443 0.3453586401
| 10> H -1.5385083785 1.4576573635 -0.196019481
| 11> C 0.5986955684 1.2362574631 -0.4569499925
| 12> H 0.8781908434 2.2863591347 -0.3005987296
| 13> C 1.7219762298 0.3479100714 0.0997680677
| 14> H 2.5849038494 0.4164159401 -0.5778543579
| 15> C 1.2572482549 -1.1223987113 0.1277500688
| 16> H 1.9957663547 -1.7244098892 0.6794195992
| 17> O 0.0828764862 -1.3018255477 0.8719904167
| 18> O 1.1465257687 -1.5610233283 -1.1948268875
| 19> O 2.0415497448 0.803682951 1.3888037105
| 20> O 0.4409843991 1.0705224482 -1.8419125042
| 21> O -0.6388685456 1.6720112322 1.5818880022
| 22> O -3.0948487209 -0.4650011675 -0.6610611846
| 23> H -1.8904407781 -2.1442899842 -0.5341563567
| 24> H -1.292094192 -0.8352574379 -1.6013979596
| 25> H 1.0160422013 -2.5209068628 -1.2251559339
| 26> H 2.8243667577 0.3456365665 1.7276927331
| 27> H 0.6033532837 0.1394249093 -2.0687474846
| 28> H 0.190601593 1.4242238303 2.0244805629
| 29> H -3.5907022345 -0.7734461615 -1.4326457325
| 30> *
| 31>
| 32>                          ****END OF INPUT****

CARTESIAN COORDINATES (ANGSTROEM)
---------------------------------
  C     -1.815616   -1.056365   -0.665779
  C     -1.038323   -0.489409    0.532810
  H     -1.694418   -0.563163    1.408221
  C     -0.702273    1.002222    0.345359
  H     -1.538508    1.457657   -0.196019
  C      0.598696    1.236257   -0.456950
  H      0.878191    2.286359   -0.300599
  C      1.721976    0.347910    0.099768
  H      2.584904    0.416416   -0.577854
  C      1.257248   -1.122399    0.127750
  H      1.995766   -1.724410    0.679420
  O      0.082876   -1.301826    0.871990
  O      1.146526   -1.561023   -1.194827
  O      2.041550    0.803683    1.388804
  O      0.440984    1.070522   -1.841913
  O     -0.638869    1.672011    1.581888
  O     -3.094849   -0.465001   -0.661061
  H     -1.890441   -2.144290   -0.534156
  H     -1.292094   -0.835257   -1.601398
  H      1.016042   -2.520907   -1.225156
  H      2.824367    0.345637    1.727693
  H      0.603353    0.139425   -2.068747
  H      0.190602    1.424224    2.024481
  H     -3.590702   -0.773446   -1.432646

 Total Charge           Charge          ....    0
 Multiplicity           Mult            ....    1
 Number of Electrons    NEL             ....   96
 Basis Dimension        Dim             ....  192

ORBITAL ENERGIES
----------------

  NO   OCC          E(Eh)            E(eV)
   0   2.0000     -18.793842      -511.4064
   1   2.0000     -18.780462      -511.0423
   2   2.0000     -18.771086      -510.7872
   3   2.0000     -18.747891      -510.1560
   4   2.0000     -18.741811      -509.9906
   5   2.0000     -18.723882      -509.5027
   6   2.0000     -10.001173      -272.1458
   7   2.0000      -9.954792      -270.8837
   8   2.0000      -9.936375      -270.3825
   9   2.0000      -9.933906      -270.3153
  10   2.0000      -9.928815      -270.1768
  11   2.0000      -9.922880      -270.0153
  12   2.0000      -0.995743       -27.0955
  13   2.0000      -0.955132       -25.9905
  14   2.0000      -0.930721       -25.3262
  15   2.0000      -0.922104       -25.0917
  16   2.0000      -0.919987       -25.0341
  17   2.0000      -0.900467       -24.5029
  18   2.0000      -0.699270       -19.0281
  19   2.0000      -0.690958       -18.8019
  20   2.0000      -0.619311       -16.8523
  21   2.0000      -0.590276       -16.0622
  22   2.0000      -0.568950       -15.4819
  23   2.0000      -0.532704       -14.4956
  24   2.0000      -0.506248       -13.7757
  25   2.0000      -0.482095       -13.1185
  26   2.0000      -0.475762       -12.9461
  27   2.0000      -0.464030       -12.6269
  28   2.0000      -0.438788       -11.9400
  29   2.0000      -0.430735       -11.7209
  30   2.0000      -0.416379       -11.3303
  31   2.0000      -0.397289       -10.8108
  32   2.0000      -0.383284       -10.4297
  33   2.0000      -0.377615       -10.2754
  34   2.0000      -0.370003       -10.0683
  35   2.0000      -0.343690        -9.3523
  36   2.0000      -0.337728        -9.1901
  37   2.0000      -0.319531        -8.6949
  38   2.0000      -0.299833        -8.1589
  39   2.0000      -0.291416        -7.9298
  40   2.0000      -0.286120        -7.7857
  41   2.0000      -0.269952        -7.3458
  42   2.0000      -0.252935        -6.8827
  43   2.0000      -0.242993        -6.6122
  44   2.0000      -0.238028        -6.4771
  45   2.0000      -0.218202        -5.9376
  46   2.0000      -0.215819        -5.8727
  47   2.0000      -0.188200        -5.1212
  48   0.0000      -0.000799        -0.0217
  49   0.0000       0.004291         0.1168
  50   0.0000       0.026032         0.7084
  51   0.0000       0.061313         1.6684
  52   0.0000       0.075230         2.0471

MULLIKEN ATOMIC CHARGES
-----------------------
   0 C :    0.017358
   1 C :    0.045077
   2 H :    0.084600
   3 C :    0.077343
   4 H :    0.087299
   5 C :    0.043407
   6 H :    0.084652
   7 C :   -0.005605
   8 H :    0.082843
   9 C :    0.185488
  10 H :    0.054373
  11 O :   -0.307374
  12 O :   -0.408334
  13 O :   -0.414828
  14 O :   -0.421033
  15 O :   -0.434620
  16 O :   -0.429489
  17 H :    0.060401
  18 H :    0.053309
  19 H :    0.316871
  20 H :    0.310523
  21 H :    0.314330
  22 H :    0.299885
  23 H :    0.303521
Sum of atomic charges:   -0.0000000

LOEWDIN ATOMIC CHARGES
----------------------
   0 C :   -0.143603
   1 C :   -0.064834
   2 H :    0.125494
   3 C :   -0.071093
   4 H :    0.125199
   5 C :   -0.066354
   6 H :    0.119360
   7 C :   -0.089149
   8 H :    0.109692
   9 C :   -0.012624
  10 H :    0.093440
  11 O :   -0.140171
  12 O :   -0.305892
  13 O :   -0.301331
  14 O :   -0.317650
  15 O :   -0.323524
  16 O :   -0.336953
  17 H :    0.090972
  18 H :    0.090207
  19 H :    0.295310
  20 H :    0.292940
  21 H :    0.270558
  22 H :    0.271125
  23 H :    0.288882

  Mayer bond orders larger than 0.100000
B(  0-C ,  1-C ) :   1.0522 B(  0-C , 16-O ) :   1.0784 B(  0-C , 17-H ) :   0.9073
B(  0-C , 18-H ) :   0.8977 B(  1-C ,  2-H ) :   0.8891 B(  1-C ,  3-C ) :   0.9982
B(  1-C , 11-O ) :   0.9763 B(  3-C ,  4-H ) :   0.8825 B(  3-C ,  5-C ) :   0.9660
B(  3-C , 15-O ) :   1.0453 B(  5-C ,  6-H ) :   0.8997 B(  5-C ,  7-C ) :   1.0078
B(  5-C , 14-O ) :   1.0825 B(  7-C ,  8-H ) :   0.8964 B(  7-C ,  9-C ) :   0.9693
B(  7-C , 13-O ) :   1.0303 B(  9-C , 10-H ) :   0.9053 B(  9-C , 11-O ) :   1.0987
B(  9-C , 12-O ) :   1.0813 B( 12-O , 19-H ) :   0.8289 B( 13-O , 20-H ) :   0.8391
B( 14-O , 21-H ) :   0.8015 B( 15-O , 22-H ) :   0.8221 B( 16-O , 23-H ) :   0.8493

Dispersion correction           -0.025832803
FINAL SINGLE POINT ENERGY      -685.694813480397

DIPOLE MOMENT
-------------

Method             : SCF
Type of density    : Electron Density
Multiplicity       :   1
Irrep              :   0
Energy             :  -685.8272748606012783 Eh
Relativity type    :
Basis              : AO
                                X                 Y                 Z
Electronic contribution:      1.044163048       0.553366235       1.518247002
Nuclear contribution   :      0.081355779      -2.334456047      -1.964973476
                        -----------------------------------------
Total Dipole Moment    :      1.125518826      -1.781089812      -0.446726474
                        -----------------------------------------
Magnitude (a.u.)       :      2.153749774
Magnitude (Debye)      :      5.474396868

Rotational constants in cm-1:             0.040676             0.028527             0.024600
Rotational constants in MHz :          1219.449227           855.205575           737.483030

                             ****ORCA TERMINATED NORMALLY****
TOTAL RUN TIME: 0 days 0 hours 0 minutes 12 seconds 585 msec
