                         Program Version 6.0.0  -   RELEASE  -
|  1> ! wb97x-v def2-tzvp def2/J RIJCOSX DEFGRID2 scfconv7 GCP(DFT/TZ) printgap
|  2> %output
|  3>     printlevel normal
|  4> end
|  5> * xyz 0 1
|  6> C -2.431101164668935 -1.0585816839293374 -0.7204273362790695
|  7> C -1.7299743493109716 0.019527819744953576 0.05916300988209787
|  8> C -2.424977951804358 0.9111301335699737 0.7810176370293543
|  9> C -0.24834914861583385 0.042895421462351466 0.014294892890839087
| 10> C 0.48408825988880305 -1.1322373498031308 -0.2136483819207377
| 11> C 1.875998307659315 -1.1155991766225528 -0.2375256971876515
| 12> C 2.5688602948673283 0.0772435372623034 -0.05117365946642732
| 13> C 1.8545602187897308 1.2569449054408692 0.1553210541255705
| 14> C 0.46557357305662866 1.2404752116427693 0.18462757159625567
| 15> H -2.0748814627569647 -1.094324529442126 -1.7551232579233274
| 16> H -2.246775647830266 -2.047704374935809 -0.28703434150850704
| 17> H -3.5095291939886306 -0.8915350619355914 -0.7237249737539128
| 18> H -1.9375389848706832 1.6657674917427967 1.3902003232103155
| 19> H -3.5106405906425406 0.8899967483922595 0.7923294620308482
| 20> H -0.033473891207925544 -2.0743536914652236 -0.35876499435072756
| 21> H 2.419853237877162 -2.0403553579299105 -0.40479326812885874
| 22> H 3.6538994786476597 0.09121216102041269 -0.07696127064958948
| 23> H 2.382602905692309 2.197266889072457 0.28164842551568864
| 24> H -0.0751807189350574 2.1718651081617177 0.3182480742141653
| 25> *
| 26>
| 27>                          ****END OF INPUT****

CARTESIAN COORDINATES (ANGSTROEM)
---------------------------------
  C     -2.431101   -1.058582   -0.720427
  C     -1.729974    0.019528    0.059163
  C     -2.424978    0.911130    0.781018
  C     -0.248349    0.042895    0.014295
  C      0.484088   -1.132237   -0.213648
  C      1.875998   -1.115599   -0.237526
  C      2.568860    0.077244   -0.051174
  C      1.854560    1.256945    0.155321
  C      0.465574    1.240475    0.184628
  H     -2.074881   -1.094325   -1.755123
  H     -2.246776   -2.047704   -0.287034
  H     -3.509529   -0.891535   -0.723725
  H     -1.937539    1.665767    1.390200
  H     -3.510641    0.889997    0.792329
  H     -0.033474   -2.074354   -0.358765
  H      2.419853   -2.040355   -0.404793
  H      3.653899    0.091212   -0.076961
  H      2.382603    2.197267    0.281648
  H     -0.075181    2.171865    0.318248

 Total Charge           Charge          ....    0
 Multiplicity           Mult            ....    1
 Number of Electrons    NEL             ....   64
 Basis Dimension        Dim             ....  339

ORBITAL ENERGIES
----------------

  NO   OCC          E(Eh)            E(eV)
   0   2.0000     -12.064422      -328.2896
   1   2.0000     -12.062006      -328.2239
   2   2.0000     -12.053494      -327.9922
   3   2.0000     -12.053142      -327.9827
   4   2.0000     -12.051544      -327.9392
   5   2.0000     -12.050774      -327.9182
   6   2.0000     -12.049842      -327.8929
   7   2.0000     -12.043751      -327.7271
   8   2.0000     -12.037511      -327.5573
   9   2.0000      -1.388164       -37.7739
  10   2.0000      -1.330042       -36.1923
  11   2.0000      -1.273676       -34.6585
  12   2.0000      -1.260631       -34.3035
  13   2.0000      -1.191023       -32.4094
  14   2.0000      -1.120334       -30.4858
  15   2.0000      -1.103999       -30.0413
  16   2.0000      -1.025649       -27.9093
  17   2.0000      -0.961763       -26.1709
  18   2.0000      -0.953871       -25.9561
  19   2.0000      -0.925086       -25.1729
  20   2.0000      -0.897633       -24.4258
  21   2.0000      -0.882226       -24.0066
  22   2.0000      -0.875021       -23.8105
  23   2.0000      -0.837703       -22.7950
  24   2.0000      -0.832662       -22.6579
  25   2.0000      -0.813941       -22.1485
  26   2.0000      -0.805884       -21.9292
  27   2.0000      -0.796767       -21.6811
  28   2.0000      -0.773106       -21.0373
  29   2.0000      -0.680336       -18.5129
  30   2.0000      -0.639038       -17.3891
  31   2.0000      -0.613006       -16.6807
  32   0.0000      -0.263323        -7.1654
  33   0.0000      -0.235822        -6.4170
  34   0.0000      -0.176513        -4.8032
  35   0.0000      -0.064420        -1.7530
  36   0.0000      -0.049622        -1.3503

MULLIKEN ATOMIC CHARGES
-----------------------
   0 C :   -0.354270
   1 C :    0.014206
   2 C :   -0.273776
   3 C :    0.176986
   4 C :   -0.185394
   5 C :   -0.135454
   6 C :   -0.116200
   7 C :   -0.121187
   8 C :   -0.197454
   9 H :    0.130964
  10 H :    0.120261
  11 H :    0.115616
  12 H :    0.118093
  13 H :    0.113213
  14 H :    0.118998
  15 H :    0.116079
  16 H :    0.117547
  17 H :    0.116324
  18 H :    0.125448
Sum of atomic charges:   -0.0000000

LOEWDIN ATOMIC CHARGES
----------------------
   0 C :   -0.250601
   1 C :   -0.184355
   2 C :   -0.174930
   3 C :   -0.106051
   4 C :   -0.103265
   5 C :   -0.139689
   6 C :   -0.141042
   7 C :   -0.139022
   8 C :   -0.097621
   9 H :    0.128021
  10 H :    0.125333
  11 H :    0.125339
  12 H :    0.121249
  13 H :    0.120233
  14 H :    0.145503
  15 H :    0.141719
  16 H :    0.140791
  17 H :    0.141906
  18 H :    0.146483

  Mayer bond orders larger than 0.100000
B(  0-C ,  1-C ) :   0.9704 B(  0-C ,  9-H ) :   0.9786 B(  0-C , 10-H ) :   0.9679
B(  0-C , 11-H ) :   0.9797 B(  1-C ,  2-C ) :   1.8907 B(  1-C ,  3-C ) :   0.9261
B(  2-C , 12-H ) :   0.9674 B(  2-C , 13-H ) :   0.9657 B(  3-C ,  4-C ) :   1.3567
B(  3-C ,  8-C ) :   1.3804 B(  4-C ,  5-C ) :   1.4533 B(  4-C , 14-H ) :   0.9674
B(  5-C ,  6-C ) :   1.4302 B(  5-C , 15-H ) :   0.9739 B(  6-C ,  7-C ) :   1.4110
B(  6-C , 16-H ) :   0.9730 B(  7-C ,  8-C ) :   1.4693 B(  7-C , 17-H ) :   0.9737
B(  8-C , 18-H ) :   0.9582

FINAL SINGLE POINT ENERGY      -348.972964942589

DIPOLE MOMENT
-------------

Method             : SCF
Type of density    : Electron Density
Multiplicity       :   1
Irrep              :   0
Energy             :  -348.9833315258886159 Eh
Relativity type    :
Basis              : AO
                                X                 Y                 Z
Electronic contribution:      4.633270966       1.098035645       0.598563314
Nuclear contribution   :     -4.627532171      -1.202129632      -0.680066441
                        -----------------------------------------
Total Dipole Moment    :      0.005738795      -0.104093986      -0.081503127
                        -----------------------------------------
Magnitude (a.u.)       :      0.132330085
Magnitude (Debye)      :      0.336356346

Rotational constants in cm-1:             0.119604             0.040199             0.031081
Rotational constants in MHz :          3585.629893          1205.144469           931.783252

                             ****ORCA TERMINATED NORMALLY****
TOTAL RUN TIME: 0 days 0 hours 3 minutes 16 seconds 0 msec
