                         Program Version 6.0.0  -   RELEASE  -
|  1> ! wb97x-v def2-tzvp def2/J RIJCOSX DEFGRID2 scfconv7 GCP(DFT/TZ) printgap
|  2> %output
|  3>     printlevel normal
|  4> end
|  5> %cpcm
|  6>     smd true
|  7>     smdsolvent "water"
|  8> end
|  9> * xyz 0 1
| 10> C -2.431101164668935 -1.0585816839293374 -0.7204273362790695
| 11> C -1.7299743493109716 0.019527819744953576 0.05916300988209787
| 12> C -2.424977951804358 0.9111301335699737 0.7810176370293543
| 13> C -0.24834914861583385 0.042895421462351466 0.014294892890839087
| 14> C 0.48408825988880305 -1.1322373498031308 -0.2136483819207377
| 15> C 1.875998307659315 -1.1155991766225528 -0.2375256971876515
| 16> C 2.5688602948673283 0.0772435372623034 -0.05117365946642732
| 17> C 1.8545602187897308 1.2569449054408692 0.1553210541255705
| 18> C 0.46557357305662866 1.2404752116427693 0.18462757159625567
| 19> H -2.0748814627569647 -1.094324529442126 -1.7551232579233274
| 20> H -2.246775647830266 -2.047704374935809 -0.28703434150850704
| 21> H -3.5095291939886306 -0.8915350619355914 -0.7237249737539128
| 22> H -1.9375389848706832 1.6657674917427967 1.3902003232103155
| 23> H -3.5106405906425406 0.8899967483922595 0.7923294620308482
| 24> H -0.033473891207925544 -2.0743536914652236 -0.35876499435072756
| 25> H 2.419853237877162 -2.0403553579299105 -0.40479326812885874
| 26> H 3.6538994786476597 0.09121216102041269 -0.07696127064958948
| 27> H 2.382602905692309 2.197266889072457 0.28164842551568864
| 28> H -0.0751807189350574 2.1718651081617177 0.3182480742141653
| 29> *
| 30>
| 31>                          ****END OF INPUT****

CARTESIAN COORDINATES (ANGSTROEM)
---------------------------------
  C     -2.431101   -1.058582   -0.720427
  C     -1.729974    0.019528    0.059163
  C     -2.424978    0.911130    0.781018
  C     -0.248349    0.042895    0.014295
  C      0.484088   -1.132237   -0.213648
  C      1.875998   -1.115599   -0.237526
  C      2.568860    0.077244   -0.051174
  C      1.854560    1.256945    0.155321
  C      0.465574    1.240475    0.184628
  H     -2.074881   -1.094325   -1.755123
  H     -2.246776   -2.047704   -0.287034
  H     -3.509529   -0.891535   -0.723725
  H     -1.937539    1.665767    1.390200
  H     -3.510641    0.889997    0.792329
  H     -0.033474   -2.074354   -0.358765
  H      2.419853   -2.040355   -0.404793
  H      3.653899    0.091212   -0.076961
  H      2.382603    2.197267    0.281648
  H     -0.075181    2.171865    0.318248

 Total Charge           Charge          ....    0
 Multiplicity           Mult            ....    1
 Number of Electrons    NEL             ....   64
 Basis Dimension        Dim             ....  339

ORBITAL ENERGIES
----------------

  NO   OCC          E(Eh)            E(eV)
   0   2.0000     -12.062757      -328.2443
   1   2.0000     -12.061163      -328.2009
   2   2.0000     -12.050770      -327.9181
   3   2.0000     -12.050682      -327.9157
   4   2.0000     -12.049136      -327.8737
   5   2.0000     -12.048414      -327.8540
   6   2.0000     -12.047376      -327.8258
   7   2.0000     -12.033460      -327.4471
   8   2.0000     -12.032736      -327.4274
   9   2.0000      -1.387790       -37.7637
  10   2.0000      -1.327780       -36.1307
  11   2.0000      -1.272366       -34.6228
  12   2.0000      -1.258863       -34.2554
  13   2.0000      -1.184333       -32.2273
  14   2.0000      -1.118097       -30.4250
  15   2.0000      -1.101739       -29.9798
  16   2.0000      -1.022269       -27.8174
  17   2.0000      -0.957640       -26.0587
  18   2.0000      -0.952171       -25.9099
  19   2.0000      -0.920634       -25.0517
  20   2.0000      -0.893328       -24.3087
  21   2.0000      -0.877201       -23.8698
  22   2.0000      -0.871204       -23.7067
  23   2.0000      -0.829844       -22.5812
  24   2.0000      -0.827069       -22.5057
  25   2.0000      -0.806277       -21.9399
  26   2.0000      -0.800757       -21.7897
  27   2.0000      -0.791800       -21.5460
  28   2.0000      -0.773634       -21.0517
  29   2.0000      -0.679528       -18.4909
  30   2.0000      -0.639321       -17.3968
  31   2.0000      -0.612873       -16.6771
  32   0.0000      -0.263219        -7.1625
  33   0.0000      -0.235654        -6.4125
  34   0.0000      -0.175328        -4.7709
  35   0.0000      -0.063259        -1.7214
  36   0.0000      -0.042410        -1.1540

MULLIKEN ATOMIC CHARGES
-----------------------
   0 C :   -0.388696
   1 C :   -0.008331
   2 C :   -0.353653
   3 C :    0.150145
   4 C :   -0.219015
   5 C :   -0.177905
   6 C :   -0.160100
   7 C :   -0.166482
   8 C :   -0.230528
   9 H :    0.143268
  10 H :    0.145666
  11 H :    0.140362
  12 H :    0.157020
  13 H :    0.156140
  14 H :    0.167406
  15 H :    0.159632
  16 H :    0.161528
  17 H :    0.159806
  18 H :    0.163735
Sum of atomic charges:   -0.0000000

LOEWDIN ATOMIC CHARGES
----------------------
   0 C :   -0.253054
   1 C :   -0.193487
   2 C :   -0.188773
   3 C :   -0.117949
   4 C :   -0.108834
   5 C :   -0.148385
   6 C :   -0.149921
   7 C :   -0.148268
   8 C :   -0.106400
   9 H :    0.131360
  10 H :    0.132732
  11 H :    0.130105
  12 H :    0.127990
  13 H :    0.127684
  14 H :    0.156256
  15 H :    0.151479
  16 H :    0.150418
  17 H :    0.151573
  18 H :    0.155474

  Mayer bond orders larger than 0.100000
B(  0-C ,  1-C ) :   0.9754 B(  0-C ,  9-H ) :   0.9732 B(  0-C , 10-H ) :   0.9621
B(  0-C , 11-H ) :   0.9750 B(  1-C ,  2-C ) :   1.8739 B(  1-C ,  3-C ) :   0.9273
B(  2-C , 12-H ) :   0.9658 B(  2-C , 13-H ) :   0.9644 B(  3-C ,  4-C ) :   1.3419
B(  3-C ,  8-C ) :   1.3527 B(  4-C ,  5-C ) :   1.4317 B(  4-C , 14-H ) :   0.9696
B(  5-C ,  6-C ) :   1.4075 B(  5-C , 15-H ) :   0.9779 B(  6-C ,  7-C ) :   1.3898
B(  6-C , 16-H ) :   0.9745 B(  7-C ,  8-C ) :   1.4529 B(  7-C , 17-H ) :   0.9768
B(  8-C , 18-H ) :   0.9665

FINAL SINGLE POINT ENERGY      -348.974442558608

DIPOLE MOMENT
-------------

Method             : SCF
Type of density    : Electron Density
Multiplicity       :   1
Irrep              :   0
Energy             :  -348.9848091419084426 Eh
Relativity type    :
Basis              : AO
                                X                 Y                 Z
Electronic contribution:      4.637964975       1.034054866       0.566136485
Nuclear contribution   :     -4.627532171      -1.202129632      -0.680066441
                        -----------------------------------------
Total Dipole Moment    :      0.010432804      -0.168074766      -0.113929956
                        -----------------------------------------
Magnitude (a.u.)       :      0.203317498
Magnitude (Debye)      :      0.516792011

Rotational constants in cm-1:             0.119604             0.040199             0.031081
Rotational constants in MHz :          3585.629893          1205.144469           931.783252

                             ****ORCA TERMINATED NORMALLY****
TOTAL RUN TIME: 0 days 0 hours 3 minutes 7 seconds 573 msec
