                         Program Version 6.0.0  -   RELEASE  -
|  1> ! pbe def2-sv(p) def2/J RI DEFGRID1 loosescf d4 GCP(DFT/SV(P)) printgap
|  2> %output
|  3>     printlevel normal
|  4> end
|  5> * xyz 0 1
|  6> C -2.4774418995 -0.4918452129 -0.250566712
|  7> C -1.0427681893 -0.2081810085 0.1814830421
|  8> H -0.9672630202 -0.4100824386 1.2609924019
|  9> C -0.6266974254 1.2556831101 -0.0866767276
| 10> H -1.1860294761 1.6517742331 -0.9415065695
| 11> C 0.8772268099 1.3033978642 -0.4493272626
| 12> H 1.2494971974 2.3063574503 -0.2143126106
| 13> C 1.6474190301 0.2747027596 0.3995671541
| 14> H 2.6997014681 0.2871253835 0.0931061605
| 15> C 1.100376227 -1.1446565012 0.0997727411
| 16> H 1.0019322716 -1.6924661209 1.0613726634
| 17> O -0.174332223 -1.0919422755 -0.5088970757
| 18> O 1.9692925265 -1.7822104577 -0.7614346544
| 19> O 1.4835787314 0.6256970687 1.751082999
| 20> O 1.1037935872 1.1206827474 -1.8193758618
| 21> O -0.9390575017 2.0893766437 0.9957980818
| 22> O -2.9052432431 -1.6870784851 0.3610969638
| 23> H -2.5017614095 -0.5781038374 -1.3427713277
| 24> H -3.096349262 0.3551842976 0.0701157709
| 25> H 1.590877697 -2.6303947599 -1.0424004565
| 26> H 2.1981833491 0.2545054709 2.2871061981
| 27> H 0.8487603021 0.217461384 -2.0642661963
| 28> H -0.356827064 1.8624882154 1.7391312862
| 29> H -3.8022034627 -1.8946414146 0.0635885704
| 30> *
| 31>
| 32>                          ****END OF INPUT****

CARTESIAN COORDINATES (ANGSTROEM)
---------------------------------
  C     -2.477442   -0.491845   -0.250567
  C     -1.042768   -0.208181    0.181483
  H     -0.967263   -0.410082    1.260992
  C     -0.626697    1.255683   -0.086677
  H     -1.186029    1.651774   -0.941507
  C      0.877227    1.303398   -0.449327
  H      1.249497    2.306357   -0.214313
  C      1.647419    0.274703    0.399567
  H      2.699701    0.287125    0.093106
  C      1.100376   -1.144657    0.099773
  H      1.001932   -1.692466    1.061373
  O     -0.174332   -1.091942   -0.508897
  O      1.969293   -1.782210   -0.761435
  O      1.483579    0.625697    1.751083
  O      1.103794    1.120683   -1.819376
  O     -0.939058    2.089377    0.995798
  O     -2.905243   -1.687078    0.361097
  H     -2.501761   -0.578104   -1.342771
  H     -3.096349    0.355184    0.070116
  H      1.590878   -2.630395   -1.042400
  H      2.198183    0.254505    2.287106
  H      0.848760    0.217461   -2.064266
  H     -0.356827    1.862488    1.739131
  H     -3.802203   -1.894641    0.063589

 Total Charge           Charge          ....    0
 Multiplicity           Mult            ....    1
 Number of Electrons    NEL             ....   96
 Basis Dimension        Dim             ....  192

ORBITAL ENERGIES
----------------

  NO   OCC          E(Eh)            E(eV)
   0   2.0000     -18.777403      -510.9591
   1   2.0000     -18.772862      -510.8355
   2   2.0000     -18.772406      -510.8231
   3   2.0000     -18.746357      -510.1143
   4   2.0000     -18.740252      -509.9482
   5   2.0000     -18.738533      -509.9014
   6   2.0000      -9.991536      -271.8835
   7   2.0000      -9.946706      -270.6636
   8   2.0000      -9.939248      -270.4607
   9   2.0000      -9.935799      -270.3668
  10   2.0000      -9.932904      -270.2881
  11   2.0000      -9.931870      -270.2599
  12   2.0000      -0.991186       -26.9715
  13   2.0000      -0.950878       -25.8747
  14   2.0000      -0.932523       -25.3752
  15   2.0000      -0.922206       -25.0945
  16   2.0000      -0.914284       -24.8789
  17   2.0000      -0.913381       -24.8543
  18   2.0000      -0.695061       -18.9136
  19   2.0000      -0.689748       -18.7690
  20   2.0000      -0.620396       -16.8818
  21   2.0000      -0.583576       -15.8799
  22   2.0000      -0.558648       -15.2016
  23   2.0000      -0.522631       -14.2215
  24   2.0000      -0.514097       -13.9893
  25   2.0000      -0.485628       -13.2146
  26   2.0000      -0.473932       -12.8964
  27   2.0000      -0.470080       -12.7915
  28   2.0000      -0.460338       -12.5264
  29   2.0000      -0.424278       -11.5452
  30   2.0000      -0.414249       -11.2723
  31   2.0000      -0.393053       -10.6955
  32   2.0000      -0.378898       -10.3103
  33   2.0000      -0.372085       -10.1250
  34   2.0000      -0.356248        -9.6940
  35   2.0000      -0.351165        -9.5557
  36   2.0000      -0.332679        -9.0527
  37   2.0000      -0.316494        -8.6123
  38   2.0000      -0.308720        -8.4007
  39   2.0000      -0.283976        -7.7274
  40   2.0000      -0.280215        -7.6250
  41   2.0000      -0.273784        -7.4500
  42   2.0000      -0.255079        -6.9411
  43   2.0000      -0.248445        -6.7605
  44   2.0000      -0.244924        -6.6647
  45   2.0000      -0.218462        -5.9447
  46   2.0000      -0.209082        -5.6894
  47   2.0000      -0.192488        -5.2379
  48   0.0000       0.005404         0.1470
  49   0.0000       0.024822         0.6754
  50   0.0000       0.030359         0.8261
  51   0.0000       0.056014         1.5242
  52   0.0000       0.059356         1.6151

MULLIKEN ATOMIC CHARGES
-----------------------
   0 C :    0.053833
   1 C :    0.022707
   2 H :    0.059804
   3 C :    0.066308
   4 H :    0.066259
   5 C :    0.045938
   6 H :    0.077158
   7 C :    0.001986
   8 H :    0.088862
   9 C :    0.182230
  10 H :    0.046960
  11 O :   -0.316365
  12 O :   -0.380438
  13 O :   -0.422113
  14 O :   -0.415667
  15 O :   -0.428583
  16 O :   -0.433388
  17 H :    0.069656
  18 H :    0.088250
  19 H :    0.310256
  20 H :    0.315726
  21 H :    0.296590
  22 H :    0.304669
  23 H :    0.299363
Sum of atomic charges:    0.0000000

LOEWDIN ATOMIC CHARGES
----------------------
   0 C :   -0.125082
   1 C :   -0.067688
   2 H :    0.108999
   3 C :   -0.074410
   4 H :    0.116208
   5 C :   -0.069937
   6 H :    0.119934
   7 C :   -0.091530
   8 H :    0.117648
   9 C :   -0.007158
  10 H :    0.081418
  11 O :   -0.160319
  12 O :   -0.293028
  13 O :   -0.313631
  14 O :   -0.311359
  15 O :   -0.316112
  16 O :   -0.345157
  17 H :    0.101289
  18 H :    0.106901
  19 H :    0.292516
  20 H :    0.296231
  21 H :    0.271550
  22 H :    0.276503
  23 H :    0.286213

  Mayer bond orders larger than 0.100000
B(  0-C ,  1-C ) :   1.0697 B(  0-C , 16-O ) :   1.1039 B(  0-C , 17-H ) :   0.8996
B(  0-C , 18-H ) :   0.9168 B(  1-C ,  2-H ) :   0.8622 B(  1-C ,  3-C ) :   0.9682
B(  1-C , 11-O ) :   1.0026 B(  3-C ,  4-H ) :   0.8870 B(  3-C ,  5-C ) :   0.9739
B(  3-C , 15-O ) :   1.0379 B(  5-C ,  6-H ) :   0.8891 B(  5-C ,  7-C ) :   1.0084
B(  5-C , 14-O ) :   1.0650 B(  7-C ,  8-H ) :   0.8937 B(  7-C ,  9-C ) :   0.9261
B(  7-C , 13-O ) :   1.0450 B(  9-C , 10-H ) :   0.9002 B(  9-C , 11-O ) :   1.0179
B(  9-C , 12-O ) :   1.1594 B( 12-O , 19-H ) :   0.8375 B( 13-O , 20-H ) :   0.8411
B( 14-O , 21-H ) :   0.8322 B( 15-O , 22-H ) :   0.8287 B( 16-O , 23-H ) :   0.8518

Dispersion correction           -0.024693924
FINAL SINGLE POINT ENERGY      -685.691535285773

DIPOLE MOMENT
-------------

Method             : SCF
Type of density    : Electron Density
Multiplicity       :   1
Irrep              :   0
Energy             :  -685.8224226036658138 Eh
Relativity type    :
Basis              : AO
                                X                 Y                 Z
Electronic contribution:      2.186328143      -0.797273131      -0.470136506
Nuclear contribution   :     -2.169973819      -0.264796630       0.910441934
                        -----------------------------------------
Total Dipole Moment    :      0.016354324      -1.062069761       0.440305428
                        -----------------------------------------
Magnitude (a.u.)       :      1.149838472
Magnitude (Debye)      :      2.922657127

Rotational constants in cm-1:             0.038055             0.027052             0.021747
Rotational constants in MHz :          1140.860042           810.990283           651.957545

                             ****ORCA TERMINATED NORMALLY****
TOTAL RUN TIME: 0 days 0 hours 0 minutes 11 seconds 933 msec
