                         Program Version 6.0.0  -   RELEASE  -
|  1> ! pbe def2-sv(p) def2/J RI DEFGRID1 loosescf d4 GCP(DFT/SV(P)) printgap
|  2> %output
|  3>     printlevel normal
|  4> end
|  5> * xyz 0 1
|  6> C -1.760958242 -1.4536275164 0.1564606655
|  7> C -1.6406515661 -0.0098896286 -0.3218772596
|  8> C -2.9471509 0.748856672 -0.0868518002
|  9> C -0.5240690061 0.7214619967 0.4085858759
| 10> Br 1.2565748473 0.0021888733 -0.0356466084
| 11> H -1.9995148155 -1.4832673916 1.2177025332
| 12> H -2.5488612355 -1.9654881751 -0.3889416099
| 13> H -0.8299116077 -1.9931209069 -0.0044055744
| 14> H -1.4174592057 -0.0080153975 -1.3944819153
| 15> H -2.8772018402 1.767892914 -0.4592235482
| 16> H -3.1808260064 0.7817405605 0.9747416529
| 17> H -3.7611714407 0.2488206007 -0.6035664942
| 18> H -0.6186264764 0.6231399308 1.4889738972
| 19> H -0.4827669857 1.7737293295 0.1323546706
| 20> *
| 21>
| 22>                          ****END OF INPUT****

CARTESIAN COORDINATES (ANGSTROEM)
---------------------------------
  C     -1.760958   -1.453628    0.156461
  C     -1.640652   -0.009890   -0.321877
  C     -2.947151    0.748857   -0.086852
  C     -0.524069    0.721462    0.408586
  Br     1.256575    0.002189   -0.035647
  H     -1.999515   -1.483267    1.217703
  H     -2.548861   -1.965488   -0.388942
  H     -0.829912   -1.993121   -0.004406
  H     -1.417459   -0.008015   -1.394482
  H     -2.877202    1.767893   -0.459224
  H     -3.180826    0.781741    0.974742
  H     -3.761171    0.248821   -0.603566
  H     -0.618626    0.623140    1.488974
  H     -0.482767    1.773729    0.132355

 Total Charge           Charge          ....    0
 Multiplicity           Mult            ....    1
 Number of Electrons    NEL             ....   68
 Basis Dimension        Dim             ....  106

ORBITAL ENERGIES
----------------

  NO   OCC          E(Eh)            E(eV)
   0   2.0000    -480.918616    -13086.4609
   1   2.0000     -61.760872     -1680.5988
   2   2.0000     -55.691492     -1515.4425
   3   2.0000     -55.688410     -1515.3587
   4   2.0000     -55.688308     -1515.3559
   5   2.0000      -9.938112      -270.4298
   6   2.0000      -9.909402      -269.6485
   7   2.0000      -9.885731      -269.0044
   8   2.0000      -9.876613      -268.7563
   9   2.0000      -8.385954      -228.1934
  10   2.0000      -6.267794      -170.5554
  11   2.0000      -6.253668      -170.1710
  12   2.0000      -6.253428      -170.1644
  13   2.0000      -2.468908       -67.1824
  14   2.0000      -2.465496       -67.0896
  15   2.0000      -2.465344       -67.0854
  16   2.0000      -2.454714       -66.7962
  17   2.0000      -2.454700       -66.7958
  18   2.0000      -0.756234       -20.5782
  19   2.0000      -0.697834       -18.9890
  20   2.0000      -0.620032       -16.8719
  21   2.0000      -0.596856       -16.2413
  22   2.0000      -0.511333       -13.9141
  23   2.0000      -0.432861       -11.7788
  24   2.0000      -0.403176       -10.9710
  25   2.0000      -0.396521       -10.7899
  26   2.0000      -0.365286        -9.9399
  27   2.0000      -0.349378        -9.5071
  28   2.0000      -0.329640        -8.9700
  29   2.0000      -0.310943        -8.4612
  30   2.0000      -0.300476        -8.1764
  31   2.0000      -0.296753        -8.0751
  32   2.0000      -0.232920        -6.3381
  33   2.0000      -0.231205        -6.2914
  34   0.0000      -0.026018        -0.7080
  35   0.0000       0.036329         0.9886
  36   0.0000       0.063388         1.7249
  37   0.0000       0.075987         2.0677
  38   0.0000       0.088149         2.3987

MULLIKEN ATOMIC CHARGES
-----------------------
   0 C :   -0.249461
   1 C :   -0.170381
   2 C :   -0.248040
   3 C :   -0.203876
   4 Br:   -0.120991
   5 H :    0.093320
   6 H :    0.103208
   7 H :    0.118172
   8 H :    0.092686
   9 H :    0.104383
  10 H :    0.098653
  11 H :    0.110616
  12 H :    0.133569
  13 H :    0.138142
Sum of atomic charges:   -0.0000000

LOEWDIN ATOMIC CHARGES
----------------------
   0 C :   -0.334515
   1 C :   -0.176224
   2 C :   -0.326524
   3 C :   -0.265438
   4 Br:    0.005714
   5 H :    0.117033
   6 H :    0.120258
   7 H :    0.120161
   8 H :    0.121775
   9 H :    0.119314
  10 H :    0.119222
  11 H :    0.124634
  12 H :    0.127377
  13 H :    0.127213

  Mayer bond orders larger than 0.100000
B(  0-C ,  1-C ) :   1.1058 B(  0-C ,  5-H ) :   0.9490 B(  0-C ,  6-H ) :   0.9520
B(  0-C ,  7-H ) :   0.9418 B(  1-C ,  2-C ) :   1.0963 B(  1-C ,  3-C ) :   1.0567
B(  1-C ,  8-H ) :   0.9025 B(  2-C ,  9-H ) :   0.9499 B(  2-C , 10-H ) :   0.9489
B(  2-C , 11-H ) :   0.9489 B(  3-C ,  4-Br) :   1.0416 B(  3-C , 12-H ) :   0.9195
B(  3-C , 13-H ) :   0.9267

Dispersion correction           -0.010874562
FINAL SINGLE POINT ENERGY     -2730.888414343386

DIPOLE MOMENT
-------------

Method             : SCF
Type of density    : Electron Density
Multiplicity       :   1
Irrep              :   0
Energy             : -2730.9411736433148690 Eh
Relativity type    :
Basis              : AO
                                X                 Y                 Z
Electronic contribution:     27.547466840       0.466348742      -1.151289063
Nuclear contribution   :    -28.288399805      -0.259154024       1.234588296
                        -----------------------------------------
Total Dipole Moment    :     -0.740932966       0.207194719       0.083299233
                        -----------------------------------------
Magnitude (a.u.)       :      0.773854039
Magnitude (Debye)      :      1.966980648

Rotational constants in cm-1:             0.251572             0.046669             0.041526
Rotational constants in MHz :          7541.938693          1399.113459          1244.907625

                             ****ORCA TERMINATED NORMALLY****
TOTAL RUN TIME: 0 days 0 hours 0 minutes 6 seconds 497 msec
