                         Program Version 6.0.0  -   RELEASE  -
|  1> ! pbe def2-sv(p) def2/J RI DEFGRID1 loosescf d4 GCP(DFT/SV(P)) printgap
|  2> %output
|  3>     printlevel normal
|  4> end
|  5> * xyz 0 1
|  6> C -2.1292274789 -1.1806079103 -0.1804127895
|  7> C -1.2523616877 -0.334449435 0.752129539
|  8> H -1.8323165404 -0.1324665626 1.6589108768
|  9> C -0.8987714965 1.0273689063 0.1229931552
| 10> H -1.1256142358 1.0162265188 -0.9538013149
| 11> C 0.6035220094 1.2843186974 0.2714097479
| 12> H 0.8498464007 1.3565384044 1.3438434495
| 13> C 1.3584081708 0.1041056589 -0.3539088483
| 14> H 1.0588489 0.0164259179 -1.4048711693
| 15> C 0.9901113111 -1.2034689646 0.3862756365
| 16> H 1.8048107312 -1.4887600307 1.0644466349
| 17> O -0.1130204604 -1.0268395621 1.2482116918
| 18> O 0.8383143597 -2.2795612532 -0.4742146465
| 19> O 2.7409837368 0.3526689903 -0.3881182705
| 20> O 0.9173109182 2.4935222602 -0.3758697327
| 21> O -1.6690250219 2.0135361223 0.7633036683
| 22> O -1.5230743041 -1.309358596 -1.4548483537
| 23> H -3.094164191 -0.6726872519 -0.2676749142
| 24> H -2.2685454294 -2.1656033465 0.2793079166
| 25> H 0.0715315333 -2.1044982538 -1.0619155998
| 26> H 3.1133077993 0.3029819103 0.5046908062
| 27> H 1.8504832081 2.4646082495 -0.6406563368
| 28> H -1.3666986463 2.8819038276 0.4561712403
| 29> H -2.1457947076 -1.7397893072 -2.0585778603
| 30> *
| 31>
| 32>                          ****END OF INPUT****

CARTESIAN COORDINATES (ANGSTROEM)
---------------------------------
  C     -2.129227   -1.180608   -0.180413
  C     -1.252362   -0.334449    0.752130
  H     -1.832317   -0.132467    1.658911
  C     -0.898771    1.027369    0.122993
  H     -1.125614    1.016227   -0.953801
  C      0.603522    1.284319    0.271410
  H      0.849846    1.356538    1.343843
  C      1.358408    0.104106   -0.353909
  H      1.058849    0.016426   -1.404871
  C      0.990111   -1.203469    0.386276
  H      1.804811   -1.488760    1.064447
  O     -0.113020   -1.026840    1.248212
  O      0.838314   -2.279561   -0.474215
  O      2.740984    0.352669   -0.388118
  O      0.917311    2.493522   -0.375870
  O     -1.669025    2.013536    0.763304
  O     -1.523074   -1.309359   -1.454848
  H     -3.094164   -0.672687   -0.267675
  H     -2.268545   -2.165603    0.279308
  H      0.071532   -2.104498   -1.061916
  H      3.113308    0.302982    0.504691
  H      1.850483    2.464608   -0.640656
  H     -1.366699    2.881904    0.456171
  H     -2.145795   -1.739789   -2.058578

 Total Charge           Charge          ....    0
 Multiplicity           Mult            ....    1
 Number of Electrons    NEL             ....   96
 Basis Dimension        Dim             ....  192

ORBITAL ENERGIES
----------------

  NO   OCC          E(Eh)            E(eV)
   0   2.0000     -18.794005      -511.4109
   1   2.0000     -18.763632      -510.5844
   2   2.0000     -18.762137      -510.5437
   3   2.0000     -18.748835      -510.1817
   4   2.0000     -18.746137      -510.1083
   5   2.0000     -18.732560      -509.7389
   6   2.0000      -9.978185      -271.5202
   7   2.0000      -9.950783      -270.7746
   8   2.0000      -9.949379      -270.7364
   9   2.0000      -9.938887      -270.4509
  10   2.0000      -9.938736      -270.4468
  11   2.0000      -9.935078      -270.3472
  12   2.0000      -0.974981       -26.5306
  13   2.0000      -0.956734       -26.0341
  14   2.0000      -0.943775       -25.6814
  15   2.0000      -0.930742       -25.3268
  16   2.0000      -0.911134       -24.7932
  17   2.0000      -0.895524       -24.3684
  18   2.0000      -0.707829       -19.2610
  19   2.0000      -0.689742       -18.7688
  20   2.0000      -0.626511       -17.0482
  21   2.0000      -0.583757       -15.8848
  22   2.0000      -0.569050       -15.4846
  23   2.0000      -0.526130       -14.3167
  24   2.0000      -0.500699       -13.6247
  25   2.0000      -0.490225       -13.3397
  26   2.0000      -0.476249       -12.9594
  27   2.0000      -0.453126       -12.3302
  28   2.0000      -0.448802       -12.2125
  29   2.0000      -0.429103       -11.6765
  30   2.0000      -0.421581       -11.4718
  31   2.0000      -0.416570       -11.3355
  32   2.0000      -0.397611       -10.8195
  33   2.0000      -0.377898       -10.2831
  34   2.0000      -0.348314        -9.4781
  35   2.0000      -0.345240        -9.3944
  36   2.0000      -0.328858        -8.9487
  37   2.0000      -0.318198        -8.6586
  38   2.0000      -0.303135        -8.2487
  39   2.0000      -0.297640        -8.0992
  40   2.0000      -0.284897        -7.7524
  41   2.0000      -0.272125        -7.4049
  42   2.0000      -0.260461        -7.0875
  43   2.0000      -0.246476        -6.7070
  44   2.0000      -0.236663        -6.4399
  45   2.0000      -0.215125        -5.8538
  46   2.0000      -0.212630        -5.7860
  47   2.0000      -0.201125        -5.4729
  48   0.0000      -0.000147        -0.0040
  49   0.0000       0.019860         0.5404
  50   0.0000       0.036393         0.9903
  51   0.0000       0.057126         1.5545
  52   0.0000       0.070267         1.9121

MULLIKEN ATOMIC CHARGES
-----------------------
   0 C :   -0.002325
   1 C :    0.061407
   2 H :    0.090886
   3 C :    0.053331
   4 H :    0.063274
   5 C :    0.054621
   6 H :    0.043691
   7 C :   -0.011243
   8 H :    0.067434
   9 C :    0.228340
  10 H :    0.048061
  11 O :   -0.307221
  12 O :   -0.414260
  13 O :   -0.415743
  14 O :   -0.429635
  15 O :   -0.421099
  16 O :   -0.440928
  17 H :    0.099234
  18 H :    0.099841
  19 H :    0.294822
  20 H :    0.301811
  21 H :    0.302862
  22 H :    0.309286
  23 H :    0.323552
Sum of atomic charges:   -0.0000000

LOEWDIN ATOMIC CHARGES
----------------------
   0 C :   -0.137118
   1 C :   -0.055469
   2 H :    0.133863
   3 C :   -0.068589
   4 H :    0.103344
   5 C :   -0.089005
   6 H :    0.098833
   7 C :   -0.097959
   8 H :    0.119397
   9 C :   -0.005625
  10 H :    0.105052
  11 O :   -0.146700
  12 O :   -0.321333
  13 O :   -0.306496
  14 O :   -0.331741
  15 O :   -0.322901
  16 O :   -0.324574
  17 H :    0.116820
  18 H :    0.111322
  19 H :    0.263417
  20 H :    0.285092
  21 H :    0.282002
  22 H :    0.288572
  23 H :    0.299797

  Mayer bond orders larger than 0.100000
B(  0-C ,  1-C ) :   1.0745 B(  0-C , 16-O ) :   1.0092 B(  0-C , 17-H ) :   0.9134
B(  0-C , 18-H ) :   0.9114 B(  1-C ,  2-H ) :   0.8806 B(  1-C ,  3-C ) :   0.9826
B(  1-C , 11-O ) :   1.0467 B(  3-C ,  4-H ) :   0.8796 B(  3-C ,  5-C ) :   1.0285
B(  3-C , 15-O ) :   1.0739 B(  5-C ,  6-H ) :   0.8637 B(  5-C ,  7-C ) :   1.0001
B(  5-C , 14-O ) :   1.0871 B(  7-C ,  8-H ) :   0.8695 B(  7-C ,  9-C ) :   0.9751
B(  7-C , 13-O ) :   1.0159 B(  9-C , 10-H ) :   0.8921 B(  9-C , 11-O ) :   1.0374
B(  9-C , 12-O ) :   1.1489 B( 12-O , 19-H ) :   0.7860 B( 13-O , 20-H ) :   0.8453
B( 14-O , 21-H ) :   0.8239 B( 15-O , 22-H ) :   0.8387 B( 16-O , 19-H ) :   0.1305
B( 16-O , 23-H ) :   0.8375

Dispersion correction           -0.025140252
FINAL SINGLE POINT ENERGY      -685.697484387267

DIPOLE MOMENT
-------------

Method             : SCF
Type of density    : Electron Density
Multiplicity       :   1
Irrep              :   0
Energy             :  -685.8301527892640479 Eh
Relativity type    :
Basis              : AO
                                X                 Y                 Z
Electronic contribution:      2.226810064       0.267988151       0.627523191
Nuclear contribution   :     -2.875951646      -0.245113329      -1.023438795
                        -----------------------------------------
Total Dipole Moment    :     -0.649141582       0.022874821      -0.395915604
                        -----------------------------------------
Magnitude (a.u.)       :      0.760695220
Magnitude (Debye)      :      1.933533588

Rotational constants in cm-1:             0.036360             0.032270             0.021242
Rotational constants in MHz :          1090.045759           967.430794           636.833946

                             ****ORCA TERMINATED NORMALLY****
TOTAL RUN TIME: 0 days 0 hours 0 minutes 12 seconds 499 msec
