                         Program Version 6.0.0  -   RELEASE  -
|  1> ! pbe def2-sv(p) def2/J RI DEFGRID1 loosescf d4 GCP(DFT/SV(P)) printgap
|  2> %output
|  3>     printlevel normal
|  4> end
|  5> * xyz 0 1
|  6> C 1.8119050241 -1.1219435527 2.65652e-05
|  7> C 2.3061445945 0.1802046902 -5.11153e-05
|  8> C 1.4440732814 1.254647107 -2.49573e-05
|  9> C 0.0599790654 1.0662338114 1.00109e-05
| 10> C -0.4497456052 -0.2483972467 -2.81784e-05
| 11> C 0.45395225 -1.3247506519 6.8455e-06
| 12> C -1.8674312406 -0.5482189007 -2.57393e-05
| 13> O -2.3517629628 -1.6660103259 -4.90596e-05
| 14> O -0.6908807539 2.1813310427 6.76848e-05
| 15> H 2.488683878 -1.9607898178 3.96655e-05
| 16> H 3.3708671131 0.3524290868 0.000350919
| 17> H 1.8107263265 2.2685969023 0.0001674166
| 18> H 0.031986729 -2.3188393135 0.000163515
| 19> H -2.5536316399 0.3201704175 -5.60904e-05
| 20> H -1.6428653415 2.0029961519 7.04927e-05
| 21> *
| 22>
| 23>                          ****END OF INPUT****

CARTESIAN COORDINATES (ANGSTROEM)
---------------------------------
  C      1.811905   -1.121944    0.000027
  C      2.306145    0.180205   -0.000051
  C      1.444073    1.254647   -0.000025
  C      0.059979    1.066234    0.000010
  C     -0.449746   -0.248397   -0.000028
  C      0.453952   -1.324751    0.000007
  C     -1.867431   -0.548219   -0.000026
  O     -2.351763   -1.666010   -0.000049
  O     -0.690881    2.181331    0.000068
  H      2.488684   -1.960790    0.000040
  H      3.370867    0.352429    0.000351
  H      1.810726    2.268597    0.000167
  H      0.031987   -2.318839    0.000164
  H     -2.553632    0.320170   -0.000056
  H     -1.642865    2.002996    0.000070

 Total Charge           Charge          ....    0
 Multiplicity           Mult            ....    1
 Number of Electrons    NEL             ....   64
 Basis Dimension        Dim             ....  138

ORBITAL ENERGIES
----------------

  NO   OCC          E(Eh)            E(eV)
   0   2.0000     -18.808467      -511.8044
   1   2.0000     -18.752764      -510.2886
   2   2.0000      -9.980885      -271.5937
   3   2.0000      -9.977784      -271.5093
   4   2.0000      -9.913420      -269.7579
   5   2.0000      -9.912236      -269.7256
   6   2.0000      -9.907853      -269.6064
   7   2.0000      -9.903401      -269.4852
   8   2.0000      -9.900750      -269.4131
   9   2.0000      -0.992188       -26.9988
  10   2.0000      -0.943020       -25.6609
  11   2.0000      -0.789098       -21.4725
  12   2.0000      -0.701749       -19.0956
  13   2.0000      -0.684710       -18.6319
  14   2.0000      -0.609650       -16.5894
  15   2.0000      -0.564851       -15.3704
  16   2.0000      -0.537654       -14.6303
  17   2.0000      -0.509254       -13.8575
  18   2.0000      -0.450013       -12.2455
  19   2.0000      -0.446878       -12.1602
  20   2.0000      -0.408977       -11.1288
  21   2.0000      -0.395249       -10.7553
  22   2.0000      -0.393104       -10.6969
  23   2.0000      -0.376097       -10.2341
  24   2.0000      -0.355912        -9.6848
  25   2.0000      -0.353515        -9.6196
  26   2.0000      -0.336690        -9.1618
  27   2.0000      -0.314803        -8.5662
  28   2.0000      -0.310967        -8.4618
  29   2.0000      -0.244929        -6.6649
  30   2.0000      -0.217146        -5.9088
  31   2.0000      -0.212882        -5.7928
  32   0.0000      -0.098634        -2.6840
  33   0.0000      -0.038383        -1.0444
  34   0.0000      -0.001504        -0.0409
  35   0.0000      -0.000338        -0.0092
  36   0.0000       0.045570         1.2400

MULLIKEN ATOMIC CHARGES
-----------------------
   0 C :   -0.037873
   1 C :   -0.030505
   2 C :   -0.120721
   3 C :    0.159608
   4 C :    0.031856
   5 C :   -0.100917
   6 C :   -0.007310
   7 O :   -0.166992
   8 O :   -0.304131
   9 H :    0.058950
  10 H :    0.066218
  11 H :    0.053036
  12 H :    0.064805
  13 H :    0.009191
  14 H :    0.324786
Sum of atomic charges:    0.0000000

LOEWDIN ATOMIC CHARGES
----------------------
   0 C :   -0.140934
   1 C :   -0.091572
   2 C :   -0.144991
   3 C :    0.046745
   4 C :   -0.139633
   5 C :   -0.073975
   6 C :   -0.004793
   7 O :   -0.131248
   8 O :   -0.208592
   9 H :    0.127943
  10 H :    0.130225
  11 H :    0.134678
  12 H :    0.135555
  13 H :    0.066275
  14 H :    0.294317

  Mayer bond orders larger than 0.100000
B(  0-C ,  1-C ) :   1.2961 B(  0-C ,  5-C ) :   1.3992 B(  0-C ,  9-H ) :   0.9719
B(  1-C ,  2-C ) :   1.3991 B(  1-C , 10-H ) :   0.9654 B(  2-C ,  3-C ) :   1.3445
B(  2-C , 11-H ) :   0.9593 B(  3-C ,  4-C ) :   1.2312 B(  3-C ,  8-O ) :   1.2762
B(  4-C ,  5-C ) :   1.3249 B(  4-C ,  6-C ) :   0.9979 B(  5-C , 12-H ) :   0.9556
B(  6-C ,  7-O ) :   2.1302 B(  6-C , 13-H ) :   0.9096 B(  8-O , 14-H ) :   0.8171

Dispersion correction           -0.015711352
FINAL SINGLE POINT ENERGY      -419.923174371218

DIPOLE MOMENT
-------------

Method             : SCF
Type of density    : Electron Density
Multiplicity       :   1
Irrep              :   0
Energy             :  -419.9700219440032924 Eh
Relativity type    :
Basis              : AO
                                X                 Y                 Z
Electronic contribution:     -2.751778720       0.069955115      -0.000505661
Nuclear contribution   :      3.243916708       0.631115893       0.000690696
                        -----------------------------------------
Total Dipole Moment    :      0.492137988       0.701071008       0.000185035
                        -----------------------------------------
Magnitude (a.u.)       :      0.856563127
Magnitude (Debye)      :      2.177210444

Rotational constants in cm-1:             0.086683             0.052692             0.032771
Rotational constants in MHz :          2598.694525          1579.673658           982.462318

                             ****ORCA TERMINATED NORMALLY****
TOTAL RUN TIME: 0 days 0 hours 0 minutes 9 seconds 175 msec
