                         Program Version 6.0.0  -   RELEASE  -
|  1> ! r2scan-3c def2/J RI DEFGRID2 scfconv6 printgap
|  2> %output
|  3>     printlevel normal
|  4> end
|  5> * xyz 0 1
|  6> C -2.5218949628 -0.9864088983 0.352977688
|  7> C -1.0741120114 -0.5149133527 0.5853966686
|  8> H -0.9076115494 -0.4392703116 1.671983773
|  9> C -0.7934726401 0.8549687144 -0.0459667419
| 10> H -0.9149008421 0.7699043887 -1.1373946199
| 11> C 0.6623327141 1.2472378258 0.2277971182
| 12> H 0.8133527563 1.3542228636 1.3143171719
| 13> C 1.592160833 0.1434794849 -0.2823549181
| 14> H 1.503418014 0.0725909742 -1.3768040949
| 15> C 1.1618842317 -1.2090678946 0.3110657471
| 16> H 1.3207568685 -1.1748388729 1.4120377095
| 17> O -0.192361757 -1.4834352473 0.0497196794
| 18> O 1.9326053513 -2.1966942916 -0.2710434359
| 19> O 2.9039423518 0.4745593557 0.0938054932
| 20> O 0.9025854319 2.4747387269 -0.4138945612
| 21> O -1.695883683 1.7899561297 0.4835599938
| 22> O -3.0170635849 -0.7272541555 -0.9327111951
| 23> H -3.15498032 -0.520236127 1.1139705399
| 24> H -2.5400786708 -2.0712334204 0.4734794664
| 25> H 1.5125786628 -3.0598150804 -0.133132752
| 26> H 3.5012357859 -0.2351885685 -0.1847710337
| 27> H 1.8457087998 2.6823628323 -0.3408286689
| 28> H -1.3967936586 2.6755904466 0.2248107343
| 29> H -3.2224907094 0.2156122616 -1.0049216628
| 30> *
| 31>
| 32>                          ****END OF INPUT****

CARTESIAN COORDINATES (ANGSTROEM)
---------------------------------
  C     -2.521895   -0.986409    0.352978
  C     -1.074112   -0.514913    0.585397
  H     -0.907612   -0.439270    1.671984
  C     -0.793473    0.854969   -0.045967
  H     -0.914901    0.769904   -1.137395
  C      0.662333    1.247238    0.227797
  H      0.813353    1.354223    1.314317
  C      1.592161    0.143479   -0.282355
  H      1.503418    0.072591   -1.376804
  C      1.161884   -1.209068    0.311066
  H      1.320757   -1.174839    1.412038
  O     -0.192362   -1.483435    0.049720
  O      1.932605   -2.196694   -0.271043
  O      2.903942    0.474559    0.093805
  O      0.902585    2.474739   -0.413895
  O     -1.695884    1.789956    0.483560
  O     -3.017064   -0.727254   -0.932711
  H     -3.154980   -0.520236    1.113971
  H     -2.540079   -2.071233    0.473479
  H      1.512579   -3.059815   -0.133133
  H      3.501236   -0.235189   -0.184771
  H      1.845709    2.682363   -0.340829
  H     -1.396794    2.675590    0.224811
  H     -3.222491    0.215612   -1.004922

 Total Charge           Charge          ....    0
 Multiplicity           Mult            ....    1
 Number of Electrons    NEL             ....   96
 Basis Dimension        Dim             ....  318

ORBITAL ENERGIES
----------------

  NO   OCC          E(Eh)            E(eV)
   0   2.0000     -18.975126      -516.3394
   1   2.0000     -18.973811      -516.3037
   2   2.0000     -18.968887      -516.1697
   3   2.0000     -18.966030      -516.0919
   4   2.0000     -18.965780      -516.0851
   5   2.0000     -18.950096      -515.6583
   6   2.0000     -10.143194      -276.0103
   7   2.0000     -10.095466      -274.7116
   8   2.0000     -10.095254      -274.7058
   9   2.0000     -10.093490      -274.6578
  10   2.0000     -10.093251      -274.6513
  11   2.0000     -10.080635      -274.3080
  12   2.0000      -1.057753       -28.7829
  13   2.0000      -1.020076       -27.7577
  14   2.0000      -1.009775       -27.4774
  15   2.0000      -0.992938       -27.0192
  16   2.0000      -0.991153       -26.9706
  17   2.0000      -0.984027       -26.7767
  18   2.0000      -0.756844       -20.5948
  19   2.0000      -0.738786       -20.1034
  20   2.0000      -0.661512       -18.0006
  21   2.0000      -0.621709       -16.9176
  22   2.0000      -0.594395       -16.1743
  23   2.0000      -0.558736       -15.2040
  24   2.0000      -0.540625       -14.7112
  25   2.0000      -0.508195       -13.8287
  26   2.0000      -0.500583       -13.6215
  27   2.0000      -0.487832       -13.2746
  28   2.0000      -0.467985       -12.7345
  29   2.0000      -0.455186       -12.3862
  30   2.0000      -0.442899       -12.0519
  31   2.0000      -0.437042       -11.8925
  32   2.0000      -0.412086       -11.2134
  33   2.0000      -0.398233       -10.8365
  34   2.0000      -0.384286       -10.4569
  35   2.0000      -0.374563       -10.1924
  36   2.0000      -0.356013        -9.6876
  37   2.0000      -0.345284        -9.3957
  38   2.0000      -0.338866        -9.2210
  39   2.0000      -0.320655        -8.7255
  40   2.0000      -0.310273        -8.4429
  41   2.0000      -0.295462        -8.0399
  42   2.0000      -0.278993        -7.5918
  43   2.0000      -0.269007        -7.3201
  44   2.0000      -0.256338        -6.9753
  45   2.0000      -0.250094        -6.8054
  46   2.0000      -0.240274        -6.5382
  47   2.0000      -0.229952        -6.2573
  48   0.0000       0.028946         0.7877
  49   0.0000       0.041796         1.1373
  50   0.0000       0.063172         1.7190
  51   0.0000       0.074866         2.0372
  52   0.0000       0.084678         2.3042

MULLIKEN ATOMIC CHARGES
-----------------------
   0 C :   -0.248031
   1 C :   -0.056040
   2 H :    0.171636
   3 C :   -0.016280
   4 H :    0.184503
   5 C :   -0.067290
   6 H :    0.170790
   7 C :    0.072441
   8 H :    0.171509
   9 C :   -0.065875
  10 H :    0.145546
  11 O :   -0.190409
  12 O :   -0.402511
  13 O :   -0.445846
  14 O :   -0.443971
  15 O :   -0.446265
  16 O :   -0.414926
  17 H :    0.145077
  18 H :    0.149479
  19 H :    0.313452
  20 H :    0.314535
  21 H :    0.315446
  22 H :    0.320180
  23 H :    0.322852
Sum of atomic charges:    0.0000000

LOEWDIN ATOMIC CHARGES
----------------------
   0 C :    0.042420
   1 C :    0.116081
   2 H :    0.185109
   3 C :    0.112118
   4 H :    0.190146
   5 C :    0.108072
   6 H :    0.185072
   7 C :    0.115996
   8 H :    0.189790
   9 C :    0.295767
  10 H :    0.178405
  11 O :   -0.676728
  12 O :   -0.505220
  13 O :   -0.573445
  14 O :   -0.576459
  15 O :   -0.573305
  16 O :   -0.590621
  17 H :    0.171066
  18 H :    0.192139
  19 H :    0.287101
  20 H :    0.283553
  21 H :    0.284253
  22 H :    0.285884
  23 H :    0.272803

  Mayer bond orders larger than 0.100000
B(  0-C ,  1-C ) :   0.8918 B(  0-C , 16-O ) :   1.0550 B(  0-C , 17-H ) :   0.9805
B(  0-C , 18-H ) :   0.9846 B(  1-C ,  2-H ) :   0.9566 B(  1-C ,  3-C ) :   0.8080
B(  1-C , 11-O ) :   0.7826 B(  1-C , 16-O ) :  -0.1224 B(  3-C ,  4-H ) :   0.9997
B(  3-C ,  5-C ) :   0.8522 B(  3-C , 15-O ) :   0.8549 B(  5-C ,  6-H ) :   0.9876
B(  5-C ,  7-C ) :   0.8678 B(  5-C , 14-O ) :   0.9044 B(  7-C ,  8-H ) :   0.9592
B(  7-C ,  9-C ) :   0.7937 B(  7-C , 13-O ) :   0.9018 B(  9-C , 10-H ) :   1.0149
B(  9-C , 11-O ) :   0.9497 B(  9-C , 12-O ) :   1.0308 B( 12-O , 19-H ) :   0.8758
B( 13-O , 20-H ) :   0.8811 B( 14-O , 21-H ) :   0.8781 B( 15-O , 22-H ) :   0.8738
B( 16-O , 23-H ) :   0.8749

Dispersion correction           -0.008024785
FINAL SINGLE POINT ENERGY      -687.077921460071

DIPOLE MOMENT
-------------

Method             : SCF
Type of density    : Electron Density
Multiplicity       :   1
Irrep              :   0
Energy             :  -687.0893419069727770 Eh
Relativity type    :
Basis              : AO
                                X                 Y                 Z
Electronic contribution:      2.030343745      -0.227528845      -1.389630973
Nuclear contribution   :     -1.526063242       0.257942274       1.892387381
                        -----------------------------------------
Total Dipole Moment    :      0.504280503       0.030413430       0.502756408
                        -----------------------------------------
Magnitude (a.u.)       :      0.712732635
Magnitude (Debye)      :      1.811622385

Rotational constants in cm-1:             0.041221             0.026100             0.017384
Rotational constants in MHz :          1235.785610           782.454761           521.173928

                             ****ORCA TERMINATED NORMALLY****
TOTAL RUN TIME: 0 days 0 hours 0 minutes 49 seconds 358 msec
