                         Program Version 6.0.0  -   RELEASE  -
|  1> ! r2scan-3c def2/J RI DEFGRID2 scfconv6 printgap
|  2> %output
|  3>     printlevel normal
|  4> end
|  5> %cpcm
|  6>     smd true
|  7>     smdsolvent "water"
|  8> end
|  9> * xyz 0 1
| 10> C -2.5218949628 -0.9864088983 0.352977688
| 11> C -1.0741120114 -0.5149133527 0.5853966686
| 12> H -0.9076115494 -0.4392703116 1.671983773
| 13> C -0.7934726401 0.8549687144 -0.0459667419
| 14> H -0.9149008421 0.7699043887 -1.1373946199
| 15> C 0.6623327141 1.2472378258 0.2277971182
| 16> H 0.8133527563 1.3542228636 1.3143171719
| 17> C 1.592160833 0.1434794849 -0.2823549181
| 18> H 1.503418014 0.0725909742 -1.3768040949
| 19> C 1.1618842317 -1.2090678946 0.3110657471
| 20> H 1.3207568685 -1.1748388729 1.4120377095
| 21> O -0.192361757 -1.4834352473 0.0497196794
| 22> O 1.9326053513 -2.1966942916 -0.2710434359
| 23> O 2.9039423518 0.4745593557 0.0938054932
| 24> O 0.9025854319 2.4747387269 -0.4138945612
| 25> O -1.695883683 1.7899561297 0.4835599938
| 26> O -3.0170635849 -0.7272541555 -0.9327111951
| 27> H -3.15498032 -0.520236127 1.1139705399
| 28> H -2.5400786708 -2.0712334204 0.4734794664
| 29> H 1.5125786628 -3.0598150804 -0.133132752
| 30> H 3.5012357859 -0.2351885685 -0.1847710337
| 31> H 1.8457087998 2.6823628323 -0.3408286689
| 32> H -1.3967936586 2.6755904466 0.2248107343
| 33> H -3.2224907094 0.2156122616 -1.0049216628
| 34> *
| 35>
| 36>                          ****END OF INPUT****

CARTESIAN COORDINATES (ANGSTROEM)
---------------------------------
  C     -2.521895   -0.986409    0.352978
  C     -1.074112   -0.514913    0.585397
  H     -0.907612   -0.439270    1.671984
  C     -0.793473    0.854969   -0.045967
  H     -0.914901    0.769904   -1.137395
  C      0.662333    1.247238    0.227797
  H      0.813353    1.354223    1.314317
  C      1.592161    0.143479   -0.282355
  H      1.503418    0.072591   -1.376804
  C      1.161884   -1.209068    0.311066
  H      1.320757   -1.174839    1.412038
  O     -0.192362   -1.483435    0.049720
  O      1.932605   -2.196694   -0.271043
  O      2.903942    0.474559    0.093805
  O      0.902585    2.474739   -0.413895
  O     -1.695884    1.789956    0.483560
  O     -3.017064   -0.727254   -0.932711
  H     -3.154980   -0.520236    1.113971
  H     -2.540079   -2.071233    0.473479
  H      1.512579   -3.059815   -0.133133
  H      3.501236   -0.235189   -0.184771
  H      1.845709    2.682363   -0.340829
  H     -1.396794    2.675590    0.224811
  H     -3.222491    0.215612   -1.004922

 Total Charge           Charge          ....    0
 Multiplicity           Mult            ....    1
 Number of Electrons    NEL             ....   96
 Basis Dimension        Dim             ....  318

ORBITAL ENERGIES
----------------

  NO   OCC          E(Eh)            E(eV)
   0   2.0000     -18.974448      -516.3210
   1   2.0000     -18.968864      -516.1690
   2   2.0000     -18.964134      -516.0403
   3   2.0000     -18.963462      -516.0220
   4   2.0000     -18.961978      -515.9817
   5   2.0000     -18.957227      -515.8524
   6   2.0000     -10.136247      -275.8213
   7   2.0000     -10.089736      -274.5557
   8   2.0000     -10.088365      -274.5184
   9   2.0000     -10.088047      -274.5097
  10   2.0000     -10.086747      -274.4743
  11   2.0000     -10.077577      -274.2248
  12   2.0000      -1.054499       -28.6944
  13   2.0000      -1.015949       -27.6454
  14   2.0000      -1.006678       -27.3931
  15   2.0000      -0.994653       -27.0659
  16   2.0000      -0.987635       -26.8749
  17   2.0000      -0.982975       -26.7481
  18   2.0000      -0.751333       -20.4448
  19   2.0000      -0.734173       -19.9779
  20   2.0000      -0.657088       -17.8803
  21   2.0000      -0.615872       -16.7587
  22   2.0000      -0.590461       -16.0673
  23   2.0000      -0.552603       -15.0371
  24   2.0000      -0.534811       -14.5529
  25   2.0000      -0.502990       -13.6871
  26   2.0000      -0.496935       -13.5223
  27   2.0000      -0.480966       -13.0877
  28   2.0000      -0.463605       -12.6153
  29   2.0000      -0.451215       -12.2782
  30   2.0000      -0.439895       -11.9702
  31   2.0000      -0.432667       -11.7735
  32   2.0000      -0.410692       -11.1755
  33   2.0000      -0.396752       -10.7962
  34   2.0000      -0.381550       -10.3825
  35   2.0000      -0.373343       -10.1592
  36   2.0000      -0.355122        -9.6634
  37   2.0000      -0.342884        -9.3304
  38   2.0000      -0.337260        -9.1773
  39   2.0000      -0.322965        -8.7883
  40   2.0000      -0.309231        -8.4146
  41   2.0000      -0.297886        -8.1059
  42   2.0000      -0.276567        -7.5258
  43   2.0000      -0.267675        -7.2838
  44   2.0000      -0.253888        -6.9087
  45   2.0000      -0.248285        -6.7562
  46   2.0000      -0.246009        -6.6942
  47   2.0000      -0.227467        -6.1897
  48   0.0000       0.039580         1.0770
  49   0.0000       0.054258         1.4764
  50   0.0000       0.076507         2.0819
  51   0.0000       0.087674         2.3857
  52   0.0000       0.100050         2.7225

MULLIKEN ATOMIC CHARGES
-----------------------
   0 C :   -0.254192
   1 C :   -0.065336
   2 H :    0.201817
   3 C :   -0.026143
   4 H :    0.197004
   5 C :   -0.037832
   6 H :    0.186972
   7 C :    0.062810
   8 H :    0.185847
   9 C :   -0.072227
  10 H :    0.168435
  11 O :   -0.236559
  12 O :   -0.453448
  13 O :   -0.496214
  14 O :   -0.496776
  15 O :   -0.495170
  16 O :   -0.487226
  17 H :    0.164131
  18 H :    0.166269
  19 H :    0.359972
  20 H :    0.353406
  21 H :    0.352282
  22 H :    0.355569
  23 H :    0.366608
Sum of atomic charges:    0.0000000

LOEWDIN ATOMIC CHARGES
----------------------
   0 C :    0.040165
   1 C :    0.117370
   2 H :    0.198399
   3 C :    0.111997
   4 H :    0.193446
   5 C :    0.109564
   6 H :    0.193322
   7 C :    0.115706
   8 H :    0.193890
   9 C :    0.298370
  10 H :    0.190423
  11 O :   -0.698461
  12 O :   -0.521303
  13 O :   -0.589444
  14 O :   -0.595434
  15 O :   -0.590147
  16 O :   -0.626180
  17 H :    0.180341
  18 H :    0.197176
  19 H :    0.302748
  20 H :    0.296619
  21 H :    0.296185
  22 H :    0.297482
  23 H :    0.287765

  Mayer bond orders larger than 0.100000
B(  0-C ,  1-C ) :   0.8928 B(  0-C , 16-O ) :   1.0292 B(  0-C , 17-H ) :   0.9715
B(  0-C , 18-H ) :   0.9801 B(  1-C ,  2-H ) :   0.9485 B(  1-C ,  3-C ) :   0.8221
B(  1-C , 11-O ) :   0.7843 B(  1-C , 16-O ) :  -0.1036 B(  3-C ,  4-H ) :   0.9937
B(  3-C ,  5-C ) :   0.8608 B(  3-C , 15-O ) :   0.8381 B(  5-C ,  6-H ) :   0.9676
B(  5-C ,  7-C ) :   0.8874 B(  5-C , 14-O ) :   0.8909 B(  7-C ,  8-H ) :   0.9510
B(  7-C ,  9-C ) :   0.8103 B(  7-C , 13-O ) :   0.8854 B(  9-C , 10-H ) :   1.0063
B(  9-C , 11-O ) :   0.9534 B(  9-C , 12-O ) :   1.0340 B( 12-O , 19-H ) :   0.8518
B( 13-O , 20-H ) :   0.8613 B( 14-O , 21-H ) :   0.8600 B( 15-O , 22-H ) :   0.8562
B( 16-O , 23-H ) :   0.8515

Dispersion correction           -0.008024785
FINAL SINGLE POINT ENERGY      -687.108615442580

DIPOLE MOMENT
-------------

Method             : SCF
Type of density    : Electron Density
Multiplicity       :   1
Irrep              :   0
Energy             :  -687.1200358894816418 Eh
Relativity type    :
Basis              : AO
                                X                 Y                 Z
Electronic contribution:      2.188622044      -0.184033123      -1.063426184
Nuclear contribution   :     -1.526063242       0.257942274       1.892387381
                        -----------------------------------------
Total Dipole Moment    :      0.662558802       0.073909151       0.828961197
                        -----------------------------------------
Magnitude (a.u.)       :      1.063777888
Magnitude (Debye)      :      2.703908507

Rotational constants in cm-1:             0.041221             0.026100             0.017384
Rotational constants in MHz :          1235.785610           782.454761           521.173928

                             ****ORCA TERMINATED NORMALLY****
TOTAL RUN TIME: 0 days 0 hours 0 minutes 58 seconds 115 msec
