                         Program Version 6.0.0  -   RELEASE  -
|  1> ! pbe def2-sv(p) def2/J RI DEFGRID1 loosescf d4 GCP(DFT/SV(P)) printgap
|  2> %output
|  3>     printlevel normal
|  4> end
|  5> * xyz 0 1
|  6> C -2.4647672095 -0.8554398909 -0.1581990708
|  7> C -1.1109446415 -0.5976893142 0.523510833
|  8> H -1.1399236267 -1.0023889643 1.5488396081
|  9> C -0.755396609 0.9065206092 0.6066854136
| 10> H -1.6392944746 1.4944262938 0.33228671
| 11> C 0.3636052052 1.2405960532 -0.3964908981
| 12> H 0.644053967 2.2918372209 -0.2385450777
| 13> C 1.6093198243 0.3792322519 -0.0897129094
| 14> H 2.2604487445 0.3495854575 -0.9702815441
| 15> C 1.1772985557 -1.0766297386 0.2436734945
| 16> H 1.2368879001 -1.2140590669 1.3377478079
| 17> O -0.1334007102 -1.3223340637 -0.2055670872
| 18> O 2.0074985252 -2.0307637091 -0.315955158
| 19> O 2.3865401519 0.9466954111 0.9307471636
| 20> O -0.1276034211 1.0371000462 -1.6953537234
| 21> O -0.277946903 1.2640501109 1.8845711645
| 22> O -2.7587666182 0.033966315 -1.2021646253
| 23> H -3.2715436513 -0.7388420607 0.568061439
| 24> H -2.4532853114 -1.891883498 -0.5197570753
| 25> H 1.7442101731 -2.173473652 -1.2387846856
| 26> H 1.8124630968 1.1312412706 1.6927639618
| 27> H 0.4735351224 1.4351949389 -2.3404137274
| 28> H -1.0170527131 1.3791636723 2.4974863246
| 29> H -1.9810581817 0.1114271045 -1.7788714159
| 30> *
| 31>
| 32>                          ****END OF INPUT****

CARTESIAN COORDINATES (ANGSTROEM)
---------------------------------
  C     -2.464767   -0.855440   -0.158199
  C     -1.110945   -0.597689    0.523511
  H     -1.139924   -1.002389    1.548840
  C     -0.755397    0.906521    0.606685
  H     -1.639294    1.494426    0.332287
  C      0.363605    1.240596   -0.396491
  H      0.644054    2.291837   -0.238545
  C      1.609320    0.379232   -0.089713
  H      2.260449    0.349585   -0.970282
  C      1.177299   -1.076630    0.243673
  H      1.236888   -1.214059    1.337748
  O     -0.133401   -1.322334   -0.205567
  O      2.007499   -2.030764   -0.315955
  O      2.386540    0.946695    0.930747
  O     -0.127603    1.037100   -1.695354
  O     -0.277947    1.264050    1.884571
  O     -2.758767    0.033966   -1.202165
  H     -3.271544   -0.738842    0.568061
  H     -2.453285   -1.891883   -0.519757
  H      1.744210   -2.173474   -1.238785
  H      1.812463    1.131241    1.692764
  H      0.473535    1.435195   -2.340414
  H     -1.017053    1.379164    2.497486
  H     -1.981058    0.111427   -1.778871

 Total Charge           Charge          ....    0
 Multiplicity           Mult            ....    1
 Number of Electrons    NEL             ....   96
 Basis Dimension        Dim             ....  192

ORBITAL ENERGIES
----------------

  NO   OCC          E(Eh)            E(eV)
   0   2.0000     -18.780073      -511.0318
   1   2.0000     -18.777421      -510.9596
   2   2.0000     -18.767669      -510.6942
   3   2.0000     -18.751115      -510.2438
   4   2.0000     -18.739796      -509.9358
   5   2.0000     -18.737594      -509.8758
   6   2.0000      -9.979823      -271.5648
   7   2.0000      -9.954251      -270.8689
   8   2.0000      -9.952343      -270.8170
   9   2.0000      -9.947071      -270.6736
  10   2.0000      -9.934877      -270.3417
  11   2.0000      -9.931651      -270.2540
  12   2.0000      -0.983564       -26.7641
  13   2.0000      -0.956977       -26.0407
  14   2.0000      -0.947868       -25.7928
  15   2.0000      -0.921958       -25.0877
  16   2.0000      -0.915882       -24.9224
  17   2.0000      -0.906495       -24.6670
  18   2.0000      -0.705301       -19.1922
  19   2.0000      -0.684202       -18.6181
  20   2.0000      -0.621414       -16.9095
  21   2.0000      -0.587261       -15.9802
  22   2.0000      -0.565733       -15.3944
  23   2.0000      -0.533001       -14.5037
  24   2.0000      -0.511210       -13.9107
  25   2.0000      -0.494448       -13.4546
  26   2.0000      -0.478093       -13.0096
  27   2.0000      -0.456535       -12.4229
  28   2.0000      -0.453527       -12.3411
  29   2.0000      -0.440507       -11.9868
  30   2.0000      -0.411818       -11.2061
  31   2.0000      -0.392295       -10.6749
  32   2.0000      -0.384638       -10.4665
  33   2.0000      -0.379969       -10.3395
  34   2.0000      -0.360904        -9.8207
  35   2.0000      -0.356147        -9.6913
  36   2.0000      -0.329449        -8.9648
  37   2.0000      -0.321382        -8.7453
  38   2.0000      -0.312831        -8.5126
  39   2.0000      -0.303177        -8.2499
  40   2.0000      -0.279128        -7.5955
  41   2.0000      -0.271173        -7.3790
  42   2.0000      -0.257603        -7.0097
  43   2.0000      -0.244206        -6.6452
  44   2.0000      -0.241406        -6.5690
  45   2.0000      -0.225241        -6.1291
  46   2.0000      -0.210166        -5.7189
  47   2.0000      -0.190973        -5.1966
  48   0.0000      -0.003868        -0.1053
  49   0.0000       0.013687         0.3724
  50   0.0000       0.041771         1.1366
  51   0.0000       0.048850         1.3293
  52   0.0000       0.067384         1.8336

MULLIKEN ATOMIC CHARGES
-----------------------
   0 C :    0.090956
   1 C :    0.009204
   2 H :    0.052962
   3 C :   -0.020993
   4 H :    0.094220
   5 C :    0.045298
   6 H :    0.076953
   7 C :    0.058051
   8 H :    0.042397
   9 C :    0.218732
  10 H :    0.044255
  11 O :   -0.304413
  12 O :   -0.387850
  13 O :   -0.427876
  14 O :   -0.418974
  15 O :   -0.428150
  16 O :   -0.445266
  17 H :    0.076904
  18 H :    0.084745
  19 H :    0.298328
  20 H :    0.305530
  21 H :    0.313706
  22 H :    0.317106
  23 H :    0.304175
Sum of atomic charges:   -0.0000000

LOEWDIN ATOMIC CHARGES
----------------------
   0 C :   -0.121197
   1 C :   -0.077772
   2 H :    0.102932
   3 C :   -0.076841
   4 H :    0.117065
   5 C :   -0.074914
   6 H :    0.108175
   7 C :   -0.092559
   8 H :    0.108604
   9 C :    0.003615
  10 H :    0.094240
  11 O :   -0.157274
  12 O :   -0.295733
  13 O :   -0.315779
  14 O :   -0.307428
  15 O :   -0.314503
  16 O :   -0.341110
  17 H :    0.110711
  18 H :    0.105712
  19 H :    0.284899
  20 H :    0.274672
  21 H :    0.294739
  22 H :    0.296590
  23 H :    0.273157

  Mayer bond orders larger than 0.100000
B(  0-C ,  1-C ) :   1.0351 B(  0-C , 16-O ) :   1.0977 B(  0-C , 17-H ) :   0.9211
B(  0-C , 18-H ) :   0.9123 B(  1-C ,  2-H ) :   0.8844 B(  1-C ,  3-C ) :   0.9611
B(  1-C , 11-O ) :   1.0085 B(  3-C ,  4-H ) :   0.8911 B(  3-C ,  5-C ) :   1.0298
B(  3-C , 15-O ) :   1.0368 B(  5-C ,  6-H ) :   0.8960 B(  5-C ,  7-C ) :   0.9500
B(  5-C , 14-O ) :   1.0248 B(  7-C ,  8-H ) :   0.8883 B(  7-C ,  9-C ) :   0.9478
B(  7-C , 13-O ) :   1.0623 B(  9-C , 10-H ) :   0.8748 B(  9-C , 11-O ) :   1.0420
B(  9-C , 12-O ) :   1.1296 B( 12-O , 19-H ) :   0.8442 B( 13-O , 20-H ) :   0.8210
B( 14-O , 21-H ) :   0.8400 B( 15-O , 22-H ) :   0.8419 B( 16-O , 23-H ) :   0.8096

Dispersion correction           -0.025319804
FINAL SINGLE POINT ENERGY      -685.688297785106

DIPOLE MOMENT
-------------

Method             : SCF
Type of density    : Electron Density
Multiplicity       :   1
Irrep              :   0
Energy             :  -685.8202331869598538 Eh
Relativity type    :
Basis              : AO
                                X                 Y                 Z
Electronic contribution:      2.611088326      -0.505506898      -0.818654836
Nuclear contribution   :     -3.108389449       1.098693889       0.826526979
                        -----------------------------------------
Total Dipole Moment    :     -0.497301124       0.593186992       0.007872143
                        -----------------------------------------
Magnitude (a.u.)       :      0.774106701
Magnitude (Debye)      :      1.967622865

Rotational constants in cm-1:             0.042438             0.026947             0.023283
Rotational constants in MHz :          1272.247258           807.864503           698.007734

                             ****ORCA TERMINATED NORMALLY****
TOTAL RUN TIME: 0 days 0 hours 0 minutes 12 seconds 107 msec
