                         Program Version 6.0.0  -   RELEASE  -
|  1> ! pbe def2-sv(p) def2/J RI DEFGRID1 loosescf d4 GCP(DFT/SV(P)) printgap
|  2> %output
|  3>     printlevel normal
|  4> end
|  5> * xyz 0 1
|  6> C -2.5598471207 -0.6501589347 -0.3629250913
|  7> C -1.1892722297 -0.2893696228 0.2175614926
|  8> H -1.2611647334 -0.2576100548 1.3155287666
|  9> C -0.7153334624 1.0823011421 -0.2809462606
| 10> H -0.7206640287 1.0852263392 -1.382138276
| 11> C 0.7247502195 1.3344233338 0.1885934538
| 12> H 0.7210625748 1.4313987771 1.2878974773
| 13> C 1.6251339205 0.1548134944 -0.2119202835
| 14> H 1.6635372852 0.098788038 -1.3059803342
| 15> C 1.0145460393 -1.1490508055 0.3393726205
| 16> H 0.9777911072 -1.09479147 1.4420779762
| 17> O -0.2891904528 -1.3106877329 -0.1754121888
| 18> O 1.7532314106 -2.2710448988 0.0388172456
| 19> O 2.9498688682 0.3595563241 0.205487904
| 20> O 1.1662631425 2.5380854357 -0.3919887801
| 21> O -1.5945270385 2.0548886636 0.2160994154
| 22> O -3.0874059439 -1.817905676 0.2069361462
| 23> H -2.4613845754 -0.7571381906 -1.450325873
| 24> H -3.2579159161 0.1566800647 -0.1367366689
| 25> H 1.7187696648 -2.4471485749 -0.9146113103
| 26> H 3.0445648374 0.1528130245 1.1465065544
| 27> H 2.1318324809 2.583974839 -0.3149285412
| 28> H -1.2501416041 2.92880134 -0.0256038467
| 29> H -2.4561322955 -2.5389541942 0.0658721799
| 30> *
| 31>
| 32>                          ****END OF INPUT****

CARTESIAN COORDINATES (ANGSTROEM)
---------------------------------
  C     -2.559847   -0.650159   -0.362925
  C     -1.189272   -0.289370    0.217561
  H     -1.261165   -0.257610    1.315529
  C     -0.715333    1.082301   -0.280946
  H     -0.720664    1.085226   -1.382138
  C      0.724750    1.334423    0.188593
  H      0.721063    1.431399    1.287897
  C      1.625134    0.154813   -0.211920
  H      1.663537    0.098788   -1.305980
  C      1.014546   -1.149051    0.339373
  H      0.977791   -1.094791    1.442078
  O     -0.289190   -1.310688   -0.175412
  O      1.753231   -2.271045    0.038817
  O      2.949869    0.359556    0.205488
  O      1.166263    2.538085   -0.391989
  O     -1.594527    2.054889    0.216099
  O     -3.087406   -1.817906    0.206936
  H     -2.461385   -0.757138   -1.450326
  H     -3.257916    0.156680   -0.136737
  H      1.718770   -2.447149   -0.914611
  H      3.044565    0.152813    1.146507
  H      2.131832    2.583975   -0.314929
  H     -1.250142    2.928801   -0.025604
  H     -2.456132   -2.538954    0.065872

 Total Charge           Charge          ....    0
 Multiplicity           Mult            ....    1
 Number of Electrons    NEL             ....   96
 Basis Dimension        Dim             ....  192

ORBITAL ENERGIES
----------------

  NO   OCC          E(Eh)            E(eV)
   0   2.0000     -18.783562      -511.1267
   1   2.0000     -18.771392      -510.7956
   2   2.0000     -18.770162      -510.7621
   3   2.0000     -18.760096      -510.4882
   4   2.0000     -18.756412      -510.3879
   5   2.0000     -18.741720      -509.9881
   6   2.0000      -9.999453      -272.0990
   7   2.0000      -9.950915      -270.7782
   8   2.0000      -9.947377      -270.6819
   9   2.0000      -9.947015      -270.6720
  10   2.0000      -9.946541      -270.6591
  11   2.0000      -9.928101      -270.1574
  12   2.0000      -0.994632       -27.0653
  13   2.0000      -0.954784       -25.9810
  14   2.0000      -0.943985       -25.6871
  15   2.0000      -0.929053       -25.2808
  16   2.0000      -0.922230       -25.0952
  17   2.0000      -0.913938       -24.8695
  18   2.0000      -0.710012       -19.3204
  19   2.0000      -0.696591       -18.9552
  20   2.0000      -0.618798       -16.8383
  21   2.0000      -0.594694       -16.1824
  22   2.0000      -0.565951       -15.4003
  23   2.0000      -0.546453       -14.8697
  24   2.0000      -0.512945       -13.9579
  25   2.0000      -0.499165       -13.5830
  26   2.0000      -0.470930       -12.8146
  27   2.0000      -0.459526       -12.5043
  28   2.0000      -0.453188       -12.3319
  29   2.0000      -0.441621       -12.0171
  30   2.0000      -0.430573       -11.7165
  31   2.0000      -0.403234       -10.9726
  32   2.0000      -0.399439       -10.8693
  33   2.0000      -0.368768       -10.0347
  34   2.0000      -0.363323        -9.8865
  35   2.0000      -0.350452        -9.5363
  36   2.0000      -0.329747        -8.9729
  37   2.0000      -0.322335        -8.7712
  38   2.0000      -0.311665        -8.4808
  39   2.0000      -0.308235        -8.3875
  40   2.0000      -0.295175        -8.0321
  41   2.0000      -0.271169        -7.3789
  42   2.0000      -0.259563        -7.0631
  43   2.0000      -0.254907        -6.9364
  44   2.0000      -0.241592        -6.5741
  45   2.0000      -0.223241        -6.0747
  46   2.0000      -0.215084        -5.8527
  47   2.0000      -0.210628        -5.7315
  48   0.0000       0.009033         0.2458
  49   0.0000       0.020752         0.5647
  50   0.0000       0.024835         0.6758
  51   0.0000       0.046513         1.2657
  52   0.0000       0.055775         1.5177

MULLIKEN ATOMIC CHARGES
-----------------------
   0 C :    0.099424
   1 C :   -0.017673
   2 H :    0.062791
   3 C :    0.066884
   4 H :    0.052265
   5 C :    0.064858
   6 H :    0.039137
   7 C :    0.025176
   8 H :    0.057081
   9 C :    0.176347
  10 H :    0.043232
  11 O :   -0.317163
  12 O :   -0.365197
  13 O :   -0.409110
  14 O :   -0.423561
  15 O :   -0.416023
  16 O :   -0.433069
  17 H :    0.063014
  18 H :    0.101804
  19 H :    0.306831
  20 H :    0.303729
  21 H :    0.307530
  22 H :    0.313580
  23 H :    0.298112
Sum of atomic charges:   -0.0000000

LOEWDIN ATOMIC CHARGES
----------------------
   0 C :   -0.123548
   1 C :   -0.069604
   2 H :    0.109247
   3 C :   -0.067163
   4 H :    0.104081
   5 C :   -0.087097
   6 H :    0.096805
   7 C :   -0.104208
   8 H :    0.115728
   9 C :   -0.005922
  10 H :    0.093642
  11 O :   -0.157428
  12 O :   -0.283707
  13 O :   -0.308116
  14 O :   -0.328682
  15 O :   -0.315303
  16 O :   -0.334178
  17 H :    0.098857
  18 H :    0.125293
  19 H :    0.291970
  20 H :    0.288790
  21 H :    0.286494
  22 H :    0.292574
  23 H :    0.281475

  Mayer bond orders larger than 0.100000
B(  0-C ,  1-C ) :   1.0610 B(  0-C , 16-O ) :   1.0827 B(  0-C , 17-H ) :   0.9046
B(  0-C , 18-H ) :   0.9125 B(  1-C ,  2-H ) :   0.8668 B(  1-C ,  3-C ) :   1.0050
B(  1-C , 11-O ) :   0.9737 B(  3-C ,  4-H ) :   0.8676 B(  3-C ,  5-C ) :   1.0150
B(  3-C , 15-O ) :   1.0665 B(  5-C ,  6-H ) :   0.8695 B(  5-C ,  7-C ) :   0.9898
B(  5-C , 14-O ) :   1.0879 B(  7-C ,  8-H ) :   0.8560 B(  7-C ,  9-C ) :   0.9793
B(  7-C , 13-O ) :   1.0435 B(  9-C , 10-H ) :   0.8747 B(  9-C , 11-O ) :   1.0039
B(  9-C , 12-O ) :   1.1676 B( 12-O , 19-H ) :   0.8416 B( 13-O , 20-H ) :   0.8440
B( 14-O , 21-H ) :   0.8295 B( 15-O , 22-H ) :   0.8365 B( 16-O , 23-H ) :   0.8467

Dispersion correction           -0.023636006
FINAL SINGLE POINT ENERGY      -685.701507401728

DIPOLE MOMENT
-------------

Method             : SCF
Type of density    : Electron Density
Multiplicity       :   1
Irrep              :   0
Energy             :  -685.8313276983376454 Eh
Relativity type    :
Basis              : AO
                                X                 Y                 Z
Electronic contribution:      2.047567779      -1.017394841       0.086434481
Nuclear contribution   :     -1.065443441       1.252438091      -0.254116289
                        -----------------------------------------
Total Dipole Moment    :      0.982124338       0.235043250      -0.167681808
                        -----------------------------------------
Magnitude (a.u.)       :      1.023684880
Magnitude (Debye)      :      2.602000180

Rotational constants in cm-1:             0.039269             0.025962             0.016341
Rotational constants in MHz :          1177.242755           778.335810           489.892811

                             ****ORCA TERMINATED NORMALLY****
TOTAL RUN TIME: 0 days 0 hours 0 minutes 12 seconds 248 msec
