                         Program Version 6.0.0  -   RELEASE  -
|  1> ! r2scan-3c def2/J RI DEFGRID2 scfconv6 printgap
|  2> %output
|  3>     printlevel normal
|  4> end
|  5> * xyz 0 1
|  6> C -3.3801861105 -0.4130383042 0.0340264332
|  7> O -2.1843165882 0.0047412661 -0.6308947339
|  8> C -1.0535495985 0.0710725292 0.0702919312
|  9> O -0.996057732 -0.1894201373 1.252776031
| 10> C 0.0907884797 0.4849864815 -0.8263495954
| 11> C 0.8953633448 -0.7631702016 -1.2309126961
| 12> C 1.6967071571 -1.3211744226 -0.0597312825
| 13> C 2.6397231057 -0.2554213039 0.4893531117
| 14> C 1.8355631366 0.9498751112 0.9649801071
| 15> C 1.0078380565 1.529512061 -0.178577858
| 16> H -3.3086683036 -0.1925625791 1.0998315049
| 17> H -3.5127601878 -1.4851071878 -0.1108164739
| 18> H -4.1957164861 0.1375311368 -0.4264437679
| 19> H -0.3678973167 0.9091095444 -1.7249171228
| 20> H 0.2163193106 -1.5229552687 -1.623777076
| 21> H 1.580615251 -0.4750522257 -2.0300748669
| 22> H 1.0160890014 -1.6393866466 0.7329543353
| 23> H 2.2632577639 -2.1935739522 -0.3899711562
| 24> H 3.2201301064 -0.6635343697 1.3181670477
| 25> H 3.3364397331 0.053496935 -0.2933767422
| 26> H 1.1693563828 0.6426729486 1.7724235296
| 27> H 2.5047171562 1.7203212889 1.3522134189
| 28> H 0.4072435607 2.3652913916 0.1860495085
| 29> H 1.6794615054 1.9071368837 -0.9522346764
| 30> *
| 31>
| 32>                          ****END OF INPUT****

CARTESIAN COORDINATES (ANGSTROEM)
---------------------------------
  C     -3.380186   -0.413038    0.034026
  O     -2.184317    0.004741   -0.630895
  C     -1.053550    0.071073    0.070292
  O     -0.996058   -0.189420    1.252776
  C      0.090788    0.484986   -0.826350
  C      0.895363   -0.763170   -1.230913
  C      1.696707   -1.321174   -0.059731
  C      2.639723   -0.255421    0.489353
  C      1.835563    0.949875    0.964980
  C      1.007838    1.529512   -0.178578
  H     -3.308668   -0.192563    1.099832
  H     -3.512760   -1.485107   -0.110816
  H     -4.195716    0.137531   -0.426444
  H     -0.367897    0.909110   -1.724917
  H      0.216319   -1.522955   -1.623777
  H      1.580615   -0.475052   -2.030075
  H      1.016089   -1.639387    0.732954
  H      2.263258   -2.193574   -0.389971
  H      3.220130   -0.663534    1.318167
  H      3.336440    0.053497   -0.293377
  H      1.169356    0.642673    1.772424
  H      2.504717    1.720321    1.352213
  H      0.407244    2.365291    0.186050
  H      1.679462    1.907137   -0.952235

 Total Charge           Charge          ....    0
 Multiplicity           Mult            ....    1
 Number of Electrons    NEL             ....   78
 Basis Dimension        Dim             ....  270

ORBITAL ENERGIES
----------------

  NO   OCC          E(Eh)            E(eV)
   0   2.0000     -18.998084      -516.9641
   1   2.0000     -18.930681      -515.1300
   2   2.0000     -10.151480      -276.2358
   3   2.0000     -10.084736      -274.4196
   4   2.0000     -10.045555      -273.3534
   5   2.0000     -10.032929      -273.0099
   6   2.0000     -10.028608      -272.8923
   7   2.0000     -10.018426      -272.6152
   8   2.0000     -10.017491      -272.5898
   9   2.0000     -10.013451      -272.4798
  10   2.0000      -1.072145       -29.1746
  11   2.0000      -0.977989       -26.6124
  12   2.0000      -0.805430       -21.9169
  13   2.0000      -0.733406       -19.9570
  14   2.0000      -0.708806       -19.2876
  15   2.0000      -0.689829       -18.7712
  16   2.0000      -0.593089       -16.1388
  17   2.0000      -0.574393       -15.6300
  18   2.0000      -0.540154       -14.6983
  19   2.0000      -0.517394       -14.0790
  20   2.0000      -0.459370       -12.5001
  21   2.0000      -0.452610       -12.3162
  22   2.0000      -0.451127       -12.2758
  23   2.0000      -0.433041       -11.7836
  24   2.0000      -0.412375       -11.2213
  25   2.0000      -0.408466       -11.1149
  26   2.0000      -0.393570       -10.7096
  27   2.0000      -0.367343        -9.9959
  28   2.0000      -0.347489        -9.4557
  29   2.0000      -0.346364        -9.4250
  30   2.0000      -0.342606        -9.3228
  31   2.0000      -0.336841        -9.1659
  32   2.0000      -0.313701        -8.5362
  33   2.0000      -0.309814        -8.4305
  34   2.0000      -0.294809        -8.0221
  35   2.0000      -0.274051        -7.4573
  36   2.0000      -0.267891        -7.2897
  37   2.0000      -0.266792        -7.2598
  38   2.0000      -0.230927        -6.2838
  39   0.0000      -0.015685        -0.4268
  40   0.0000       0.063578         1.7301
  41   0.0000       0.084150         2.2899
  42   0.0000       0.102329         2.7845
  43   0.0000       0.112707         3.0669

MULLIKEN ATOMIC CHARGES
-----------------------
   0 C :   -0.306746
   1 O :   -0.184758
   2 C :    0.275277
   3 O :   -0.432314
   4 C :    0.068369
   5 C :   -0.379763
   6 C :   -0.267747
   7 C :   -0.331347
   8 C :   -0.284555
   9 C :   -0.373182
  10 H :    0.181032
  11 H :    0.150209
  12 H :    0.148993
  13 H :    0.169962
  14 H :    0.147145
  15 H :    0.160092
  16 H :    0.176041
  17 H :    0.147607
  18 H :    0.149837
  19 H :    0.143877
  20 H :    0.192914
  21 H :    0.143801
  22 H :    0.144357
  23 H :    0.160901
Sum of atomic charges:    0.0000000

LOEWDIN ATOMIC CHARGES
----------------------
   0 C :   -0.047028
   1 O :   -0.606644
   2 C :    0.364334
   3 O :   -0.447914
   4 C :   -0.155780
   5 C :   -0.268176
   6 C :   -0.298000
   7 C :   -0.299753
   8 C :   -0.299368
   9 C :   -0.273526
  10 H :    0.188985
  11 H :    0.171936
  12 H :    0.175004
  13 H :    0.185234
  14 H :    0.163057
  15 H :    0.161017
  16 H :    0.171175
  17 H :    0.153924
  18 H :    0.155877
  19 H :    0.151418
  20 H :    0.178025
  21 H :    0.152519
  22 H :    0.163737
  23 H :    0.159948

  Mayer bond orders larger than 0.100000
B(  0-C ,  1-O ) :   0.8412 B(  0-C , 10-H ) :   0.9673 B(  0-C , 11-H ) :   0.9599
B(  0-C , 12-H ) :   0.9699 B(  1-O ,  2-C ) :   1.0790 B(  2-C ,  3-O ) :   1.8226
B(  2-C ,  4-C ) :   0.9255 B(  4-C ,  5-C ) :   0.9041 B(  4-C ,  9-C ) :   0.9077
B(  4-C , 13-H ) :   0.9274 B(  5-C ,  6-C ) :   0.9175 B(  5-C , 14-H ) :   0.9399
B(  5-C , 15-H ) :   0.9830 B(  6-C ,  7-C ) :   0.9057 B(  6-C , 16-H ) :   0.9778
B(  6-C , 17-H ) :   0.9384 B(  7-C ,  8-C ) :   0.9035 B(  7-C , 18-H ) :   0.9457
B(  7-C , 19-H ) :   1.0110 B(  8-C ,  9-C ) :   0.8991 B(  8-C , 20-H ) :   0.9829
B(  8-C , 21-H ) :   0.9393 B(  9-C , 22-H ) :   0.9477 B(  9-C , 23-H ) :   0.9896

Dispersion correction           -0.007832790
FINAL SINGLE POINT ENERGY      -463.633316087566

DIPOLE MOMENT
-------------

Method             : SCF
Type of density    : Electron Density
Multiplicity       :   1
Irrep              :   0
Energy             :  -463.6389448703415610 Eh
Relativity type    :
Basis              : AO
                                X                 Y                 Z
Electronic contribution:     -5.864935399       0.443342099       0.420360290
Nuclear contribution   :      5.589906169      -0.412353244      -1.013356222
                        -----------------------------------------
Total Dipole Moment    :     -0.275029230       0.030988855      -0.592995932
                        -----------------------------------------
Magnitude (a.u.)       :      0.654404739
Magnitude (Debye)      :      1.663364656

Rotational constants in cm-1:             0.088936             0.028521             0.027421
Rotational constants in MHz :          2666.241487           855.052533           822.059631

                             ****ORCA TERMINATED NORMALLY****
TOTAL RUN TIME: 0 days 0 hours 0 minutes 32 seconds 919 msec
