                         Program Version 6.0.0  -   RELEASE  -
|  1> ! r2scan-3c def2/J RI DEFGRID2 scfconv6 printgap
|  2> %output
|  3>     printlevel normal
|  4> end
|  5> %cpcm
|  6>     smd true
|  7>     smdsolvent "water"
|  8> end
|  9> * xyz 0 1
| 10> C -3.3801861105 -0.4130383042 0.0340264332
| 11> O -2.1843165882 0.0047412661 -0.6308947339
| 12> C -1.0535495985 0.0710725292 0.0702919312
| 13> O -0.996057732 -0.1894201373 1.252776031
| 14> C 0.0907884797 0.4849864815 -0.8263495954
| 15> C 0.8953633448 -0.7631702016 -1.2309126961
| 16> C 1.6967071571 -1.3211744226 -0.0597312825
| 17> C 2.6397231057 -0.2554213039 0.4893531117
| 18> C 1.8355631366 0.9498751112 0.9649801071
| 19> C 1.0078380565 1.529512061 -0.178577858
| 20> H -3.3086683036 -0.1925625791 1.0998315049
| 21> H -3.5127601878 -1.4851071878 -0.1108164739
| 22> H -4.1957164861 0.1375311368 -0.4264437679
| 23> H -0.3678973167 0.9091095444 -1.7249171228
| 24> H 0.2163193106 -1.5229552687 -1.623777076
| 25> H 1.580615251 -0.4750522257 -2.0300748669
| 26> H 1.0160890014 -1.6393866466 0.7329543353
| 27> H 2.2632577639 -2.1935739522 -0.3899711562
| 28> H 3.2201301064 -0.6635343697 1.3181670477
| 29> H 3.3364397331 0.053496935 -0.2933767422
| 30> H 1.1693563828 0.6426729486 1.7724235296
| 31> H 2.5047171562 1.7203212889 1.3522134189
| 32> H 0.4072435607 2.3652913916 0.1860495085
| 33> H 1.6794615054 1.9071368837 -0.9522346764
| 34> *
| 35>
| 36>                          ****END OF INPUT****

CARTESIAN COORDINATES (ANGSTROEM)
---------------------------------
  C     -3.380186   -0.413038    0.034026
  O     -2.184317    0.004741   -0.630895
  C     -1.053550    0.071073    0.070292
  O     -0.996058   -0.189420    1.252776
  C      0.090788    0.484986   -0.826350
  C      0.895363   -0.763170   -1.230913
  C      1.696707   -1.321174   -0.059731
  C      2.639723   -0.255421    0.489353
  C      1.835563    0.949875    0.964980
  C      1.007838    1.529512   -0.178578
  H     -3.308668   -0.192563    1.099832
  H     -3.512760   -1.485107   -0.110816
  H     -4.195716    0.137531   -0.426444
  H     -0.367897    0.909110   -1.724917
  H      0.216319   -1.522955   -1.623777
  H      1.580615   -0.475052   -2.030075
  H      1.016089   -1.639387    0.732954
  H      2.263258   -2.193574   -0.389971
  H      3.220130   -0.663534    1.318167
  H      3.336440    0.053497   -0.293377
  H      1.169356    0.642673    1.772424
  H      2.504717    1.720321    1.352213
  H      0.407244    2.365291    0.186050
  H      1.679462    1.907137   -0.952235

 Total Charge           Charge          ....    0
 Multiplicity           Mult            ....    1
 Number of Electrons    NEL             ....   78
 Basis Dimension        Dim             ....  270

ORBITAL ENERGIES
----------------

  NO   OCC          E(Eh)            E(eV)
   0   2.0000     -19.001987      -517.0703
   1   2.0000     -18.942255      -515.4450
   2   2.0000     -10.159133      -276.4441
   3   2.0000     -10.074263      -274.1346
   4   2.0000     -10.041354      -273.2391
   5   2.0000     -10.025540      -272.8088
   6   2.0000     -10.022454      -272.7248
   7   2.0000     -10.014796      -272.5165
   8   2.0000     -10.013159      -272.4719
   9   2.0000     -10.012201      -272.4458
  10   2.0000      -1.077224       -29.3128
  11   2.0000      -0.987757       -26.8782
  12   2.0000      -0.801404       -21.8073
  13   2.0000      -0.730472       -19.8772
  14   2.0000      -0.704156       -19.1611
  15   2.0000      -0.684364       -18.6225
  16   2.0000      -0.588147       -16.0043
  17   2.0000      -0.569963       -15.5095
  18   2.0000      -0.536880       -14.6093
  19   2.0000      -0.516709       -14.0604
  20   2.0000      -0.463189       -12.6040
  21   2.0000      -0.452515       -12.3136
  22   2.0000      -0.449387       -12.2285
  23   2.0000      -0.432801       -11.7771
  24   2.0000      -0.406762       -11.0685
  25   2.0000      -0.405870       -11.0443
  26   2.0000      -0.391594       -10.6558
  27   2.0000      -0.365375        -9.9424
  28   2.0000      -0.342912        -9.3311
  29   2.0000      -0.341542        -9.2938
  30   2.0000      -0.338202        -9.2029
  31   2.0000      -0.335171        -9.1205
  32   2.0000      -0.314942        -8.5700
  33   2.0000      -0.306344        -8.3361
  34   2.0000      -0.294673        -8.0185
  35   2.0000      -0.278052        -7.5662
  36   2.0000      -0.263426        -7.1682
  37   2.0000      -0.262279        -7.1370
  38   2.0000      -0.239835        -6.5263
  39   0.0000      -0.021560        -0.5867
  40   0.0000       0.068361         1.8602
  41   0.0000       0.092705         2.5226
  42   0.0000       0.109286         2.9738
  43   0.0000       0.117475         3.1967

MULLIKEN ATOMIC CHARGES
-----------------------
   0 C :   -0.328579
   1 O :   -0.204092
   2 C :    0.300862
   3 O :   -0.499179
   4 C :    0.076503
   5 C :   -0.382434
   6 C :   -0.288416
   7 C :   -0.339691
   8 C :   -0.298905
   9 C :   -0.395423
  10 H :    0.180685
  11 H :    0.177694
  12 H :    0.174896
  13 H :    0.183328
  14 H :    0.159345
  15 H :    0.177600
  16 H :    0.166386
  17 H :    0.159491
  18 H :    0.157959
  19 H :    0.156522
  20 H :    0.173902
  21 H :    0.154875
  22 H :    0.158714
  23 H :    0.177959
Sum of atomic charges:    0.0000000

LOEWDIN ATOMIC CHARGES
----------------------
   0 C :   -0.043309
   1 O :   -0.611855
   2 C :    0.372426
   3 O :   -0.498391
   4 C :   -0.152381
   5 C :   -0.266971
   6 C :   -0.300037
   7 C :   -0.303058
   8 C :   -0.302841
   9 C :   -0.274221
  10 H :    0.188924
  11 H :    0.182032
  12 H :    0.186299
  13 H :    0.191681
  14 H :    0.167139
  15 H :    0.168200
  16 H :    0.165490
  17 H :    0.158053
  18 H :    0.156802
  19 H :    0.156798
  20 H :    0.169145
  21 H :    0.155923
  22 H :    0.166880
  23 H :    0.167270

  Mayer bond orders larger than 0.100000
B(  0-C ,  1-O ) :   0.8272 B(  0-C , 10-H ) :   0.9633 B(  0-C , 11-H ) :   0.9520
B(  0-C , 12-H ) :   0.9600 B(  1-O ,  2-C ) :   1.0920 B(  2-C ,  3-O ) :   1.7733
B(  2-C ,  4-C ) :   0.9301 B(  4-C ,  5-C ) :   0.9021 B(  4-C ,  9-C ) :   0.8957
B(  4-C , 13-H ) :   0.9191 B(  5-C ,  6-C ) :   0.9102 B(  5-C , 14-H ) :   0.9369
B(  5-C , 15-H ) :   0.9770 B(  6-C ,  7-C ) :   0.9026 B(  6-C , 16-H ) :   0.9848
B(  6-C , 17-H ) :   0.9357 B(  7-C ,  8-C ) :   0.9009 B(  7-C , 18-H ) :   0.9478
B(  7-C , 19-H ) :   1.0041 B(  8-C ,  9-C ) :   0.8975 B(  8-C , 20-H ) :   0.9901
B(  8-C , 21-H ) :   0.9372 B(  9-C , 22-H ) :   0.9506 B(  9-C , 23-H ) :   0.9818

Dispersion correction           -0.007832790
FINAL SINGLE POINT ENERGY      -463.636510378134

DIPOLE MOMENT
-------------

Method             : SCF
Type of density    : Electron Density
Multiplicity       :   1
Irrep              :   0
Energy             :  -463.6421391609088118 Eh
Relativity type    :
Basis              : AO
                                X                 Y                 Z
Electronic contribution:     -5.886670018       0.498953337       0.029652487
Nuclear contribution   :      5.589906169      -0.412353244      -1.013356222
                        -----------------------------------------
Total Dipole Moment    :     -0.296763849       0.086600093      -0.983703735
                        -----------------------------------------
Magnitude (a.u.)       :      1.031135974
Magnitude (Debye)      :      2.620939357

Rotational constants in cm-1:             0.088936             0.028521             0.027421
Rotational constants in MHz :          2666.241487           855.052533           822.059631

                             ****ORCA TERMINATED NORMALLY****
TOTAL RUN TIME: 0 days 0 hours 0 minutes 44 seconds 146 msec
