                         Program Version 6.0.0  -   RELEASE  -
|  1> ! r2scan-3c def2/J RI DEFGRID2 scfconv6 printgap
|  2> %output
|  3>     printlevel normal
|  4> end
|  5> * xyz 0 1
|  6> C -2.9207392575 -2.65654e-05 -0.0499189355
|  7> C -1.4448999584 -6.08277e-05 0.3392593094
|  8> C -0.7383512591 -1.2477345055 -0.1920586657
|  9> C 0.7383472807 -1.2476547455 0.1923829481
| 10> C 1.4447921378 -3.39499e-05 -0.3392149042
| 11> C 0.7384541223 1.2477688393 0.1921013207
| 12> C -0.738406151 1.2477906495 -0.1917745613
| 13> C 2.9208041601 -7.73058e-05 0.0492874623
| 14> H -3.4199459325 0.8822808199 0.3439176901
| 15> H -3.0269434974 0.0002777502 -1.1327757433
| 16> H -3.4197539503 -0.8827183898 0.3432891059
| 17> H -1.3719540325 -0.0001771783 1.4331301478
| 18> H -1.2224618573 -2.1428904625 0.2046393961
| 19> H -0.8295855427 -1.2739906471 -1.2807766521
| 20> H 0.8295662834 -1.2736334327 1.2811171456
| 21> H 1.2225256233 -2.1428719185 -0.204093058
| 22> H 1.3713772965 -0.0001545502 -1.4330602219
| 23> H 0.8301917796 1.2743444828 1.2807718715
| 24> H 1.2223967754 2.1428201352 -0.2050688527
| 25> H -1.2223759091 2.1427605013 0.205514385
| 26> H -0.8300589058 1.2745570355 -1.2804453151
| 27> H 3.0275356702 -0.0015459176 1.1320422803
| 28> H 3.4194466258 0.8831177687 -0.3432548446
| 29> H 3.4200267623 -0.8818374272 -0.3457097009
| 30> *
| 31>
| 32>                          ****END OF INPUT****

CARTESIAN COORDINATES (ANGSTROEM)
---------------------------------
  C     -2.920739   -0.000027   -0.049919
  C     -1.444900   -0.000061    0.339259
  C     -0.738351   -1.247735   -0.192059
  C      0.738347   -1.247655    0.192383
  C      1.444792   -0.000034   -0.339215
  C      0.738454    1.247769    0.192101
  C     -0.738406    1.247791   -0.191775
  C      2.920804   -0.000077    0.049287
  H     -3.419946    0.882281    0.343918
  H     -3.026943    0.000278   -1.132776
  H     -3.419754   -0.882718    0.343289
  H     -1.371954   -0.000177    1.433130
  H     -1.222462   -2.142890    0.204639
  H     -0.829586   -1.273991   -1.280777
  H      0.829566   -1.273633    1.281117
  H      1.222526   -2.142872   -0.204093
  H      1.371377   -0.000155   -1.433060
  H      0.830192    1.274344    1.280772
  H      1.222397    2.142820   -0.205069
  H     -1.222376    2.142761    0.205514
  H     -0.830059    1.274557   -1.280445
  H      3.027536   -0.001546    1.132042
  H      3.419447    0.883118   -0.343255
  H      3.420027   -0.881837   -0.345710

 Total Charge           Charge          ....    0
 Multiplicity           Mult            ....    1
 Number of Electrons    NEL             ....   64
 Basis Dimension        Dim             ....  232

ORBITAL ENERGIES
----------------

  NO   OCC          E(Eh)            E(eV)
   0   2.0000     -10.026340      -272.8306
   1   2.0000     -10.026338      -272.8305
   2   2.0000     -10.017574      -272.5921
   3   2.0000     -10.017569      -272.5919
   4   2.0000     -10.017443      -272.5885
   5   2.0000     -10.017432      -272.5882
   6   2.0000     -10.011512      -272.4271
   7   2.0000     -10.011504      -272.4269
   8   2.0000      -0.804148       -21.8820
   9   2.0000      -0.743492       -20.2314
  10   2.0000      -0.703869       -19.1532
  11   2.0000      -0.669162       -18.2088
  12   2.0000      -0.606722       -16.5098
  13   2.0000      -0.572824       -15.5873
  14   2.0000      -0.534149       -14.5349
  15   2.0000      -0.518367       -14.1055
  16   2.0000      -0.437613       -11.9081
  17   2.0000      -0.410958       -11.1827
  18   2.0000      -0.408247       -11.1090
  19   2.0000      -0.400250       -10.8914
  20   2.0000      -0.394003       -10.7214
  21   2.0000      -0.367252        -9.9934
  22   2.0000      -0.353713        -9.6250
  23   2.0000      -0.341369        -9.2891
  24   2.0000      -0.333776        -9.0825
  25   2.0000      -0.322824        -8.7845
  26   2.0000      -0.309630        -8.4255
  27   2.0000      -0.297761        -8.1025
  28   2.0000      -0.290959        -7.9174
  29   2.0000      -0.284892        -7.7523
  30   2.0000      -0.261493        -7.1156
  31   2.0000      -0.256511        -6.9800
  32   0.0000       0.089787         2.4432
  33   0.0000       0.093590         2.5467
  34   0.0000       0.112671         3.0659
  35   0.0000       0.122553         3.3348
  36   0.0000       0.122626         3.3368

MULLIKEN ATOMIC CHARGES
-----------------------
   0 C :   -0.494059
   1 C :   -0.027189
   2 C :   -0.331731
   3 C :   -0.331599
   4 C :   -0.027216
   5 C :   -0.331684
   6 C :   -0.331689
   7 C :   -0.494020
   8 H :    0.145890
   9 H :    0.148328
  10 H :    0.145883
  11 H :    0.152445
  12 H :    0.143622
  13 H :    0.152415
  14 H :    0.152408
  15 H :    0.143634
  16 H :    0.152436
  17 H :    0.152408
  18 H :    0.143603
  19 H :    0.143612
  20 H :    0.152412
  21 H :    0.148316
  22 H :    0.145857
  23 H :    0.145918
Sum of atomic charges:   -0.0000000

LOEWDIN ATOMIC CHARGES
----------------------
   0 C :   -0.414840
   1 C :   -0.236887
   2 C :   -0.296257
   3 C :   -0.296250
   4 C :   -0.236888
   5 C :   -0.296262
   6 C :   -0.296258
   7 C :   -0.414835
   8 H :    0.152664
   9 H :    0.153335
  10 H :    0.152661
  11 H :    0.156993
  12 H :    0.156727
  13 H :    0.157567
  14 H :    0.157564
  15 H :    0.156730
  16 H :    0.156992
  17 H :    0.157566
  18 H :    0.156729
  19 H :    0.156734
  20 H :    0.157562
  21 H :    0.153332
  22 H :    0.152661
  23 H :    0.152660

  Mayer bond orders larger than 0.100000
B(  0-C ,  1-C ) :   0.8911 B(  0-C ,  8-H ) :   0.9773 B(  0-C ,  9-H ) :   0.9960
B(  0-C , 10-H ) :   0.9773 B(  1-C ,  2-C ) :   0.9251 B(  1-C ,  6-C ) :   0.9251
B(  1-C , 11-H ) :   0.9514 B(  2-C ,  3-C ) :   0.8804 B(  2-C , 12-H ) :   0.9436
B(  2-C , 13-H ) :   1.0093 B(  3-C ,  4-C ) :   0.9249 B(  3-C , 14-H ) :   1.0092
B(  3-C , 15-H ) :   0.9436 B(  4-C ,  5-C ) :   0.9251 B(  4-C ,  7-C ) :   0.8911
B(  4-C , 16-H ) :   0.9515 B(  5-C ,  6-C ) :   0.8805 B(  5-C , 17-H ) :   1.0092
B(  5-C , 18-H ) :   0.9436 B(  6-C , 19-H ) :   0.9436 B(  6-C , 20-H ) :   1.0092
B(  7-C , 21-H ) :   0.9960 B(  7-C , 22-H ) :   0.9774 B(  7-C , 23-H ) :   0.9774

Dispersion correction           -0.007330881
FINAL SINGLE POINT ENERGY      -314.396693062561

DIPOLE MOMENT
-------------

Method             : SCF
Type of density    : Electron Density
Multiplicity       :   1
Irrep              :   0
Energy             :  -314.3997868852461011 Eh
Relativity type    :
Basis              : AO
                                X                 Y                 Z
Electronic contribution:      0.000005511      -0.000314867       0.000740470
Nuclear contribution   :     -0.000012019       0.000317634      -0.000715224
                        -----------------------------------------
Total Dipole Moment    :     -0.000006507       0.000002767       0.000025246
                        -----------------------------------------
Magnitude (a.u.)       :      0.000026218
Magnitude (Debye)      :      0.000066640

Rotational constants in cm-1:             0.138656             0.044588             0.036450
Rotational constants in MHz :          4156.798084          1336.706289          1092.729578

                             ****ORCA TERMINATED NORMALLY****
TOTAL RUN TIME: 0 days 0 hours 0 minutes 23 seconds 658 msec
