                         Program Version 6.0.0  -   RELEASE  -
|  1> ! r2scan-3c def2/J RI DEFGRID2 scfconv6 printgap
|  2> %output
|  3>     printlevel normal
|  4> end
|  5> %cpcm
|  6>     smd true
|  7>     smdsolvent "water"
|  8> end
|  9> * xyz 0 1
| 10> C -2.9207392575 -2.65654e-05 -0.0499189355
| 11> C -1.4448999584 -6.08277e-05 0.3392593094
| 12> C -0.7383512591 -1.2477345055 -0.1920586657
| 13> C 0.7383472807 -1.2476547455 0.1923829481
| 14> C 1.4447921378 -3.39499e-05 -0.3392149042
| 15> C 0.7384541223 1.2477688393 0.1921013207
| 16> C -0.738406151 1.2477906495 -0.1917745613
| 17> C 2.9208041601 -7.73058e-05 0.0492874623
| 18> H -3.4199459325 0.8822808199 0.3439176901
| 19> H -3.0269434974 0.0002777502 -1.1327757433
| 20> H -3.4197539503 -0.8827183898 0.3432891059
| 21> H -1.3719540325 -0.0001771783 1.4331301478
| 22> H -1.2224618573 -2.1428904625 0.2046393961
| 23> H -0.8295855427 -1.2739906471 -1.2807766521
| 24> H 0.8295662834 -1.2736334327 1.2811171456
| 25> H 1.2225256233 -2.1428719185 -0.204093058
| 26> H 1.3713772965 -0.0001545502 -1.4330602219
| 27> H 0.8301917796 1.2743444828 1.2807718715
| 28> H 1.2223967754 2.1428201352 -0.2050688527
| 29> H -1.2223759091 2.1427605013 0.205514385
| 30> H -0.8300589058 1.2745570355 -1.2804453151
| 31> H 3.0275356702 -0.0015459176 1.1320422803
| 32> H 3.4194466258 0.8831177687 -0.3432548446
| 33> H 3.4200267623 -0.8818374272 -0.3457097009
| 34> *
| 35>
| 36>                          ****END OF INPUT****

CARTESIAN COORDINATES (ANGSTROEM)
---------------------------------
  C     -2.920739   -0.000027   -0.049919
  C     -1.444900   -0.000061    0.339259
  C     -0.738351   -1.247735   -0.192059
  C      0.738347   -1.247655    0.192383
  C      1.444792   -0.000034   -0.339215
  C      0.738454    1.247769    0.192101
  C     -0.738406    1.247791   -0.191775
  C      2.920804   -0.000077    0.049287
  H     -3.419946    0.882281    0.343918
  H     -3.026943    0.000278   -1.132776
  H     -3.419754   -0.882718    0.343289
  H     -1.371954   -0.000177    1.433130
  H     -1.222462   -2.142890    0.204639
  H     -0.829586   -1.273991   -1.280777
  H      0.829566   -1.273633    1.281117
  H      1.222526   -2.142872   -0.204093
  H      1.371377   -0.000155   -1.433060
  H      0.830192    1.274344    1.280772
  H      1.222397    2.142820   -0.205069
  H     -1.222376    2.142761    0.205514
  H     -0.830059    1.274557   -1.280445
  H      3.027536   -0.001546    1.132042
  H      3.419447    0.883118   -0.343255
  H      3.420027   -0.881837   -0.345710

 Total Charge           Charge          ....    0
 Multiplicity           Mult            ....    1
 Number of Electrons    NEL             ....   64
 Basis Dimension        Dim             ....  232

ORBITAL ENERGIES
----------------

  NO   OCC          E(Eh)            E(eV)
   0   2.0000     -10.018929      -272.6289
   1   2.0000     -10.018927      -272.6289
   2   2.0000     -10.009931      -272.3841
   3   2.0000     -10.009925      -272.3839
   4   2.0000     -10.009799      -272.3805
   5   2.0000     -10.009788      -272.3802
   6   2.0000     -10.004858      -272.2460
   7   2.0000     -10.004850      -272.2458
   8   2.0000      -0.796733       -21.6802
   9   2.0000      -0.736503       -20.0413
  10   2.0000      -0.696610       -18.9557
  11   2.0000      -0.662802       -18.0358
  12   2.0000      -0.600330       -16.3358
  13   2.0000      -0.565640       -15.3918
  14   2.0000      -0.527245       -14.3471
  15   2.0000      -0.510689       -13.8966
  16   2.0000      -0.430265       -11.7081
  17   2.0000      -0.404132       -10.9970
  18   2.0000      -0.400677       -10.9030
  19   2.0000      -0.393156       -10.6983
  20   2.0000      -0.387390       -10.5414
  21   2.0000      -0.360476        -9.8091
  22   2.0000      -0.347267        -9.4496
  23   2.0000      -0.334103        -9.0914
  24   2.0000      -0.326940        -8.8965
  25   2.0000      -0.316065        -8.6006
  26   2.0000      -0.302021        -8.2184
  27   2.0000      -0.290772        -7.9123
  28   2.0000      -0.283334        -7.7099
  29   2.0000      -0.276723        -7.5300
  30   2.0000      -0.254513        -6.9256
  31   2.0000      -0.249212        -6.7814
  32   0.0000       0.097245         2.6462
  33   0.0000       0.100808         2.7431
  34   0.0000       0.121513         3.3065
  35   0.0000       0.128673         3.5014
  36   0.0000       0.129921         3.5353

MULLIKEN ATOMIC CHARGES
-----------------------
   0 C :   -0.543228
   1 C :   -0.008065
   2 C :   -0.352059
   3 C :   -0.351924
   4 C :   -0.008095
   5 C :   -0.352007
   6 C :   -0.352003
   7 C :   -0.543182
   8 H :    0.156633
   9 H :    0.160570
  10 H :    0.156625
  11 H :    0.158906
  12 H :    0.150712
  13 H :    0.160578
  14 H :    0.160580
  15 H :    0.150716
  16 H :    0.158896
  17 H :    0.160562
  18 H :    0.150697
  19 H :    0.150700
  20 H :    0.160572
  21 H :    0.160554
  22 H :    0.156600
  23 H :    0.156661
Sum of atomic charges:   -0.0000000

LOEWDIN ATOMIC CHARGES
----------------------
   0 C :   -0.424503
   1 C :   -0.235523
   2 C :   -0.299772
   3 C :   -0.299767
   4 C :   -0.235524
   5 C :   -0.299778
   6 C :   -0.299773
   7 C :   -0.424497
   8 H :    0.154793
   9 H :    0.155612
  10 H :    0.154790
  11 H :    0.159207
  12 H :    0.157976
  13 H :    0.159609
  14 H :    0.159610
  15 H :    0.157976
  16 H :    0.159206
  17 H :    0.159606
  18 H :    0.157979
  19 H :    0.157982
  20 H :    0.159604
  21 H :    0.155607
  22 H :    0.154790
  23 H :    0.154790

  Mayer bond orders larger than 0.100000
B(  0-C ,  1-C ) :   0.8767 B(  0-C ,  8-H ) :   0.9752 B(  0-C ,  9-H ) :   0.9946
B(  0-C , 10-H ) :   0.9752 B(  1-C ,  2-C ) :   0.9228 B(  1-C ,  6-C ) :   0.9228
B(  1-C , 11-H ) :   0.9499 B(  2-C ,  3-C ) :   0.8834 B(  2-C , 12-H ) :   0.9437
B(  2-C , 13-H ) :   1.0070 B(  3-C ,  4-C ) :   0.9226 B(  3-C , 14-H ) :   1.0069
B(  3-C , 15-H ) :   0.9437 B(  4-C ,  5-C ) :   0.9228 B(  4-C ,  7-C ) :   0.8767
B(  4-C , 16-H ) :   0.9500 B(  5-C ,  6-C ) :   0.8835 B(  5-C , 17-H ) :   1.0069
B(  5-C , 18-H ) :   0.9438 B(  6-C , 19-H ) :   0.9438 B(  6-C , 20-H ) :   1.0069
B(  7-C , 21-H ) :   0.9946 B(  7-C , 22-H ) :   0.9753 B(  7-C , 23-H ) :   0.9753

Dispersion correction           -0.007330881
FINAL SINGLE POINT ENERGY      -314.393716271785

DIPOLE MOMENT
-------------

Method             : SCF
Type of density    : Electron Density
Multiplicity       :   1
Irrep              :   0
Energy             :  -314.3968100944698563 Eh
Relativity type    :
Basis              : AO
                                X                 Y                 Z
Electronic contribution:     -0.000000919      -0.000308195       0.000738964
Nuclear contribution   :     -0.000012019       0.000317634      -0.000715224
                        -----------------------------------------
Total Dipole Moment    :     -0.000012937       0.000009438       0.000023740
                        -----------------------------------------
Magnitude (a.u.)       :      0.000028637
Magnitude (Debye)      :      0.000072788

Rotational constants in cm-1:             0.138656             0.044588             0.036450
Rotational constants in MHz :          4156.798084          1336.706289          1092.729578

                             ****ORCA TERMINATED NORMALLY****
TOTAL RUN TIME: 0 days 0 hours 0 minutes 27 seconds 514 msec
