                         Program Version 6.0.0  -   RELEASE  -
|  1> ! pbe def2-sv(p) def2/J RI DEFGRID1 loosescf d4 GCP(DFT/SV(P)) printgap
|  2> %output
|  3>     printlevel normal
|  4> end
|  5> * xyz 0 1
|  6> C -3.5271227117 0.2017740423 -0.4068015512
|  7> C -2.0489189561 -0.1517682709 -0.5496196015
|  8> H -1.869334463 -0.4505214424 -1.5876629658
|  9> C -1.6634200606 -1.3269658403 0.3440828339
| 10> C -0.2067559055 -1.683631363 0.0804859992
| 11> C 0.7318587495 -0.5631734342 0.538714211
| 12> H 1.0235894492 -0.7464048183 1.5796716654
| 13> C 0.0980928823 0.8091782859 0.5467277336
| 14> O 0.6166851239 1.7223567482 1.1690323724
| 15> C -1.1746882353 1.0653901251 -0.2171944393
| 16> C 2.0435129849 -0.5432777216 -0.2925757343
| 17> C 1.8497995609 0.1367732054 -1.6465145141
| 18> C 3.1740809392 0.1322789232 0.4780631714
| 19> H -3.7825276152 1.0431951038 -1.046099512
| 20> H -4.1472899381 -0.6453616718 -0.6892016803
| 21> H -3.7573597632 0.4665485838 0.622966907
| 22> H -1.8009015652 -1.0579995281 1.3938366579
| 23> H -2.3026695922 -2.1831422209 0.1252059805
| 24> H 0.0621519944 -2.603179517 0.6020736377
| 25> H -0.0817617299 -1.8648413057 -0.9882575105
| 26> H -1.7402415161 1.7917204654 0.3729591257
| 27> H -0.8817543783 1.5857052369 -1.1330173666
| 28> H 2.3185699097 -1.589944456 -0.4630910566
| 29> H 2.7331155668 -0.0070389734 -2.263884549
| 30> H 1.7004848971 1.2065011319 -1.5128185944
| 31> H 0.9936000977 -0.2720352837 -2.1762130055
| 32> H 3.4078115727 -0.420862346 1.3848556711
| 33> H 2.8876732388 1.1437449694 0.7590404346
| 34> H 4.0701568879 0.1843780839 -0.135501146
| 35> *
| 36>
| 37>                          ****END OF INPUT****

CARTESIAN COORDINATES (ANGSTROEM)
---------------------------------
  C     -3.527123    0.201774   -0.406802
  C     -2.048919   -0.151768   -0.549620
  H     -1.869334   -0.450521   -1.587663
  C     -1.663420   -1.326966    0.344083
  C     -0.206756   -1.683631    0.080486
  C      0.731859   -0.563173    0.538714
  H      1.023589   -0.746405    1.579672
  C      0.098093    0.809178    0.546728
  O      0.616685    1.722357    1.169032
  C     -1.174688    1.065390   -0.217194
  C      2.043513   -0.543278   -0.292576
  C      1.849800    0.136773   -1.646515
  C      3.174081    0.132279    0.478063
  H     -3.782528    1.043195   -1.046100
  H     -4.147290   -0.645362   -0.689202
  H     -3.757360    0.466549    0.622967
  H     -1.800902   -1.058000    1.393837
  H     -2.302670   -2.183142    0.125206
  H      0.062152   -2.603180    0.602074
  H     -0.081762   -1.864841   -0.988258
  H     -1.740242    1.791720    0.372959
  H     -0.881754    1.585705   -1.133017
  H      2.318570   -1.589944   -0.463091
  H      2.733116   -0.007039   -2.263885
  H      1.700485    1.206501   -1.512819
  H      0.993600   -0.272035   -2.176213
  H      3.407812   -0.420862    1.384856
  H      2.887673    1.143745    0.759040
  H      4.070157    0.184378   -0.135501

 Total Charge           Charge          ....    0
 Multiplicity           Mult            ....    1
 Number of Electrons    NEL             ....   86
 Basis Dimension        Dim             ....  190

ORBITAL ENERGIES
----------------

  NO   OCC          E(Eh)            E(eV)
   0   2.0000     -18.728906      -509.6395
   1   2.0000      -9.968980      -271.2697
   2   2.0000      -9.903800      -269.4961
   3   2.0000      -9.903671      -269.4926
   4   2.0000      -9.896826      -269.3063
   5   2.0000      -9.889643      -269.1109
   6   2.0000      -9.889272      -269.1008
   7   2.0000      -9.888888      -269.0903
   8   2.0000      -9.878272      -268.8015
   9   2.0000      -9.878032      -268.7949
  10   2.0000      -9.864335      -268.4222
  11   2.0000      -0.928712       -25.2715
  12   2.0000      -0.766001       -20.8439
  13   2.0000      -0.730684       -19.8829
  14   2.0000      -0.679649       -18.4942
  15   2.0000      -0.649522       -17.6744
  16   2.0000      -0.616850       -16.7853
  17   2.0000      -0.608016       -16.5449
  18   2.0000      -0.551386       -15.0040
  19   2.0000      -0.527369       -14.3504
  20   2.0000      -0.506423       -13.7805
  21   2.0000      -0.464446       -12.6382
  22   2.0000      -0.441483       -12.0134
  23   2.0000      -0.418674       -11.3927
  24   2.0000      -0.409297       -11.1375
  25   2.0000      -0.399439       -10.8693
  26   2.0000      -0.386617       -10.5204
  27   2.0000      -0.375036       -10.2053
  28   2.0000      -0.368351       -10.0233
  29   2.0000      -0.364275        -9.9124
  30   2.0000      -0.348367        -9.4795
  31   2.0000      -0.341191        -9.2843
  32   2.0000      -0.334563        -9.1039
  33   2.0000      -0.333211        -9.0671
  34   2.0000      -0.318668        -8.6714
  35   2.0000      -0.307449        -8.3661
  36   2.0000      -0.304254        -8.2792
  37   2.0000      -0.292741        -7.9659
  38   2.0000      -0.289910        -7.8889
  39   2.0000      -0.283585        -7.7167
  40   2.0000      -0.272124        -7.4049
  41   2.0000      -0.267456        -7.2778
  42   2.0000      -0.185699        -5.0531
  43   0.0000      -0.054007        -1.4696
  44   0.0000       0.023424         0.6374
  45   0.0000       0.046202         1.2572
  46   0.0000       0.046497         1.2653
  47   0.0000       0.063416         1.7256

MULLIKEN ATOMIC CHARGES
-----------------------
   0 C :   -0.216977
   1 C :   -0.204626
   2 H :    0.067393
   3 C :   -0.119619
   4 C :   -0.078476
   5 C :   -0.123610
   6 H :    0.083039
   7 C :   -0.029357
   8 O :   -0.170100
   9 C :   -0.079514
  10 C :   -0.164509
  11 C :   -0.270964
  12 C :   -0.234269
  13 H :    0.104017
  14 H :    0.097882
  15 H :    0.098075
  16 H :    0.081691
  17 H :    0.082310
  18 H :    0.083467
  19 H :    0.075600
  20 H :    0.098121
  21 H :    0.109497
  22 H :    0.076767
  23 H :    0.105788
  24 H :    0.121138
  25 H :    0.100554
  26 H :    0.093357
  27 H :    0.120828
  28 H :    0.092498
Sum of atomic charges:   -0.0000000

LOEWDIN ATOMIC CHARGES
----------------------
   0 C :   -0.328203
   1 C :   -0.152299
   2 H :    0.114704
   3 C :   -0.218454
   4 C :   -0.218080
   5 C :   -0.158759
   6 H :    0.137605
   7 C :    0.055971
   8 O :   -0.136081
   9 C :   -0.241970
  10 C :   -0.132661
  11 C :   -0.335317
  12 C :   -0.336341
  13 H :    0.119493
  14 H :    0.118391
  15 H :    0.118635
  16 H :    0.117329
  17 H :    0.118285
  18 H :    0.121299
  19 H :    0.115313
  20 H :    0.140286
  21 H :    0.147030
  22 H :    0.116092
  23 H :    0.122998
  24 H :    0.122634
  25 H :    0.113247
  26 H :    0.116493
  27 H :    0.127278
  28 H :    0.115083

  Mayer bond orders larger than 0.100000
B(  0-C ,  1-C ) :   1.1197 B(  0-C , 13-H ) :   0.9489 B(  0-C , 14-H ) :   0.9478
B(  0-C , 15-H ) :   0.9435 B(  1-C ,  2-H ) :   0.8865 B(  1-C ,  3-C ) :   1.1337
B(  1-C ,  9-C ) :   1.0362 B(  3-C ,  4-C ) :   1.1465 B(  3-C , 16-H ) :   0.9024
B(  3-C , 17-H ) :   0.9152 B(  4-C ,  5-C ) :   1.0644 B(  4-C , 18-H ) :   0.9036
B(  4-C , 19-H ) :   0.8958 B(  5-C ,  6-H ) :   0.8651 B(  5-C ,  7-C ) :   0.9741
B(  5-C , 10-C ) :   1.0175 B(  7-C ,  8-O ) :   2.1327 B(  7-C ,  9-C ) :   1.0494
B(  9-C , 20-H ) :   0.8896 B(  9-C , 21-H ) :   0.8719 B( 10-C , 11-C ) :   1.1170
B( 10-C , 12-C ) :   1.1193 B( 10-C , 22-H ) :   0.9033 B( 11-C , 23-H ) :   0.9450
B( 11-C , 24-H ) :   0.9320 B( 11-C , 25-H ) :   0.9419 B( 12-C , 26-H ) :   0.9464
B( 12-C , 27-H ) :   0.9295 B( 12-C , 28-H ) :   0.9462

Dispersion correction           -0.030473972
FINAL SINGLE POINT ENERGY      -466.028540527507

DIPOLE MOMENT
-------------

Method             : SCF
Type of density    : Electron Density
Multiplicity       :   1
Irrep              :   0
Energy             :  -466.1251043592728820 Eh
Relativity type    :
Basis              : AO
                                X                 Y                 Z
Electronic contribution:      0.691603924       3.356118295       4.256888838
Nuclear contribution   :     -1.085398026      -4.120709949      -4.819031352
                        -----------------------------------------
Total Dipole Moment    :     -0.393794102      -0.764591654      -0.562142514
                        -----------------------------------------
Magnitude (a.u.)       :      1.027462115
Magnitude (Debye)      :      2.611601149

Rotational constants in cm-1:             0.064594             0.024544             0.022153
Rotational constants in MHz :          1936.492493           735.819886           664.138323

                             ****ORCA TERMINATED NORMALLY****
TOTAL RUN TIME: 0 days 0 hours 0 minutes 13 seconds 813 msec
