                         Program Version 6.0.0  -   RELEASE  -
|  1> ! wb97x-v def2-tzvp def2/J RIJCOSX DEFGRID2 scfconv7 GCP(DFT/TZ) printgap
|  2> %output
|  3>     printlevel normal
|  4> end
|  5> * xyz 0 1
|  6> C -1.2708711563851822 -0.9504230830637639 -0.18193317021819544
|  7> C -0.4019120179004052 0.2997553826833312 -0.3156043380376971
|  8> C -1.1257035745356176 1.5289871991648771 0.23476304853952787
|  9> C 0.926022518166838 0.13955092745269618 0.4082591424807431
| 10> O 1.6631816444753964 -0.9525825363811229 -0.1773724929792744
| 11> H -0.7780198750941597 -1.8350167061439908 -0.5953212444396698
| 12> H -2.2214060379957585 -0.818681489100329 -0.7092328689314877
| 13> H -1.4953873582113173 -1.1480242955390492 0.8735299755308106
| 14> H -0.18318527179587604 0.4687392863890359 -1.3795493710033424
| 15> H -1.334901188342128 1.407961524043028 1.3044892117041342
| 16> H -2.0813190491569533 1.677129308100391 -0.2777611000520105
| 17> H -0.5283844775625783 2.438076818463554 0.10696040496900074
| 18> H 1.5087060471285603 1.0684523435073918 0.32726228232950955
| 19> H 0.7422029293926645 -0.058806197825802334 1.475536613056904
| 20> H 2.4863158636516944 -1.0414813089470416 0.31814740623873905
| 21> *
| 22>
| 23>                          ****END OF INPUT****

CARTESIAN COORDINATES (ANGSTROEM)
---------------------------------
  C     -1.270871   -0.950423   -0.181933
  C     -0.401912    0.299755   -0.315604
  C     -1.125704    1.528987    0.234763
  C      0.926023    0.139551    0.408259
  O      1.663182   -0.952583   -0.177372
  H     -0.778020   -1.835017   -0.595321
  H     -2.221406   -0.818681   -0.709233
  H     -1.495387   -1.148024    0.873530
  H     -0.183185    0.468739   -1.379549
  H     -1.334901    1.407962    1.304489
  H     -2.081319    1.677129   -0.277761
  H     -0.528384    2.438077    0.106960
  H      1.508706    1.068452    0.327262
  H      0.742203   -0.058806    1.475537
  H      2.486316   -1.041481    0.318147

 Total Charge           Charge          ....    0
 Multiplicity           Mult            ....    1
 Number of Electrons    NEL             ....   42
 Basis Dimension        Dim             ....  215

ORBITAL ENERGIES
----------------

  NO   OCC          E(Eh)            E(eV)
   0   2.0000     -21.668087      -589.6186
   1   2.0000     -12.088643      -328.9487
   2   2.0000     -12.047137      -327.8193
   3   2.0000     -12.035247      -327.4957
   4   2.0000     -12.026461      -327.2566
   5   2.0000      -1.666176       -45.3390
   6   2.0000      -1.314222       -35.7618
   7   2.0000      -1.190335       -32.3907
   8   2.0000      -1.173596       -31.9352
   9   2.0000      -1.049347       -28.5542
  10   2.0000      -1.028763       -27.9941
  11   2.0000      -0.942763       -25.6539
  12   2.0000      -0.932763       -25.3818
  13   2.0000      -0.874679       -23.8012
  14   2.0000      -0.858454       -23.3597
  15   2.0000      -0.836545       -22.7636
  16   2.0000      -0.806908       -21.9571
  17   2.0000      -0.796397       -21.6711
  18   2.0000      -0.777703       -21.1624
  19   2.0000      -0.771377       -20.9902
  20   2.0000      -0.746706       -20.3189
  21   0.0000      -0.144324        -3.9273
  22   0.0000      -0.041599        -1.1320
  23   0.0000      -0.016547        -0.4503
  24   0.0000      -0.008876        -0.2415
  25   0.0000      -0.002346        -0.0638

MULLIKEN ATOMIC CHARGES
-----------------------
   0 C :   -0.347278
   1 C :    0.009265
   2 C :   -0.356591
   3 C :   -0.051846
   4 O :   -0.448970
   5 H :    0.133093
   6 H :    0.107330
   7 H :    0.092865
   8 H :    0.068999
   9 H :    0.103244
  10 H :    0.115948
  11 H :    0.111076
  12 H :    0.084217
  13 H :    0.080547
  14 H :    0.298100
Sum of atomic charges:    0.0000000

LOEWDIN ATOMIC CHARGES
----------------------
   0 C :   -0.281418
   1 C :   -0.318207
   2 C :   -0.281592
   3 C :   -0.314689
   4 O :   -0.060006
   5 H :    0.122956
   6 H :    0.117237
   7 H :    0.117506
   8 H :    0.148820
   9 H :    0.118629
  10 H :    0.119967
  11 H :    0.117384
  12 H :    0.113991
  13 H :    0.114061
  14 H :    0.165360

  Mayer bond orders larger than 0.100000
B(  0-C ,  1-C ) :   0.9861 B(  0-C ,  5-H ) :   0.9776 B(  0-C ,  6-H ) :   0.9818
B(  0-C ,  7-H ) :   0.9712 B(  1-C ,  2-C ) :   0.9756 B(  1-C ,  3-C ) :   0.9932
B(  1-C ,  8-H ) :   0.9619 B(  2-C ,  9-H ) :   0.9712 B(  2-C , 10-H ) :   0.9826
B(  2-C , 11-H ) :   0.9814 B(  3-C ,  4-O ) :   1.0736 B(  3-C , 12-H ) :   0.9720
B(  3-C , 13-H ) :   0.9620 B(  4-O , 14-H ) :   0.9078

FINAL SINGLE POINT ENERGY      -233.677648525321

DIPOLE MOMENT
-------------

Method             : SCF
Type of density    : Electron Density
Multiplicity       :   1
Irrep              :   0
Energy             :  -233.6882070195209735 Eh
Relativity type    :
Basis              : AO
                                X                 Y                 Z
Electronic contribution:      3.846086002      -1.774394038      -0.869080027
Nuclear contribution   :     -3.646258412       2.117198155       1.305858680
                        -----------------------------------------
Total Dipole Moment    :      0.199827591       0.342804117       0.436778652
                        -----------------------------------------
Magnitude (a.u.)       :      0.590102804
Magnitude (Debye)      :      1.499922127

Rotational constants in cm-1:             0.253365             0.117115             0.088503
Rotational constants in MHz :          7595.691320          3511.033574          2653.252815

                             ****ORCA TERMINATED NORMALLY****
TOTAL RUN TIME: 0 days 0 hours 1 minutes 4 seconds 313 msec
