                         Program Version 6.0.0  -   RELEASE  -
|  1> ! wb97x-v def2-tzvp def2/J RIJCOSX DEFGRID2 scfconv7 GCP(DFT/TZ) printgap
|  2> %output
|  3>     printlevel normal
|  4> end
|  5> %cpcm
|  6>     smd true
|  7>     smdsolvent "water"
|  8> end
|  9> * xyz 0 1
| 10> C -1.2708711563851822 -0.9504230830637639 -0.18193317021819544
| 11> C -0.4019120179004052 0.2997553826833312 -0.3156043380376971
| 12> C -1.1257035745356176 1.5289871991648771 0.23476304853952787
| 13> C 0.926022518166838 0.13955092745269618 0.4082591424807431
| 14> O 1.6631816444753964 -0.9525825363811229 -0.1773724929792744
| 15> H -0.7780198750941597 -1.8350167061439908 -0.5953212444396698
| 16> H -2.2214060379957585 -0.818681489100329 -0.7092328689314877
| 17> H -1.4953873582113173 -1.1480242955390492 0.8735299755308106
| 18> H -0.18318527179587604 0.4687392863890359 -1.3795493710033424
| 19> H -1.334901188342128 1.407961524043028 1.3044892117041342
| 20> H -2.0813190491569533 1.677129308100391 -0.2777611000520105
| 21> H -0.5283844775625783 2.438076818463554 0.10696040496900074
| 22> H 1.5087060471285603 1.0684523435073918 0.32726228232950955
| 23> H 0.7422029293926645 -0.058806197825802334 1.475536613056904
| 24> H 2.4863158636516944 -1.0414813089470416 0.31814740623873905
| 25> *
| 26>
| 27>                          ****END OF INPUT****

CARTESIAN COORDINATES (ANGSTROEM)
---------------------------------
  C     -1.270871   -0.950423   -0.181933
  C     -0.401912    0.299755   -0.315604
  C     -1.125704    1.528987    0.234763
  C      0.926023    0.139551    0.408259
  O      1.663182   -0.952583   -0.177372
  H     -0.778020   -1.835017   -0.595321
  H     -2.221406   -0.818681   -0.709233
  H     -1.495387   -1.148024    0.873530
  H     -0.183185    0.468739   -1.379549
  H     -1.334901    1.407962    1.304489
  H     -2.081319    1.677129   -0.277761
  H     -0.528384    2.438077    0.106960
  H      1.508706    1.068452    0.327262
  H      0.742203   -0.058806    1.475537
  H      2.486316   -1.041481    0.318147

 Total Charge           Charge          ....    0
 Multiplicity           Mult            ....    1
 Number of Electrons    NEL             ....   42
 Basis Dimension        Dim             ....  215

ORBITAL ENERGIES
----------------

  NO   OCC          E(Eh)            E(eV)
   0   2.0000     -21.670317      -589.6793
   1   2.0000     -12.080948      -328.7393
   2   2.0000     -12.041534      -327.6668
   3   2.0000     -12.025797      -327.2386
   4   2.0000     -12.023437      -327.1743
   5   2.0000      -1.668593       -45.4047
   6   2.0000      -1.308623       -35.6094
   7   2.0000      -1.186018       -32.2732
   8   2.0000      -1.168325       -31.7917
   9   2.0000      -1.046489       -28.4764
  10   2.0000      -1.028142       -27.9772
  11   2.0000      -0.943652       -25.6781
  12   2.0000      -0.934297       -25.4235
  13   2.0000      -0.870836       -23.6966
  14   2.0000      -0.853813       -23.2334
  15   2.0000      -0.831055       -22.6142
  16   2.0000      -0.800007       -21.7693
  17   2.0000      -0.789998       -21.4969
  18   2.0000      -0.774266       -21.0688
  19   2.0000      -0.765419       -20.8281
  20   2.0000      -0.740660       -20.1544
  21   0.0000      -0.138868        -3.7788
  22   0.0000      -0.023361        -0.6357
  23   0.0000      -0.006174        -0.1680
  24   0.0000      -0.001255        -0.0342
  25   0.0000       0.008129         0.2212

MULLIKEN ATOMIC CHARGES
-----------------------
   0 C :   -0.400960
   1 C :    0.029579
   2 C :   -0.414256
   3 C :   -0.067059
   4 O :   -0.557505
   5 H :    0.123506
   6 H :    0.128635
   7 H :    0.117521
   8 H :    0.076446
   9 H :    0.122149
  10 H :    0.132116
  11 H :    0.129682
  12 H :    0.111284
  13 H :    0.108604
  14 H :    0.360260
Sum of atomic charges:    0.0000000

LOEWDIN ATOMIC CHARGES
----------------------
   0 C :   -0.290945
   1 C :   -0.321420
   2 C :   -0.285129
   3 C :   -0.308919
   4 O :   -0.099889
   5 H :    0.117015
   6 H :    0.121403
   7 H :    0.122005
   8 H :    0.148530
   9 H :    0.122529
  10 H :    0.122327
  11 H :    0.121354
  12 H :    0.121884
  13 H :    0.122286
  14 H :    0.186969

  Mayer bond orders larger than 0.100000
B(  0-C ,  1-C ) :   0.9669 B(  0-C ,  5-H ) :   0.9787 B(  0-C ,  6-H ) :   0.9796
B(  0-C ,  7-H ) :   0.9712 B(  1-C ,  2-C ) :   0.9722 B(  1-C ,  3-C ) :   0.9803
B(  1-C ,  8-H ) :   0.9596 B(  2-C ,  9-H ) :   0.9712 B(  2-C , 10-H ) :   0.9789
B(  2-C , 11-H ) :   0.9777 B(  3-C ,  4-O ) :   1.0199 B(  3-C , 12-H ) :   0.9784
B(  3-C , 13-H ) :   0.9707 B(  4-O , 14-H ) :   0.8704

FINAL SINGLE POINT ENERGY      -233.684176476756

DIPOLE MOMENT
-------------

Method             : SCF
Type of density    : Electron Density
Multiplicity       :   1
Irrep              :   0
Energy             :  -233.6947349709564890 Eh
Relativity type    :
Basis              : AO
                                X                 Y                 Z
Electronic contribution:      3.885939904      -1.583239493      -0.657580868
Nuclear contribution   :     -3.646258412       2.117198155       1.305858680
                        -----------------------------------------
Total Dipole Moment    :      0.239681493       0.533958661       0.648277811
                        -----------------------------------------
Magnitude (a.u.)       :      0.873397499
Magnitude (Debye)      :      2.220000015

Rotational constants in cm-1:             0.253365             0.117115             0.088503
Rotational constants in MHz :          7595.691320          3511.033574          2653.252815

                             ****ORCA TERMINATED NORMALLY****
TOTAL RUN TIME: 0 days 0 hours 1 minutes 15 seconds 556 msec
