                         Program Version 6.0.0  -   RELEASE  -
|  1> ! pbe def2-sv(p) def2/J RI DEFGRID1 loosescf d4 GCP(DFT/SV(P)) printgap
|  2> %output
|  3>     printlevel normal
|  4> end
|  5> * xyz 0 1
|  6> C -2.399292259 -7.12441e-05 -0.5365781951
|  7> C -1.3777596751 1.31707e-05 0.5997889461
|  8> C -0.4955286656 -1.2523084411 0.5809066864
|  9> C 0.4954560184 -1.252452831 -0.5805426735
| 10> C 1.377497854 1.20357e-05 -0.5998647538
| 11> C 0.4955325353 1.2525339513 -0.5804422699
| 12> C -0.4956420298 1.2524108384 0.5808654503
| 13> C 2.3996725257 -0.0001225046 0.5359140332
| 14> H -3.0332837286 -0.881594841 -0.4707921548
| 15> H -3.0323541675 0.882200874 -0.4719000006
| 16> H -1.9155889126 -0.0009435597 -1.5085429874
| 17> H -1.9410825674 3.45867e-05 1.5416589469
| 18> H 0.0529658133 -1.3113390076 1.5228575167
| 19> H -1.1266469345 -2.1415269864 0.5152767364
| 20> H 1.1267297659 -2.1415361774 -0.5146201542
| 21> H -0.0530397009 -1.3118972671 -1.5224576722
| 22> H 1.9402948693 3.49761e-05 -1.5420482368
| 23> H 1.1268922093 2.1415468362 -0.5142579136
| 24> H -0.0528204361 1.3122069839 -1.522426209
| 25> H 0.052712134 1.3115938598 1.5228924749
| 26> H -1.1268504288 2.1415535137 0.5150219876
| 27> H 3.0334452057 -0.8818346217 0.4698685022
| 28> H 1.9164945422 -0.0007363942 1.5082283755
| 29> H 3.0328913951 0.8820587658 0.470678031
| 30> *
| 31>
| 32>                          ****END OF INPUT****

CARTESIAN COORDINATES (ANGSTROEM)
---------------------------------
  C     -2.399292   -0.000071   -0.536578
  C     -1.377760    0.000013    0.599789
  C     -0.495529   -1.252308    0.580907
  C      0.495456   -1.252453   -0.580543
  C      1.377498    0.000012   -0.599865
  C      0.495533    1.252534   -0.580442
  C     -0.495642    1.252411    0.580865
  C      2.399673   -0.000123    0.535914
  H     -3.033284   -0.881595   -0.470792
  H     -3.032354    0.882201   -0.471900
  H     -1.915589   -0.000944   -1.508543
  H     -1.941083    0.000035    1.541659
  H      0.052966   -1.311339    1.522858
  H     -1.126647   -2.141527    0.515277
  H      1.126730   -2.141536   -0.514620
  H     -0.053040   -1.311897   -1.522458
  H      1.940295    0.000035   -1.542048
  H      1.126892    2.141547   -0.514258
  H     -0.052820    1.312207   -1.522426
  H      0.052712    1.311594    1.522892
  H     -1.126850    2.141554    0.515022
  H      3.033445   -0.881835    0.469869
  H      1.916495   -0.000736    1.508228
  H      3.032891    0.882059    0.470678

 Total Charge           Charge          ....    0
 Multiplicity           Mult            ....    1
 Number of Electrons    NEL             ....   64
 Basis Dimension        Dim             ....  144

ORBITAL ENERGIES
----------------

  NO   OCC          E(Eh)            E(eV)
   0   2.0000      -9.886318      -269.0204
   1   2.0000      -9.886303      -269.0200
   2   2.0000      -9.874795      -268.7068
   3   2.0000      -9.874763      -268.7060
   4   2.0000      -9.874735      -268.7052
   5   2.0000      -9.874733      -268.7051
   6   2.0000      -9.868885      -268.5460
   7   2.0000      -9.868870      -268.5456
   8   2.0000      -0.756259       -20.5789
   9   2.0000      -0.694226       -18.8908
  10   2.0000      -0.660352       -17.9691
  11   2.0000      -0.620800       -16.8928
  12   2.0000      -0.589234       -16.0339
  13   2.0000      -0.537601       -14.6289
  14   2.0000      -0.511227       -13.9112
  15   2.0000      -0.450195       -12.2504
  16   2.0000      -0.435298       -11.8451
  17   2.0000      -0.405637       -11.0379
  18   2.0000      -0.404242       -11.0000
  19   2.0000      -0.372513       -10.1366
  20   2.0000      -0.371197       -10.1008
  21   2.0000      -0.357581        -9.7303
  22   2.0000      -0.338094        -9.2000
  23   2.0000      -0.326280        -8.8785
  24   2.0000      -0.326068        -8.8728
  25   2.0000      -0.311984        -8.4895
  26   2.0000      -0.300397        -8.1742
  27   2.0000      -0.287849        -7.8328
  28   2.0000      -0.283206        -7.7064
  29   2.0000      -0.262127        -7.1328
  30   2.0000      -0.247971        -6.7476
  31   2.0000      -0.247248        -6.7280
  32   0.0000       0.025229         0.6865
  33   0.0000       0.044043         1.1985
  34   0.0000       0.064758         1.7622
  35   0.0000       0.079868         2.1733
  36   0.0000       0.093470         2.5435

MULLIKEN ATOMIC CHARGES
-----------------------
   0 C :   -0.262762
   1 C :   -0.154576
   2 C :   -0.127904
   3 C :   -0.127902
   4 C :   -0.154587
   5 C :   -0.127901
   6 C :   -0.127908
   7 C :   -0.262805
   8 H :    0.096597
   9 H :    0.096594
  10 H :    0.105588
  11 H :    0.063043
  12 H :    0.078904
  13 H :    0.076768
  14 H :    0.076769
  15 H :    0.078918
  16 H :    0.063041
  17 H :    0.076772
  18 H :    0.078899
  19 H :    0.078885
  20 H :    0.076774
  21 H :    0.096604
  22 H :    0.105584
  23 H :    0.096604
Sum of atomic charges:    0.0000000

LOEWDIN ATOMIC CHARGES
----------------------
   0 C :   -0.332799
   1 C :   -0.150726
   2 C :   -0.218466
   3 C :   -0.218470
   4 C :   -0.150729
   5 C :   -0.218471
   6 C :   -0.218469
   7 C :   -0.332778
   8 H :    0.118043
   9 H :    0.118036
  10 H :    0.114372
  11 H :    0.113672
  12 H :    0.113771
  13 H :    0.114398
  14 H :    0.114404
  15 H :    0.113774
  16 H :    0.113672
  17 H :    0.114402
  18 H :    0.113774
  19 H :    0.113768
  20 H :    0.114396
  21 H :    0.118034
  22 H :    0.114366
  23 H :    0.118028

  Mayer bond orders larger than 0.100000
B(  0-C ,  1-C ) :   1.1048 B(  0-C ,  8-H ) :   0.9487 B(  0-C ,  9-H ) :   0.9487
B(  0-C , 10-H ) :   0.9423 B(  1-C ,  2-C ) :   1.0870 B(  1-C ,  6-C ) :   1.0870
B(  1-C , 11-H ) :   0.8965 B(  2-C ,  3-C ) :   1.1250 B(  2-C , 12-H ) :   0.9132
B(  2-C , 13-H ) :   0.9161 B(  3-C ,  4-C ) :   1.0870 B(  3-C , 14-H ) :   0.9161
B(  3-C , 15-H ) :   0.9132 B(  4-C ,  5-C ) :   1.0870 B(  4-C ,  7-C ) :   1.1048
B(  4-C , 16-H ) :   0.8965 B(  5-C ,  6-C ) :   1.1250 B(  5-C , 17-H ) :   0.9161
B(  5-C , 18-H ) :   0.9132 B(  6-C , 19-H ) :   0.9132 B(  6-C , 20-H ) :   0.9161
B(  7-C , 21-H ) :   0.9487 B(  7-C , 22-H ) :   0.9423 B(  7-C , 23-H ) :   0.9487

Dispersion correction           -0.023301202
FINAL SINGLE POINT ENERGY      -313.702049325887

DIPOLE MOMENT
-------------

Method             : SCF
Type of density    : Electron Density
Multiplicity       :   1
Irrep              :   0
Energy             :  -313.7822298294694292 Eh
Relativity type    :
Basis              : AO
                                X                 Y                 Z
Electronic contribution:     -0.000772116       0.000112652       0.000442042
Nuclear contribution   :      0.000712120      -0.000167423      -0.000527958
                        -----------------------------------------
Total Dipole Moment    :     -0.000059996      -0.000054771      -0.000085916
                        -----------------------------------------
Magnitude (a.u.)       :      0.000118241
Magnitude (Debye)      :      0.000300545

Rotational constants in cm-1:             0.107810             0.055207             0.047242
Rotational constants in MHz :          3232.068708          1655.076136          1416.267224

                             ****ORCA TERMINATED NORMALLY****
TOTAL RUN TIME: 0 days 0 hours 0 minutes 10 seconds 360 msec
