                         Program Version 6.0.0  -   RELEASE  -
|  1> ! wb97x-v def2-tzvp def2/J RIJCOSX DEFGRID2 scfconv7 GCP(DFT/TZ) printgap
|  2> %output
|  3>     printlevel normal
|  4> end
|  5> * xyz 0 1
|  6> C 0.9779844191770494 2.1030460090927603 -0.3836373379860111
|  7> C 0.34828664484488436 0.8563723758888969 0.20311118244344004
|  8> H 0.11311312650054177 0.9891174501150554 1.2609925137396363
|  9> C -0.8786121856479899 0.46393459367023765 -0.5804270808336072
| 10> Cl -1.7805026613753279 -0.9350530101495138 0.17152349915214393
| 11> Cl 1.5814406097864164 -0.5229236215782966 0.16552373801664438
| 12> H 0.2648360137894747 2.9300283357543893 -0.3007741091742155
| 13> H 1.8817927521672073 2.373037537134841 0.16612856155553316
| 14> H 1.2290056012191273 1.9608200122440818 -1.4383348276420584
| 15> H -1.5741285672284653 1.3069344748666838 -0.588486169924885
| 16> H -0.6350632928657586 0.17450768000623132 -1.6041243907805935
| 17> *
| 18>
| 19>                          ****END OF INPUT****

CARTESIAN COORDINATES (ANGSTROEM)
---------------------------------
  C      0.977984    2.103046   -0.383637
  C      0.348287    0.856372    0.203111
  H      0.113113    0.989117    1.260993
  C     -0.878612    0.463935   -0.580427
  Cl    -1.780503   -0.935053    0.171523
  Cl     1.581441   -0.522924    0.165524
  H      0.264836    2.930028   -0.300774
  H      1.881793    2.373038    0.166129
  H      1.229006    1.960820   -1.438335
  H     -1.574129    1.306934   -0.588486
  H     -0.635063    0.174508   -1.604124

 Total Charge           Charge          ....    0
 Multiplicity           Mult            ....    1
 Number of Electrons    NEL             ....   58
 Basis Dimension        Dim             ....  203

ORBITAL ENERGIES
----------------

  NO   OCC          E(Eh)            E(eV)
   0   2.0000    -107.134254     -2915.2713
   1   2.0000    -107.129739     -2915.1484
   2   2.0000     -12.134721      -330.2025
   3   2.0000     -12.126311      -329.9737
   4   2.0000     -12.066696      -328.3515
   5   2.0000     -11.287287      -307.1427
   6   2.0000     -11.282907      -307.0235
   7   2.0000      -9.078729      -247.0448
   8   2.0000      -9.076015      -246.9709
   9   2.0000      -9.076006      -246.9707
  10   2.0000      -9.074278      -246.9237
  11   2.0000      -9.071701      -246.8535
  12   2.0000      -9.071562      -246.8498
  13   2.0000      -1.416403       -38.5423
  14   2.0000      -1.384430       -37.6722
  15   2.0000      -1.297593       -35.3093
  16   2.0000      -1.202168       -32.7127
  17   2.0000      -1.085033       -29.5253
  18   2.0000      -0.941876       -25.6298
  19   2.0000      -0.922884       -25.1129
  20   2.0000      -0.909301       -24.7433
  21   2.0000      -0.870542       -23.6887
  22   2.0000      -0.851774       -23.1779
  23   2.0000      -0.831660       -22.6306
  24   2.0000      -0.818280       -22.2665
  25   2.0000      -0.779914       -21.2225
  26   2.0000      -0.771502       -20.9936
  27   2.0000      -0.769281       -20.9332
  28   2.0000      -0.764887       -20.8136
  29   0.0000      -0.286322        -7.7912
  30   0.0000      -0.262472        -7.1422
  31   0.0000      -0.049546        -1.3482
  32   0.0000      -0.041542        -1.1304
  33   0.0000      -0.017961        -0.4887

MULLIKEN ATOMIC CHARGES
-----------------------
   0 C :   -0.348900
   1 C :    0.012759
   2 H :    0.124148
   3 C :   -0.128754
   4 Cl:   -0.142964
   5 Cl:   -0.166007
   6 H :    0.115868
   7 H :    0.139255
   8 H :    0.124472
   9 H :    0.129449
  10 H :    0.140675
Sum of atomic charges:   -0.0000000

LOEWDIN ATOMIC CHARGES
----------------------
   0 C :   -0.301003
   1 C :   -0.496951
   2 H :    0.141293
   3 C :   -0.469622
   4 Cl:    0.241792
   5 Cl:    0.246212
   6 H :    0.126280
   7 H :    0.127354
   8 H :    0.125482
   9 H :    0.130614
  10 H :    0.128548

  Mayer bond orders larger than 0.100000
B(  0-C ,  1-C ) :   0.9866 B(  0-C ,  6-H ) :   0.9632 B(  0-C ,  7-H ) :   0.9733
B(  0-C ,  8-H ) :   0.9684 B(  1-C ,  2-H ) :   0.9619 B(  1-C ,  3-C ) :   0.9989
B(  1-C ,  5-Cl) :   1.0333 B(  3-C ,  4-Cl) :   1.0794 B(  3-C ,  9-H ) :   0.9585
B(  3-C , 10-H ) :   0.9600

FINAL SINGLE POINT ENERGY     -1038.232466107168

DIPOLE MOMENT
-------------

Method             : SCF
Type of density    : Electron Density
Multiplicity       :   1
Irrep              :   0
Energy             : -1038.2397927727683964 Eh
Relativity type    :
Basis              : AO
                                X                 Y                 Z
Electronic contribution:     -1.562903596      -9.860554494       2.510808629
Nuclear contribution   :      1.477814455      11.109326432      -2.809567258
                        -----------------------------------------
Total Dipole Moment    :     -0.085089141       1.248771938      -0.298758629
                        -----------------------------------------
Magnitude (a.u.)       :      1.286828751
Magnitude (Debye)      :      3.270858746

Rotational constants in cm-1:             0.146950             0.062990             0.046464
Rotational constants in MHz :          4405.456747          1888.405511          1392.953988

                             ****ORCA TERMINATED NORMALLY****
TOTAL RUN TIME: 0 days 0 hours 1 minutes 3 seconds 34 msec
