                         Program Version 6.0.0  -   RELEASE  -
|  1> ! wb97x-v def2-tzvp def2/J RIJCOSX DEFGRID2 scfconv7 GCP(DFT/TZ) printgap
|  2> %output
|  3>     printlevel normal
|  4> end
|  5> %cpcm
|  6>     smd true
|  7>     smdsolvent "water"
|  8> end
|  9> * xyz 0 1
| 10> C 0.9779844191770494 2.1030460090927603 -0.3836373379860111
| 11> C 0.34828664484488436 0.8563723758888969 0.20311118244344004
| 12> H 0.11311312650054177 0.9891174501150554 1.2609925137396363
| 13> C -0.8786121856479899 0.46393459367023765 -0.5804270808336072
| 14> Cl -1.7805026613753279 -0.9350530101495138 0.17152349915214393
| 15> Cl 1.5814406097864164 -0.5229236215782966 0.16552373801664438
| 16> H 0.2648360137894747 2.9300283357543893 -0.3007741091742155
| 17> H 1.8817927521672073 2.373037537134841 0.16612856155553316
| 18> H 1.2290056012191273 1.9608200122440818 -1.4383348276420584
| 19> H -1.5741285672284653 1.3069344748666838 -0.588486169924885
| 20> H -0.6350632928657586 0.17450768000623132 -1.6041243907805935
| 21> *
| 22>
| 23>                          ****END OF INPUT****

CARTESIAN COORDINATES (ANGSTROEM)
---------------------------------
  C      0.977984    2.103046   -0.383637
  C      0.348287    0.856372    0.203111
  H      0.113113    0.989117    1.260993
  C     -0.878612    0.463935   -0.580427
  Cl    -1.780503   -0.935053    0.171523
  Cl     1.581441   -0.522924    0.165524
  H      0.264836    2.930028   -0.300774
  H      1.881793    2.373038    0.166129
  H      1.229006    1.960820   -1.438335
  H     -1.574129    1.306934   -0.588486
  H     -0.635063    0.174508   -1.604124

 Total Charge           Charge          ....    0
 Multiplicity           Mult            ....    1
 Number of Electrons    NEL             ....   58
 Basis Dimension        Dim             ....  203

ORBITAL ENERGIES
----------------

  NO   OCC          E(Eh)            E(eV)
   0   2.0000    -107.131568     -2915.1982
   1   2.0000    -107.126621     -2915.0635
   2   2.0000     -12.119874      -329.7985
   3   2.0000     -12.109435      -329.5145
   4   2.0000     -12.042560      -327.6947
   5   2.0000     -11.284842      -307.0762
   6   2.0000     -11.280068      -306.9463
   7   2.0000      -9.076218      -246.9764
   8   2.0000      -9.073692      -246.9077
   9   2.0000      -9.073684      -246.9075
  10   2.0000      -9.071376      -246.8447
  11   2.0000      -9.068973      -246.7793
  12   2.0000      -9.068843      -246.7758
  13   2.0000      -1.409307       -38.3492
  14   2.0000      -1.381135       -37.5826
  15   2.0000      -1.283394       -34.9229
  16   2.0000      -1.183584       -32.2070
  17   2.0000      -1.067935       -29.0600
  18   2.0000      -0.925903       -25.1951
  19   2.0000      -0.910609       -24.7789
  20   2.0000      -0.893242       -24.3064
  21   2.0000      -0.853593       -23.2275
  22   2.0000      -0.839978       -22.8570
  23   2.0000      -0.811573       -22.0840
  24   2.0000      -0.800338       -21.7783
  25   2.0000      -0.777955       -21.1692
  26   2.0000      -0.768241       -20.9049
  27   2.0000      -0.765371       -20.8268
  28   2.0000      -0.759417       -20.6648
  29   0.0000      -0.275158        -7.4874
  30   0.0000      -0.251708        -6.8493
  31   0.0000      -0.031170        -0.8482
  32   0.0000      -0.023102        -0.6286
  33   0.0000       0.004921         0.1339

MULLIKEN ATOMIC CHARGES
-----------------------
   0 C :   -0.392454
   1 C :    0.033515
   2 H :    0.149982
   3 C :   -0.143535
   4 Cl:   -0.199131
   5 Cl:   -0.225010
   6 H :    0.145958
   7 H :    0.148581
   8 H :    0.140731
   9 H :    0.173177
  10 H :    0.168185
Sum of atomic charges:   -0.0000000

LOEWDIN ATOMIC CHARGES
----------------------
   0 C :   -0.297907
   1 C :   -0.484921
   2 H :    0.149053
   3 C :   -0.455235
   4 Cl:    0.205222
   5 Cl:    0.207741
   6 H :    0.136805
   7 H :    0.128589
   8 H :    0.129147
   9 H :    0.144947
  10 H :    0.136558

  Mayer bond orders larger than 0.100000
B(  0-C ,  1-C ) :   0.9976 B(  0-C ,  6-H ) :   0.9590 B(  0-C ,  7-H ) :   0.9687
B(  0-C ,  8-H ) :   0.9647 B(  1-C ,  2-H ) :   0.9529 B(  1-C ,  3-C ) :   1.0096
B(  1-C ,  5-Cl) :   0.9720 B(  3-C ,  4-Cl) :   1.0216 B(  3-C ,  9-H ) :   0.9529
B(  3-C , 10-H ) :   0.9510

FINAL SINGLE POINT ENERGY     -1038.239289152544

DIPOLE MOMENT
-------------

Method             : SCF
Type of density    : Electron Density
Multiplicity       :   1
Irrep              :   0
Energy             : -1038.2466158181434821 Eh
Relativity type    :
Basis              : AO
                                X                 Y                 Z
Electronic contribution:     -1.667712921      -9.360835540       2.387486313
Nuclear contribution   :      1.477814455      11.109326432      -2.809567258
                        -----------------------------------------
Total Dipole Moment    :     -0.189898465       1.748490892      -0.422080945
                        -----------------------------------------
Magnitude (a.u.)       :      1.808710632
Magnitude (Debye)      :      4.597377068

Rotational constants in cm-1:             0.146950             0.062990             0.046464
Rotational constants in MHz :          4405.456747          1888.405511          1392.953988

                             ****ORCA TERMINATED NORMALLY****
TOTAL RUN TIME: 0 days 0 hours 1 minutes 4 seconds 901 msec
