                         Program Version 6.0.0  -   RELEASE  -
|  1> ! r2scan-3c def2/J RI DEFGRID2 scfconv6 printgap
|  2> %output
|  3>     printlevel normal
|  4> end
|  5> * xyz 0 1
|  6> C 2.7486241659 -0.0123876951 0.7282811213
|  7> C 1.9712064425 -0.0140403211 -0.5904022506
|  8> C 0.4958482453 0.0202668105 -0.3265299162
|  9> C -0.1909393657 1.2199234557 -0.1760451449
| 10> C -1.54587849 1.1957967887 0.1088067742
| 11> C -2.1696450034 -0.0354548337 0.2367510718
| 12> N -1.5325033327 -1.1882248988 0.0979686689
| 13> C -0.2383545033 -1.1518625973 -0.1747262227
| 14> H 2.4788039871 -0.8794196734 1.326853959
| 15> H 2.5216883198 0.8835593672 1.301508516
| 16> H 3.817550474 -0.0410117802 0.534942325
| 17> H 2.2217341414 -0.9132036488 -1.155476707
| 18> H 2.2589324524 0.8579627782 -1.1801493797
| 19> H 0.3310944067 2.1599414497 -0.2845208278
| 20> H -2.1068746122 2.1090346525 0.2284111518
| 21> H -3.2255622461 -0.1112814488 0.4584731255
| 22> H 0.2383975946 -2.118200271 -0.2812480746
| 23> *
| 24>
| 25>                          ****END OF INPUT****

CARTESIAN COORDINATES (ANGSTROEM)
---------------------------------
  C      2.748624   -0.012388    0.728281
  C      1.971206   -0.014040   -0.590402
  C      0.495848    0.020267   -0.326530
  C     -0.190939    1.219923   -0.176045
  C     -1.545878    1.195797    0.108807
  C     -2.169645   -0.035455    0.236751
  N     -1.532503   -1.188225    0.097969
  C     -0.238355   -1.151863   -0.174726
  H      2.478804   -0.879420    1.326854
  H      2.521688    0.883559    1.301509
  H      3.817550   -0.041012    0.534942
  H      2.221734   -0.913204   -1.155477
  H      2.258932    0.857963   -1.180149
  H      0.331094    2.159941   -0.284521
  H     -2.106875    2.109035    0.228411
  H     -3.225562   -0.111281    0.458473
  H      0.238398   -2.118200   -0.281248

 Total Charge           Charge          ....    0
 Multiplicity           Mult            ....    1
 Number of Electrons    NEL             ....   58
 Basis Dimension        Dim             ....  202

ORBITAL ENERGIES
----------------

  NO   OCC          E(Eh)            E(eV)
   0   2.0000     -14.152067      -385.0973
   1   2.0000     -10.062181      -273.8059
   2   2.0000     -10.061934      -273.7991
   3   2.0000     -10.050297      -273.4825
   4   2.0000     -10.049625      -273.4642
   5   2.0000     -10.043174      -273.2887
   6   2.0000     -10.043047      -273.2852
   7   2.0000     -10.028824      -272.8982
   8   2.0000      -0.912475       -24.8297
   9   2.0000      -0.792777       -21.5726
  10   2.0000      -0.751712       -20.4551
  11   2.0000      -0.706653       -19.2290
  12   2.0000      -0.617817       -16.8117
  13   2.0000      -0.600470       -16.3396
  14   2.0000      -0.564167       -15.3518
  15   2.0000      -0.490176       -13.3384
  16   2.0000      -0.464846       -12.6491
  17   2.0000      -0.435206       -11.8426
  18   2.0000      -0.409568       -11.1449
  19   2.0000      -0.403001       -10.9662
  20   2.0000      -0.382619       -10.4116
  21   2.0000      -0.371202       -10.1009
  22   2.0000      -0.357603        -9.7309
  23   2.0000      -0.346156        -9.4194
  24   2.0000      -0.326689        -8.8897
  25   2.0000      -0.315000        -8.5716
  26   2.0000      -0.267303        -7.2737
  27   2.0000      -0.237936        -6.4746
  28   2.0000      -0.220430        -5.9982
  29   0.0000      -0.052338        -1.4242
  30   0.0000      -0.037423        -1.0183
  31   0.0000       0.076016         2.0685
  32   0.0000       0.096751         2.6327
  33   0.0000       0.099055         2.6954

MULLIKEN ATOMIC CHARGES
-----------------------
   0 C :   -0.453106
   1 C :   -0.333521
   2 C :    0.282323
   3 C :   -0.232649
   4 C :   -0.098520
   5 C :   -0.106126
   6 N :   -0.168009
   7 C :   -0.205293
   8 H :    0.151592
   9 H :    0.148634
  10 H :    0.150263
  11 H :    0.150985
  12 H :    0.147333
  13 H :    0.150219
  14 H :    0.148089
  15 H :    0.132844
  16 H :    0.134943
Sum of atomic charges:   -0.0000000

LOEWDIN ATOMIC CHARGES
----------------------
   0 C :   -0.403694
   1 C :   -0.288160
   2 C :   -0.075627
   3 C :   -0.124279
   4 C :   -0.144265
   5 C :    0.071927
   6 N :   -0.612984
   7 C :    0.080738
   8 H :    0.155318
   9 H :    0.153815
  10 H :    0.150604
  11 H :    0.164177
  12 H :    0.162365
  13 H :    0.170829
  14 H :    0.169454
  15 H :    0.183862
  16 H :    0.185920

  Mayer bond orders larger than 0.100000
B(  0-C ,  1-C ) :   0.9272 B(  0-C ,  8-H ) :   0.9765 B(  0-C ,  9-H ) :   0.9774
B(  0-C , 10-H ) :   0.9717 B(  1-C ,  2-C ) :   0.8038 B(  1-C , 11-H ) :   0.9870
B(  1-C , 12-H ) :   0.9892 B(  2-C ,  3-C ) :   1.3631 B(  2-C ,  7-C ) :   1.2894
B(  3-C ,  4-C ) :   1.4319 B(  3-C , 13-H ) :   0.9452 B(  4-C ,  5-C ) :   1.3586
B(  4-C , 14-H ) :   0.9380 B(  5-C ,  6-N ) :   1.4627 B(  5-C , 15-H ) :   0.9833
B(  6-N ,  7-C ) :   1.5077 B(  7-C , 16-H ) :   0.9980

Dispersion correction           -0.005274146
FINAL SINGLE POINT ENERGY      -326.816188709690

DIPOLE MOMENT
-------------

Method             : SCF
Type of density    : Electron Density
Multiplicity       :   1
Irrep              :   0
Energy             :  -326.8186357800537962 Eh
Relativity type    :
Basis              : AO
                                X                 Y                 Z
Electronic contribution:     -7.370389688      -1.088633358      -0.965078848
Nuclear contribution   :      7.999582949       1.820456936       0.890665918
                        -----------------------------------------
Total Dipole Moment    :      0.629193260       0.731823578      -0.074412930
                        -----------------------------------------
Magnitude (a.u.)       :      0.967980987
Magnitude (Debye)      :      2.460412138

Rotational constants in cm-1:             0.155900             0.050678             0.042162
Rotational constants in MHz :          4673.758655          1519.292730          1263.995349

                             ****ORCA TERMINATED NORMALLY****
TOTAL RUN TIME: 0 days 0 hours 0 minutes 18 seconds 813 msec
