                         Program Version 6.0.0  -   RELEASE  -
|  1> ! r2scan-3c def2/J RI DEFGRID2 scfconv6 printgap
|  2> %output
|  3>     printlevel normal
|  4> end
|  5> %cpcm
|  6>     smd true
|  7>     smdsolvent "water"
|  8> end
|  9> * xyz 0 1
| 10> C 2.7486241659 -0.0123876951 0.7282811213
| 11> C 1.9712064425 -0.0140403211 -0.5904022506
| 12> C 0.4958482453 0.0202668105 -0.3265299162
| 13> C -0.1909393657 1.2199234557 -0.1760451449
| 14> C -1.54587849 1.1957967887 0.1088067742
| 15> C -2.1696450034 -0.0354548337 0.2367510718
| 16> N -1.5325033327 -1.1882248988 0.0979686689
| 17> C -0.2383545033 -1.1518625973 -0.1747262227
| 18> H 2.4788039871 -0.8794196734 1.326853959
| 19> H 2.5216883198 0.8835593672 1.301508516
| 20> H 3.817550474 -0.0410117802 0.534942325
| 21> H 2.2217341414 -0.9132036488 -1.155476707
| 22> H 2.2589324524 0.8579627782 -1.1801493797
| 23> H 0.3310944067 2.1599414497 -0.2845208278
| 24> H -2.1068746122 2.1090346525 0.2284111518
| 25> H -3.2255622461 -0.1112814488 0.4584731255
| 26> H 0.2383975946 -2.118200271 -0.2812480746
| 27> *
| 28>
| 29>                          ****END OF INPUT****

CARTESIAN COORDINATES (ANGSTROEM)
---------------------------------
  C      2.748624   -0.012388    0.728281
  C      1.971206   -0.014040   -0.590402
  C      0.495848    0.020267   -0.326530
  C     -0.190939    1.219923   -0.176045
  C     -1.545878    1.195797    0.108807
  C     -2.169645   -0.035455    0.236751
  N     -1.532503   -1.188225    0.097969
  C     -0.238355   -1.151863   -0.174726
  H      2.478804   -0.879420    1.326854
  H      2.521688    0.883559    1.301509
  H      3.817550   -0.041012    0.534942
  H      2.221734   -0.913204   -1.155477
  H      2.258932    0.857963   -1.180149
  H      0.331094    2.159941   -0.284521
  H     -2.106875    2.109035    0.228411
  H     -3.225562   -0.111281    0.458473
  H      0.238398   -2.118200   -0.281248

 Total Charge           Charge          ....    0
 Multiplicity           Mult            ....    1
 Number of Electrons    NEL             ....   58
 Basis Dimension        Dim             ....  202

ORBITAL ENERGIES
----------------

  NO   OCC          E(Eh)            E(eV)
   0   2.0000     -14.156916      -385.2293
   1   2.0000     -10.060769      -273.7674
   2   2.0000     -10.060160      -273.7509
   3   2.0000     -10.045890      -273.3626
   4   2.0000     -10.044242      -273.3177
   5   2.0000     -10.038287      -273.1557
   6   2.0000     -10.029362      -272.9128
   7   2.0000     -10.015094      -272.5246
   8   2.0000      -0.915373       -24.9086
   9   2.0000      -0.787044       -21.4166
  10   2.0000      -0.746629       -20.3168
  11   2.0000      -0.699671       -19.0390
  12   2.0000      -0.610744       -16.6192
  13   2.0000      -0.595719       -16.2103
  14   2.0000      -0.556635       -15.1468
  15   2.0000      -0.484883       -13.1943
  16   2.0000      -0.460087       -12.5196
  17   2.0000      -0.425840       -11.5877
  18   2.0000      -0.400378       -10.8948
  19   2.0000      -0.392575       -10.6825
  20   2.0000      -0.380729       -10.3602
  21   2.0000      -0.366033        -9.9603
  22   2.0000      -0.352174        -9.5831
  23   2.0000      -0.336560        -9.1583
  24   2.0000      -0.314200        -8.5498
  25   2.0000      -0.303979        -8.2717
  26   2.0000      -0.267386        -7.2759
  27   2.0000      -0.236432        -6.4336
  28   2.0000      -0.227927        -6.2022
  29   0.0000      -0.052331        -1.4240
  30   0.0000      -0.036307        -0.9880
  31   0.0000       0.086564         2.3555
  32   0.0000       0.099784         2.7153
  33   0.0000       0.108322         2.9476

MULLIKEN ATOMIC CHARGES
-----------------------
   0 C :   -0.502810
   1 C :   -0.309117
   2 C :    0.232659
   3 C :   -0.227695
   4 C :   -0.135540
   5 C :   -0.127459
   6 N :   -0.229639
   7 C :   -0.207113
   8 H :    0.160848
   9 H :    0.161434
  10 H :    0.163479
  11 H :    0.164912
  12 H :    0.164494
  13 H :    0.186732
  14 H :    0.183970
  15 H :    0.159498
  16 H :    0.161347
Sum of atomic charges:   -0.0000000

LOEWDIN ATOMIC CHARGES
----------------------
   0 C :   -0.409276
   1 C :   -0.286064
   2 C :   -0.074785
   3 C :   -0.117559
   4 C :   -0.144847
   5 C :    0.060863
   6 N :   -0.664843
   7 C :    0.074256
   8 H :    0.156375
   9 H :    0.156427
  10 H :    0.155297
  11 H :    0.169610
  12 H :    0.169411
  13 H :    0.184966
  14 H :    0.182432
  15 H :    0.192330
  16 H :    0.195408

  Mayer bond orders larger than 0.100000
B(  0-C ,  1-C ) :   0.9084 B(  0-C ,  8-H ) :   0.9764 B(  0-C ,  9-H ) :   0.9766
B(  0-C , 10-H ) :   0.9677 B(  1-C ,  2-C ) :   0.8167 B(  1-C , 11-H ) :   0.9812
B(  1-C , 12-H ) :   0.9815 B(  2-C ,  3-C ) :   1.3537 B(  2-C ,  7-C ) :   1.3052
B(  3-C ,  4-C ) :   1.4064 B(  3-C , 13-H ) :   0.9450 B(  4-C ,  5-C ) :   1.3602
B(  4-C , 14-H ) :   0.9410 B(  5-C ,  6-N ) :   1.4547 B(  5-C , 15-H ) :   0.9722
B(  6-N ,  7-C ) :   1.5033 B(  7-C , 16-H ) :   0.9809

Dispersion correction           -0.005274146
FINAL SINGLE POINT ENERGY      -326.822895023521

DIPOLE MOMENT
-------------

Method             : SCF
Type of density    : Electron Density
Multiplicity       :   1
Irrep              :   0
Energy             :  -326.8253420938845011 Eh
Relativity type    :
Basis              : AO
                                X                 Y                 Z
Electronic contribution:     -7.104202468      -0.751037522      -1.020815673
Nuclear contribution   :      7.999582949       1.820456936       0.890665918
                        -----------------------------------------
Total Dipole Moment    :      0.895380480       1.069419415      -0.130149754
                        -----------------------------------------
Magnitude (a.u.)       :      1.400822276
Magnitude (Debye)      :      3.560607258

Rotational constants in cm-1:             0.155900             0.050678             0.042162
Rotational constants in MHz :          4673.758655          1519.292730          1263.995349

                             ****ORCA TERMINATED NORMALLY****
TOTAL RUN TIME: 0 days 0 hours 0 minutes 26 seconds 71 msec
