                         Program Version 6.0.0  -   RELEASE  -
|  1> ! pbe def2-sv(p) def2/J RI DEFGRID1 loosescf d4 GCP(DFT/SV(P)) printgap
|  2> %output
|  3>     printlevel normal
|  4> end
|  5> * xyz 0 1
|  6> C -2.6419853111 0.6160959318 0.760682233
|  7> C -1.8466530232 0.6277919247 -0.5485954076
|  8> C -0.381643573 0.3856352588 -0.2949960114
|  9> C 0.4974768785 1.4571154894 -0.2138809115
| 10> C 1.8418422485 1.2758017549 0.0548680669
| 11> C 2.3327485223 -0.0037490492 0.2502172894
| 12> C 1.4787533302 -1.0860379478 0.1748970782
| 13> C 0.1257627864 -0.9014694109 -0.0921541786
| 14> O -0.6490971844 -2.0233358073 -0.140372099
| 15> H -2.3022522825 1.4209773502 1.4082459174
| 16> H -2.5061417674 -0.321977368 1.2942813385
| 17> H -3.7019172188 0.7543978341 0.5622785097
| 18> H -1.9654087255 1.6007830888 -1.0277798353
| 19> H -2.2509791727 -0.1208553491 -1.2355225148
| 20> H 0.1137936321 2.4556482508 -0.3663075928
| 21> H 2.502197107 2.1273916496 0.111243514
| 22> H 3.3794168776 -0.1615621615 0.4606558102
| 23> H 1.8346694852 -2.0937710623 0.3234810071
| 24> H -1.5583101021 -1.7996685356 -0.3871987948
| 25> *
| 26>
| 27>                          ****END OF INPUT****

CARTESIAN COORDINATES (ANGSTROEM)
---------------------------------
  C     -2.641985    0.616096    0.760682
  C     -1.846653    0.627792   -0.548595
  C     -0.381644    0.385635   -0.294996
  C      0.497477    1.457115   -0.213881
  C      1.841842    1.275802    0.054868
  C      2.332749   -0.003749    0.250217
  C      1.478753   -1.086038    0.174897
  C      0.125763   -0.901469   -0.092154
  O     -0.649097   -2.023336   -0.140372
  H     -2.302252    1.420977    1.408246
  H     -2.506142   -0.321977    1.294281
  H     -3.701917    0.754398    0.562279
  H     -1.965409    1.600783   -1.027780
  H     -2.250979   -0.120855   -1.235523
  H      0.113794    2.455648   -0.366308
  H      2.502197    2.127392    0.111244
  H      3.379417   -0.161562    0.460656
  H      1.834669   -2.093771    0.323481
  H     -1.558310   -1.799669   -0.387199

 Total Charge           Charge          ....    0
 Multiplicity           Mult            ....    1
 Number of Electrons    NEL             ....   66
 Basis Dimension        Dim             ....  146

ORBITAL ENERGIES
----------------

  NO   OCC          E(Eh)            E(eV)
   0   2.0000     -18.779610      -511.0192
   1   2.0000      -9.946821      -270.6668
   2   2.0000      -9.904238      -269.5080
   3   2.0000      -9.897126      -269.3145
   4   2.0000      -9.888526      -269.0805
   5   2.0000      -9.887282      -269.0466
   6   2.0000      -9.887224      -269.0450
   7   2.0000      -9.881650      -268.8934
   8   2.0000      -9.881427      -268.8873
   9   2.0000      -0.960537       -26.1375
  10   2.0000      -0.771799       -21.0017
  11   2.0000      -0.716610       -19.5000
  12   2.0000      -0.662271       -18.0213
  13   2.0000      -0.649460       -17.6727
  14   2.0000      -0.577025       -15.7017
  15   2.0000      -0.539496       -14.6804
  16   2.0000      -0.538662       -14.6577
  17   2.0000      -0.484295       -13.1783
  18   2.0000      -0.444431       -12.0936
  19   2.0000      -0.419926       -11.4268
  20   2.0000      -0.399241       -10.8639
  21   2.0000      -0.389902       -10.6098
  22   2.0000      -0.376904       -10.2561
  23   2.0000      -0.366663        -9.9774
  24   2.0000      -0.343270        -9.3409
  25   2.0000      -0.334025        -9.0893
  26   2.0000      -0.332925        -9.0594
  27   2.0000      -0.318206        -8.6588
  28   2.0000      -0.301443        -8.2027
  29   2.0000      -0.292327        -7.9546
  30   2.0000      -0.285605        -7.7717
  31   2.0000      -0.220188        -5.9916
  32   2.0000      -0.191169        -5.2020
  33   0.0000      -0.029790        -0.8106
  34   0.0000      -0.016157        -0.4397
  35   0.0000       0.012770         0.3475
  36   0.0000       0.048296         1.3142
  37   0.0000       0.068479         1.8634

MULLIKEN ATOMIC CHARGES
-----------------------
   0 C :   -0.263960
   1 C :   -0.202059
   2 C :    0.026516
   3 C :   -0.140976
   4 C :   -0.044439
   5 C :   -0.043711
   6 C :   -0.124694
   7 C :    0.144023
   8 O :   -0.335834
   9 H :    0.109171
  10 H :    0.101802
  11 H :    0.109124
  12 H :    0.093808
  13 H :    0.086682
  14 H :    0.033358
  15 H :    0.043954
  16 H :    0.051652
  17 H :    0.040491
  18 H :    0.315092
Sum of atomic charges:    0.0000000

LOEWDIN ATOMIC CHARGES
----------------------
   0 C :   -0.337330
   1 C :   -0.224950
   2 C :   -0.083863
   3 C :   -0.119140
   4 C :   -0.147803
   5 C :   -0.120126
   6 C :   -0.147000
   7 C :    0.026525
   8 O :   -0.236123
   9 H :    0.125409
  10 H :    0.115869
  11 H :    0.119831
  12 H :    0.128643
  13 H :    0.111692
  14 H :    0.120110
  15 H :    0.121355
  16 H :    0.123622
  17 H :    0.129441
  18 H :    0.293838

  Mayer bond orders larger than 0.100000
B(  0-C ,  1-C ) :   1.1446 B(  0-C ,  9-H ) :   0.9519 B(  0-C , 10-H ) :   0.9524
B(  0-C , 11-H ) :   0.9491 B(  1-C ,  2-C ) :   1.0523 B(  1-C , 12-H ) :   0.9011
B(  1-C , 13-H ) :   0.9058 B(  2-C ,  3-C ) :   1.3961 B(  2-C ,  7-C ) :   1.3176
B(  3-C ,  4-C ) :   1.3646 B(  3-C , 14-H ) :   0.9585 B(  4-C ,  5-C ) :   1.3536
B(  4-C , 15-H ) :   0.9669 B(  5-C ,  6-C ) :   1.3700 B(  5-C , 16-H ) :   0.9667
B(  6-C ,  7-C ) :   1.3702 B(  6-C , 17-H ) :   0.9609 B(  7-C ,  8-O ) :   1.2181
B(  8-O , 18-H ) :   0.8274

Dispersion correction           -0.019223429
FINAL SINGLE POINT ENERGY      -385.235433220266

DIPOLE MOMENT
-------------

Method             : SCF
Type of density    : Electron Density
Multiplicity       :   1
Irrep              :   0
Energy             :  -385.2953756267727954 Eh
Relativity type    :
Basis              : AO
                                X                 Y                 Z
Electronic contribution:      5.451935127      -3.317554094      -1.192438388
Nuclear contribution   :     -6.065435142       3.592624689       1.070600555
                        -----------------------------------------
Total Dipole Moment    :     -0.613500015       0.275070595      -0.121837832
                        -----------------------------------------
Magnitude (a.u.)       :      0.683293903
Magnitude (Debye)      :      1.736795075

Rotational constants in cm-1:             0.088656             0.048445             0.033973
Rotational constants in MHz :          2657.827816          1452.338060          1018.490543

                             ****ORCA TERMINATED NORMALLY****
TOTAL RUN TIME: 0 days 0 hours 0 minutes 8 seconds 993 msec
