                         Program Version 6.0.0  -   RELEASE  -
|  1> ! pbe def2-sv(p) def2/J RI DEFGRID1 loosescf d4 GCP(DFT/SV(P)) printgap
|  2> %output
|  3>     printlevel normal
|  4> end
|  5> * xyz 0 1
|  6> C 2.1329228413 -0.5719101364 -0.5960791721
|  7> C 1.1636576372 -0.1403727734 0.506417605
|  8> H 1.6148661359 -0.3471065915 1.4827335888
|  9> C 0.7382421891 1.3337007709 0.3603770816
| 10> C -0.649601197 1.2631674085 -0.293520987
| 11> C -0.9502574815 -0.2452955876 -0.4083269285
| 12> H -0.7520387635 -0.5908187041 -1.4361326012
| 13> O -0.0404235191 -0.8935399358 0.4748073411
| 14> C -2.3722870227 -0.6210227772 -0.0201580888
| 15> H 2.2987078184 -1.6447082886 -0.537579658
| 16> H 1.7257369105 -0.3341723602 -1.5756552986
| 17> H 3.0818969988 -0.058601327 -0.4717254634
| 18> H 0.6810125598 1.8084933607 1.338218773
| 19> H 1.4530756764 1.8817490488 -0.2490237592
| 20> H -1.3993397123 1.7429827623 0.3336683525
| 21> H -0.6660267996 1.7362488904 -1.2727928222
| 22> H -2.5651301639 -0.3185064597 1.0058325046
| 23> H -2.5008776003 -1.6973024238 -0.0931723719
| 24> H -3.0771127385 -0.1287499659 -0.6834966543
| 25> *
| 26>
| 27>                          ****END OF INPUT****

CARTESIAN COORDINATES (ANGSTROEM)
---------------------------------
  C      2.132923   -0.571910   -0.596079
  C      1.163658   -0.140373    0.506418
  H      1.614866   -0.347107    1.482734
  C      0.738242    1.333701    0.360377
  C     -0.649601    1.263167   -0.293521
  C     -0.950257   -0.245296   -0.408327
  H     -0.752039   -0.590819   -1.436133
  O     -0.040424   -0.893540    0.474807
  C     -2.372287   -0.621023   -0.020158
  H      2.298708   -1.644708   -0.537580
  H      1.725737   -0.334172   -1.575655
  H      3.081897   -0.058601   -0.471725
  H      0.681013    1.808493    1.338219
  H      1.453076    1.881749   -0.249024
  H     -1.399340    1.742983    0.333668
  H     -0.666027    1.736249   -1.272793
  H     -2.565130   -0.318506    1.005833
  H     -2.500878   -1.697302   -0.093172
  H     -3.077113   -0.128750   -0.683497

 Total Charge           Charge          ....    0
 Multiplicity           Mult            ....    1
 Number of Electrons    NEL             ....   56
 Basis Dimension        Dim             ....  122

ORBITAL ENERGIES
----------------

  NO   OCC          E(Eh)            E(eV)
   0   2.0000     -18.740842      -509.9642
   1   2.0000      -9.932506      -270.2772
   2   2.0000      -9.932288      -270.2713
   3   2.0000      -9.884829      -268.9799
   4   2.0000      -9.884737      -268.9774
   5   2.0000      -9.872046      -268.6320
   6   2.0000      -9.872025      -268.6315
   7   2.0000      -0.932895       -25.3854
   8   2.0000      -0.702638       -19.1197
   9   2.0000      -0.699780       -19.0420
  10   2.0000      -0.635655       -17.2971
  11   2.0000      -0.578201       -15.7336
  12   2.0000      -0.526060       -14.3148
  13   2.0000      -0.493019       -13.4157
  14   2.0000      -0.441420       -12.0116
  15   2.0000      -0.433477       -11.7955
  16   2.0000      -0.402620       -10.9558
  17   2.0000      -0.371856       -10.1187
  18   2.0000      -0.365646        -9.9497
  19   2.0000      -0.355537        -9.6747
  20   2.0000      -0.345879        -9.4118
  21   2.0000      -0.330903        -9.0043
  22   2.0000      -0.320905        -8.7323
  23   2.0000      -0.299414        -8.1475
  24   2.0000      -0.285153        -7.7594
  25   2.0000      -0.278090        -7.5672
  26   2.0000      -0.261565        -7.1175
  27   2.0000      -0.197447        -5.3728
  28   0.0000       0.028818         0.7842
  29   0.0000       0.050580         1.3764
  30   0.0000       0.062937         1.7126
  31   0.0000       0.082750         2.2517
  32   0.0000       0.089492         2.4352

MULLIKEN ATOMIC CHARGES
-----------------------
   0 C :   -0.247481
   1 C :   -0.006053
   2 H :    0.069350
   3 C :   -0.126918
   4 C :   -0.149969
   5 C :    0.017415
   6 H :    0.058120
   7 O :   -0.329827
   8 C :   -0.224492
   9 H :    0.108715
  10 H :    0.096122
  11 H :    0.098055
  12 H :    0.087571
  13 H :    0.082398
  14 H :    0.079062
  15 H :    0.083062
  16 H :    0.097585
  17 H :    0.108310
  18 H :    0.098976
Sum of atomic charges:    0.0000000

LOEWDIN ATOMIC CHARGES
----------------------
   0 C :   -0.350919
   1 C :   -0.048681
   2 H :    0.108092
   3 C :   -0.233790
   4 C :   -0.235127
   5 C :   -0.046056
   6 H :    0.094857
   7 O :   -0.165527
   8 C :   -0.339805
   9 H :    0.123552
  10 H :    0.117216
  11 H :    0.121537
  12 H :    0.122895
  13 H :    0.120692
  14 H :    0.121277
  15 H :    0.122071
  16 H :    0.120080
  17 H :    0.124731
  18 H :    0.122904

  Mayer bond orders larger than 0.100000
B(  0-C ,  1-C ) :   1.1021 B(  0-C ,  9-H ) :   0.9450 B(  0-C , 10-H ) :   0.9450
B(  0-C , 11-H ) :   0.9407 B(  1-C ,  2-H ) :   0.9172 B(  1-C ,  3-C ) :   1.1030
B(  1-C ,  7-O ) :   1.0294 B(  3-C ,  4-C ) :   1.1806 B(  3-C , 12-H ) :   0.9108
B(  3-C , 13-H ) :   0.9164 B(  4-C ,  5-C ) :   1.1057 B(  4-C , 14-H ) :   0.9120
B(  4-C , 15-H ) :   0.9102 B(  5-C ,  6-H ) :   0.8954 B(  5-C ,  7-O ) :   1.0233
B(  5-C ,  8-C ) :   1.1281 B(  8-C , 16-H ) :   0.9391 B(  8-C , 17-H ) :   0.9448
B(  8-C , 18-H ) :   0.9447

Dispersion correction           -0.015527881
FINAL SINGLE POINT ENERGY      -310.344630267479

DIPOLE MOMENT
-------------

Method             : SCF
Type of density    : Electron Density
Multiplicity       :   1
Irrep              :   0
Energy             :  -310.4148339224107076 Eh
Relativity type    :
Basis              : AO
                                X                 Y                 Z
Electronic contribution:      0.175704598      -1.444364514       1.797165684
Nuclear contribution   :     -0.099322473       1.909521894      -2.018572796
                        -----------------------------------------
Total Dipole Moment    :      0.076382124       0.465157380      -0.221407112
                        -----------------------------------------
Magnitude (a.u.)       :      0.520794323
Magnitude (Debye)      :      1.323753968

Rotational constants in cm-1:             0.153736             0.070830             0.057782
Rotational constants in MHz :          4608.903261          2123.444451          1732.265781

                             ****ORCA TERMINATED NORMALLY****
TOTAL RUN TIME: 0 days 0 hours 0 minutes 8 seconds 262 msec
