                         Program Version 6.0.0  -   RELEASE  -
|  1> ! pbe def2-sv(p) def2/J RI DEFGRID1 loosescf d4 GCP(DFT/SV(P)) printgap
|  2> %output
|  3>     printlevel normal
|  4> end
|  5> * xyz 0 1
|  6> C -1.6939038306 0.9467149399 -0.3441578691
|  7> C -1.042218046 -0.2279252531 0.3795928421
|  8> C 0.5069759616 -0.2283666633 0.4439241006
|  9> C 1.058831401 -1.5087000009 -0.1851786383
| 10> C 1.1689625388 0.9814416126 -0.2146110239
| 11> H -2.7742363956 0.8183475492 -0.3336771222
| 12> H -1.3713515572 0.9998712232 -1.3799543556
| 13> H -1.4630079319 1.8903332358 0.1423353484
| 14> H -1.4371757329 -0.2581649057 1.3973075922
| 15> H -1.3690147749 -1.1456964582 -0.1136932946
| 16> H 0.8019787695 -0.222785234 1.4994000533
| 17> H 2.1425242462 -1.542366134 -0.0961597537
| 18> H 0.8004335475 -1.5515310501 -1.2412532489
| 19> H 0.6486031638 -2.387266586 0.3078251488
| 20> H 2.2477141688 0.9154884888 -0.0887439813
| 21> H 0.8342364205 1.9102854656 0.2380092034
| 22> H 0.95540737 1.0124461733 -1.2796128727
| 23> *
| 24>
| 25>                          ****END OF INPUT****

CARTESIAN COORDINATES (ANGSTROEM)
---------------------------------
  C     -1.693904    0.946715   -0.344158
  C     -1.042218   -0.227925    0.379593
  C      0.506976   -0.228367    0.443924
  C      1.058831   -1.508700   -0.185179
  C      1.168963    0.981442   -0.214611
  H     -2.774236    0.818348   -0.333677
  H     -1.371352    0.999871   -1.379954
  H     -1.463008    1.890333    0.142335
  H     -1.437176   -0.258165    1.397308
  H     -1.369015   -1.145696   -0.113693
  H      0.801979   -0.222785    1.499400
  H      2.142524   -1.542366   -0.096160
  H      0.800434   -1.551531   -1.241253
  H      0.648603   -2.387267    0.307825
  H      2.247714    0.915488   -0.088744
  H      0.834236    1.910285    0.238009
  H      0.955407    1.012446   -1.279613

 Total Charge           Charge          ....    0
 Multiplicity           Mult            ....    1
 Number of Electrons    NEL             ....   42
 Basis Dimension        Dim             ....   94

ORBITAL ENERGIES
----------------

  NO   OCC          E(Eh)            E(eV)
   0   2.0000      -9.889130      -269.0969
   1   2.0000      -9.877354      -268.7765
   2   2.0000      -9.869426      -268.5607
   3   2.0000      -9.867883      -268.5187
   4   2.0000      -9.867616      -268.5115
   5   2.0000      -0.725948       -19.7541
   6   2.0000      -0.653970       -17.7954
   7   2.0000      -0.606726       -16.5099
   8   2.0000      -0.556532       -15.1440
   9   2.0000      -0.481593       -13.1048
  10   2.0000      -0.420937       -11.4543
  11   2.0000      -0.397784       -10.8243
  12   2.0000      -0.379942       -10.3388
  13   2.0000      -0.356536        -9.7018
  14   2.0000      -0.342838        -9.3291
  15   2.0000      -0.326615        -8.8877
  16   2.0000      -0.319061        -8.6821
  17   2.0000      -0.308347        -8.3905
  18   2.0000      -0.276044        -7.5115
  19   2.0000      -0.271741        -7.3945
  20   2.0000      -0.263617        -7.1734
  21   0.0000       0.032270         0.8781
  22   0.0000       0.065502         1.7824
  23   0.0000       0.073304         1.9947
  24   0.0000       0.082793         2.2529
  25   0.0000       0.095719         2.6046

MULLIKEN ATOMIC CHARGES
-----------------------
   0 C :   -0.269219
   1 C :   -0.158340
   2 C :   -0.176813
   3 C :   -0.266449
   4 C :   -0.229787
   5 H :    0.100936
   6 H :    0.097388
   7 H :    0.097983
   8 H :    0.080185
   9 H :    0.078650
  10 H :    0.068785
  11 H :    0.094313
  12 H :    0.095878
  13 H :    0.102581
  14 H :    0.097152
  15 H :    0.096362
  16 H :    0.090394
Sum of atomic charges:   -0.0000000

LOEWDIN ATOMIC CHARGES
----------------------
   0 C :   -0.341134
   1 C :   -0.229041
   2 C :   -0.159319
   3 C :   -0.330505
   4 C :   -0.331107
   5 H :    0.119214
   6 H :    0.116153
   7 H :    0.116193
   8 H :    0.116926
   9 H :    0.115240
  10 H :    0.113844
  11 H :    0.114165
  12 H :    0.114653
  13 H :    0.115696
  14 H :    0.117445
  15 H :    0.116009
  16 H :    0.115567

  Mayer bond orders larger than 0.100000
B(  0-C ,  1-C ) :   1.2096 B(  0-C ,  5-H ) :   0.9475 B(  0-C ,  6-H ) :   0.9471
B(  0-C ,  7-H ) :   0.9454 B(  1-C ,  2-C ) :   1.0576 B(  1-C ,  8-H ) :   0.9248
B(  1-C ,  9-H ) :   0.9303 B(  2-C ,  3-C ) :   1.1154 B(  2-C ,  4-C ) :   1.1714
B(  2-C , 10-H ) :   0.9091 B(  3-C , 11-H ) :   0.9517 B(  3-C , 12-H ) :   0.9509
B(  3-C , 13-H ) :   0.9503 B(  4-C , 14-H ) :   0.9474 B(  4-C , 15-H ) :   0.9409
B(  4-C , 16-H ) :   0.9404

Dispersion correction           -0.011738241
FINAL SINGLE POINT ENERGY      -197.229641409065

DIPOLE MOMENT
-------------

Method             : SCF
Type of density    : Electron Density
Multiplicity       :   1
Irrep              :   0
Energy             :  -197.2873826275819624 Eh
Relativity type    :
Basis              : AO
                                X                 Y                 Z
Electronic contribution:     -0.031472194      -0.400029096       0.932636305
Nuclear contribution   :      0.015114985       0.411816729      -0.889580297
                        -----------------------------------------
Total Dipole Moment    :     -0.016357209       0.011787633       0.043056008
                        -----------------------------------------
Magnitude (a.u.)       :      0.047542890
Magnitude (Debye)      :      0.120844424

Rotational constants in cm-1:             0.229986             0.119485             0.091560
Rotational constants in MHz :          6894.812167          3582.063755          2744.901214

                             ****ORCA TERMINATED NORMALLY****
TOTAL RUN TIME: 0 days 0 hours 0 minutes 6 seconds 336 msec
