                         Program Version 6.0.0  -   RELEASE  -
|  1> ! r2scan-3c def2/J RI DEFGRID2 scfconv6 printgap
|  2> %output
|  3>     printlevel normal
|  4> end
|  5> * xyz 0 1
|  6> C -1.5053097154 -0.8350044952 0.7343116373
|  7> C -0.8040821923 0.1742289394 0.0822467528
|  8> C -1.5009860622 1.1897094481 -0.5657161486
|  9> C -2.8851938884 1.1812719506 -0.577815911
| 10> C -3.5964526629 0.1694306771 0.0634336035
| 11> C -2.8894098381 -0.8330410459 0.7236643116
| 12> Cl -3.7523607539 -2.087867131 1.5359933142
| 13> Cl -5.3219024891 0.1590255373 0.0430020162
| 14> Cl -3.7433411954 2.4341969036 -1.3965731684
| 15> C 0.6714639398 0.1919341344 0.0850620756
| 16> C 1.340628309 1.3432917374 0.4880059858
| 17> C 2.7238637134 1.3920033042 0.5081280056
| 18> C 3.4730245511 0.2848575472 0.1139867364
| 19> C 2.8135539694 -0.8680046262 -0.3069321129
| 20> C 1.4206863818 -0.9155254961 -0.3200262326
| 21> Cl 0.6491296015 -2.3417669679 -0.901087057
| 22> Cl 3.7303193877 -2.233104107 -0.8161185157
| 23> Cl 5.1926395531 0.334641831 0.1365613415
| 24> Cl 3.529151566 2.8234052728 1.0215888508
| 25> H -0.9834697264 -1.6131232933 1.2653629457
| 26> H -0.9708398901 1.9749981027 -1.0781056893
| 27> H 0.7745763934 2.2031086885 0.8061758372
| 28> *
| 29>
| 30>                          ****END OF INPUT****

CARTESIAN COORDINATES (ANGSTROEM)
---------------------------------
  C     -1.505310   -0.835004    0.734312
  C     -0.804082    0.174229    0.082247
  C     -1.500986    1.189709   -0.565716
  C     -2.885194    1.181272   -0.577816
  C     -3.596453    0.169431    0.063434
  C     -2.889410   -0.833041    0.723664
  Cl    -3.752361   -2.087867    1.535993
  Cl    -5.321902    0.159026    0.043002
  Cl    -3.743341    2.434197   -1.396573
  C      0.671464    0.191934    0.085062
  C      1.340628    1.343292    0.488006
  C      2.723864    1.392003    0.508128
  C      3.473025    0.284858    0.113987
  C      2.813554   -0.868005   -0.306932
  C      1.420686   -0.915525   -0.320026
  Cl     0.649130   -2.341767   -0.901087
  Cl     3.730319   -2.233104   -0.816119
  Cl     5.192640    0.334642    0.136561
  Cl     3.529152    2.823405    1.021589
  H     -0.983470   -1.613123    1.265363
  H     -0.970840    1.974998   -1.078106
  H      0.774576    2.203109    0.806176

 Total Charge           Charge          ....    0
 Multiplicity           Mult            ....    1
 Number of Electrons    NEL             ....  194
 Basis Dimension        Dim             ....  432

ORBITAL ENERGIES
----------------

  NO   OCC          E(Eh)            E(eV)
   0   2.0000    -101.247657     -2755.0888
   1   2.0000    -101.247384     -2755.0814
   2   2.0000    -101.246940     -2755.0693
   3   2.0000    -101.246479     -2755.0568
   4   2.0000    -101.242115     -2754.9380
   5   2.0000    -101.242063     -2754.9366
   6   2.0000    -101.241174     -2754.9124
   7   2.0000     -10.143763      -276.0258
   8   2.0000     -10.142401      -275.9888
   9   2.0000     -10.139552      -275.9112
  10   2.0000     -10.138388      -275.8796
  11   2.0000     -10.135100      -275.7901
  12   2.0000     -10.134205      -275.7657
  13   2.0000     -10.133710      -275.7523
  14   2.0000     -10.099121      -274.8110
  15   2.0000     -10.091380      -274.6004
  16   2.0000     -10.084359      -274.4093
  17   2.0000     -10.077660      -274.2271
  18   2.0000     -10.076421      -274.1933
  19   2.0000      -9.403265      -255.8758
  20   2.0000      -9.403046      -255.8699
  21   2.0000      -9.402857      -255.8647
  22   2.0000      -9.402258      -255.8485
  23   2.0000      -9.397824      -255.7278
  24   2.0000      -9.397659      -255.7233
  25   2.0000      -9.396917      -255.7031
  26   2.0000      -7.150004      -194.5615
  27   2.0000      -7.149771      -194.5552
  28   2.0000      -7.149424      -194.5457
  29   2.0000      -7.148797      -194.5286
  30   2.0000      -7.144368      -194.4082
  31   2.0000      -7.144346      -194.4075
  32   2.0000      -7.143446      -194.3830
  33   2.0000      -7.139588      -194.2781
  34   2.0000      -7.139385      -194.2725
  35   2.0000      -7.139187      -194.2671
  36   2.0000      -7.138517      -194.2489
  37   2.0000      -7.138492      -194.2482
  38   2.0000      -7.138261      -194.2419
  39   2.0000      -7.138181      -194.2398
  40   2.0000      -7.137733      -194.2276
  41   2.0000      -7.134101      -194.1288
  42   2.0000      -7.133996      -194.1259
  43   2.0000      -7.133309      -194.1072
  44   2.0000      -7.133200      -194.1042
  45   2.0000      -7.132919      -194.0966
  46   2.0000      -7.132394      -194.0823
  47   2.0000      -0.932976       -25.3876
  48   2.0000      -0.918276       -24.9876
  49   2.0000      -0.886766       -24.1301
  50   2.0000      -0.867735       -23.6123
  51   2.0000      -0.865960       -23.5640
  52   2.0000      -0.842544       -22.9268
  53   2.0000      -0.831910       -22.6374
  54   2.0000      -0.825463       -22.4620
  55   2.0000      -0.808852       -22.0100
  56   2.0000      -0.754016       -20.5178
  57   2.0000      -0.730070       -19.8662
  58   2.0000      -0.721068       -19.6213
  59   2.0000      -0.706654       -19.2290
  60   2.0000      -0.632335       -17.2067
  61   2.0000      -0.614227       -16.7140
  62   2.0000      -0.601857       -16.3774
  63   2.0000      -0.579996       -15.7825
  64   2.0000      -0.524025       -14.2594
  65   2.0000      -0.520258       -14.1569
  66   2.0000      -0.500133       -13.6093
  67   2.0000      -0.493452       -13.4275
  68   2.0000      -0.473339       -12.8802
  69   2.0000      -0.458625       -12.4798
  70   2.0000      -0.446205       -12.1419
  71   2.0000      -0.442682       -12.0460
  72   2.0000      -0.441266       -12.0075
  73   2.0000      -0.434780       -11.8310
  74   2.0000      -0.426062       -11.5937
  75   2.0000      -0.413433       -11.2501
  76   2.0000      -0.398744       -10.8504
  77   2.0000      -0.384435       -10.4610
  78   2.0000      -0.381510       -10.3814
  79   2.0000      -0.378876       -10.3097
  80   2.0000      -0.361918        -9.8483
  81   2.0000      -0.358979        -9.7683
  82   2.0000      -0.340131        -9.2554
  83   2.0000      -0.329285        -8.9603
  84   2.0000      -0.327449        -8.9103
  85   2.0000      -0.323869        -8.8129
  86   2.0000      -0.321355        -8.7445
  87   2.0000      -0.319396        -8.6912
  88   2.0000      -0.310584        -8.4514
  89   2.0000      -0.308266        -8.3883
  90   2.0000      -0.305506        -8.3132
  91   2.0000      -0.286528        -7.7968
  92   2.0000      -0.286182        -7.7874
  93   2.0000      -0.262194        -7.1347
  94   2.0000      -0.250890        -6.8271
  95   2.0000      -0.249840        -6.7985
  96   2.0000      -0.238534        -6.4908
  97   0.0000      -0.095449        -2.5973
  98   0.0000      -0.080387        -2.1874
  99   0.0000      -0.073043        -1.9876
 100   0.0000      -0.063430        -1.7260
 101   0.0000      -0.055058        -1.4982

MULLIKEN ATOMIC CHARGES
-----------------------
   0 C :   -0.245437
   1 C :    0.185806
   2 C :   -0.267718
   3 C :    0.106598
   4 C :    0.046968
   5 C :    0.101470
   6 Cl:   -0.093590
   7 Cl:   -0.072155
   8 Cl:   -0.094597
   9 C :    0.177187
  10 C :   -0.315993
  11 C :    0.114474
  12 C :    0.080541
  13 C :    0.035006
  14 C :   -0.011553
  15 Cl:   -0.060272
  16 Cl:   -0.061906
  17 Cl:   -0.060573
  18 Cl:   -0.088150
  19 H :    0.177071
  20 H :    0.172402
  21 H :    0.174421
Sum of atomic charges:    0.0000000

LOEWDIN ATOMIC CHARGES
----------------------
   0 C :   -0.149439
   1 C :   -0.067688
   2 C :   -0.147759
   3 C :   -0.171613
   4 C :   -0.194188
   5 C :   -0.171213
   6 Cl:    0.167813
   7 Cl:    0.179062
   8 Cl:    0.167120
   9 C :   -0.069828
  10 C :   -0.141262
  11 C :   -0.177507
  12 C :   -0.192890
  13 C :   -0.186538
  14 C :   -0.162510
  15 Cl:    0.197145
  16 Cl:    0.187732
  17 Cl:    0.187864
  18 Cl:    0.172893
  19 H :    0.190654
  20 H :    0.189689
  21 H :    0.192464

  Mayer bond orders larger than 0.100000
B(  0-C ,  1-C ) :   1.3492 B(  0-C ,  5-C ) :   1.3607 B(  0-C , 19-H ) :   0.9185
B(  1-C ,  2-C ) :   1.3595 B(  1-C ,  9-C ) :   0.7474 B(  2-C ,  3-C ) :   1.3432
B(  2-C , 20-H ) :   0.9289 B(  3-C ,  4-C ) :   1.2224 B(  3-C ,  8-Cl) :   1.0711
B(  4-C ,  5-C ) :   1.2116 B(  4-C ,  7-Cl) :   1.2029 B(  5-C ,  6-Cl) :   1.0737
B(  9-C , 10-C ) :   1.3613 B(  9-C , 14-C ) :   1.2500 B( 10-C , 11-C ) :   1.3188
B( 10-C , 21-H ) :   0.9259 B( 11-C , 12-C ) :   1.2142 B( 11-C , 18-Cl) :   1.0839
B( 12-C , 13-C ) :   1.0969 B( 12-C , 17-Cl) :   1.2485 B( 13-C , 14-C ) :   1.1029
B( 13-C , 16-Cl) :   1.2709 B( 14-C , 15-Cl) :   1.2916

Dispersion correction           -0.015264778
FINAL SINGLE POINT ENERGY     -3680.218504733408

DIPOLE MOMENT
-------------

Method             : SCF
Type of density    : Electron Density
Multiplicity       :   1
Irrep              :   0
Energy             : -3680.2166884612338436 Eh
Relativity type    :
Basis              : AO
                                X                 Y                 Z
Electronic contribution:      1.717883386      -3.402327797      -1.331499453
Nuclear contribution   :     -1.487497760       3.629791321       1.437537064
                        -----------------------------------------
Total Dipole Moment    :      0.230385626       0.227463524       0.106037611
                        -----------------------------------------
Magnitude (a.u.)       :      0.340677511
Magnitude (Debye)      :      0.865933415

Rotational constants in cm-1:             0.011813             0.003384             0.002878
Rotational constants in MHz :           354.130642           101.439976            86.274584

                             ****ORCA TERMINATED NORMALLY****
TOTAL RUN TIME: 0 days 0 hours 1 minutes 11 seconds 29 msec
