                         Program Version 6.0.0  -   RELEASE  -
|  1> ! r2scan-3c def2/J RI DEFGRID2 scfconv6 printgap
|  2> %output
|  3>     printlevel normal
|  4> end
|  5> %cpcm
|  6>     smd true
|  7>     smdsolvent "water"
|  8> end
|  9> * xyz 0 1
| 10> C -1.5053097154 -0.8350044952 0.7343116373
| 11> C -0.8040821923 0.1742289394 0.0822467528
| 12> C -1.5009860622 1.1897094481 -0.5657161486
| 13> C -2.8851938884 1.1812719506 -0.577815911
| 14> C -3.5964526629 0.1694306771 0.0634336035
| 15> C -2.8894098381 -0.8330410459 0.7236643116
| 16> Cl -3.7523607539 -2.087867131 1.5359933142
| 17> Cl -5.3219024891 0.1590255373 0.0430020162
| 18> Cl -3.7433411954 2.4341969036 -1.3965731684
| 19> C 0.6714639398 0.1919341344 0.0850620756
| 20> C 1.340628309 1.3432917374 0.4880059858
| 21> C 2.7238637134 1.3920033042 0.5081280056
| 22> C 3.4730245511 0.2848575472 0.1139867364
| 23> C 2.8135539694 -0.8680046262 -0.3069321129
| 24> C 1.4206863818 -0.9155254961 -0.3200262326
| 25> Cl 0.6491296015 -2.3417669679 -0.901087057
| 26> Cl 3.7303193877 -2.233104107 -0.8161185157
| 27> Cl 5.1926395531 0.334641831 0.1365613415
| 28> Cl 3.529151566 2.8234052728 1.0215888508
| 29> H -0.9834697264 -1.6131232933 1.2653629457
| 30> H -0.9708398901 1.9749981027 -1.0781056893
| 31> H 0.7745763934 2.2031086885 0.8061758372
| 32> *
| 33>
| 34>                          ****END OF INPUT****

CARTESIAN COORDINATES (ANGSTROEM)
---------------------------------
  C     -1.505310   -0.835004    0.734312
  C     -0.804082    0.174229    0.082247
  C     -1.500986    1.189709   -0.565716
  C     -2.885194    1.181272   -0.577816
  C     -3.596453    0.169431    0.063434
  C     -2.889410   -0.833041    0.723664
  Cl    -3.752361   -2.087867    1.535993
  Cl    -5.321902    0.159026    0.043002
  Cl    -3.743341    2.434197   -1.396573
  C      0.671464    0.191934    0.085062
  C      1.340628    1.343292    0.488006
  C      2.723864    1.392003    0.508128
  C      3.473025    0.284858    0.113987
  C      2.813554   -0.868005   -0.306932
  C      1.420686   -0.915525   -0.320026
  Cl     0.649130   -2.341767   -0.901087
  Cl     3.730319   -2.233104   -0.816119
  Cl     5.192640    0.334642    0.136561
  Cl     3.529152    2.823405    1.021589
  H     -0.983470   -1.613123    1.265363
  H     -0.970840    1.974998   -1.078106
  H      0.774576    2.203109    0.806176

 Total Charge           Charge          ....    0
 Multiplicity           Mult            ....    1
 Number of Electrons    NEL             ....  194
 Basis Dimension        Dim             ....  432

ORBITAL ENERGIES
----------------

  NO   OCC          E(Eh)            E(eV)
   0   2.0000    -101.243325     -2754.9709
   1   2.0000    -101.242862     -2754.9583
   2   2.0000    -101.240112     -2754.8835
   3   2.0000    -101.240004     -2754.8806
   4   2.0000    -101.239593     -2754.8694
   5   2.0000    -101.237304     -2754.8071
   6   2.0000    -101.237246     -2754.8055
   7   2.0000     -10.134912      -275.7850
   8   2.0000     -10.133806      -275.7549
   9   2.0000     -10.129888      -275.6483
  10   2.0000     -10.128112      -275.5999
  11   2.0000     -10.128001      -275.5969
  12   2.0000     -10.125390      -275.5259
  13   2.0000     -10.125333      -275.5243
  14   2.0000     -10.087235      -274.4876
  15   2.0000     -10.079709      -274.2828
  16   2.0000     -10.070014      -274.0190
  17   2.0000     -10.064779      -273.8766
  18   2.0000     -10.064623      -273.8723
  19   2.0000      -9.399067      -255.7616
  20   2.0000      -9.398654      -255.7504
  21   2.0000      -9.396019      -255.6787
  22   2.0000      -9.395821      -255.6733
  23   2.0000      -9.395494      -255.6644
  24   2.0000      -9.393205      -255.6021
  25   2.0000      -9.393135      -255.6002
  26   2.0000      -7.145685      -194.4440
  27   2.0000      -7.145267      -194.4326
  28   2.0000      -7.142503      -194.3574
  29   2.0000      -7.142386      -194.3542
  30   2.0000      -7.141935      -194.3419
  31   2.0000      -7.139619      -194.2789
  32   2.0000      -7.139550      -194.2770
  33   2.0000      -7.135402      -194.1642
  34   2.0000      -7.134992      -194.1530
  35   2.0000      -7.134379      -194.1363
  36   2.0000      -7.133956      -194.1248
  37   2.0000      -7.132355      -194.0813
  38   2.0000      -7.132179      -194.0765
  39   2.0000      -7.131789      -194.0659
  40   2.0000      -7.131402      -194.0553
  41   2.0000      -7.131172      -194.0491
  42   2.0000      -7.131005      -194.0445
  43   2.0000      -7.129517      -194.0040
  44   2.0000      -7.129446      -194.0021
  45   2.0000      -7.128738      -193.9828
  46   2.0000      -7.128670      -193.9810
  47   2.0000      -0.924354       -25.1529
  48   2.0000      -0.911517       -24.8036
  49   2.0000      -0.879290       -23.9267
  50   2.0000      -0.860453       -23.4141
  51   2.0000      -0.859984       -23.4014
  52   2.0000      -0.836498       -22.7623
  53   2.0000      -0.826948       -22.5024
  54   2.0000      -0.818810       -22.2810
  55   2.0000      -0.800493       -21.7825
  56   2.0000      -0.745743       -20.2927
  57   2.0000      -0.719935       -19.5904
  58   2.0000      -0.711040       -19.3484
  59   2.0000      -0.697972       -18.9928
  60   2.0000      -0.622522       -16.9397
  61   2.0000      -0.604555       -16.4508
  62   2.0000      -0.592371       -16.1192
  63   2.0000      -0.570477       -15.5235
  64   2.0000      -0.514141       -13.9905
  65   2.0000      -0.510294       -13.8858
  66   2.0000      -0.491656       -13.3786
  67   2.0000      -0.483508       -13.1569
  68   2.0000      -0.465070       -12.6552
  69   2.0000      -0.450674       -12.2635
  70   2.0000      -0.437564       -11.9067
  71   2.0000      -0.434308       -11.8181
  72   2.0000      -0.432425       -11.7669
  73   2.0000      -0.425439       -11.5768
  74   2.0000      -0.418735       -11.3944
  75   2.0000      -0.405100       -11.0233
  76   2.0000      -0.387085       -10.5331
  77   2.0000      -0.375495       -10.2177
  78   2.0000      -0.371591       -10.1115
  79   2.0000      -0.368623       -10.0307
  80   2.0000      -0.356746        -9.7075
  81   2.0000      -0.351396        -9.5620
  82   2.0000      -0.334748        -9.1090
  83   2.0000      -0.325071        -8.8456
  84   2.0000      -0.323116        -8.7924
  85   2.0000      -0.318967        -8.6795
  86   2.0000      -0.317572        -8.6416
  87   2.0000      -0.314208        -8.5500
  88   2.0000      -0.306136        -8.3304
  89   2.0000      -0.301696        -8.2096
  90   2.0000      -0.298882        -8.1330
  91   2.0000      -0.283615        -7.7176
  92   2.0000      -0.282174        -7.6783
  93   2.0000      -0.255263        -6.9461
  94   2.0000      -0.242580        -6.6009
  95   2.0000      -0.240980        -6.5574
  96   2.0000      -0.230431        -6.2704
  97   0.0000      -0.085370        -2.3230
  98   0.0000      -0.069199        -1.8830
  99   0.0000      -0.062947        -1.7129
 100   0.0000      -0.055930        -1.5219
 101   0.0000      -0.045879        -1.2484

MULLIKEN ATOMIC CHARGES
-----------------------
   0 C :   -0.237756
   1 C :    0.135945
   2 C :   -0.233098
   3 C :    0.089964
   4 C :    0.061470
   5 C :    0.091348
   6 Cl:   -0.112392
   7 Cl:   -0.095321
   8 Cl:   -0.112156
   9 C :    0.176852
  10 C :   -0.284099
  11 C :    0.099845
  12 C :    0.094518
  13 C :    0.037468
  14 C :    0.009839
  15 Cl:   -0.079810
  16 Cl:   -0.082621
  17 Cl:   -0.081437
  18 Cl:   -0.104220
  19 H :    0.207463
  20 H :    0.207917
  21 H :    0.210281
Sum of atomic charges:    0.0000000

LOEWDIN ATOMIC CHARGES
----------------------
   0 C :   -0.142891
   1 C :   -0.063794
   2 C :   -0.131581
   3 C :   -0.174692
   4 C :   -0.196291
   5 C :   -0.175155
   6 Cl:    0.154053
   7 Cl:    0.162559
   8 Cl:    0.154416
   9 C :   -0.060335
  10 C :   -0.123048
  11 C :   -0.177127
  12 C :   -0.191939
  13 C :   -0.186490
  14 C :   -0.157120
  15 Cl:    0.187747
  16 Cl:    0.173839
  17 Cl:    0.173966
  18 Cl:    0.162143
  19 H :    0.201110
  20 H :    0.203755
  21 H :    0.206876

  Mayer bond orders larger than 0.100000
B(  0-C ,  1-C ) :   1.3519 B(  0-C ,  5-C ) :   1.3525 B(  0-C , 19-H ) :   0.9113
B(  1-C ,  2-C ) :   1.3875 B(  1-C ,  9-C ) :   0.7436 B(  2-C ,  3-C ) :   1.3396
B(  2-C , 20-H ) :   0.9138 B(  3-C ,  4-C ) :   1.2127 B(  3-C ,  8-Cl) :   1.0685
B(  4-C ,  5-C ) :   1.2057 B(  4-C ,  7-Cl) :   1.1751 B(  5-C ,  6-Cl) :   1.0672
B(  9-C , 10-C ) :   1.4055 B(  9-C , 14-C ) :   1.2384 B( 10-C , 11-C ) :   1.3204
B( 10-C , 21-H ) :   0.9074 B( 11-C , 12-C ) :   1.2074 B( 11-C , 18-Cl) :   1.0835
B( 12-C , 13-C ) :   1.1038 B( 12-C , 17-Cl) :   1.2225 B( 13-C , 14-C ) :   1.1137
B( 13-C , 16-Cl) :   1.2461 B( 14-C , 15-Cl) :   1.2533

Dispersion correction           -0.015264778
FINAL SINGLE POINT ENERGY     -3680.219351092757

DIPOLE MOMENT
-------------

Method             : SCF
Type of density    : Electron Density
Multiplicity       :   1
Irrep              :   0
Energy             : -3680.2175348205828413 Eh
Relativity type    :
Basis              : AO
                                X                 Y                 Z
Electronic contribution:      1.817448363      -3.141351050      -1.238625784
Nuclear contribution   :     -1.487497760       3.629791321       1.437537064
                        -----------------------------------------
Total Dipole Moment    :      0.329950604       0.488440271       0.198911280
                        -----------------------------------------
Magnitude (a.u.)       :      0.622098864
Magnitude (Debye)      :      1.581249648

Rotational constants in cm-1:             0.011813             0.003384             0.002878
Rotational constants in MHz :           354.130642           101.439976            86.274584

                             ****ORCA TERMINATED NORMALLY****
TOTAL RUN TIME: 0 days 0 hours 1 minutes 32 seconds 161 msec
