                         Program Version 6.0.0  -   RELEASE  -
|  1> ! pbe def2-sv(p) def2/J RI DEFGRID1 loosescf d4 GCP(DFT/SV(P)) printgap
|  2> %output
|  3>     printlevel normal
|  4> end
|  5> * xyz 0 1
|  6> C -2.0434942472 -0.541397454 -0.6874854134
|  7> C -1.1806372437 -0.0978612789 0.5123600598
|  8> H -1.8213311373 -0.0524414113 1.4024133838
|  9> C -0.6016459271 1.3151202293 0.291387138
| 10> H -1.3360798722 1.8936307738 -0.2799201689
| 11> C 0.7128188694 1.2834008159 -0.5124410138
| 12> H 1.1624655534 2.2793662806 -0.4178602152
| 13> C 1.68715538 0.2594332052 0.1032961418
| 14> H 2.5654243369 0.1599488226 -0.5522363217
| 15> C 1.0047952843 -1.1228536635 0.172844196
| 16> H 1.6111801965 -1.8163483786 0.7713943845
| 17> O -0.2041238729 -1.0663986184 0.886886132
| 18> O 0.9105410438 -1.7042042219 -1.0857415311
| 19> O 2.0557041645 0.7345996678 1.373994107
| 20> O 0.4310514467 0.964043817 -1.8567231107
| 21> O -0.4342293505 2.0055735783 1.5023372814
| 22> O -2.4140740776 -1.8939375114 -0.6309071781
| 23> H -1.5025675288 -0.4172811966 -1.6262981802
| 24> H -2.9326059075 0.1049623059 -0.7131495143
| 25> H 0.5231147802 -1.0655404306 -1.710774147
| 26> H 2.6924058858 0.1329154486 1.7856238442
| 27> H 1.0467876298 1.4201458789 -2.4472187819
| 28> H 0.3333707941 1.633133404 1.9697776126
| 29> H -2.799528601 -2.0873144785 0.2351246088
| 30> *
| 31>
| 32>                          ****END OF INPUT****

CARTESIAN COORDINATES (ANGSTROEM)
---------------------------------
  C     -2.043494   -0.541397   -0.687485
  C     -1.180637   -0.097861    0.512360
  H     -1.821331   -0.052441    1.402413
  C     -0.601646    1.315120    0.291387
  H     -1.336080    1.893631   -0.279920
  C      0.712819    1.283401   -0.512441
  H      1.162466    2.279366   -0.417860
  C      1.687155    0.259433    0.103296
  H      2.565424    0.159949   -0.552236
  C      1.004795   -1.122854    0.172844
  H      1.611180   -1.816348    0.771394
  O     -0.204124   -1.066399    0.886886
  O      0.910541   -1.704204   -1.085742
  O      2.055704    0.734600    1.373994
  O      0.431051    0.964044   -1.856723
  O     -0.434229    2.005574    1.502337
  O     -2.414074   -1.893938   -0.630907
  H     -1.502568   -0.417281   -1.626298
  H     -2.932606    0.104962   -0.713150
  H      0.523115   -1.065540   -1.710774
  H      2.692406    0.132915    1.785624
  H      1.046788    1.420146   -2.447219
  H      0.333371    1.633133    1.969778
  H     -2.799529   -2.087314    0.235125

 Total Charge           Charge          ....    0
 Multiplicity           Mult            ....    1
 Number of Electrons    NEL             ....   96
 Basis Dimension        Dim             ....  192

ORBITAL ENERGIES
----------------

  NO   OCC          E(Eh)            E(eV)
   0   2.0000     -18.790676      -511.3203
   1   2.0000     -18.782363      -511.0941
   2   2.0000     -18.755844      -510.3725
   3   2.0000     -18.745109      -510.0803
   4   2.0000     -18.738092      -509.8894
   5   2.0000     -18.734344      -509.7874
   6   2.0000      -9.981872      -271.6205
   7   2.0000      -9.960770      -271.0463
   8   2.0000      -9.954104      -270.8650
   9   2.0000      -9.943692      -270.5816
  10   2.0000      -9.936656      -270.3902
  11   2.0000      -9.923902      -270.0431
  12   2.0000      -0.978976       -26.6393
  13   2.0000      -0.957622       -26.0582
  14   2.0000      -0.949649       -25.8413
  15   2.0000      -0.920564       -25.0498
  16   2.0000      -0.912577       -24.8325
  17   2.0000      -0.896655       -24.3992
  18   2.0000      -0.707907       -19.2631
  19   2.0000      -0.691292       -18.8110
  20   2.0000      -0.612824       -16.6758
  21   2.0000      -0.596898       -16.2424
  22   2.0000      -0.570386       -15.5210
  23   2.0000      -0.531059       -14.4509
  24   2.0000      -0.511981       -13.9317
  25   2.0000      -0.492783       -13.4093
  26   2.0000      -0.471201       -12.8220
  27   2.0000      -0.461745       -12.5647
  28   2.0000      -0.439849       -11.9689
  29   2.0000      -0.431469       -11.7409
  30   2.0000      -0.415700       -11.3118
  31   2.0000      -0.401175       -10.9165
  32   2.0000      -0.387098       -10.5335
  33   2.0000      -0.381474       -10.3804
  34   2.0000      -0.367812       -10.0087
  35   2.0000      -0.350492        -9.5374
  36   2.0000      -0.334282        -9.0963
  37   2.0000      -0.316554        -8.6139
  38   2.0000      -0.301906        -8.2153
  39   2.0000      -0.289552        -7.8791
  40   2.0000      -0.280826        -7.6417
  41   2.0000      -0.268932        -7.3180
  42   2.0000      -0.265975        -7.2375
  43   2.0000      -0.249059        -6.7773
  44   2.0000      -0.227583        -6.1928
  45   2.0000      -0.219259        -5.9663
  46   2.0000      -0.210202        -5.7199
  47   2.0000      -0.194144        -5.2829
  48   0.0000      -0.007536        -0.2051
  49   0.0000       0.006599         0.1796
  50   0.0000       0.037540         1.0215
  51   0.0000       0.062433         1.6989
  52   0.0000       0.070429         1.9165

MULLIKEN ATOMIC CHARGES
-----------------------
   0 C :    0.032776
   1 C :    0.002581
   2 H :    0.066428
   3 C :    0.088172
   4 H :    0.073217
   5 C :   -0.016518
   6 H :    0.087584
   7 C :    0.022420
   8 H :    0.066055
   9 C :    0.210142
  10 H :    0.053942
  11 O :   -0.301654
  12 O :   -0.401893
  13 O :   -0.421844
  14 O :   -0.410876
  15 O :   -0.430414
  16 O :   -0.418024
  17 H :    0.087234
  18 H :    0.069794
  19 H :    0.307580
  20 H :    0.314891
  21 H :    0.320174
  22 H :    0.304406
  23 H :    0.293829
Sum of atomic charges:    0.0000000

LOEWDIN ATOMIC CHARGES
----------------------
   0 C :   -0.145339
   1 C :   -0.079493
   2 H :    0.114392
   3 C :   -0.063337
   4 H :    0.118815
   5 C :   -0.072095
   6 H :    0.114295
   7 C :   -0.098354
   8 H :    0.102248
   9 C :   -0.008836
  10 H :    0.101981
  11 O :   -0.144452
  12 O :   -0.306966
  13 O :   -0.307295
  14 O :   -0.303561
  15 O :   -0.321193
  16 O :   -0.329157
  17 H :    0.107947
  18 H :    0.097772
  19 H :    0.270637
  20 H :    0.295300
  21 H :    0.300791
  22 H :    0.274017
  23 H :    0.281884

  Mayer bond orders larger than 0.100000
B(  0-C ,  1-C ) :   1.0269 B(  0-C , 16-O ) :   1.0840 B(  0-C , 17-H ) :   0.8991
B(  0-C , 18-H ) :   0.9079 B(  1-C ,  2-H ) :   0.8911 B(  1-C ,  3-C ) :   0.9841
B(  1-C , 11-O ) :   1.0238 B(  3-C ,  4-H ) :   0.8906 B(  3-C ,  5-C ) :   0.9936
B(  3-C , 15-O ) :   1.0634 B(  5-C ,  6-H ) :   0.9022 B(  5-C ,  7-C ) :   0.9847
B(  5-C , 14-O ) :   1.0454 B(  7-C ,  8-H ) :   0.8953 B(  7-C ,  9-C ) :   0.9660
B(  7-C , 13-O ) :   1.0165 B(  9-C , 10-H ) :   0.9083 B(  9-C , 11-O ) :   1.0588
B(  9-C , 12-O ) :   1.1464 B( 12-O , 19-H ) :   0.8001 B( 13-O , 20-H ) :   0.8383
B( 14-O , 21-H ) :   0.8379 B( 15-O , 22-H ) :   0.8151 B( 16-O , 23-H ) :   0.8525

Dispersion correction           -0.026019539
FINAL SINGLE POINT ENERGY      -685.691360570745

DIPOLE MOMENT
-------------

Method             : SCF
Type of density    : Electron Density
Multiplicity       :   1
Irrep              :   0
Energy             :  -685.8232955547449592 Eh
Relativity type    :
Basis              : AO
                                X                 Y                 Z
Electronic contribution:      1.460536596      -1.285199524       1.374572178
Nuclear contribution   :     -0.423976052       2.035841080      -1.482426689
                        -----------------------------------------
Total Dipole Moment    :      1.036560544       0.750641556      -0.107854511
                        -----------------------------------------
Magnitude (a.u.)       :      1.284349292
Magnitude (Debye)      :      3.264556461

Rotational constants in cm-1:             0.041380             0.028587             0.024991
Rotational constants in MHz :          1240.534619           857.002419           749.225895

                             ****ORCA TERMINATED NORMALLY****
TOTAL RUN TIME: 0 days 0 hours 0 minutes 12 seconds 160 msec
