                         Program Version 6.0.0  -   RELEASE  -
|  1> ! pbe def2-sv(p) def2/J RI DEFGRID1 loosescf d4 GCP(DFT/SV(P)) printgap
|  2> %output
|  3>     printlevel normal
|  4> end
|  5> * xyz 0 1
|  6> C -1.7742690839 -0.6219169936 -1.1064759882
|  7> C -1.2474620665 -0.5096505119 0.3429109507
|  8> H -2.0730055848 -0.8094860573 1.0030700555
|  9> C -0.7993333158 0.9137494468 0.6987094572
| 10> H -1.593935072 1.6177140989 0.4149611225
| 11> C 0.4580998602 1.3250549948 -0.0866398016
| 12> H 1.0468102721 1.9793375433 0.5721023939
| 13> C 1.3394824231 0.1126600917 -0.4241163437
| 14> H 1.0610117893 -0.2852913475 -1.4123389536
| 15> C 1.1093994746 -1.006139651 0.5979173144
| 16> H 1.3728283543 -0.6284749783 1.6055255258
| 17> O -0.2226232044 -1.4643414707 0.6001936142
| 18> O 1.928737626 -2.0688722912 0.2441148038
| 19> O 2.6800729941 0.5296874339 -0.4255749062
| 20> O 0.0471547434 2.0123007682 -1.241784891
| 21> O -0.4968337249 1.0372201343 2.0685063102
| 22> O -3.1340966074 -0.2727158181 -1.1962092172
| 23> H -1.7074738607 -1.6719584796 -1.4013319304
| 24> H -1.1718835943 -0.0155751381 -1.7875289035
| 25> H 1.6700903775 -2.8561933667 0.7464480482
| 26> H 3.2484503917 -0.2511567741 -0.5094794924
| 27> H 0.8224192801 2.3975627483 -1.6749536864
| 28> H -1.294713919 0.88546685 2.5966394429
| 29> H -3.2250873463 0.6897108312 -1.2006523661
| 30> *
| 31>
| 32>                          ****END OF INPUT****

CARTESIAN COORDINATES (ANGSTROEM)
---------------------------------
  C     -1.774269   -0.621917   -1.106476
  C     -1.247462   -0.509651    0.342911
  H     -2.073006   -0.809486    1.003070
  C     -0.799333    0.913749    0.698709
  H     -1.593935    1.617714    0.414961
  C      0.458100    1.325055   -0.086640
  H      1.046810    1.979338    0.572102
  C      1.339482    0.112660   -0.424116
  H      1.061012   -0.285291   -1.412339
  C      1.109399   -1.006140    0.597917
  H      1.372828   -0.628475    1.605526
  O     -0.222623   -1.464341    0.600194
  O      1.928738   -2.068872    0.244115
  O      2.680073    0.529687   -0.425575
  O      0.047155    2.012301   -1.241785
  O     -0.496834    1.037220    2.068506
  O     -3.134097   -0.272716   -1.196209
  H     -1.707474   -1.671958   -1.401332
  H     -1.171884   -0.015575   -1.787529
  H      1.670090   -2.856193    0.746448
  H      3.248450   -0.251157   -0.509479
  H      0.822419    2.397563   -1.674954
  H     -1.294714    0.885467    2.596639
  H     -3.225087    0.689711   -1.200652

 Total Charge           Charge          ....    0
 Multiplicity           Mult            ....    1
 Number of Electrons    NEL             ....   96
 Basis Dimension        Dim             ....  192

ORBITAL ENERGIES
----------------

  NO   OCC          E(Eh)            E(eV)
   0   2.0000     -18.762403      -510.5509
   1   2.0000     -18.761647      -510.5304
   2   2.0000     -18.761502      -510.5264
   3   2.0000     -18.760919      -510.5106
   4   2.0000     -18.751153      -510.2448
   5   2.0000     -18.747686      -510.1505
   6   2.0000      -9.978541      -271.5299
   7   2.0000      -9.951458      -270.7929
   8   2.0000      -9.945865      -270.6408
   9   2.0000      -9.941616      -270.5251
  10   2.0000      -9.937142      -270.4034
  11   2.0000      -9.924951      -270.0717
  12   2.0000      -0.978915       -26.6376
  13   2.0000      -0.945379       -25.7251
  14   2.0000      -0.937316       -25.5057
  15   2.0000      -0.924437       -25.1552
  16   2.0000      -0.921609       -25.0783
  17   2.0000      -0.906776       -24.6746
  18   2.0000      -0.707630       -19.2556
  19   2.0000      -0.685004       -18.6399
  20   2.0000      -0.619613       -16.8605
  21   2.0000      -0.583086       -15.8666
  22   2.0000      -0.567811       -15.4509
  23   2.0000      -0.518250       -14.1023
  24   2.0000      -0.506329       -13.7779
  25   2.0000      -0.491763       -13.3815
  26   2.0000      -0.480330       -13.0704
  27   2.0000      -0.458349       -12.4723
  28   2.0000      -0.441374       -12.0104
  29   2.0000      -0.429080       -11.6759
  30   2.0000      -0.415485       -11.3059
  31   2.0000      -0.396507       -10.7895
  32   2.0000      -0.383337       -10.4311
  33   2.0000      -0.376825       -10.2539
  34   2.0000      -0.360725        -9.8158
  35   2.0000      -0.355490        -9.6734
  36   2.0000      -0.324912        -8.8413
  37   2.0000      -0.322323        -8.7709
  38   2.0000      -0.305272        -8.3069
  39   2.0000      -0.287124        -7.8130
  40   2.0000      -0.282242        -7.6802
  41   2.0000      -0.272118        -7.4047
  42   2.0000      -0.245644        -6.6843
  43   2.0000      -0.240771        -6.5517
  44   2.0000      -0.231000        -6.2858
  45   2.0000      -0.228061        -6.2058
  46   2.0000      -0.215633        -5.8677
  47   2.0000      -0.195667        -5.3244
  48   0.0000       0.013958         0.3798
  49   0.0000       0.020516         0.5583
  50   0.0000       0.028925         0.7871
  51   0.0000       0.042217         1.1488
  52   0.0000       0.055899         1.5211

MULLIKEN ATOMIC CHARGES
-----------------------
   0 C :    0.018210
   1 C :    0.033629
   2 H :    0.056701
   3 C :    0.010395
   4 H :    0.059142
   5 C :    0.107049
   6 H :    0.080846
   7 C :    0.005196
   8 H :    0.054054
   9 C :    0.205834
  10 H :    0.049920
  11 O :   -0.321929
  12 O :   -0.398634
  13 O :   -0.425923
  14 O :   -0.416674
  15 O :   -0.411350
  16 O :   -0.436031
  17 H :    0.090217
  18 H :    0.102007
  19 H :    0.309718
  20 H :    0.308926
  21 H :    0.312243
  22 H :    0.305220
  23 H :    0.301236
Sum of atomic charges:    0.0000000

LOEWDIN ATOMIC CHARGES
----------------------
   0 C :   -0.142657
   1 C :   -0.073090
   2 H :    0.107522
   3 C :   -0.069444
   4 H :    0.103136
   5 C :   -0.056738
   6 H :    0.119913
   7 C :   -0.092839
   8 H :    0.105870
   9 C :   -0.007383
  10 H :    0.087591
  11 O :   -0.157305
  12 O :   -0.310887
  13 O :   -0.321342
  14 O :   -0.316628
  15 O :   -0.312429
  16 O :   -0.333591
  17 H :    0.117121
  18 H :    0.105910
  19 H :    0.292021
  20 H :    0.287883
  21 H :    0.294454
  22 H :    0.289508
  23 H :    0.283405

  Mayer bond orders larger than 0.100000
B(  0-C ,  1-C ) :   1.0077 B(  0-C , 16-O ) :   1.0639 B(  0-C , 17-H ) :   0.9145
B(  0-C , 18-H ) :   0.9062 B(  1-C ,  2-H ) :   0.8839 B(  1-C ,  3-C ) :   1.0284
B(  1-C , 11-O ) :   0.9993 B(  3-C ,  4-H ) :   0.8853 B(  3-C ,  5-C ) :   1.0130
B(  3-C , 15-O ) :   1.0250 B(  5-C ,  6-H ) :   0.8612 B(  5-C ,  7-C ) :   1.0275
B(  5-C , 14-O ) :   1.0595 B(  7-C ,  8-H ) :   0.8438 B(  7-C ,  9-C ) :   1.0621
B(  7-C , 13-O ) :   1.0699 B(  9-C , 10-H ) :   0.8811 B(  9-C , 11-O ) :   1.0249
B(  9-C , 12-O ) :   1.1436 B( 12-O , 19-H ) :   0.8389 B( 13-O , 20-H ) :   0.8349
B( 14-O , 21-H ) :   0.8442 B( 15-O , 22-H ) :   0.8458 B( 16-O , 23-H ) :   0.8512

Dispersion correction           -0.024749549
FINAL SINGLE POINT ENERGY      -685.687138708680

DIPOLE MOMENT
-------------

Method             : SCF
Type of density    : Electron Density
Multiplicity       :   1
Irrep              :   0
Energy             :  -685.8166956202801430 Eh
Relativity type    :
Basis              : AO
                                X                 Y                 Z
Electronic contribution:      1.759448253      -0.782572641       1.257146986
Nuclear contribution   :     -1.718557057       0.983273408      -0.982039997
                        -----------------------------------------
Total Dipole Moment    :      0.040891196       0.200700767       0.275106989
                        -----------------------------------------
Magnitude (a.u.)       :      0.342982133
Magnitude (Debye)      :      0.871791300

Rotational constants in cm-1:             0.038744             0.025614             0.022218
Rotational constants in MHz :          1161.522947           767.890588           666.074065

                             ****ORCA TERMINATED NORMALLY****
TOTAL RUN TIME: 0 days 0 hours 0 minutes 12 seconds 96 msec
