                         Program Version 6.0.0  -   RELEASE  -
|  1> ! r2scan-3c def2/J RI DEFGRID2 scfconv6 printgap
|  2> %output
|  3>     printlevel normal
|  4> end
|  5> %cpcm
|  6>     smd true
|  7>     smdsolvent "water"
|  8> end
|  9> * xyz 0 1
| 10> C -1.0849743217 -1.8946133264 2.48151e-05
| 11> C -0.0104488593 -0.8617767317 2.39761e-05
| 12> C 1.3253191617 -1.2462261012 -7.0268e-06
| 13> C 2.3467714031 -0.3137772431 1.80766e-05
| 14> C 2.0534649033 1.0433740283 -1.83125e-05
| 15> C 0.7372463736 1.4497421525 1.55317e-05
| 16> C -0.307021638 0.5155731991 -1.13838e-05
| 17> C -1.6665869883 1.0313980278 -3.25833e-05
| 18> O -2.702517994 0.3946524576 3.7266e-06
| 19> H -1.7265906233 -1.7735379902 0.8716704894
| 20> H -1.7254942622 -1.7745372641 -0.8725656908
| 21> H -0.6601915926 -2.8943891512 0.0007991963
| 22> H 1.5655327693 -2.2988419329 -0.0002187206
| 23> H 3.3742669117 -0.6434540389 -9.25443e-05
| 24> H 2.8483069385 1.7723323862 4.28493e-05
| 25> H 0.4937736427 2.5020427098 0.0001989102
| 26> H -1.7129171001 2.1383729527 -4.9675e-05
| 27> *
| 28>
| 29>                          ****END OF INPUT****

CARTESIAN COORDINATES (ANGSTROEM)
---------------------------------
  C     -1.084974   -1.894613    0.000025
  C     -0.010449   -0.861777    0.000024
  C      1.325319   -1.246226   -0.000007
  C      2.346771   -0.313777    0.000018
  C      2.053465    1.043374   -0.000018
  C      0.737246    1.449742    0.000016
  C     -0.307022    0.515573   -0.000011
  C     -1.666587    1.031398   -0.000033
  O     -2.702518    0.394652    0.000004
  H     -1.726591   -1.773538    0.871670
  H     -1.725494   -1.774537   -0.872566
  H     -0.660192   -2.894389    0.000799
  H      1.565533   -2.298842   -0.000219
  H      3.374267   -0.643454   -0.000093
  H      2.848307    1.772332    0.000043
  H      0.493774    2.502043    0.000199
  H     -1.712917    2.138373   -0.000050

 Total Charge           Charge          ....    0
 Multiplicity           Mult            ....    1
 Number of Electrons    NEL             ....   64
 Basis Dimension        Dim             ....  216

ORBITAL ENERGIES
----------------

  NO   OCC          E(Eh)            E(eV)
   0   2.0000     -18.951347      -515.6924
   1   2.0000     -10.119369      -275.3620
   2   2.0000     -10.059993      -273.7463
   3   2.0000     -10.048745      -273.4403
   4   2.0000     -10.047697      -273.4117
   5   2.0000     -10.045689      -273.3571
   6   2.0000     -10.038344      -273.1572
   7   2.0000     -10.037239      -273.1271
   8   2.0000     -10.020147      -272.6621
   9   2.0000      -1.016002       -27.6468
  10   2.0000      -0.841006       -22.8849
  11   2.0000      -0.750510       -20.4224
  12   2.0000      -0.740113       -20.1395
  13   2.0000      -0.663901       -18.0657
  14   2.0000      -0.613060       -16.6822
  15   2.0000      -0.575753       -15.6670
  16   2.0000      -0.532498       -14.4900
  17   2.0000      -0.479811       -13.0563
  18   2.0000      -0.451565       -12.2877
  19   2.0000      -0.433278       -11.7901
  20   2.0000      -0.408465       -11.1149
  21   2.0000      -0.404146       -10.9974
  22   2.0000      -0.399865       -10.8809
  23   2.0000      -0.381844       -10.3905
  24   2.0000      -0.366251        -9.9662
  25   2.0000      -0.352062        -9.5801
  26   2.0000      -0.339044        -9.2258
  27   2.0000      -0.327100        -8.9008
  28   2.0000      -0.313862        -8.5406
  29   2.0000      -0.251809        -6.8521
  30   2.0000      -0.237662        -6.4671
  31   2.0000      -0.227651        -6.1947
  32   0.0000      -0.095154        -2.5893
  33   0.0000      -0.036678        -0.9981
  34   0.0000       0.006971         0.1897
  35   0.0000       0.093001         2.5307
  36   0.0000       0.099590         2.7100

MULLIKEN ATOMIC CHARGES
-----------------------
   0 C :   -0.539006
   1 C :    0.120656
   2 C :   -0.233147
   3 C :   -0.128434
   4 C :   -0.199284
   5 C :   -0.219940
   6 C :    0.161449
   7 C :    0.057646
   8 O :   -0.438862
   9 H :    0.187940
  10 H :    0.187980
  11 H :    0.166678
  12 H :    0.184568
  13 H :    0.184518
  14 H :    0.182835
  15 H :    0.188593
  16 H :    0.135811
Sum of atomic charges:    0.0000000

LOEWDIN ATOMIC CHARGES
----------------------
   0 C :   -0.376936
   1 C :   -0.040567
   2 C :   -0.164612
   3 C :   -0.128653
   4 C :   -0.174973
   5 C :   -0.121928
   6 C :   -0.108820
   7 C :    0.224140
   8 O :   -0.540698
   9 H :    0.181001
  10 H :    0.180985
  11 H :    0.163115
  12 H :    0.182879
  13 H :    0.182482
  14 H :    0.181285
  15 H :    0.186635
  16 H :    0.174664

  Mayer bond orders larger than 0.100000
B(  0-C ,  1-C ) :   0.8556 B(  0-C ,  9-H ) :   0.9633 B(  0-C , 10-H ) :   0.9633
B(  0-C , 11-H ) :   0.9775 B(  1-C ,  2-C ) :   1.3925 B(  1-C ,  6-C ) :   1.3446
B(  2-C ,  3-C ) :   1.3977 B(  2-C , 12-H ) :   0.9401 B(  3-C ,  4-C ) :   1.3660
B(  3-C , 13-H ) :   0.9522 B(  4-C ,  5-C ) :   1.4026 B(  4-C , 14-H ) :   0.9592
B(  5-C ,  6-C ) :   1.2998 B(  5-C , 15-H ) :   0.9346 B(  6-C ,  7-C ) :   0.9574
B(  7-C ,  8-O ) :   1.8157 B(  7-C , 16-H ) :   0.9991

Dispersion correction           -0.005804017
FINAL SINGLE POINT ENERGY      -384.797110701998

DIPOLE MOMENT
-------------

Method             : SCF
Type of density    : Electron Density
Multiplicity       :   1
Irrep              :   0
Energy             :  -384.7969220166364721 Eh
Relativity type    :
Basis              : AO
                                X                 Y                 Z
Electronic contribution:     -0.450059422       2.929646791       0.000091493
Nuclear contribution   :      2.264754130      -2.782406761      -0.000201825
                        -----------------------------------------
Total Dipole Moment    :      1.814694708       0.147240030      -0.000110332
                        -----------------------------------------
Magnitude (a.u.)       :      1.820658266
Magnitude (Debye)      :      4.627745539

Rotational constants in cm-1:             0.102288             0.049117             0.033385
Rotational constants in MHz :          3066.531120          1472.501074          1000.850816

                             ****ORCA TERMINATED NORMALLY****
TOTAL RUN TIME: 0 days 0 hours 0 minutes 28 seconds 706 msec
