                         Program Version 6.0.0  -   RELEASE  -
|  1> ! pbe def2-sv(p) def2/J RI DEFGRID1 loosescf d4 GCP(DFT/SV(P)) printgap
|  2> %output
|  3>     printlevel normal
|  4> end
|  5> * xyz 0 1
|  6> C -2.4515853468 -0.7321565651 -1.2576774116
|  7> C -1.9660430417 0.0030923545 -9.67893e-05
|  8> C -2.584093941 1.4042150907 0.0017450913
|  9> C -2.4537537174 -0.7361507265 1.2542695683
| 10> C -0.445157999 0.0340644814 0.0006880833
| 11> C 0.2678382358 -1.1635301975 0.0006526658
| 12> C 1.6466254414 -1.1896587041 0.0004234081
| 13> C 2.3673280613 6.72067e-05 0.000107422
| 14> C 1.6748646575 1.2016087091 0.0003993557
| 15> C 0.290125414 1.2116575551 0.0006900414
| 16> O 3.7290705163 -0.0665993183 -0.0005996893
| 17> H -2.0922670272 -1.7569594489 -1.2799110771
| 18> H -3.5387456001 -0.7505524272 -1.2836770502
| 19> H -2.0920796439 -0.2254296908 -2.1507343284
| 20> H -2.2896953469 1.9620372901 -0.8838912807
| 21> H -3.6686679741 1.3201671065 0.0012518067
| 22> H -2.2902052019 1.9594090696 0.8892115562
| 23> H -3.5409645847 -0.7544717146 1.2782927799
| 24> H -2.0947386053 -1.76109745 1.2738772087
| 25> H -2.0957631024 -0.232348443 2.1495781023
| 26> H -0.2571544154 -2.1063620587 0.0006960751
| 27> H 2.1867075956 -2.1237787951 0.0003126474
| 28> H 2.2151204878 2.1378750073 0.0003623378
| 29> H -0.2044343851 2.168800687 0.000903354
| 30> H 4.1100734235 0.824158808 -0.0010699948
| 31> *
| 32>
| 33>                          ****END OF INPUT****

CARTESIAN COORDINATES (ANGSTROEM)
---------------------------------
  C     -2.451585   -0.732157   -1.257677
  C     -1.966043    0.003092   -0.000097
  C     -2.584094    1.404215    0.001745
  C     -2.453754   -0.736151    1.254270
  C     -0.445158    0.034064    0.000688
  C      0.267838   -1.163530    0.000653
  C      1.646625   -1.189659    0.000423
  C      2.367328    0.000067    0.000107
  C      1.674865    1.201609    0.000399
  C      0.290125    1.211658    0.000690
  O      3.729071   -0.066599   -0.000600
  H     -2.092267   -1.756959   -1.279911
  H     -3.538746   -0.750552   -1.283677
  H     -2.092080   -0.225430   -2.150734
  H     -2.289695    1.962037   -0.883891
  H     -3.668668    1.320167    0.001252
  H     -2.290205    1.959409    0.889212
  H     -3.540965   -0.754472    1.278293
  H     -2.094739   -1.761097    1.273877
  H     -2.095763   -0.232348    2.149578
  H     -0.257154   -2.106362    0.000696
  H      2.186708   -2.123779    0.000313
  H      2.215120    2.137875    0.000362
  H     -0.204434    2.168801    0.000903
  H      4.110073    0.824159   -0.001070

 Total Charge           Charge          ....    0
 Multiplicity           Mult            ....    1
 Number of Electrons    NEL             ....   82
 Basis Dimension        Dim             ....  182

ORBITAL ENERGIES
----------------

  NO   OCC          E(Eh)            E(eV)
   0   2.0000     -18.777417      -510.9595
   1   2.0000      -9.946950      -270.6703
   2   2.0000      -9.908844      -269.6334
   3   2.0000      -9.891029      -269.1486
   4   2.0000      -9.888031      -269.0670
   5   2.0000      -9.887591      -269.0550
   6   2.0000      -9.887416      -269.0503
   7   2.0000      -9.882801      -268.9247
   8   2.0000      -9.873209      -268.6637
   9   2.0000      -9.872301      -268.6390
  10   2.0000      -9.872299      -268.6389
  11   2.0000      -0.958457       -26.0810
  12   2.0000      -0.776961       -21.1422
  13   2.0000      -0.733775       -19.9670
  14   2.0000      -0.670163       -18.2361
  15   2.0000      -0.651514       -17.7286
  16   2.0000      -0.613430       -16.6923
  17   2.0000      -0.611667       -16.6443
  18   2.0000      -0.561789       -15.2871
  19   2.0000      -0.540818       -14.7164
  20   2.0000      -0.493724       -13.4349
  21   2.0000      -0.489476       -13.3193
  22   2.0000      -0.432884       -11.7794
  23   2.0000      -0.417891       -11.3714
  24   2.0000      -0.397046       -10.8042
  25   2.0000      -0.393889       -10.7183
  26   2.0000      -0.381452       -10.3798
  27   2.0000      -0.372396       -10.1334
  28   2.0000      -0.361398        -9.8341
  29   2.0000      -0.355741        -9.6802
  30   2.0000      -0.345882        -9.4119
  31   2.0000      -0.337148        -9.1743
  32   2.0000      -0.325291        -8.8516
  33   2.0000      -0.320300        -8.7158
  34   2.0000      -0.299387        -8.1467
  35   2.0000      -0.297785        -8.1031
  36   2.0000      -0.281580        -7.6622
  37   2.0000      -0.278442        -7.5768
  38   2.0000      -0.273584        -7.4446
  39   2.0000      -0.225632        -6.1398
  40   2.0000      -0.188010        -5.1160
  41   0.0000      -0.031622        -0.8605
  42   0.0000      -0.014215        -0.3868
  43   0.0000       0.025122         0.6836
  44   0.0000       0.034713         0.9446
  45   0.0000       0.061488         1.6732

MULLIKEN ATOMIC CHARGES
-----------------------
   0 C :   -0.209234
   1 C :   -0.264748
   2 C :   -0.197570
   3 C :   -0.209367
   4 C :    0.212929
   5 C :   -0.155337
   6 C :   -0.123740
   7 C :    0.258377
   8 C :   -0.155523
   9 C :   -0.156228
  10 O :   -0.339423
  11 H :    0.098250
  12 H :    0.091496
  13 H :    0.100850
  14 H :    0.100682
  15 H :    0.095138
  16 H :    0.100658
  17 H :    0.091490
  18 H :    0.098289
  19 H :    0.100871
  20 H :    0.047870
  21 H :    0.040985
  22 H :    0.020700
  23 H :    0.036717
  24 H :    0.315869
Sum of atomic charges:    0.0000000

LOEWDIN ATOMIC CHARGES
----------------------
   0 C :   -0.310706
   1 C :   -0.092661
   2 C :   -0.317814
   3 C :   -0.310729
   4 C :   -0.039490
   5 C :   -0.109669
   6 C :   -0.145992
   7 C :    0.019590
   8 C :   -0.176744
   9 C :   -0.121236
  10 O :   -0.239721
  11 H :    0.115248
  12 H :    0.114940
  13 H :    0.120055
  14 H :    0.117809
  15 H :    0.118663
  16 H :    0.117830
  17 H :    0.114956
  18 H :    0.115232
  19 H :    0.120061
  20 H :    0.121652
  21 H :    0.129372
  22 H :    0.118327
  23 H :    0.123895
  24 H :    0.297131

  Mayer bond orders larger than 0.100000
B(  0-C ,  1-C ) :   1.0654 B(  0-C , 11-H ) :   0.9436 B(  0-C , 12-H ) :   0.9456
B(  0-C , 13-H ) :   0.9488 B(  1-C ,  2-C ) :   1.1296 B(  1-C ,  3-C ) :   1.0655
B(  1-C ,  4-C ) :   0.9402 B(  2-C , 14-H ) :   0.9303 B(  2-C , 15-H ) :   0.9418
B(  2-C , 16-H ) :   0.9304 B(  3-C , 17-H ) :   0.9456 B(  3-C , 18-H ) :   0.9436
B(  3-C , 19-H ) :   0.9489 B(  4-C ,  5-C ) :   1.3330 B(  4-C ,  9-C ) :   1.4283
B(  5-C ,  6-C ) :   1.3870 B(  5-C , 20-H ) :   0.9597 B(  6-C ,  7-C ) :   1.3475
B(  6-C , 21-H ) :   0.9639 B(  7-C ,  8-C ) :   1.3162 B(  7-C , 10-O ) :   1.1809
B(  8-C ,  9-C ) :   1.3264 B(  8-C , 22-H ) :   0.9557 B(  9-C , 23-H ) :   0.9448
B( 10-O , 24-H ) :   0.8434

Dispersion correction           -0.027434597
FINAL SINGLE POINT ENERGY      -463.659963698796

DIPOLE MOMENT
-------------

Method             : SCF
Type of density    : Electron Density
Multiplicity       :   1
Irrep              :   0
Energy             :  -463.7374792261528000 Eh
Relativity type    :
Basis              : AO
                                X                 Y                 Z
Electronic contribution:     14.663173357      -0.109140377       0.004004110
Nuclear contribution   :    -14.629683386       0.619561779      -0.004510090
                        -----------------------------------------
Total Dipole Moment    :      0.033489971       0.510421402      -0.000505980
                        -----------------------------------------
Magnitude (a.u.)       :      0.511519151
Magnitude (Debye)      :      1.300178356

Rotational constants in cm-1:             0.085838             0.021590             0.019457
Rotational constants in MHz :          2573.351383           647.246459           583.298869

                             ****ORCA TERMINATED NORMALLY****
TOTAL RUN TIME: 0 days 0 hours 0 minutes 11 seconds 877 msec
