                         Program Version 6.0.0  -   RELEASE  -
|  1> ! r2scan-3c def2/J RI DEFGRID2 scfconv6 printgap
|  2> %output
|  3>     printlevel normal
|  4> end
|  5> * xyz 0 1
|  6> C -3.3890729488 0.5451419674 -0.0512373371
|  7> C -1.905375859 0.5542313221 0.299775769
|  8> H -1.7724587571 0.9704372909 1.3041077332
|  9> C -1.0931902016 1.4078022797 -0.6883122801
| 10> C 0.3915164964 1.3927676687 -0.3457706252
| 11> C 0.9273322316 -0.0426670619 -0.3669037278
| 12> H 0.7403988185 -0.4587919755 -1.3634781334
| 13> C 0.1425925996 -0.8879563556 0.6528304482
| 14> C -1.3218799004 -0.8407869081 0.3120031576
| 15> O -1.9652506954 -1.8359777639 0.0420464682
| 16> C 2.4160356848 -0.0892165095 -0.115592024
| 17> C 3.2590550147 -0.355598066 -1.1016587408
| 18> C 2.8944524732 0.189581054 1.2764850111
| 19> H -3.5381558892 0.1186784256 -1.040761581
| 20> H -3.940681621 -0.0640383059 0.6608226611
| 21> H -3.7886550162 1.5552479462 -0.0382764816
| 22> H -1.2431952933 1.0168505183 -1.6973761385
| 23> H -1.4730795742 2.4301389533 -0.6660886123
| 24> H 0.9428030564 1.9927870637 -1.0715083802
| 25> H 0.5417324032 1.8319035943 0.6414266014
| 26> H 0.486496442 -1.9234655038 0.6371381099
| 27> H 0.2821971603 -0.4755974337 1.652211702
| 28> H 4.3249508598 -0.3715809407 -0.9502499836
| 29> H 2.9203335403 -0.5686053589 -2.1016891329
| 30> H 2.6391435305 -0.6385318224 1.9357837104
| 31> H 3.9735985332 0.3124162257 1.2877286184
| 32> H 2.4363792974 1.0926133276 1.6726541044
| 33> *
| 34>
| 35>                          ****END OF INPUT****

CARTESIAN COORDINATES (ANGSTROEM)
---------------------------------
  C     -3.389073    0.545142   -0.051237
  C     -1.905376    0.554231    0.299776
  H     -1.772459    0.970437    1.304108
  C     -1.093190    1.407802   -0.688312
  C      0.391516    1.392768   -0.345771
  C      0.927332   -0.042667   -0.366904
  H      0.740399   -0.458792   -1.363478
  C      0.142593   -0.887956    0.652830
  C     -1.321880   -0.840787    0.312003
  O     -1.965251   -1.835978    0.042046
  C      2.416036   -0.089217   -0.115592
  C      3.259055   -0.355598   -1.101659
  C      2.894452    0.189581    1.276485
  H     -3.538156    0.118678   -1.040762
  H     -3.940682   -0.064038    0.660823
  H     -3.788655    1.555248   -0.038276
  H     -1.243195    1.016851   -1.697376
  H     -1.473080    2.430139   -0.666089
  H      0.942803    1.992787   -1.071508
  H      0.541732    1.831904    0.641427
  H      0.486496   -1.923466    0.637138
  H      0.282197   -0.475597    1.652212
  H      4.324951   -0.371581   -0.950250
  H      2.920334   -0.568605   -2.101689
  H      2.639144   -0.638532    1.935784
  H      3.973599    0.312416    1.287729
  H      2.436379    1.092613    1.672654

 Total Charge           Charge          ....    0
 Multiplicity           Mult            ....    1
 Number of Electrons    NEL             ....   84
 Basis Dimension        Dim             ....  294

ORBITAL ENERGIES
----------------

  NO   OCC          E(Eh)            E(eV)
   0   2.0000     -18.937439      -515.3139
   1   2.0000     -10.112940      -275.1871
   2   2.0000     -10.052907      -273.5535
   3   2.0000     -10.047071      -273.3947
   4   2.0000     -10.045354      -273.3480
   5   2.0000     -10.041971      -273.2559
   6   2.0000     -10.038756      -273.1684
   7   2.0000     -10.038050      -273.1492
   8   2.0000     -10.032216      -272.9905
   9   2.0000     -10.018186      -272.6087
  10   2.0000     -10.017867      -272.6000
  11   2.0000      -1.002350       -27.2753
  12   2.0000      -0.824053       -22.4236
  13   2.0000      -0.779304       -21.2059
  14   2.0000      -0.730534       -19.8788
  15   2.0000      -0.707258       -19.2455
  16   2.0000      -0.664105       -18.0712
  17   2.0000      -0.643559       -17.5121
  18   2.0000      -0.582360       -15.8468
  19   2.0000      -0.570202       -15.5160
  20   2.0000      -0.512594       -13.9484
  21   2.0000      -0.490489       -13.3469
  22   2.0000      -0.454601       -12.3703
  23   2.0000      -0.445971       -12.1355
  24   2.0000      -0.427877       -11.6431
  25   2.0000      -0.417798       -11.3689
  26   2.0000      -0.411213       -11.1897
  27   2.0000      -0.405494       -11.0340
  28   2.0000      -0.389278       -10.5928
  29   2.0000      -0.383038       -10.4230
  30   2.0000      -0.371755       -10.1160
  31   2.0000      -0.353254        -9.6125
  32   2.0000      -0.348005        -9.4697
  33   2.0000      -0.344289        -9.3686
  34   2.0000      -0.332598        -9.0504
  35   2.0000      -0.326771        -8.8919
  36   2.0000      -0.315375        -8.5818
  37   2.0000      -0.308074        -8.3831
  38   2.0000      -0.298370        -8.1191
  39   2.0000      -0.289401        -7.8750
  40   2.0000      -0.232585        -6.3290
  41   2.0000      -0.208619        -5.6768
  42   0.0000      -0.048422        -1.3176
  43   0.0000      -0.011998        -0.3265
  44   0.0000       0.076378         2.0783
  45   0.0000       0.078811         2.1446
  46   0.0000       0.088759         2.4153

MULLIKEN ATOMIC CHARGES
-----------------------
   0 C :   -0.507115
   1 C :   -0.003632
   2 H :    0.160873
   3 C :   -0.334803
   4 C :   -0.365903
   5 C :   -0.006113
   6 H :    0.167718
   7 C :   -0.368574
   8 C :    0.177737
   9 O :   -0.338450
  10 C :    0.088067
  11 C :   -0.369379
  12 C :   -0.532940
  13 H :    0.163471
  14 H :    0.161161
  15 H :    0.142856
  16 H :    0.166683
  17 H :    0.152929
  18 H :    0.163856
  19 H :    0.158880
  20 H :    0.178703
  21 H :    0.175801
  22 H :    0.139064
  23 H :    0.143224
  24 H :    0.169941
  25 H :    0.154146
  26 H :    0.161797
Sum of atomic charges:    0.0000000

LOEWDIN ATOMIC CHARGES
----------------------
   0 C :   -0.394798
   1 C :   -0.207324
   2 H :    0.174920
   3 C :   -0.272598
   4 C :   -0.278988
   5 C :   -0.188658
   6 H :    0.173527
   7 C :   -0.249463
   8 C :    0.231940
   9 O :   -0.455135
  10 C :   -0.122173
  11 C :   -0.314015
  12 C :   -0.394049
  13 H :    0.164938
  14 H :    0.164859
  15 H :    0.151818
  16 H :    0.164300
  17 H :    0.161823
  18 H :    0.167419
  19 H :    0.158814
  20 H :    0.183106
  21 H :    0.177127
  22 H :    0.156747
  23 H :    0.158688
  24 H :    0.165203
  25 H :    0.162418
  26 H :    0.159554

  Mayer bond orders larger than 0.100000
B(  0-C ,  1-C ) :   0.8902 B(  0-C , 13-H ) :   0.9884 B(  0-C , 14-H ) :   0.9712
B(  0-C , 15-H ) :   0.9769 B(  1-C ,  2-H ) :   0.9250 B(  1-C ,  3-C ) :   0.8678
B(  1-C ,  8-C ) :   0.8915 B(  1-C ,  9-O ) :  -0.1123 B(  3-C ,  4-C ) :   0.8668
B(  3-C , 16-H ) :   1.0013 B(  3-C , 17-H ) :   0.9432 B(  4-C ,  5-C ) :   0.9216
B(  4-C , 18-H ) :   0.9458 B(  4-C , 19-H ) :   1.0075 B(  5-C ,  6-H ) :   0.9849
B(  5-C ,  7-C ) :   0.8750 B(  5-C , 10-C ) :   0.8680 B(  7-C ,  8-C ) :   0.9295
B(  7-C , 20-H ) :   0.9440 B(  7-C , 21-H ) :   0.9796 B(  8-C ,  9-O ) :   2.0005
B( 10-C , 11-C ) :   1.8749 B( 10-C , 12-C ) :   0.8652 B( 11-C , 22-H ) :   0.9688
B( 11-C , 23-H ) :   0.9886 B( 12-C , 24-H ) :   0.9676 B( 12-C , 25-H ) :   0.9763
B( 12-C , 26-H ) :   0.9812

Dispersion correction           -0.009577938
FINAL SINGLE POINT ENERGY      -465.783323512997

DIPOLE MOMENT
-------------

Method             : SCF
Type of density    : Electron Density
Multiplicity       :   1
Irrep              :   0
Energy             :  -465.7847499435440568 Eh
Relativity type    :
Basis              : AO
                                X                 Y                 Z
Electronic contribution:     -2.693983229      -5.297949272      -0.493475365
Nuclear contribution   :      3.284281371       6.371503978       0.809740355
                        -----------------------------------------
Total Dipole Moment    :      0.590298142       1.073554706       0.316264989
                        -----------------------------------------
Magnitude (a.u.)       :      1.265304369
Magnitude (Debye)      :      3.216148115

Rotational constants in cm-1:             0.073373             0.021916             0.019703
Rotational constants in MHz :          2199.673805           657.018322           590.669005

                             ****ORCA TERMINATED NORMALLY****
TOTAL RUN TIME: 0 days 0 hours 0 minutes 51 seconds 96 msec
