                         Program Version 6.0.0  -   RELEASE  -
|  1> ! r2scan-3c def2/J RI DEFGRID2 scfconv6 printgap
|  2> %output
|  3>     printlevel normal
|  4> end
|  5> %cpcm
|  6>     smd true
|  7>     smdsolvent "water"
|  8> end
|  9> * xyz 0 1
| 10> C -3.3890729488 0.5451419674 -0.0512373371
| 11> C -1.905375859 0.5542313221 0.299775769
| 12> H -1.7724587571 0.9704372909 1.3041077332
| 13> C -1.0931902016 1.4078022797 -0.6883122801
| 14> C 0.3915164964 1.3927676687 -0.3457706252
| 15> C 0.9273322316 -0.0426670619 -0.3669037278
| 16> H 0.7403988185 -0.4587919755 -1.3634781334
| 17> C 0.1425925996 -0.8879563556 0.6528304482
| 18> C -1.3218799004 -0.8407869081 0.3120031576
| 19> O -1.9652506954 -1.8359777639 0.0420464682
| 20> C 2.4160356848 -0.0892165095 -0.115592024
| 21> C 3.2590550147 -0.355598066 -1.1016587408
| 22> C 2.8944524732 0.189581054 1.2764850111
| 23> H -3.5381558892 0.1186784256 -1.040761581
| 24> H -3.940681621 -0.0640383059 0.6608226611
| 25> H -3.7886550162 1.5552479462 -0.0382764816
| 26> H -1.2431952933 1.0168505183 -1.6973761385
| 27> H -1.4730795742 2.4301389533 -0.6660886123
| 28> H 0.9428030564 1.9927870637 -1.0715083802
| 29> H 0.5417324032 1.8319035943 0.6414266014
| 30> H 0.486496442 -1.9234655038 0.6371381099
| 31> H 0.2821971603 -0.4755974337 1.652211702
| 32> H 4.3249508598 -0.3715809407 -0.9502499836
| 33> H 2.9203335403 -0.5686053589 -2.1016891329
| 34> H 2.6391435305 -0.6385318224 1.9357837104
| 35> H 3.9735985332 0.3124162257 1.2877286184
| 36> H 2.4363792974 1.0926133276 1.6726541044
| 37> *
| 38>
| 39>                          ****END OF INPUT****

CARTESIAN COORDINATES (ANGSTROEM)
---------------------------------
  C     -3.389073    0.545142   -0.051237
  C     -1.905376    0.554231    0.299776
  H     -1.772459    0.970437    1.304108
  C     -1.093190    1.407802   -0.688312
  C      0.391516    1.392768   -0.345771
  C      0.927332   -0.042667   -0.366904
  H      0.740399   -0.458792   -1.363478
  C      0.142593   -0.887956    0.652830
  C     -1.321880   -0.840787    0.312003
  O     -1.965251   -1.835978    0.042046
  C      2.416036   -0.089217   -0.115592
  C      3.259055   -0.355598   -1.101659
  C      2.894452    0.189581    1.276485
  H     -3.538156    0.118678   -1.040762
  H     -3.940682   -0.064038    0.660823
  H     -3.788655    1.555248   -0.038276
  H     -1.243195    1.016851   -1.697376
  H     -1.473080    2.430139   -0.666089
  H      0.942803    1.992787   -1.071508
  H      0.541732    1.831904    0.641427
  H      0.486496   -1.923466    0.637138
  H      0.282197   -0.475597    1.652212
  H      4.324951   -0.371581   -0.950250
  H      2.920334   -0.568605   -2.101689
  H      2.639144   -0.638532    1.935784
  H      3.973599    0.312416    1.287729
  H      2.436379    1.092613    1.672654

 Total Charge           Charge          ....    0
 Multiplicity           Mult            ....    1
 Number of Electrons    NEL             ....   84
 Basis Dimension        Dim             ....  294

ORBITAL ENERGIES
----------------

  NO   OCC          E(Eh)            E(eV)
   0   2.0000     -18.947843      -515.5970
   1   2.0000     -10.119723      -275.3717
   2   2.0000     -10.041201      -273.2350
   3   2.0000     -10.040240      -273.2088
   4   2.0000     -10.036434      -273.1052
   5   2.0000     -10.029288      -272.9108
   6   2.0000     -10.027498      -272.8621
   7   2.0000     -10.022775      -272.7336
   8   2.0000     -10.016175      -272.5540
   9   2.0000     -10.011581      -272.4290
  10   2.0000     -10.008017      -272.3320
  11   2.0000      -1.015043       -27.6207
  12   2.0000      -0.813196       -22.1282
  13   2.0000      -0.769798       -20.9473
  14   2.0000      -0.721516       -19.6335
  15   2.0000      -0.696729       -18.9590
  16   2.0000      -0.651518       -17.7287
  17   2.0000      -0.635841       -17.3021
  18   2.0000      -0.573936       -15.6176
  19   2.0000      -0.558048       -15.1853
  20   2.0000      -0.501313       -13.6414
  21   2.0000      -0.484897       -13.1947
  22   2.0000      -0.446870       -12.1599
  23   2.0000      -0.438822       -11.9410
  24   2.0000      -0.421448       -11.4682
  25   2.0000      -0.412320       -11.2198
  26   2.0000      -0.403817       -10.9884
  27   2.0000      -0.398124       -10.8335
  28   2.0000      -0.377324       -10.2675
  29   2.0000      -0.376033       -10.2324
  30   2.0000      -0.361684        -9.8419
  31   2.0000      -0.351077        -9.5533
  32   2.0000      -0.339571        -9.2402
  33   2.0000      -0.331387        -9.0175
  34   2.0000      -0.329229        -8.9588
  35   2.0000      -0.317600        -8.6423
  36   2.0000      -0.304365        -8.2822
  37   2.0000      -0.293985        -7.9998
  38   2.0000      -0.288758        -7.8575
  39   2.0000      -0.281163        -7.6508
  40   2.0000      -0.226649        -6.1674
  41   2.0000      -0.217899        -5.9293
  42   0.0000      -0.050737        -1.3806
  43   0.0000      -0.005983        -0.1628
  44   0.0000       0.085324         2.3218
  45   0.0000       0.090450         2.4613
  46   0.0000       0.104699         2.8490

MULLIKEN ATOMIC CHARGES
-----------------------
   0 C :   -0.575506
   1 C :    0.032831
   2 H :    0.191397
   3 C :   -0.354383
   4 C :   -0.384424
   5 C :    0.023841
   6 H :    0.182521
   7 C :   -0.385324
   8 C :    0.215237
   9 O :   -0.444612
  10 C :    0.049205
  11 C :   -0.450369
  12 C :   -0.555408
  13 H :    0.171574
  14 H :    0.166638
  15 H :    0.164481
  16 H :    0.178516
  17 H :    0.167534
  18 H :    0.167416
  19 H :    0.183425
  20 H :    0.177439
  21 H :    0.210256
  22 H :    0.164196
  23 H :    0.166419
  24 H :    0.185139
  25 H :    0.168191
  26 H :    0.183770
Sum of atomic charges:    0.0000000

LOEWDIN ATOMIC CHARGES
----------------------
   0 C :   -0.405192
   1 C :   -0.200379
   2 H :    0.189649
   3 C :   -0.269095
   4 C :   -0.277643
   5 C :   -0.186047
   6 H :    0.178173
   7 C :   -0.246532
   8 C :    0.248983
   9 O :   -0.531679
  10 C :   -0.121212
  11 C :   -0.343759
  12 C :   -0.399861
  13 H :    0.163023
  14 H :    0.162480
  15 H :    0.160177
  16 H :    0.167675
  17 H :    0.167927
  18 H :    0.168837
  19 H :    0.167389
  20 H :    0.182113
  21 H :    0.192680
  22 H :    0.162454
  23 H :    0.164117
  24 H :    0.171716
  25 H :    0.165419
  26 H :    0.168587

  Mayer bond orders larger than 0.100000
B(  0-C ,  1-C ) :   0.8441 B(  0-C , 13-H ) :   0.9921 B(  0-C , 14-H ) :   0.9757
B(  0-C , 15-H ) :   0.9703 B(  1-C ,  2-H ) :   0.9068 B(  1-C ,  3-C ) :   0.8631
B(  1-C ,  8-C ) :   0.9160 B(  1-C ,  9-O ) :  -0.1057 B(  3-C ,  4-C ) :   0.8743
B(  3-C , 16-H ) :   1.0003 B(  3-C , 17-H ) :   0.9383 B(  4-C ,  5-C ) :   0.9247
B(  4-C , 18-H ) :   0.9424 B(  4-C , 19-H ) :   1.0009 B(  5-C ,  6-H ) :   0.9850
B(  5-C ,  7-C ) :   0.8626 B(  5-C , 10-C ) :   0.8481 B(  7-C ,  8-C ) :   0.9458
B(  7-C , 20-H ) :   0.9534 B(  7-C , 21-H ) :   0.9584 B(  8-C ,  9-O ) :   1.9257
B( 10-C , 11-C ) :   1.8574 B( 10-C , 12-C ) :   0.8767 B( 11-C , 22-H ) :   0.9705
B( 11-C , 23-H ) :   0.9844 B( 12-C , 24-H ) :   0.9595 B( 12-C , 25-H ) :   0.9740
B( 12-C , 26-H ) :   0.9715

Dispersion correction           -0.009577938
FINAL SINGLE POINT ENERGY      -465.790556334126

DIPOLE MOMENT
-------------

Method             : SCF
Type of density    : Electron Density
Multiplicity       :   1
Irrep              :   0
Energy             :  -465.7919827646733779 Eh
Relativity type    :
Basis              : AO
                                X                 Y                 Z
Electronic contribution:     -2.480220288      -4.730973002      -0.243907713
Nuclear contribution   :      3.284281371       6.371503978       0.809740355
                        -----------------------------------------
Total Dipole Moment    :      0.804061083       1.640530976       0.565832641
                        -----------------------------------------
Magnitude (a.u.)       :      1.912595798
Magnitude (Debye)      :      4.861432175

Rotational constants in cm-1:             0.073373             0.021916             0.019703
Rotational constants in MHz :          2199.673805           657.018322           590.669005

                             ****ORCA TERMINATED NORMALLY****
TOTAL RUN TIME: 0 days 0 hours 1 minutes 3 seconds 718 msec
