                         Program Version 6.0.0  -   RELEASE  -
|  1> ! pbe def2-sv(p) def2/J RI DEFGRID1 loosescf d4 GCP(DFT/SV(P)) printgap
|  2> %output
|  3>     printlevel normal
|  4> end
|  5> * xyz 0 1
|  6> C -2.4613381118 -0.5504260853 -0.0967961706
|  7> C -1.015047329 -0.2009596707 0.26199657
|  8> H -0.8879882529 -0.2419296465 1.3521231423
|  9> C -0.6435337973 1.2103476861 -0.2201241251
| 10> H -1.0937415373 1.3586736831 -1.2130974891
| 11> C 0.8961393257 1.3262560868 -0.3726508899
| 12> H 1.2015802201 2.3239202696 -0.0222130356
| 13> C 1.6178382121 0.2696669626 0.4829602544
| 14> H 2.6944435352 0.324329047 0.2646972701
| 15> C 1.1628862426 -1.1419961785 0.049359269
| 16> H 1.3031708803 -1.8189947044 0.9077344354
| 17> O -0.1868855036 -1.1688713635 -0.3630847155
| 18> O 1.9338474732 -1.6453735526 -0.9790883158
| 19> O 1.3735376078 0.4090177418 1.8562048115
| 20> O 1.3219755836 1.1100952029 -1.6957922216
| 21> O -1.1621111885 2.1255520664 0.7088962437
| 22> O -2.8674267203 -1.7758261133 0.4531753568
| 23> H -2.555671447 -0.5714476418 -1.1906300759
| 24> H -3.1234621999 0.2118064265 0.316826403
| 25> H 1.8140974663 -1.0776999553 -1.7611284164
| 26> H 1.7647682391 1.2328119376 2.18285517
| 27> H 1.0120669785 1.8230373407 -2.2729854006
| 28> H -1.1606697812 3.0207544325 0.3388350042
| 29> H -2.2437297019 -2.4566555147 0.1612934943
| 30> *
| 31>
| 32>                          ****END OF INPUT****

CARTESIAN COORDINATES (ANGSTROEM)
---------------------------------
  C     -2.461338   -0.550426   -0.096796
  C     -1.015047   -0.200960    0.261997
  H     -0.887988   -0.241930    1.352123
  C     -0.643534    1.210348   -0.220124
  H     -1.093742    1.358674   -1.213097
  C      0.896139    1.326256   -0.372651
  H      1.201580    2.323920   -0.022213
  C      1.617838    0.269667    0.482960
  H      2.694444    0.324329    0.264697
  C      1.162886   -1.141996    0.049359
  H      1.303171   -1.818995    0.907734
  O     -0.186886   -1.168871   -0.363085
  O      1.933847   -1.645374   -0.979088
  O      1.373538    0.409018    1.856205
  O      1.321976    1.110095   -1.695792
  O     -1.162111    2.125552    0.708896
  O     -2.867427   -1.775826    0.453175
  H     -2.555671   -0.571448   -1.190630
  H     -3.123462    0.211806    0.316826
  H      1.814097   -1.077700   -1.761128
  H      1.764768    1.232812    2.182855
  H      1.012067    1.823037   -2.272985
  H     -1.160670    3.020754    0.338835
  H     -2.243730   -2.456656    0.161293

 Total Charge           Charge          ....    0
 Multiplicity           Mult            ....    1
 Number of Electrons    NEL             ....   96
 Basis Dimension        Dim             ....  192

ORBITAL ENERGIES
----------------

  NO   OCC          E(Eh)            E(eV)
   0   2.0000     -18.778566      -510.9908
   1   2.0000     -18.764538      -510.6090
   2   2.0000     -18.763283      -510.5749
   3   2.0000     -18.762400      -510.5509
   4   2.0000     -18.743640      -510.0404
   5   2.0000     -18.732568      -509.7391
   6   2.0000      -9.978964      -271.5414
   7   2.0000      -9.955097      -270.8920
   8   2.0000      -9.948749      -270.7192
   9   2.0000      -9.945711      -270.6366
  10   2.0000      -9.933396      -270.3015
  11   2.0000      -9.922368      -270.0014
  12   2.0000      -0.977711       -26.6049
  13   2.0000      -0.952356       -25.9149
  14   2.0000      -0.940028       -25.5795
  15   2.0000      -0.937160       -25.5014
  16   2.0000      -0.914829       -24.8938
  17   2.0000      -0.898579       -24.4516
  18   2.0000      -0.704146       -19.1608
  19   2.0000      -0.686004       -18.6671
  20   2.0000      -0.616394       -16.7729
  21   2.0000      -0.589775       -16.0486
  22   2.0000      -0.563970       -15.3464
  23   2.0000      -0.514211       -13.9924
  24   2.0000      -0.503192       -13.6926
  25   2.0000      -0.499401       -13.5894
  26   2.0000      -0.483989       -13.1700
  27   2.0000      -0.461826       -12.5669
  28   2.0000      -0.444929       -12.1071
  29   2.0000      -0.430166       -11.7054
  30   2.0000      -0.422806       -11.5051
  31   2.0000      -0.387784       -10.5521
  32   2.0000      -0.384152       -10.4533
  33   2.0000      -0.370136       -10.0719
  34   2.0000      -0.360779        -9.8173
  35   2.0000      -0.350103        -9.5268
  36   2.0000      -0.339076        -9.2267
  37   2.0000      -0.317416        -8.6373
  38   2.0000      -0.304022        -8.2729
  39   2.0000      -0.289857        -7.8874
  40   2.0000      -0.270892        -7.3713
  41   2.0000      -0.267973        -7.2919
  42   2.0000      -0.261370        -7.1122
  43   2.0000      -0.243269        -6.6197
  44   2.0000      -0.238634        -6.4936
  45   2.0000      -0.216679        -5.8961
  46   2.0000      -0.208711        -5.6793
  47   2.0000      -0.200214        -5.4481
  48   0.0000      -0.002821        -0.0768
  49   0.0000       0.010434         0.2839
  50   0.0000       0.021613         0.5881
  51   0.0000       0.051286         1.3956
  52   0.0000       0.059471         1.6183

MULLIKEN ATOMIC CHARGES
-----------------------
   0 C :    0.091523
   1 C :   -0.011846
   2 H :    0.091876
   3 C :    0.070030
   4 H :    0.029373
   5 C :    0.053904
   6 H :    0.034091
   7 C :   -0.027314
   8 H :    0.081496
   9 C :    0.221103
  10 H :    0.072622
  11 O :   -0.318016
  12 O :   -0.394345
  13 O :   -0.396423
  14 O :   -0.420695
  15 O :   -0.403883
  16 O :   -0.435399
  17 H :    0.061235
  18 H :    0.089108
  19 H :    0.300347
  20 H :    0.305082
  21 H :    0.307604
  22 H :    0.299479
  23 H :    0.299050
Sum of atomic charges:    0.0000000

LOEWDIN ATOMIC CHARGES
----------------------
   0 C :   -0.124036
   1 C :   -0.076225
   2 H :    0.119011
   3 C :   -0.075982
   4 H :    0.093994
   5 C :   -0.081583
   6 H :    0.091166
   7 C :   -0.092339
   8 H :    0.110908
   9 C :    0.013069
  10 H :    0.103680
  11 O :   -0.156968
  12 O :   -0.295959
  13 O :   -0.303078
  14 O :   -0.313224
  15 O :   -0.311638
  16 O :   -0.335966
  17 H :    0.094751
  18 H :    0.118568
  19 H :    0.276078
  20 H :    0.289188
  21 H :    0.289427
  22 H :    0.285064
  23 H :    0.282092

  Mayer bond orders larger than 0.100000
B(  0-C ,  1-C ) :   1.0532 B(  0-C , 16-O ) :   1.0832 B(  0-C , 17-H ) :   0.9022
B(  0-C , 18-H ) :   0.9181 B(  1-C ,  2-H ) :   0.8589 B(  1-C ,  3-C ) :   1.0225
B(  1-C , 11-O ) :   1.0125 B(  3-C ,  4-H ) :   0.8768 B(  3-C ,  5-C ) :   0.9443
B(  3-C , 15-O ) :   1.0779 B(  5-C ,  6-H ) :   0.8870 B(  5-C ,  7-C ) :   1.0134
B(  5-C , 14-O ) :   1.0282 B(  7-C ,  8-H ) :   0.9000 B(  7-C ,  9-C ) :   0.9540
B(  7-C , 13-O ) :   1.0764 B(  9-C , 10-H ) :   0.9051 B(  9-C , 11-O ) :   1.0195
B(  9-C , 12-O ) :   1.1551 B( 12-O , 19-H ) :   0.8247 B( 13-O , 20-H ) :   0.8433
B( 14-O , 21-H ) :   0.8409 B( 15-O , 22-H ) :   0.8464 B( 16-O , 23-H ) :   0.8448

Dispersion correction           -0.024639113
FINAL SINGLE POINT ENERGY      -685.689416405889

DIPOLE MOMENT
-------------

Method             : SCF
Type of density    : Electron Density
Multiplicity       :   1
Irrep              :   0
Energy             :  -685.8192246251678625 Eh
Relativity type    :
Basis              : AO
                                X                 Y                 Z
Electronic contribution:      1.759803942      -1.754647116       0.129641927
Nuclear contribution   :     -1.190176662       3.859328763      -0.878127607
                        -----------------------------------------
Total Dipole Moment    :      0.569627280       2.104681647      -0.748485680
                        -----------------------------------------
Magnitude (a.u.)       :      2.305296269
Magnitude (Debye)      :      5.859597446

Rotational constants in cm-1:             0.038356             0.027034             0.021748
Rotational constants in MHz :          1149.894312           810.462176           651.974182

                             ****ORCA TERMINATED NORMALLY****
TOTAL RUN TIME: 0 days 0 hours 0 minutes 12 seconds 109 msec
