                         Program Version 6.0.0  -   RELEASE  -
|  1> ! pbe def2-sv(p) def2/J RI DEFGRID1 loosescf d4 GCP(DFT/SV(P)) printgap
|  2> %output
|  3>     printlevel normal
|  4> end
|  5> * xyz 0 1
|  6> C -3.3921115635 0.5286079836 -0.0081294449
|  7> C -1.9084247989 0.518965469 0.3430474615
|  8> H -1.7782739582 0.8508182261 1.3786777023
|  9> C -1.1020463869 1.4580211332 -0.5696447559
| 10> C 0.3817487978 1.4271066983 -0.2234043795
| 11> C 0.9288079909 0.0068640153 -0.3730034873
| 12> H 0.7431618658 -0.3293502582 -1.3995437073
| 13> C 0.1504932832 -0.9346210886 0.5695521796
| 14> C -1.3155128195 -0.8678638685 0.2391197712
| 15> O -1.9522931169 -1.841674201 -0.1123948851
| 16> C 2.4130745637 -0.0943372886 -0.112171818
| 17> C 3.2082143254 -0.7213924022 -0.9657296187
| 18> C 2.940604815 0.534094644 1.1411732384
| 19> H -3.7990329506 1.5310186898 0.0904914459
| 20> H -3.5380757163 0.1867740957 -1.0304584938
| 21> H -3.9391629318 -0.1430324996 0.6491933265
| 22> H -1.2470344766 1.1505929746 -1.6079587332
| 23> H -1.4915261393 2.4714319163 -0.4636495938
| 24> H 0.9273302695 2.0964599853 -0.8906463477
| 25> H 0.5207761812 1.774185676 0.8008263089
| 26> H 0.5037704365 -1.9611626476 0.4599697538
| 27> H 0.2938574849 -0.6159018594 1.6024951595
| 28> H 4.2669658551 -0.8154737928 -0.7938364027
| 29> H 2.8350082568 -1.1673404323 -1.8725014937
| 30> H 3.9757518481 0.2468572279 1.301597383
| 31> H 2.89385335 1.619125314 1.0668473534
| 32> H 2.3567765505 0.2286493025 2.0063354778
| 33> *
| 34>
| 35>                          ****END OF INPUT****

CARTESIAN COORDINATES (ANGSTROEM)
---------------------------------
  C     -3.392112    0.528608   -0.008129
  C     -1.908425    0.518965    0.343047
  H     -1.778274    0.850818    1.378678
  C     -1.102046    1.458021   -0.569645
  C      0.381749    1.427107   -0.223404
  C      0.928808    0.006864   -0.373003
  H      0.743162   -0.329350   -1.399544
  C      0.150493   -0.934621    0.569552
  C     -1.315513   -0.867864    0.239120
  O     -1.952293   -1.841674   -0.112395
  C      2.413075   -0.094337   -0.112172
  C      3.208214   -0.721392   -0.965730
  C      2.940605    0.534095    1.141173
  H     -3.799033    1.531019    0.090491
  H     -3.538076    0.186774   -1.030458
  H     -3.939163   -0.143032    0.649193
  H     -1.247034    1.150593   -1.607959
  H     -1.491526    2.471432   -0.463650
  H      0.927330    2.096460   -0.890646
  H      0.520776    1.774186    0.800826
  H      0.503770   -1.961163    0.459970
  H      0.293857   -0.615902    1.602495
  H      4.266966   -0.815474   -0.793836
  H      2.835008   -1.167340   -1.872501
  H      3.975752    0.246857    1.301597
  H      2.893853    1.619125    1.066847
  H      2.356777    0.228649    2.006335

 Total Charge           Charge          ....    0
 Multiplicity           Mult            ....    1
 Number of Electrons    NEL             ....   84
 Basis Dimension        Dim             ....  186

ORBITAL ENERGIES
----------------

  NO   OCC          E(Eh)            E(eV)
   0   2.0000     -18.740289      -509.9492
   1   2.0000      -9.969437      -271.2822
   2   2.0000      -9.910259      -269.6719
   3   2.0000      -9.904983      -269.5283
   4   2.0000      -9.903032      -269.4752
   5   2.0000      -9.898824      -269.3607
   6   2.0000      -9.896525      -269.2981
   7   2.0000      -9.894076      -269.2315
   8   2.0000      -9.888119      -269.0694
   9   2.0000      -9.877226      -268.7730
  10   2.0000      -9.875154      -268.7166
  11   2.0000      -0.935300       -25.4508
  12   2.0000      -0.775638       -21.1062
  13   2.0000      -0.731354       -19.9012
  14   2.0000      -0.685414       -18.6511
  15   2.0000      -0.663443       -18.0532
  16   2.0000      -0.622244       -16.9321
  17   2.0000      -0.604662       -16.4537
  18   2.0000      -0.548640       -14.9292
  19   2.0000      -0.536452       -14.5976
  20   2.0000      -0.488101       -13.2819
  21   2.0000      -0.461750       -12.5648
  22   2.0000      -0.436230       -11.8704
  23   2.0000      -0.426243       -11.5987
  24   2.0000      -0.409397       -11.1402
  25   2.0000      -0.398639       -10.8475
  26   2.0000      -0.397551       -10.8179
  27   2.0000      -0.384821       -10.4715
  28   2.0000      -0.373006       -10.1500
  29   2.0000      -0.364869        -9.9286
  30   2.0000      -0.354613        -9.6495
  31   2.0000      -0.340538        -9.2665
  32   2.0000      -0.333112        -9.0645
  33   2.0000      -0.331108        -9.0099
  34   2.0000      -0.319537        -8.6951
  35   2.0000      -0.313211        -8.5229
  36   2.0000      -0.305107        -8.3024
  37   2.0000      -0.295840        -8.0502
  38   2.0000      -0.285931        -7.7806
  39   2.0000      -0.278629        -7.5819
  40   2.0000      -0.224241        -6.1019
  41   2.0000      -0.192493        -5.2380
  42   0.0000      -0.053201        -1.4477
  43   0.0000      -0.014692        -0.3998
  44   0.0000       0.033851         0.9211
  45   0.0000       0.042727         1.1626
  46   0.0000       0.048250         1.3129

MULLIKEN ATOMIC CHARGES
-----------------------
   0 C :   -0.190381
   1 C :   -0.206949
   2 H :    0.082328
   3 C :   -0.110043
   4 C :   -0.112027
   5 C :   -0.199760
   6 H :    0.066640
   7 C :   -0.044012
   8 C :    0.007958
   9 O :   -0.159051
  10 C :   -0.002447
  11 C :   -0.230330
  12 C :   -0.228999
  13 H :    0.091643
  14 H :    0.100914
  15 H :    0.107063
  16 H :    0.082300
  17 H :    0.091621
  18 H :    0.094464
  19 H :    0.080492
  20 H :    0.087641
  21 H :    0.089495
  22 H :    0.081369
  23 H :    0.087759
  24 H :    0.100823
  25 H :    0.120192
  26 H :    0.111298
Sum of atomic charges:   -0.0000000

LOEWDIN ATOMIC CHARGES
----------------------
   0 C :   -0.325881
   1 C :   -0.177307
   2 H :    0.130586
   3 C :   -0.205658
   4 C :   -0.216676
   5 C :   -0.123940
   6 H :    0.123841
   7 C :   -0.227413
   8 C :    0.052848
   9 O :   -0.125409
  10 C :   -0.049372
  11 C :   -0.262003
  12 C :   -0.323873
  13 H :    0.117201
  14 H :    0.123931
  15 H :    0.125270
  16 H :    0.120647
  17 H :    0.121146
  18 H :    0.124156
  19 H :    0.116687
  20 H :    0.131015
  21 H :    0.130426
  22 H :    0.117254
  23 H :    0.118416
  24 H :    0.127741
  25 H :    0.131887
  26 H :    0.124480

  Mayer bond orders larger than 0.100000
B(  0-C ,  1-C ) :   1.1218 B(  0-C , 13-H ) :   0.9445 B(  0-C , 14-H ) :   0.9442
B(  0-C , 15-H ) :   0.9459 B(  1-C ,  2-H ) :   0.8674 B(  1-C ,  3-C ) :   1.0792
B(  1-C ,  8-C ) :   0.9359 B(  3-C ,  4-C ) :   1.1335 B(  3-C , 16-H ) :   0.9044
B(  3-C , 17-H ) :   0.9149 B(  4-C ,  5-C ) :   1.0714 B(  4-C , 18-H ) :   0.9113
B(  4-C , 19-H ) :   0.8939 B(  5-C ,  6-H ) :   0.8790 B(  5-C ,  7-C ) :   1.0599
B(  5-C , 10-C ) :   1.0081 B(  7-C ,  8-C ) :   1.0459 B(  7-C , 20-H ) :   0.8915
B(  7-C , 21-H ) :   0.8737 B(  8-C ,  9-O ) :   2.2072 B( 10-C , 11-C ) :   2.0363
B( 10-C , 12-C ) :   1.1124 B( 11-C , 22-H ) :   0.9033 B( 11-C , 23-H ) :   0.9098
B( 12-C , 24-H ) :   0.9339 B( 12-C , 25-H ) :   0.9222 B( 12-C , 26-H ) :   0.9291

Dispersion correction           -0.028186301
FINAL SINGLE POINT ENERGY      -464.832403582594

DIPOLE MOMENT
-------------

Method             : SCF
Type of density    : Electron Density
Multiplicity       :   1
Irrep              :   0
Energy             :  -464.9185377566461739 Eh
Relativity type    :
Basis              : AO
                                X                 Y                 Z
Electronic contribution:     -2.751185715      -5.671351995      -0.879654100
Nuclear contribution   :      3.277285692       6.655862141       1.215922584
                        -----------------------------------------
Total Dipole Moment    :      0.526099977       0.984510146       0.336268484
                        -----------------------------------------
Magnitude (a.u.)       :      1.165812123
Magnitude (Debye)      :      2.963258923

Rotational constants in cm-1:             0.073137             0.022202             0.019512
Rotational constants in MHz :          2192.588037           665.593467           584.951225

                             ****ORCA TERMINATED NORMALLY****
TOTAL RUN TIME: 0 days 0 hours 0 minutes 17 seconds 277 msec
