                         Program Version 6.0.0  -   RELEASE  -
|  1> ! pbe def2-sv(p) def2/J RI DEFGRID1 loosescf d4 GCP(DFT/SV(P)) printgap
|  2> %output
|  3>     printlevel normal
|  4> end
|  5> * xyz 0 1
|  6> C -2.6156757167 1.5603689049 0.1135511233
|  7> C -1.9672868125 0.186346394 -0.0092580442
|  8> C -0.4561616375 0.1806849678 0.011562178
|  9> C 0.3020146963 1.3355585535 0.1356068777
| 10> C 1.686146768 1.2975466258 0.1515507737
| 11> C 2.3442654403 0.086407445 0.0419978712
| 12> C 1.6129517996 -1.0788460768 -0.0827363401
| 13> C 0.2239131234 -1.0394312655 -0.0984793183
| 14> O -0.4200412118 -2.237475842 -0.2248876101
| 15> H -2.3439679505 2.0358950031 1.05262997
| 16> H -3.6975918645 1.452822483 0.0875097954
| 17> H -2.3182616543 2.2053496849 -0.7094793162
| 18> H -2.304933651 -0.2664652267 -0.9479623972
| 19> H -2.3298825655 -0.4360646202 0.8161908395
| 20> H -0.1907876456 2.2901162303 0.2222938241
| 21> H 2.24682477 2.2145278868 0.2495065974
| 22> H 3.4225786106 0.044491306 0.0531870993
| 23> H 2.0957791511 -2.0398319606 -0.1702258151
| 24> H -1.3800711287 -2.1165472925 -0.2273943929
| 25> *
| 26>
| 27>                          ****END OF INPUT****

CARTESIAN COORDINATES (ANGSTROEM)
---------------------------------
  C     -2.615676    1.560369    0.113551
  C     -1.967287    0.186346   -0.009258
  C     -0.456162    0.180685    0.011562
  C      0.302015    1.335559    0.135607
  C      1.686147    1.297547    0.151551
  C      2.344265    0.086407    0.041998
  C      1.612952   -1.078846   -0.082736
  C      0.223913   -1.039431   -0.098479
  O     -0.420041   -2.237476   -0.224888
  H     -2.343968    2.035895    1.052630
  H     -3.697592    1.452822    0.087510
  H     -2.318262    2.205350   -0.709479
  H     -2.304934   -0.266465   -0.947962
  H     -2.329883   -0.436065    0.816191
  H     -0.190788    2.290116    0.222294
  H      2.246825    2.214528    0.249507
  H      3.422579    0.044491    0.053187
  H      2.095779   -2.039832   -0.170226
  H     -1.380071   -2.116547   -0.227394

 Total Charge           Charge          ....    0
 Multiplicity           Mult            ....    1
 Number of Electrons    NEL             ....   66
 Basis Dimension        Dim             ....  146

ORBITAL ENERGIES
----------------

  NO   OCC          E(Eh)            E(eV)
   0   2.0000     -18.778382      -510.9858
   1   2.0000      -9.945170      -270.6218
   2   2.0000      -9.906500      -269.5696
   3   2.0000      -9.897262      -269.3182
   4   2.0000      -9.887232      -269.0453
   5   2.0000      -9.887002      -269.0390
   6   2.0000      -9.885949      -269.0104
   7   2.0000      -9.880312      -268.8570
   8   2.0000      -9.880065      -268.8502
   9   2.0000      -0.958762       -26.0892
  10   2.0000      -0.770595       -20.9690
  11   2.0000      -0.716408       -19.4945
  12   2.0000      -0.660476       -17.9725
  13   2.0000      -0.649429       -17.6719
  14   2.0000      -0.585354       -15.9283
  15   2.0000      -0.542036       -14.7495
  16   2.0000      -0.523233       -14.2379
  17   2.0000      -0.486851       -13.2479
  18   2.0000      -0.435998       -11.8641
  19   2.0000      -0.420268       -11.4361
  20   2.0000      -0.416363       -11.3298
  21   2.0000      -0.386790       -10.5251
  22   2.0000      -0.379590       -10.3292
  23   2.0000      -0.357846        -9.7375
  24   2.0000      -0.340765        -9.2727
  25   2.0000      -0.333238        -9.0679
  26   2.0000      -0.329851        -8.9757
  27   2.0000      -0.319091        -8.6829
  28   2.0000      -0.300722        -8.1831
  29   2.0000      -0.292531        -7.9602
  30   2.0000      -0.285868        -7.7789
  31   2.0000      -0.220062        -5.9882
  32   2.0000      -0.189674        -5.1613
  33   0.0000      -0.026615        -0.7242
  34   0.0000      -0.015179        -0.4130
  35   0.0000       0.020839         0.5671
  36   0.0000       0.043760         1.1908
  37   0.0000       0.060523         1.6469

MULLIKEN ATOMIC CHARGES
-----------------------
   0 C :   -0.257141
   1 C :   -0.237274
   2 C :    0.040439
   3 C :   -0.163438
   4 C :   -0.037255
   5 C :   -0.043578
   6 C :   -0.126804
   7 C :    0.136432
   8 O :   -0.336686
   9 H :    0.114431
  10 H :    0.105483
  11 H :    0.114158
  12 H :    0.103057
  13 H :    0.103273
  14 H :    0.036963
  15 H :    0.042023
  16 H :    0.050266
  17 H :    0.040823
  18 H :    0.314829
Sum of atomic charges:    0.0000000

LOEWDIN ATOMIC CHARGES
----------------------
   0 C :   -0.335917
   1 C :   -0.235353
   2 C :   -0.087181
   3 C :   -0.124741
   4 C :   -0.148094
   5 C :   -0.120714
   6 C :   -0.148222
   7 C :    0.028274
   8 O :   -0.236985
   9 H :    0.124087
  10 H :    0.123656
  11 H :    0.124022
  12 H :    0.123889
  13 H :    0.124007
  14 H :    0.122559
  15 H :    0.120600
  16 H :    0.123264
  17 H :    0.129050
  18 H :    0.293798

  Mayer bond orders larger than 0.100000
B(  0-C ,  1-C ) :   1.2096 B(  0-C ,  9-H ) :   0.9423 B(  0-C , 10-H ) :   0.9446
B(  0-C , 11-H ) :   0.9426 B(  1-C ,  2-C ) :   1.0274 B(  1-C , 12-H ) :   0.8980
B(  1-C , 13-H ) :   0.8980 B(  2-C ,  3-C ) :   1.4196 B(  2-C ,  7-C ) :   1.3083
B(  3-C ,  4-C ) :   1.3419 B(  3-C , 14-H ) :   0.9508 B(  4-C ,  5-C ) :   1.3611
B(  4-C , 15-H ) :   0.9645 B(  5-C ,  6-C ) :   1.3639 B(  5-C , 16-H ) :   0.9674
B(  6-C ,  7-C ) :   1.3771 B(  6-C , 17-H ) :   0.9606 B(  7-C ,  8-O ) :   1.2316
B(  8-O , 18-H ) :   0.8297

Dispersion correction           -0.018996876
FINAL SINGLE POINT ENERGY      -385.234875214799

DIPOLE MOMENT
-------------

Method             : SCF
Type of density    : Electron Density
Multiplicity       :   1
Irrep              :   0
Energy             :  -385.2951797258603506 Eh
Relativity type    :
Basis              : AO
                                X                 Y                 Z
Electronic contribution:      5.671158453      -4.815929572      -0.387363188
Nuclear contribution   :     -6.386066884       5.018216226       0.396567391
                        -----------------------------------------
Total Dipole Moment    :     -0.714908432       0.202286653       0.009204203
                        -----------------------------------------
Magnitude (a.u.)       :      0.743033426
Magnitude (Debye)      :      1.888640877

Rotational constants in cm-1:             0.083482             0.049363             0.031386
Rotational constants in MHz :          2502.718960          1479.863039           940.923517

                             ****ORCA TERMINATED NORMALLY****
TOTAL RUN TIME: 0 days 0 hours 0 minutes 8 seconds 903 msec
