                         Program Version 6.0.0  -   RELEASE  -
|  1> ! wb97x-v def2-tzvp def2/J RIJCOSX DEFGRID2 scfconv7 GCP(DFT/TZ) printgap
|  2> %output
|  3>     printlevel normal
|  4> end
|  5> * xyz 0 1
|  6> C -3.6964795672925823 -0.27311022775234817 0.1262490822490003
|  7> C -2.215115458204499 -0.29661971827138667 -0.23385887105018077
|  8> H -2.1128967658570397 -0.5680459588127632 -1.2946094761655378
|  9> C -1.43712260272721 -1.3197781618157067 0.5929703434752491
| 10> C 0.04565344348479522 -1.3171921718894277 0.231259328698307
| 11> C 0.6874251776713927 0.07092832480715004 0.45419190300967455
| 12> H 0.5159746740482154 0.3233911417739766 1.5142113515771347
| 13> C -0.11110094866017416 1.1099975316595319 -0.30453409694620465
| 14> O 0.4017503588784683 1.9215047185135947 -1.0709018983500802
| 15> C -1.5950540504862838 1.1020892769439712 -0.04587983651553471
| 16> C 2.201054207229106 0.13322177006708702 0.18798067245516178
| 17> C 2.9824252603323944 -0.5515212210392911 1.3109614740515718
| 18> C 2.598126667925181 -0.45049948573899756 -1.1705964541719969
| 19> H -3.8290785467645954 -0.007161983256992356 1.1817733217507542
| 20> H -4.241120815147515 0.4600635878196053 -0.4782250458906711
| 21> H -4.153733406761942 -1.2547980438815378 -0.037492093267359076
| 22> H -1.5604315548350691 -1.0868069389929818 1.660437046603568
| 23> H -1.8577426609685377 -2.3189322588313677 0.4283576881386745
| 24> H 0.587759259242652 -2.0575772303657036 0.8284032927753081
| 25> H 0.15898423815160123 -1.604563203989814 -0.8210640156646211
| 26> H -1.7434833741649491 1.403471121288018 1.0020568465546562
| 27> H -2.0775870615091288 1.8443020560323504 -0.6886594311385531
| 28> H 2.4757898248453825 1.1957282849586641 0.1913474007214912
| 29> H 2.7584157625870733 -1.6232343392512858 1.3584895533274195
| 30> H 2.745699907125236 -0.11231627681741894 2.2862926726677664
| 31> H 4.060427285661785 -0.44770252261197857 1.1466129167444348
| 32> H 3.6535381269113096 -0.24152720130439115 -1.3757549853944686
| 33> H 2.006315015476347 -0.028159721823117455 -1.9885726926797846
| 34> H 2.4705336357468046 -1.5384881191721878 -1.185978671354684
| 35> *
| 36>
| 37>                          ****END OF INPUT****

CARTESIAN COORDINATES (ANGSTROEM)
---------------------------------
  C     -3.696480   -0.273110    0.126249
  C     -2.215115   -0.296620   -0.233859
  H     -2.112897   -0.568046   -1.294609
  C     -1.437123   -1.319778    0.592970
  C      0.045653   -1.317192    0.231259
  C      0.687425    0.070928    0.454192
  H      0.515975    0.323391    1.514211
  C     -0.111101    1.109998   -0.304534
  O      0.401750    1.921505   -1.070902
  C     -1.595054    1.102089   -0.045880
  C      2.201054    0.133222    0.187981
  C      2.982425   -0.551521    1.310961
  C      2.598127   -0.450499   -1.170596
  H     -3.829079   -0.007162    1.181773
  H     -4.241121    0.460064   -0.478225
  H     -4.153733   -1.254798   -0.037492
  H     -1.560432   -1.086807    1.660437
  H     -1.857743   -2.318932    0.428358
  H      0.587759   -2.057577    0.828403
  H      0.158984   -1.604563   -0.821064
  H     -1.743483    1.403471    1.002057
  H     -2.077587    1.844302   -0.688659
  H      2.475790    1.195728    0.191347
  H      2.758416   -1.623234    1.358490
  H      2.745700   -0.112316    2.286293
  H      4.060427   -0.447703    1.146613
  H      3.653538   -0.241527   -1.375755
  H      2.006315   -0.028160   -1.988573
  H      2.470534   -1.538488   -1.185979

 Total Charge           Charge          ....    0
 Multiplicity           Mult            ....    1
 Number of Electrons    NEL             ....   86
 Basis Dimension        Dim             ....  449

ORBITAL ENERGIES
----------------

  NO   OCC          E(Eh)            E(eV)
   0   2.0000     -21.656210      -589.2954
   1   2.0000     -12.131094      -330.1039
   2   2.0000     -12.062420      -328.2351
   3   2.0000     -12.057355      -328.0973
   4   2.0000     -12.053566      -327.9942
   5   2.0000     -12.051074      -327.9264
   6   2.0000     -12.050379      -327.9075
   7   2.0000     -12.047881      -327.8395
   8   2.0000     -12.042612      -327.6961
   9   2.0000     -12.033940      -327.4602
  10   2.0000     -12.027361      -327.2811
  11   2.0000      -1.698205       -46.2105
  12   2.0000      -1.361977       -37.0613
  13   2.0000      -1.318402       -35.8755
  14   2.0000      -1.261698       -34.3326
  15   2.0000      -1.249866       -34.0106
  16   2.0000      -1.188662       -32.3451
  17   2.0000      -1.173230       -31.9252
  18   2.0000      -1.114850       -30.3366
  19   2.0000      -1.092899       -29.7393
  20   2.0000      -1.045249       -28.4427
  21   2.0000      -1.035453       -28.1761
  22   2.0000      -0.961059       -26.1518
  23   2.0000      -0.959159       -26.1000
  24   2.0000      -0.911416       -24.8009
  25   2.0000      -0.905084       -24.6286
  26   2.0000      -0.897350       -24.4181
  27   2.0000      -0.872053       -23.7298
  28   2.0000      -0.867854       -23.6155
  29   2.0000      -0.856361       -23.3028
  30   2.0000      -0.852633       -23.2013
  31   2.0000      -0.841452       -22.8971
  32   2.0000      -0.824860       -22.4456
  33   2.0000      -0.822154       -22.3720
  34   2.0000      -0.807948       -21.9854
  35   2.0000      -0.804028       -21.8787
  36   2.0000      -0.796560       -21.6755
  37   2.0000      -0.783381       -21.3169
  38   2.0000      -0.777162       -21.1477
  39   2.0000      -0.768015       -20.8987
  40   2.0000      -0.757956       -20.6250
  41   2.0000      -0.752772       -20.4840
  42   2.0000      -0.748326       -20.3630
  43   0.0000      -0.308891        -8.4054
  44   0.0000      -0.068611        -1.8670
  45   0.0000      -0.064657        -1.7594
  46   0.0000      -0.049221        -1.3394
  47   0.0000      -0.045671        -1.2428

MULLIKEN ATOMIC CHARGES
-----------------------
   0 C :   -0.339946
   1 C :   -0.036734
   2 H :    0.080987
   3 C :   -0.201879
   4 C :   -0.252337
   5 C :   -0.032205
   6 H :    0.084349
   7 C :    0.138361
   8 O :   -0.311798
   9 C :   -0.188550
  10 C :    0.060631
  11 C :   -0.358956
  12 C :   -0.412315
  13 H :    0.105468
  14 H :    0.119191
  15 H :    0.115255
  16 H :    0.093230
  17 H :    0.107377
  18 H :    0.112022
  19 H :    0.122053
  20 H :    0.108228
  21 H :    0.117016
  22 H :    0.083360
  23 H :    0.101425
  24 H :    0.109314
  25 H :    0.117529
  26 H :    0.114238
  27 H :    0.136898
  28 H :    0.107788
Sum of atomic charges:   -0.0000000

LOEWDIN ATOMIC CHARGES
----------------------
   0 C :   -0.277487
   1 C :   -0.275318
   2 H :    0.151976
   3 C :   -0.234635
   4 C :   -0.218272
   5 C :   -0.201017
   6 H :    0.169271
   7 C :   -0.278317
   8 O :    0.109572
   9 C :   -0.189928
  10 C :   -0.278156
  11 C :   -0.280155
  12 C :   -0.278698
  13 H :    0.119792
  14 H :    0.120921
  15 H :    0.119953
  16 H :    0.137473
  17 H :    0.137264
  18 H :    0.136926
  19 H :    0.142358
  20 H :    0.151881
  21 H :    0.145750
  22 H :    0.157154
  23 H :    0.115097
  24 H :    0.116852
  25 H :    0.120421
  26 H :    0.119878
  27 H :    0.123575
  28 H :    0.115870

  Mayer bond orders larger than 0.100000
B(  0-C ,  1-C ) :   0.9737 B(  0-C , 13-H ) :   0.9726 B(  0-C , 14-H ) :   0.9863
B(  0-C , 15-H ) :   0.9851 B(  1-C ,  2-H ) :   0.9691 B(  1-C ,  3-C ) :   0.9773
B(  1-C ,  9-C ) :   0.9524 B(  3-C ,  4-C ) :   0.9979 B(  3-C , 16-H ) :   0.9675
B(  3-C , 17-H ) :   0.9696 B(  4-C ,  5-C ) :   0.9338 B(  4-C , 18-H ) :   0.9746
B(  4-C , 19-H ) :   0.9717 B(  5-C ,  6-H ) :   0.9419 B(  5-C ,  7-C ) :   0.9286
B(  5-C , 10-C ) :   0.9521 B(  7-C ,  8-O ) :   2.1588 B(  7-C ,  9-C ) :   1.0271
B(  9-C , 20-H ) :   0.9506 B(  9-C , 21-H ) :   0.9526 B( 10-C , 11-C ) :   0.9577
B( 10-C , 12-C ) :   0.9511 B( 10-C , 22-H ) :   0.9694 B( 11-C , 23-H ) :   0.9748
B( 11-C , 24-H ) :   0.9846 B( 11-C , 25-H ) :   0.9879 B( 12-C , 26-H ) :   0.9807
B( 12-C , 27-H ) :   0.9830 B( 12-C , 28-H ) :   0.9746

FINAL SINGLE POINT ENERGY      -467.175032772478

DIPOLE MOMENT
-------------

Method             : SCF
Type of density    : Electron Density
Multiplicity       :   1
Irrep              :   0
Energy             :  -467.1955588325783992 Eh
Relativity type    :
Basis              : AO
                                X                 Y                 Z
Electronic contribution:     -0.425259626       6.486215007      -2.751084481
Nuclear contribution   :     -0.105483111      -7.323376544       3.435131602
                        -----------------------------------------
Total Dipole Moment    :     -0.530742737      -0.837161537       0.684047121
                        -----------------------------------------
Magnitude (a.u.)       :      1.204345364
Magnitude (Debye)      :      3.061202638

Rotational constants in cm-1:             0.065139             0.023183             0.019631
Rotational constants in MHz :          1952.825813           695.006990           588.514057

                             ****ORCA TERMINATED NORMALLY****
TOTAL RUN TIME: 0 days 0 hours 5 minutes 52 seconds 816 msec
