                         Program Version 6.0.0  -   RELEASE  -
|  1> ! wb97x-v def2-tzvp def2/J RIJCOSX DEFGRID2 scfconv7 GCP(DFT/TZ) printgap
|  2> %output
|  3>     printlevel normal
|  4> end
|  5> %cpcm
|  6>     smd true
|  7>     smdsolvent "water"
|  8> end
|  9> * xyz 0 1
| 10> C -3.6964795672925823 -0.27311022775234817 0.1262490822490003
| 11> C -2.215115458204499 -0.29661971827138667 -0.23385887105018077
| 12> H -2.1128967658570397 -0.5680459588127632 -1.2946094761655378
| 13> C -1.43712260272721 -1.3197781618157067 0.5929703434752491
| 14> C 0.04565344348479522 -1.3171921718894277 0.231259328698307
| 15> C 0.6874251776713927 0.07092832480715004 0.45419190300967455
| 16> H 0.5159746740482154 0.3233911417739766 1.5142113515771347
| 17> C -0.11110094866017416 1.1099975316595319 -0.30453409694620465
| 18> O 0.4017503588784683 1.9215047185135947 -1.0709018983500802
| 19> C -1.5950540504862838 1.1020892769439712 -0.04587983651553471
| 20> C 2.201054207229106 0.13322177006708702 0.18798067245516178
| 21> C 2.9824252603323944 -0.5515212210392911 1.3109614740515718
| 22> C 2.598126667925181 -0.45049948573899756 -1.1705964541719969
| 23> H -3.8290785467645954 -0.007161983256992356 1.1817733217507542
| 24> H -4.241120815147515 0.4600635878196053 -0.4782250458906711
| 25> H -4.153733406761942 -1.2547980438815378 -0.037492093267359076
| 26> H -1.5604315548350691 -1.0868069389929818 1.660437046603568
| 27> H -1.8577426609685377 -2.3189322588313677 0.4283576881386745
| 28> H 0.587759259242652 -2.0575772303657036 0.8284032927753081
| 29> H 0.15898423815160123 -1.604563203989814 -0.8210640156646211
| 30> H -1.7434833741649491 1.403471121288018 1.0020568465546562
| 31> H -2.0775870615091288 1.8443020560323504 -0.6886594311385531
| 32> H 2.4757898248453825 1.1957282849586641 0.1913474007214912
| 33> H 2.7584157625870733 -1.6232343392512858 1.3584895533274195
| 34> H 2.745699907125236 -0.11231627681741894 2.2862926726677664
| 35> H 4.060427285661785 -0.44770252261197857 1.1466129167444348
| 36> H 3.6535381269113096 -0.24152720130439115 -1.3757549853944686
| 37> H 2.006315015476347 -0.028159721823117455 -1.9885726926797846
| 38> H 2.4705336357468046 -1.5384881191721878 -1.185978671354684
| 39> *
| 40>
| 41>                          ****END OF INPUT****

CARTESIAN COORDINATES (ANGSTROEM)
---------------------------------
  C     -3.696480   -0.273110    0.126249
  C     -2.215115   -0.296620   -0.233859
  H     -2.112897   -0.568046   -1.294609
  C     -1.437123   -1.319778    0.592970
  C      0.045653   -1.317192    0.231259
  C      0.687425    0.070928    0.454192
  H      0.515975    0.323391    1.514211
  C     -0.111101    1.109998   -0.304534
  O      0.401750    1.921505   -1.070902
  C     -1.595054    1.102089   -0.045880
  C      2.201054    0.133222    0.187981
  C      2.982425   -0.551521    1.310961
  C      2.598127   -0.450499   -1.170596
  H     -3.829079   -0.007162    1.181773
  H     -4.241121    0.460064   -0.478225
  H     -4.153733   -1.254798   -0.037492
  H     -1.560432   -1.086807    1.660437
  H     -1.857743   -2.318932    0.428358
  H      0.587759   -2.057577    0.828403
  H      0.158984   -1.604563   -0.821064
  H     -1.743483    1.403471    1.002057
  H     -2.077587    1.844302   -0.688659
  H      2.475790    1.195728    0.191347
  H      2.758416   -1.623234    1.358490
  H      2.745700   -0.112316    2.286293
  H      4.060427   -0.447703    1.146613
  H      3.653538   -0.241527   -1.375755
  H      2.006315   -0.028160   -1.988573
  H      2.470534   -1.538488   -1.185979

 Total Charge           Charge          ....    0
 Multiplicity           Mult            ....    1
 Number of Electrons    NEL             ....   86
 Basis Dimension        Dim             ....  449

ORBITAL ENERGIES
----------------

  NO   OCC          E(Eh)            E(eV)
   0   2.0000     -21.666475      -589.5747
   1   2.0000     -12.137956      -330.2906
   2   2.0000     -12.047485      -327.8287
   3   2.0000     -12.047240      -327.8221
   4   2.0000     -12.041889      -327.6765
   5   2.0000     -12.040510      -327.6389
   6   2.0000     -12.037806      -327.5653
   7   2.0000     -12.032167      -327.4119
   8   2.0000     -12.025873      -327.2406
   9   2.0000     -12.023468      -327.1752
  10   2.0000     -12.022275      -327.1427
  11   2.0000      -1.711819       -46.5810
  12   2.0000      -1.350235       -36.7418
  13   2.0000      -1.308031       -35.5933
  14   2.0000      -1.249531       -34.0015
  15   2.0000      -1.241397       -33.7801
  16   2.0000      -1.176058       -32.0022
  17   2.0000      -1.166401       -31.7394
  18   2.0000      -1.104191       -30.0466
  19   2.0000      -1.095412       -29.8077
  20   2.0000      -1.037499       -28.2318
  21   2.0000      -1.030207       -28.0334
  22   2.0000      -0.962461       -26.1899
  23   2.0000      -0.953192       -25.9377
  24   2.0000      -0.916638       -24.9430
  25   2.0000      -0.894430       -24.3387
  26   2.0000      -0.886962       -24.1355
  27   2.0000      -0.864684       -23.5292
  28   2.0000      -0.855228       -23.2719
  29   2.0000      -0.848511       -23.0892
  30   2.0000      -0.843046       -22.9404
  31   2.0000      -0.831697       -22.6316
  32   2.0000      -0.815696       -22.1962
  33   2.0000      -0.808305       -21.9951
  34   2.0000      -0.795784       -21.6544
  35   2.0000      -0.793246       -21.5853
  36   2.0000      -0.786822       -21.4105
  37   2.0000      -0.773201       -21.0399
  38   2.0000      -0.766723       -20.8636
  39   2.0000      -0.756692       -20.5906
  40   2.0000      -0.749232       -20.3877
  41   2.0000      -0.740490       -20.1498
  42   2.0000      -0.736768       -20.0485
  43   0.0000      -0.306686        -8.3453
  44   0.0000      -0.061309        -1.6683
  45   0.0000      -0.055943        -1.5223
  46   0.0000      -0.035226        -0.9586
  47   0.0000      -0.032059        -0.8724

MULLIKEN ATOMIC CHARGES
-----------------------
   0 C :   -0.403666
   1 C :   -0.011133
   2 H :    0.088600
   3 C :   -0.226067
   4 C :   -0.266681
   5 C :   -0.025431
   6 H :    0.118965
   7 C :    0.222570
   8 O :   -0.452446
   9 C :   -0.212001
  10 C :    0.053294
  11 C :   -0.423610
  12 C :   -0.447788
  13 H :    0.123365
  14 H :    0.132169
  15 H :    0.131422
  16 H :    0.107363
  17 H :    0.120074
  18 H :    0.131307
  19 H :    0.130052
  20 H :    0.138301
  21 H :    0.120385
  22 H :    0.076238
  23 H :    0.124447
  24 H :    0.128744
  25 H :    0.131604
  26 H :    0.132519
  27 H :    0.127547
  28 H :    0.129856
Sum of atomic charges:   -0.0000000

LOEWDIN ATOMIC CHARGES
----------------------
   0 C :   -0.282868
   1 C :   -0.270750
   2 H :    0.155001
   3 C :   -0.233405
   4 C :   -0.214981
   5 C :   -0.194339
   6 H :    0.182121
   7 C :   -0.256639
   8 O :    0.031543
   9 C :   -0.186788
  10 C :   -0.281024
  11 C :   -0.283941
  12 C :   -0.286886
  13 H :    0.123008
  14 H :    0.122361
  15 H :    0.122423
  16 H :    0.141827
  17 H :    0.140154
  18 H :    0.141914
  19 H :    0.144893
  20 H :    0.164147
  21 H :    0.145427
  22 H :    0.152033
  23 H :    0.120251
  24 H :    0.120997
  25 H :    0.121562
  26 H :    0.121438
  27 H :    0.118988
  28 H :    0.121534

  Mayer bond orders larger than 0.100000
B(  0-C ,  1-C ) :   0.9536 B(  0-C , 13-H ) :   0.9737 B(  0-C , 14-H ) :   0.9838
B(  0-C , 15-H ) :   0.9829 B(  1-C ,  2-H ) :   0.9682 B(  1-C ,  3-C ) :   0.9861
B(  1-C ,  9-C ) :   0.9506 B(  3-C ,  4-C ) :   1.0029 B(  3-C , 16-H ) :   0.9644
B(  3-C , 17-H ) :   0.9662 B(  4-C ,  5-C ) :   0.9339 B(  4-C , 18-H ) :   0.9711
B(  4-C , 19-H ) :   0.9678 B(  5-C ,  6-H ) :   0.9316 B(  5-C ,  7-C ) :   0.9481
B(  5-C , 10-C ) :   0.9369 B(  7-C ,  8-O ) :   1.9951 B(  7-C ,  9-C ) :   1.0547
B(  9-C , 20-H ) :   0.9349 B(  9-C , 21-H ) :   0.9526 B( 10-C , 11-C ) :   0.9610
B( 10-C , 12-C ) :   0.9418 B( 10-C , 22-H ) :   0.9755 B( 11-C , 23-H ) :   0.9746
B( 11-C , 24-H ) :   0.9815 B( 11-C , 25-H ) :   0.9850 B( 12-C , 26-H ) :   0.9794
B( 12-C , 27-H ) :   0.9828 B( 12-C , 28-H ) :   0.9730

FINAL SINGLE POINT ENERGY      -467.181179660945

DIPOLE MOMENT
-------------

Method             : SCF
Type of density    : Electron Density
Multiplicity       :   1
Irrep              :   0
Energy             :  -467.2017057210453004 Eh
Relativity type    :
Basis              : AO
                                X                 Y                 Z
Electronic contribution:     -0.660490160       6.049602198      -2.313377683
Nuclear contribution   :     -0.105483111      -7.323376544       3.435131602
                        -----------------------------------------
Total Dipole Moment    :     -0.765973271      -1.273774347       1.121753918
                        -----------------------------------------
Magnitude (a.u.)       :      1.862135331
Magnitude (Debye)      :      4.733171861

Rotational constants in cm-1:             0.065139             0.023183             0.019631
Rotational constants in MHz :          1952.825813           695.006990           588.514057

                             ****ORCA TERMINATED NORMALLY****
TOTAL RUN TIME: 0 days 0 hours 6 minutes 4 seconds 617 msec
