                         Program Version 6.0.0  -   RELEASE  -
|  1> ! pbe def2-sv(p) def2/J RI DEFGRID1 loosescf d4 GCP(DFT/SV(P)) printgap
|  2> %output
|  3>     printlevel normal
|  4> end
|  5> * xyz 0 1
|  6> C -1.319727253 -1.4874207601 -8.18064e-05
|  7> C 0.0354292818 -1.7640872698 -0.0001648
|  8> C 0.9600382758 -0.7304144224 -0.0002448663
|  9> C 0.5231964481 0.590706076 -3.02773e-05
| 10> C -0.8324233978 0.8783440289 0.000225077
| 11> C -1.7425926069 -0.1669338314 8.3971e-05
| 12> Cl -3.4336879968 0.194809401 5.6883e-06
| 13> Cl 1.6660457669 1.8878719699 -6.93272e-05
| 14> Cl 2.6528332657 -1.0846959853 0.0001176402
| 15> H -2.0391236099 -2.2890148499 5.59871e-05
| 16> H 0.3831806634 -2.783573929 0.0002010227
| 17> H -1.165812368 1.902690839 0.0003781542
| 18> *
| 19>
| 20>                          ****END OF INPUT****

CARTESIAN COORDINATES (ANGSTROEM)
---------------------------------
  C     -1.319727   -1.487421   -0.000082
  C      0.035429   -1.764087   -0.000165
  C      0.960038   -0.730414   -0.000245
  C      0.523196    0.590706   -0.000030
  C     -0.832423    0.878344    0.000225
  C     -1.742593   -0.166934    0.000084
  Cl    -3.433688    0.194809    0.000006
  Cl     1.666046    1.887872   -0.000069
  Cl     2.652833   -1.084696    0.000118
  H     -2.039124   -2.289015    0.000056
  H      0.383181   -2.783574    0.000201
  H     -1.165812    1.902691    0.000378

 Total Charge           Charge          ....    0
 Multiplicity           Mult            ....    1
 Number of Electrons    NEL             ....   90
 Basis Dimension        Dim             ....  144

ORBITAL ENERGIES
----------------

  NO   OCC          E(Eh)            E(eV)
   0   2.0000    -100.654364     -2738.9445
   1   2.0000    -100.652360     -2738.8900
   2   2.0000    -100.652111     -2738.8832
   3   2.0000      -9.971713      -271.3441
   4   2.0000      -9.969437      -271.2822
   5   2.0000      -9.969196      -271.2756
   6   2.0000      -9.925922      -270.0981
   7   2.0000      -9.922976      -270.0179
   8   2.0000      -9.922904      -270.0159
   9   2.0000      -9.190087      -250.0750
  10   2.0000      -9.188174      -250.0229
  11   2.0000      -9.188114      -250.0213
  12   2.0000      -7.021713      -191.0705
  13   2.0000      -7.019765      -191.0175
  14   2.0000      -7.019507      -191.0105
  15   2.0000      -7.010112      -190.7548
  16   2.0000      -7.009204      -190.7301
  17   2.0000      -7.008164      -190.7018
  18   2.0000      -7.008091      -190.6999
  19   2.0000      -7.007445      -190.6823
  20   2.0000      -7.007329      -190.6791
  21   2.0000      -0.851486       -23.1701
  22   2.0000      -0.816891       -22.2287
  23   2.0000      -0.791357       -21.5339
  24   2.0000      -0.756472       -20.5847
  25   2.0000      -0.690388       -18.7864
  26   2.0000      -0.656948       -17.8765
  27   2.0000      -0.579342       -15.7647
  28   2.0000      -0.547751       -14.9051
  29   2.0000      -0.484226       -13.1764
  30   2.0000      -0.463769       -12.6198
  31   2.0000      -0.433436       -11.7944
  32   2.0000      -0.411372       -11.1940
  33   2.0000      -0.410117       -11.1599
  34   2.0000      -0.394630       -10.7384
  35   2.0000      -0.359325        -9.7777
  36   2.0000      -0.353906        -9.6303
  37   2.0000      -0.342844        -9.3293
  38   2.0000      -0.314990        -8.5713
  39   2.0000      -0.292648        -7.9634
  40   2.0000      -0.282367        -7.6836
  41   2.0000      -0.279324        -7.6008
  42   2.0000      -0.268305        -7.3009
  43   2.0000      -0.243258        -6.6194
  44   2.0000      -0.220560        -6.0017
  45   0.0000      -0.065184        -1.7737
  46   0.0000      -0.060591        -1.6488
  47   0.0000      -0.029860        -0.8125
  48   0.0000       0.014930         0.4063
  49   0.0000       0.044444         1.2094

MULLIKEN ATOMIC CHARGES
-----------------------
   0 C :   -0.063008
   1 C :   -0.111519
   2 C :    0.091946
   3 C :    0.068979
   4 C :   -0.112691
   5 C :    0.116986
   6 Cl:   -0.072128
   7 Cl:   -0.046427
   8 Cl:   -0.050924
   9 H :    0.061240
  10 H :    0.063452
  11 H :    0.054094
Sum of atomic charges:    0.0000000

LOEWDIN ATOMIC CHARGES
----------------------
   0 C :   -0.138363
   1 C :   -0.125622
   2 C :   -0.159663
   3 C :   -0.148579
   4 C :   -0.150197
   5 C :   -0.132993
   6 Cl:    0.139267
   7 Cl:    0.152444
   8 Cl:    0.146994
   9 H :    0.136886
  10 H :    0.138805
  11 H :    0.141021

  Mayer bond orders larger than 0.100000
B(  0-C ,  1-C ) :   1.3428 B(  0-C ,  5-C ) :   1.3706 B(  0-C ,  9-H ) :   0.9663
B(  1-C ,  2-C ) :   1.3783 B(  1-C , 10-H ) :   0.9624 B(  2-C ,  3-C ) :   1.4051
B(  2-C ,  8-Cl) :   1.0415 B(  3-C ,  4-C ) :   1.3666 B(  3-C ,  7-Cl) :   1.0379
B(  4-C ,  5-C ) :   1.3416 B(  4-C , 11-H ) :   0.9697 B(  5-C ,  6-Cl) :   0.9709

Dispersion correction           -0.018247442
FINAL SINGLE POINT ENERGY     -1609.562268712172

DIPOLE MOMENT
-------------

Method             : SCF
Type of density    : Electron Density
Multiplicity       :   1
Irrep              :   0
Energy             : -1609.5826112645399917 Eh
Relativity type    :
Basis              : AO
                                X                 Y                 Z
Electronic contribution:      3.604167837       3.979354825      -0.000369565
Nuclear contribution   :     -3.835419229      -4.313432472       0.000523415
                        -----------------------------------------
Total Dipole Moment    :     -0.231251392      -0.334077648       0.000153850
                        -----------------------------------------
Magnitude (a.u.)       :      0.406306663
Magnitude (Debye)      :      1.032749464

Rotational constants in cm-1:             0.062365             0.019793             0.015024
Rotational constants in MHz :          1869.646249           593.374261           450.422545

                             ****ORCA TERMINATED NORMALLY****
TOTAL RUN TIME: 0 days 0 hours 0 minutes 5 seconds 691 msec
