                         Program Version 6.0.0  -   RELEASE  -
|  1> ! wb97x-v def2-tzvp def2/J RIJCOSX DEFGRID2 scfconv7 GCP(DFT/TZ) printgap
|  2> %output
|  3>     printlevel normal
|  4> end
|  5> * xyz 0 1
|  6> C 1.8452759194462216 0.9772029346266031 -0.22543012377140723
|  7> C 0.9750815974254048 -0.11048002747009657 0.3995871356454035
|  8> C -0.3743774392592945 -0.27966345146178373 -0.2934659075869648
|  9> H -0.20172861438215178 -0.485078192835868 -1.3619117149475923
| 10> C -1.2785649718308556 0.928928740366708 -0.1571141018438419
| 11> O -1.094913887156832 -1.399048406884255 0.28375928342477513
| 12> H 1.9803731892452296 0.8035626775626634 -1.2989354530517754
| 13> H 2.8365758930081078 0.9923772313915392 0.237187489412239
| 14> H 1.405060197755796 1.970681129402292 -0.09730774308385019
| 15> H 0.7977574071226243 0.10652940303815076 1.4609806543465138
| 16> H 1.504668459013885 -1.0711760137586792 0.3501521867215708
| 17> H -2.2578518966755627 0.7262691943686568 -0.6013425156091274
| 18> H -1.4186628489692317 1.187482774198995 0.8985397425642794
| 19> H -0.8485428246998084 1.7923147868116223 -0.6712821696260076
| 20> H -0.5191802850192192 -2.1723052434151784 0.21811225900995684
| 21> *
| 22>
| 23>                          ****END OF INPUT****

CARTESIAN COORDINATES (ANGSTROEM)
---------------------------------
  C      1.845276    0.977203   -0.225430
  C      0.975082   -0.110480    0.399587
  C     -0.374377   -0.279663   -0.293466
  H     -0.201729   -0.485078   -1.361912
  C     -1.278565    0.928929   -0.157114
  O     -1.094914   -1.399048    0.283759
  H      1.980373    0.803563   -1.298935
  H      2.836576    0.992377    0.237187
  H      1.405060    1.970681   -0.097308
  H      0.797757    0.106529    1.460981
  H      1.504668   -1.071176    0.350152
  H     -2.257852    0.726269   -0.601343
  H     -1.418663    1.187483    0.898540
  H     -0.848543    1.792315   -0.671282
  H     -0.519180   -2.172305    0.218112

 Total Charge           Charge          ....    0
 Multiplicity           Mult            ....    1
 Number of Electrons    NEL             ....   42
 Basis Dimension        Dim             ....  215

ORBITAL ENERGIES
----------------

  NO   OCC          E(Eh)            E(eV)
   0   2.0000     -21.664285      -589.5152
   1   2.0000     -12.095220      -329.1277
   2   2.0000     -12.044911      -327.7587
   3   2.0000     -12.040224      -327.6312
   4   2.0000     -12.032112      -327.4104
   5   2.0000      -1.661990       -45.2251
   6   2.0000      -1.307615       -35.5820
   7   2.0000      -1.231997       -33.5243
   8   2.0000      -1.137273       -30.9468
   9   2.0000      -1.082472       -29.4556
  10   2.0000      -1.011490       -27.5241
  11   2.0000      -0.939811       -25.5736
  12   2.0000      -0.926671       -25.2160
  13   2.0000      -0.877992       -23.8914
  14   2.0000      -0.849236       -23.1089
  15   2.0000      -0.830223       -22.5915
  16   2.0000      -0.824342       -22.4315
  17   2.0000      -0.810222       -22.0473
  18   2.0000      -0.796975       -21.6868
  19   2.0000      -0.766889       -20.8681
  20   2.0000      -0.751819       -20.4580
  21   0.0000      -0.148454        -4.0396
  22   0.0000      -0.052392        -1.4257
  23   0.0000      -0.015316        -0.4168
  24   0.0000      -0.005856        -0.1593
  25   0.0000      -0.002400        -0.0653

MULLIKEN ATOMIC CHARGES
-----------------------
   0 C :   -0.374283
   1 C :   -0.170300
   2 C :    0.114749
   3 H :    0.064568
   4 C :   -0.347155
   5 O :   -0.444805
   6 H :    0.105799
   7 H :    0.118275
   8 H :    0.118086
   9 H :    0.103064
  10 H :    0.078430
  11 H :    0.122957
  12 H :    0.108266
  13 H :    0.111435
  14 H :    0.290912
Sum of atomic charges:   -0.0000000

LOEWDIN ATOMIC CHARGES
----------------------
   0 C :   -0.304421
   1 C :   -0.281699
   2 C :   -0.366093
   3 H :    0.128524
   4 C :   -0.280844
   5 O :   -0.041955
   6 H :    0.117326
   7 H :    0.117992
   8 H :    0.116668
   9 H :    0.135857
  10 H :    0.128769
  11 H :    0.123683
  12 H :    0.122622
  13 H :    0.120206
  14 H :    0.163364

  Mayer bond orders larger than 0.100000
B(  0-C ,  1-C ) :   0.9643 B(  0-C ,  6-H ) :   0.9758 B(  0-C ,  7-H ) :   0.9790
B(  0-C ,  8-H ) :   0.9848 B(  1-C ,  2-C ) :   0.9739 B(  1-C ,  9-H ) :   0.9741
B(  1-C , 10-H ) :   0.9721 B(  2-C ,  3-H ) :   0.9766 B(  2-C ,  4-C ) :   0.9649
B(  2-C ,  5-O ) :   1.0199 B(  4-C , 11-H ) :   0.9782 B(  4-C , 12-H ) :   0.9738
B(  4-C , 13-H ) :   0.9786 B(  5-O , 14-H ) :   0.9077

FINAL SINGLE POINT ENERGY      -233.680715408766

DIPOLE MOMENT
-------------

Method             : SCF
Type of density    : Electron Density
Multiplicity       :   1
Irrep              :   0
Energy             :  -233.6913448044659276 Eh
Relativity type    :
Basis              : AO
                                X                 Y                 Z
Electronic contribution:     -2.442555283      -3.589566806       0.615365841
Nuclear contribution   :      3.083803023       3.629096824      -0.852074285
                        -----------------------------------------
Total Dipole Moment    :      0.641247740       0.039530018      -0.236708444
                        -----------------------------------------
Magnitude (a.u.)       :      0.684683996
Magnitude (Debye)      :      1.740328412

Rotational constants in cm-1:             0.256385             0.115304             0.087887
Rotational constants in MHz :          7686.234459          3456.714387          2634.771037

                             ****ORCA TERMINATED NORMALLY****
TOTAL RUN TIME: 0 days 0 hours 1 minutes 1 seconds 429 msec
