                         Program Version 6.0.0  -   RELEASE  -
|  1> ! wb97x-v def2-tzvp def2/J RIJCOSX DEFGRID2 scfconv7 GCP(DFT/TZ) printgap
|  2> %output
|  3>     printlevel normal
|  4> end
|  5> %cpcm
|  6>     smd true
|  7>     smdsolvent "water"
|  8> end
|  9> * xyz 0 1
| 10> C 1.8452759194462216 0.9772029346266031 -0.22543012377140723
| 11> C 0.9750815974254048 -0.11048002747009657 0.3995871356454035
| 12> C -0.3743774392592945 -0.27966345146178373 -0.2934659075869648
| 13> H -0.20172861438215178 -0.485078192835868 -1.3619117149475923
| 14> C -1.2785649718308556 0.928928740366708 -0.1571141018438419
| 15> O -1.094913887156832 -1.399048406884255 0.28375928342477513
| 16> H 1.9803731892452296 0.8035626775626634 -1.2989354530517754
| 17> H 2.8365758930081078 0.9923772313915392 0.237187489412239
| 18> H 1.405060197755796 1.970681129402292 -0.09730774308385019
| 19> H 0.7977574071226243 0.10652940303815076 1.4609806543465138
| 20> H 1.504668459013885 -1.0711760137586792 0.3501521867215708
| 21> H -2.2578518966755627 0.7262691943686568 -0.6013425156091274
| 22> H -1.4186628489692317 1.187482774198995 0.8985397425642794
| 23> H -0.8485428246998084 1.7923147868116223 -0.6712821696260076
| 24> H -0.5191802850192192 -2.1723052434151784 0.21811225900995684
| 25> *
| 26>
| 27>                          ****END OF INPUT****

CARTESIAN COORDINATES (ANGSTROEM)
---------------------------------
  C      1.845276    0.977203   -0.225430
  C      0.975082   -0.110480    0.399587
  C     -0.374377   -0.279663   -0.293466
  H     -0.201729   -0.485078   -1.361912
  C     -1.278565    0.928929   -0.157114
  O     -1.094914   -1.399048    0.283759
  H      1.980373    0.803563   -1.298935
  H      2.836576    0.992377    0.237187
  H      1.405060    1.970681   -0.097308
  H      0.797757    0.106529    1.460981
  H      1.504668   -1.071176    0.350152
  H     -2.257852    0.726269   -0.601343
  H     -1.418663    1.187483    0.898540
  H     -0.848543    1.792315   -0.671282
  H     -0.519180   -2.172305    0.218112

 Total Charge           Charge          ....    0
 Multiplicity           Mult            ....    1
 Number of Electrons    NEL             ....   42
 Basis Dimension        Dim             ....  215

ORBITAL ENERGIES
----------------

  NO   OCC          E(Eh)            E(eV)
   0   2.0000     -21.668909      -589.6410
   1   2.0000     -12.089519      -328.9725
   2   2.0000     -12.033326      -327.4435
   3   2.0000     -12.027122      -327.2746
   4   2.0000     -12.026063      -327.2458
   5   2.0000      -1.666949       -45.3600
   6   2.0000      -1.299860       -35.3710
   7   2.0000      -1.223943       -33.3052
   8   2.0000      -1.130140       -30.7527
   9   2.0000      -1.079565       -29.3765
  10   2.0000      -1.011147       -27.5147
  11   2.0000      -0.943840       -25.6832
  12   2.0000      -0.926578       -25.2135
  13   2.0000      -0.869920       -23.6717
  14   2.0000      -0.843470       -22.9520
  15   2.0000      -0.823260       -22.4020
  16   2.0000      -0.814320       -22.1588
  17   2.0000      -0.803067       -21.8526
  18   2.0000      -0.788260       -21.4496
  19   2.0000      -0.756115       -20.5749
  20   2.0000      -0.743216       -20.2239
  21   0.0000      -0.144429        -3.9301
  22   0.0000      -0.031647        -0.8612
  23   0.0000      -0.004974        -0.1353
  24   0.0000       0.006104         0.1661
  25   0.0000       0.006924         0.1884

MULLIKEN ATOMIC CHARGES
-----------------------
   0 C :   -0.421828
   1 C :   -0.178807
   2 C :    0.118255
   3 H :    0.087184
   4 C :   -0.391957
   5 O :   -0.559618
   6 H :    0.122590
   7 H :    0.132991
   8 H :    0.131878
   9 H :    0.102984
  10 H :    0.110980
  11 H :    0.130664
  12 H :    0.121316
  13 H :    0.138659
  14 H :    0.354708
Sum of atomic charges:   -0.0000000

LOEWDIN ATOMIC CHARGES
----------------------
   0 C :   -0.308483
   1 C :   -0.280633
   2 C :   -0.363093
   3 H :    0.136024
   4 C :   -0.290107
   5 O :   -0.085256
   6 H :    0.120744
   7 H :    0.120179
   8 H :    0.119098
   9 H :    0.135367
  10 H :    0.137250
  11 H :    0.122302
  12 H :    0.123376
  13 H :    0.127817
  14 H :    0.185413

  Mayer bond orders larger than 0.100000
B(  0-C ,  1-C ) :   0.9640 B(  0-C ,  6-H ) :   0.9745 B(  0-C ,  7-H ) :   0.9762
B(  0-C ,  8-H ) :   0.9804 B(  1-C ,  2-C ) :   0.9837 B(  1-C ,  9-H ) :   0.9661
B(  1-C , 10-H ) :   0.9715 B(  2-C ,  3-H ) :   0.9821 B(  2-C ,  4-C ) :   0.9657
B(  2-C ,  5-O ) :   0.9805 B(  4-C , 11-H ) :   0.9759 B(  4-C , 12-H ) :   0.9682
B(  4-C , 13-H ) :   0.9743 B(  5-O , 14-H ) :   0.8711

FINAL SINGLE POINT ENERGY      -233.688161619997

DIPOLE MOMENT
-------------

Method             : SCF
Type of density    : Electron Density
Multiplicity       :   1
Irrep              :   0
Energy             :  -233.6987910156972248 Eh
Relativity type    :
Basis              : AO
                                X                 Y                 Z
Electronic contribution:     -2.178705447      -3.586657562       0.484636365
Nuclear contribution   :      3.083803023       3.629096824      -0.852074285
                        -----------------------------------------
Total Dipole Moment    :      0.905097577       0.042439262      -0.367437920
                        -----------------------------------------
Magnitude (a.u.)       :      0.977759346
Magnitude (Debye)      :      2.485266751

Rotational constants in cm-1:             0.256385             0.115304             0.087887
Rotational constants in MHz :          7686.234459          3456.714387          2634.771037

                             ****ORCA TERMINATED NORMALLY****
TOTAL RUN TIME: 0 days 0 hours 1 minutes 10 seconds 29 msec
