                         Program Version 6.0.0  -   RELEASE  -
|  1> ! pbe def2-sv(p) def2/J RI DEFGRID1 loosescf d4 GCP(DFT/SV(P)) printgap
|  2> %output
|  3>     printlevel normal
|  4> end
|  5> * xyz 0 1
|  6> C 0.658455315 -3.407e-07 1.05517e-05
|  7> C -0.6584554103 5.475e-07 3.8107e-06
|  8> H 1.2286942687 0.9141934449 -2.76221e-05
|  9> H 1.2286901999 -0.914195423 -7.94728e-05
| 10> H -1.228694447 -0.9141906916 -6.0991e-06
| 11> H -1.2286888865 0.9141902059 -5.79496e-05
| 12> *
| 13>
| 14>                          ****END OF INPUT****

CARTESIAN COORDINATES (ANGSTROEM)
---------------------------------
  C      0.658455   -0.000000    0.000011
  C     -0.658455    0.000001    0.000004
  H      1.228694    0.914193   -0.000028
  H      1.228690   -0.914195   -0.000079
  H     -1.228694   -0.914191   -0.000006
  H     -1.228689    0.914190   -0.000058

 Total Charge           Charge          ....    0
 Multiplicity           Mult            ....    1
 Number of Electrons    NEL             ....   16
 Basis Dimension        Dim             ....   36

ORBITAL ENERGIES
----------------

  NO   OCC          E(Eh)            E(eV)
   0   2.0000      -9.885851      -269.0077
   1   2.0000      -9.885210      -268.9902
   2   2.0000      -0.682159       -18.5625
   3   2.0000      -0.516793       -14.0627
   4   2.0000      -0.420556       -11.4439
   5   2.0000      -0.373430       -10.1615
   6   2.0000      -0.310271        -8.4429
   7   2.0000      -0.244013        -6.6399
   8   0.0000      -0.021944        -0.5971
   9   0.0000       0.067302         1.8314
  10   0.0000       0.083940         2.2841
  11   0.0000       0.099263         2.7011
  12   0.0000       0.170312         4.6344

MULLIKEN ATOMIC CHARGES
-----------------------
   0 C :   -0.212655
   1 C :   -0.212654
   2 H :    0.106328
   3 H :    0.106327
   4 H :    0.106327
   5 H :    0.106326
Sum of atomic charges:   -0.0000000

LOEWDIN ATOMIC CHARGES
----------------------
   0 C :   -0.243745
   1 C :   -0.243746
   2 H :    0.121873
   3 H :    0.121873
   4 H :    0.121873
   5 H :    0.121873

  Mayer bond orders larger than 0.100000
B(  0-C ,  1-C ) :   2.1610 B(  0-C ,  2-H ) :   0.9338 B(  0-C ,  3-H ) :   0.9338
B(  1-C ,  4-H ) :   0.9338 B(  1-C ,  5-H ) :   0.9338

Dispersion correction           -0.001908396
FINAL SINGLE POINT ENERGY       -78.380966471047

DIPOLE MOMENT
-------------

Method             : SCF
Type of density    : Electron Density
Multiplicity       :   1
Irrep              :   0
Energy             :   -78.3991142068257432 Eh
Relativity type    :
Basis              : AO
                                X                 Y                 Z
Electronic contribution:     -0.000001307       0.000002692       0.000108303
Nuclear contribution   :      0.000001065      -0.000002312      -0.000160562
                        -----------------------------------------
Total Dipole Moment    :     -0.000000242       0.000000380      -0.000052259
                        -----------------------------------------
Magnitude (a.u.)       :      0.000052261
Magnitude (Debye)      :      0.000132836

Rotational constants in cm-1:             5.002662             1.021545             0.848318
Rotational constants in MHz :        149976.020800         30625.148486         25431.938952

                             ****ORCA TERMINATED NORMALLY****
TOTAL RUN TIME: 0 days 0 hours 0 minutes 3 seconds 395 msec
