                         Program Version 6.0.0  -   RELEASE  -
|  1> ! wb97x-v def2-tzvp def2/J RIJCOSX DEFGRID2 scfconv7 GCP(DFT/TZ) printgap
|  2> %output
|  3>     printlevel normal
|  4> end
|  5> * xyz 0 1
|  6> C -2.5589220015961165 -0.9215996927600795 0.3476631893048682
|  7> C -1.1419787109574462 -0.43923332184248476 0.5907913390037295
|  8> H -0.9841154493347994 -0.3740330351501793 1.6815488284962665
|  9> C -0.83437424588018 0.9196206861913928 -0.04486964015735213
| 10> H -1.0456607410125882 0.8754066753665504 -1.1186972708166527
| 11> C 0.6366938314805293 1.2614848844189825 0.1699107743175959
| 12> H 0.808441934358627 1.4001455121219453 1.2509529262991053
| 13> C 1.5415960983408608 0.14081513020170627 -0.32225624260053665
| 14> H 1.4369208829780808 0.036188436327683156 -1.413628834089697
| 15> C 1.119975924607934 -1.170938859599494 0.3256442919887933
| 16> H 1.250511167836345 -1.1241355070450112 1.4195078886320363
| 17> O -0.25686642780700264 -1.4266607019933562 0.027825310436215084
| 18> O 1.8769401499961926 -2.2108823582511863 -0.23166290896503228
| 19> O 2.905167762432978 0.3818852220956792 0.03316633751203261
| 20> O 1.0137705043652805 2.447277080664309 -0.5386765492986232
| 21> O -1.6747709980336292 1.9511987304687268 0.48239672541522133
| 22> O -2.8990857006666437 -0.9915919988411396 -1.0417468804524035
| 23> H -3.258089011600983 -0.2194100274666986 0.8087949104108357
| 24> H -2.6858687986550347 -1.901192515183956 0.8279401884715574
| 25> H 1.8169501206570762 -2.974960475440434 0.3580331055705664
| 26> H 3.148583928507709 1.2402141141041192 -0.33938841933920366
| 27> H 0.4920135545702647 3.1751319007976595 -0.17424293932372698
| 28> H -1.5177130092235975 1.9982959303598948 1.4370347903796614
| 29> H -2.3181432629575403 -1.6478042982873558 -1.4488931795566546
| 30> *
| 31>
| 32>                          ****END OF INPUT****

CARTESIAN COORDINATES (ANGSTROEM)
---------------------------------
  C     -2.558922   -0.921600    0.347663
  C     -1.141979   -0.439233    0.590791
  H     -0.984115   -0.374033    1.681549
  C     -0.834374    0.919621   -0.044870
  H     -1.045661    0.875407   -1.118697
  C      0.636694    1.261485    0.169911
  H      0.808442    1.400146    1.250953
  C      1.541596    0.140815   -0.322256
  H      1.436921    0.036188   -1.413629
  C      1.119976   -1.170939    0.325644
  H      1.250511   -1.124136    1.419508
  O     -0.256866   -1.426661    0.027825
  O      1.876940   -2.210882   -0.231663
  O      2.905168    0.381885    0.033166
  O      1.013771    2.447277   -0.538677
  O     -1.674771    1.951199    0.482397
  O     -2.899086   -0.991592   -1.041747
  H     -3.258089   -0.219410    0.808795
  H     -2.685869   -1.901193    0.827940
  H      1.816950   -2.974960    0.358033
  H      3.148584    1.240214   -0.339388
  H      0.492014    3.175132   -0.174243
  H     -1.517713    1.998296    1.437035
  H     -2.318143   -1.647804   -1.448893

 Total Charge           Charge          ....    0
 Multiplicity           Mult            ....    1
 Number of Electrons    NEL             ....   96
 Basis Dimension        Dim             ....  444

ORBITAL ENERGIES
----------------

  NO   OCC          E(Eh)            E(eV)
   0   2.0000     -21.696780      -590.3994
   1   2.0000     -21.696610      -590.3948
   2   2.0000     -21.691284      -590.2498
   3   2.0000     -21.689583      -590.2036
   4   2.0000     -21.676339      -589.8432
   5   2.0000     -21.675711      -589.8261
   6   2.0000     -12.162350      -330.9544
   7   2.0000     -12.118436      -329.7594
   8   2.0000     -12.114593      -329.6548
   9   2.0000     -12.110526      -329.5442
  10   2.0000     -12.108431      -329.4872
  11   2.0000     -12.101883      -329.3090
  12   2.0000      -1.726036       -46.9678
  13   2.0000      -1.700574       -46.2750
  14   2.0000      -1.691007       -46.0146
  15   2.0000      -1.684214       -45.8298
  16   2.0000      -1.677415       -45.6448
  17   2.0000      -1.674684       -45.5705
  18   2.0000      -1.341476       -36.5034
  19   2.0000      -1.328363       -36.1466
  20   2.0000      -1.241635       -33.7866
  21   2.0000      -1.203761       -32.7560
  22   2.0000      -1.171452       -31.8768
  23   2.0000      -1.127956       -30.6932
  24   2.0000      -1.097672       -29.8692
  25   2.0000      -1.073445       -29.2099
  26   2.0000      -1.055587       -28.7240
  27   2.0000      -1.043379       -28.3918
  28   2.0000      -1.040332       -28.3089
  29   2.0000      -1.006822       -27.3970
  30   2.0000      -1.003293       -27.3010
  31   2.0000      -0.988356       -26.8945
  32   2.0000      -0.982509       -26.7354
  33   2.0000      -0.971067       -26.4241
  34   2.0000      -0.964607       -26.2483
  35   2.0000      -0.947207       -25.7748
  36   2.0000      -0.942663       -25.6512
  37   2.0000      -0.935753       -25.4631
  38   2.0000      -0.926907       -25.2224
  39   2.0000      -0.913196       -24.8493
  40   2.0000      -0.902232       -24.5510
  41   2.0000      -0.889563       -24.2062
  42   2.0000      -0.848324       -23.0841
  43   2.0000      -0.842899       -22.9364
  44   2.0000      -0.823216       -22.4008
  45   2.0000      -0.810007       -22.0414
  46   2.0000      -0.801733       -21.8163
  47   2.0000      -0.781311       -21.2605
  48   0.0000      -0.245394        -6.6775
  49   0.0000      -0.199836        -5.4378
  50   0.0000      -0.176857        -4.8125
  51   0.0000      -0.157606        -4.2887
  52   0.0000      -0.136509        -3.7146

MULLIKEN ATOMIC CHARGES
-----------------------
   0 C :    0.038369
   1 C :   -0.069578
   2 H :    0.069983
   3 C :    0.066331
   4 H :    0.096269
   5 C :    0.023102
   6 H :    0.075286
   7 C :    0.129289
   8 H :    0.086113
   9 C :    0.091784
  10 H :    0.060951
  11 O :   -0.269197
  12 O :   -0.383077
  13 O :   -0.429152
  14 O :   -0.445781
  15 O :   -0.436607
  16 O :   -0.455619
  17 H :    0.094922
  18 H :    0.105211
  19 H :    0.309684
  20 H :    0.315201
  21 H :    0.315677
  22 H :    0.297263
  23 H :    0.313575
Sum of atomic charges:   -0.0000000

LOEWDIN ATOMIC CHARGES
----------------------
   0 C :   -0.309676
   1 C :   -0.314876
   2 H :    0.138804
   3 C :   -0.306281
   4 H :    0.156282
   5 C :   -0.325038
   6 H :    0.137171
   7 C :   -0.303589
   8 H :    0.148834
   9 C :   -0.404071
  10 H :    0.122609
  11 O :    0.180601
  12 O :    0.026878
  13 O :   -0.007345
  14 O :   -0.016289
  15 O :   -0.008785
  16 O :   -0.041531
  17 H :    0.133165
  18 H :    0.121475
  19 H :    0.177587
  20 H :    0.176590
  21 H :    0.175308
  22 H :    0.169562
  23 H :    0.172616

  Mayer bond orders larger than 0.100000
B(  0-C ,  1-C ) :   0.9853 B(  0-C , 16-O ) :   1.0048 B(  0-C , 17-H ) :   0.9568
B(  0-C , 18-H ) :   0.9789 B(  1-C ,  2-H ) :   0.9474 B(  1-C ,  3-C ) :   0.9659
B(  1-C , 11-O ) :   0.9936 B(  1-C , 16-O ) :   0.1105 B(  3-C ,  4-H ) :   0.9227
B(  3-C ,  5-C ) :   0.9779 B(  3-C , 15-O ) :   0.9789 B(  5-C ,  6-H ) :   0.9620
B(  5-C ,  7-C ) :   0.9459 B(  5-C , 14-O ) :   1.0703 B(  7-C ,  8-H ) :   0.9670
B(  7-C ,  9-C ) :   0.9324 B(  7-C , 13-O ) :   1.1175 B(  9-C , 10-H ) :   0.9786
B(  9-C , 11-O ) :   1.0168 B(  9-C , 12-O ) :   1.2573 B( 12-O , 19-H ) :   0.8947
B( 13-O , 20-H ) :   0.8870 B( 14-O , 21-H ) :   0.8863 B( 15-O , 22-H ) :   0.8928
B( 16-O , 23-H ) :   0.8898

FINAL SINGLE POINT ENERGY      -687.245090093711

DIPOLE MOMENT
-------------

Method             : SCF
Type of density    : Electron Density
Multiplicity       :   1
Irrep              :   0
Energy             :  -687.2639425097111143 Eh
Relativity type    :
Basis              : AO
                                X                 Y                 Z
Electronic contribution:      2.442148696      -0.417849800      -1.882450433
Nuclear contribution   :     -2.520755498       0.431816942       3.329396530
                        -----------------------------------------
Total Dipole Moment    :     -0.078606802       0.013967142       1.446946097
                        -----------------------------------------
Magnitude (a.u.)       :      1.449147031
Magnitude (Debye)      :      3.683439025

Rotational constants in cm-1:             0.039357             0.026463             0.017477
Rotational constants in MHz :          1179.899038           793.333451           523.952351

                             ****ORCA TERMINATED NORMALLY****
TOTAL RUN TIME: 0 days 0 hours 4 minutes 49 seconds 130 msec
