                         Program Version 6.0.0  -   RELEASE  -
|  1> ! wb97x-v def2-tzvp def2/J RIJCOSX DEFGRID2 scfconv7 GCP(DFT/TZ) printgap
|  2> %output
|  3>     printlevel normal
|  4> end
|  5> %cpcm
|  6>     smd true
|  7>     smdsolvent "water"
|  8> end
|  9> * xyz 0 1
| 10> C -2.5589220015961165 -0.9215996927600795 0.3476631893048682
| 11> C -1.1419787109574462 -0.43923332184248476 0.5907913390037295
| 12> H -0.9841154493347994 -0.3740330351501793 1.6815488284962665
| 13> C -0.83437424588018 0.9196206861913928 -0.04486964015735213
| 14> H -1.0456607410125882 0.8754066753665504 -1.1186972708166527
| 15> C 0.6366938314805293 1.2614848844189825 0.1699107743175959
| 16> H 0.808441934358627 1.4001455121219453 1.2509529262991053
| 17> C 1.5415960983408608 0.14081513020170627 -0.32225624260053665
| 18> H 1.4369208829780808 0.036188436327683156 -1.413628834089697
| 19> C 1.119975924607934 -1.170938859599494 0.3256442919887933
| 20> H 1.250511167836345 -1.1241355070450112 1.4195078886320363
| 21> O -0.25686642780700264 -1.4266607019933562 0.027825310436215084
| 22> O 1.8769401499961926 -2.2108823582511863 -0.23166290896503228
| 23> O 2.905167762432978 0.3818852220956792 0.03316633751203261
| 24> O 1.0137705043652805 2.447277080664309 -0.5386765492986232
| 25> O -1.6747709980336292 1.9511987304687268 0.48239672541522133
| 26> O -2.8990857006666437 -0.9915919988411396 -1.0417468804524035
| 27> H -3.258089011600983 -0.2194100274666986 0.8087949104108357
| 28> H -2.6858687986550347 -1.901192515183956 0.8279401884715574
| 29> H 1.8169501206570762 -2.974960475440434 0.3580331055705664
| 30> H 3.148583928507709 1.2402141141041192 -0.33938841933920366
| 31> H 0.4920135545702647 3.1751319007976595 -0.17424293932372698
| 32> H -1.5177130092235975 1.9982959303598948 1.4370347903796614
| 33> H -2.3181432629575403 -1.6478042982873558 -1.4488931795566546
| 34> *
| 35>
| 36>                          ****END OF INPUT****

CARTESIAN COORDINATES (ANGSTROEM)
---------------------------------
  C     -2.558922   -0.921600    0.347663
  C     -1.141979   -0.439233    0.590791
  H     -0.984115   -0.374033    1.681549
  C     -0.834374    0.919621   -0.044870
  H     -1.045661    0.875407   -1.118697
  C      0.636694    1.261485    0.169911
  H      0.808442    1.400146    1.250953
  C      1.541596    0.140815   -0.322256
  H      1.436921    0.036188   -1.413629
  C      1.119976   -1.170939    0.325644
  H      1.250511   -1.124136    1.419508
  O     -0.256866   -1.426661    0.027825
  O      1.876940   -2.210882   -0.231663
  O      2.905168    0.381885    0.033166
  O      1.013771    2.447277   -0.538677
  O     -1.674771    1.951199    0.482397
  O     -2.899086   -0.991592   -1.041747
  H     -3.258089   -0.219410    0.808795
  H     -2.685869   -1.901193    0.827940
  H      1.816950   -2.974960    0.358033
  H      3.148584    1.240214   -0.339388
  H      0.492014    3.175132   -0.174243
  H     -1.517713    1.998296    1.437035
  H     -2.318143   -1.647804   -1.448893

 Total Charge           Charge          ....    0
 Multiplicity           Mult            ....    1
 Number of Electrons    NEL             ....   96
 Basis Dimension        Dim             ....  444

ORBITAL ENERGIES
----------------

  NO   OCC          E(Eh)            E(eV)
   0   2.0000     -21.691216      -590.2480
   1   2.0000     -21.690995      -590.2420
   2   2.0000     -21.683642      -590.0419
   3   2.0000     -21.681998      -589.9971
   4   2.0000     -21.681712      -589.9894
   5   2.0000     -21.677299      -589.8693
   6   2.0000     -12.153545      -330.7148
   7   2.0000     -12.103478      -329.3524
   8   2.0000     -12.102979      -329.3388
   9   2.0000     -12.101355      -329.2946
  10   2.0000     -12.099472      -329.2434
  11   2.0000     -12.091234      -329.0192
  12   2.0000      -1.723008       -46.8854
  13   2.0000      -1.690775       -46.0083
  14   2.0000      -1.686202       -45.8839
  15   2.0000      -1.681186       -45.7474
  16   2.0000      -1.678471       -45.6735
  17   2.0000      -1.675740       -45.5992
  18   2.0000      -1.331082       -36.2206
  19   2.0000      -1.320348       -35.9285
  20   2.0000      -1.234041       -33.5800
  21   2.0000      -1.196059       -32.5464
  22   2.0000      -1.166551       -31.7435
  23   2.0000      -1.122150       -30.5353
  24   2.0000      -1.092492       -29.7282
  25   2.0000      -1.065919       -29.0051
  26   2.0000      -1.052506       -28.6401
  27   2.0000      -1.039354       -28.2823
  28   2.0000      -1.035348       -28.1732
  29   2.0000      -1.005735       -27.3674
  30   2.0000      -1.001144       -27.2425
  31   2.0000      -0.982299       -26.7297
  32   2.0000      -0.977434       -26.5973
  33   2.0000      -0.967022       -26.3140
  34   2.0000      -0.966409       -26.2973
  35   2.0000      -0.946207       -25.7476
  36   2.0000      -0.941744       -25.6262
  37   2.0000      -0.932880       -25.3850
  38   2.0000      -0.925113       -25.1736
  39   2.0000      -0.907104       -24.6836
  40   2.0000      -0.897659       -24.4265
  41   2.0000      -0.888286       -24.1715
  42   2.0000      -0.843097       -22.9418
  43   2.0000      -0.833744       -22.6873
  44   2.0000      -0.814065       -22.1518
  45   2.0000      -0.801149       -21.8004
  46   2.0000      -0.792603       -21.5678
  47   2.0000      -0.770663       -20.9708
  48   0.0000      -0.235683        -6.4133
  49   0.0000      -0.190818        -5.1924
  50   0.0000      -0.168927        -4.5967
  51   0.0000      -0.148230        -4.0335
  52   0.0000      -0.126717        -3.4481

MULLIKEN ATOMIC CHARGES
-----------------------
   0 C :   -0.009211
   1 C :   -0.012794
   2 H :    0.125978
   3 C :    0.070382
   4 H :    0.102502
   5 C :    0.045717
   6 H :    0.115301
   7 C :    0.125011
   8 H :    0.098402
   9 C :    0.113778
  10 H :    0.104930
  11 O :   -0.330199
  12 O :   -0.487435
  13 O :   -0.523995
  14 O :   -0.529803
  15 O :   -0.534427
  16 O :   -0.555244
  17 H :    0.125988
  18 H :    0.131516
  19 H :    0.375855
  20 H :    0.362450
  21 H :    0.362126
  22 H :    0.363454
  23 H :    0.359719
Sum of atomic charges:    0.0000000

LOEWDIN ATOMIC CHARGES
----------------------
   0 C :   -0.308582
   1 C :   -0.299349
   2 H :    0.159666
   3 C :   -0.305558
   4 H :    0.152836
   5 C :   -0.311480
   6 H :    0.153857
   7 C :   -0.307200
   8 H :    0.151122
   9 C :   -0.400455
  10 H :    0.138827
  11 O :    0.161110
  12 O :   -0.012176
  13 O :   -0.043853
  14 O :   -0.044747
  15 O :   -0.039734
  16 O :   -0.082215
  17 H :    0.137436
  18 H :    0.129740
  19 H :    0.201234
  20 H :    0.191937
  21 H :    0.191642
  22 H :    0.197853
  23 H :    0.188088

  Mayer bond orders larger than 0.100000
B(  0-C ,  1-C ) :   0.9632 B(  0-C , 16-O ) :   0.9650 B(  0-C , 17-H ) :   0.9663
B(  0-C , 18-H ) :   0.9796 B(  1-C ,  2-H ) :   0.9526 B(  1-C ,  3-C ) :   0.9733
B(  1-C , 11-O ) :   0.9552 B(  3-C ,  4-H ) :   0.9309 B(  3-C ,  5-C ) :   0.9948
B(  3-C , 15-O ) :   0.9706 B(  5-C ,  6-H ) :   0.9589 B(  5-C ,  7-C ) :   0.9802
B(  5-C , 14-O ) :   1.0348 B(  7-C ,  8-H ) :   0.9529 B(  7-C ,  9-C ) :   0.9518
B(  7-C , 13-O ) :   1.0609 B(  9-C , 10-H ) :   0.9792 B(  9-C , 11-O ) :   1.0177
B(  9-C , 12-O ) :   1.2002 B( 12-O , 19-H ) :   0.8538 B( 13-O , 20-H ) :   0.8580
B( 14-O , 21-H ) :   0.8587 B( 15-O , 22-H ) :   0.8583 B( 16-O , 23-H ) :   0.8622

FINAL SINGLE POINT ENERGY      -687.287636972376

DIPOLE MOMENT
-------------

Method             : SCF
Type of density    : Electron Density
Multiplicity       :   1
Irrep              :   0
Energy             :  -687.3064893883761215 Eh
Relativity type    :
Basis              : AO
                                X                 Y                 Z
Electronic contribution:      2.365354620      -0.357956114      -1.057930533
Nuclear contribution   :     -2.520755498       0.431816942       3.329396530
                        -----------------------------------------
Total Dipole Moment    :     -0.155400878       0.073860828       2.271465997
                        -----------------------------------------
Magnitude (a.u.)       :      2.277973361
Magnitude (Debye)      :      5.790148132

Rotational constants in cm-1:             0.039357             0.026463             0.017477
Rotational constants in MHz :          1179.899038           793.333451           523.952351

                             ****ORCA TERMINATED NORMALLY****
TOTAL RUN TIME: 0 days 0 hours 5 minutes 27 seconds 413 msec
