                         Program Version 6.0.0  -   RELEASE  -
|  1> ! wb97x-v def2-tzvp def2/J RIJCOSX DEFGRID2 scfconv7 GCP(DFT/TZ) printgap
|  2> %output
|  3>     printlevel normal
|  4> end
|  5> * xyz 0 1
|  6> C 1.8356096626872194 -1.466769119504469 -0.0004580849641639345
|  7> C 0.5354471790894976 -0.7144333468497834 0.0002238675707187501
|  8> C -0.6773515741488144 -1.4034110276917873 5.314145011657197e-05
|  9> C -1.8785255909031622 -0.7059145469014418 7.888896434338198e-05
| 10> C -1.8260841489260236 0.6798331731627266 0.00022352126513447323
| 11> N -0.6789615355429995 1.3699663287008064 0.0006768034832085206
| 12> C 0.48360770218735305 0.6924685854324781 0.0007625297506647384
| 13> C 1.7240530436329444 1.5363860613589597 0.00013007389135843612
| 14> H 1.6519639197664286 -2.543895750152834 -0.0031559668317889763
| 15> H 2.440244356224703 -1.2227539194935186 -0.8804828114599835
| 16> H 2.4386663464637555 -1.2270596553248676 0.8818596711521464
| 17> H -0.6744169144764525 -2.4899647952491497 -0.0002129831890547051
| 18> H -2.831785812720115 -1.223591250129738 -4.7750238531596e-05
| 19> H -2.7425437644347888 1.266535919212195 0.00020188846066652638
| 20> H 1.730220137208574 2.198020435142619 0.8728224339535801
| 21> H 2.637697507223899 0.942612785090181 0.01328392105827941
| 22> H 1.7431552752671897 2.1774406743680474 -0.8878425353007598
| 23> *
| 24>
| 25>                          ****END OF INPUT****

CARTESIAN COORDINATES (ANGSTROEM)
---------------------------------
  C      1.835610   -1.466769   -0.000458
  C      0.535447   -0.714433    0.000224
  C     -0.677352   -1.403411    0.000053
  C     -1.878526   -0.705915    0.000079
  C     -1.826084    0.679833    0.000224
  N     -0.678962    1.369966    0.000677
  C      0.483608    0.692469    0.000763
  C      1.724053    1.536386    0.000130
  H      1.651964   -2.543896   -0.003156
  H      2.440244   -1.222754   -0.880483
  H      2.438666   -1.227060    0.881860
  H     -0.674417   -2.489965   -0.000213
  H     -2.831786   -1.223591   -0.000048
  H     -2.742544    1.266536    0.000202
  H      1.730220    2.198020    0.872822
  H      2.637698    0.942613    0.013284
  H      1.743155    2.177441   -0.887843

 Total Charge           Charge          ....    0
 Multiplicity           Mult            ....    1
 Number of Electrons    NEL             ....   58
 Basis Dimension        Dim             ....  302

ORBITAL ENERGIES
----------------

  NO   OCC          E(Eh)            E(eV)
   0   2.0000     -16.517322      -449.4592
   1   2.0000     -12.088529      -328.9456
   2   2.0000     -12.077472      -328.6447
   3   2.0000     -12.064842      -328.3010
   4   2.0000     -12.062871      -328.2474
   5   2.0000     -12.052162      -327.9560
   6   2.0000     -12.050914      -327.9220
   7   2.0000     -12.039278      -327.6054
   8   2.0000      -1.512077       -41.1457
   9   2.0000      -1.348710       -36.7003
  10   2.0000      -1.315696       -35.8019
  11   2.0000      -1.231696       -33.5162
  12   2.0000      -1.194959       -32.5165
  13   2.0000      -1.121436       -30.5158
  14   2.0000      -1.114758       -30.3341
  15   2.0000      -0.998305       -27.1653
  16   2.0000      -0.959606       -26.1122
  17   2.0000      -0.912312       -24.8253
  18   2.0000      -0.875907       -23.8346
  19   2.0000      -0.868685       -23.6381
  20   2.0000      -0.861048       -23.4303
  21   2.0000      -0.844265       -22.9736
  22   2.0000      -0.834038       -22.6953
  23   2.0000      -0.825605       -22.4658
  24   2.0000      -0.814768       -22.1710
  25   2.0000      -0.799276       -21.7494
  26   2.0000      -0.755866       -20.5681
  27   2.0000      -0.690227       -18.7820
  28   2.0000      -0.637894       -17.3580
  29   0.0000      -0.286325        -7.7913
  30   0.0000      -0.244034        -6.6405
  31   0.0000      -0.095166        -2.5896
  32   0.0000      -0.052114        -1.4181
  33   0.0000      -0.038139        -1.0378

MULLIKEN ATOMIC CHARGES
-----------------------
   0 C :   -0.383080
   1 C :    0.062475
   2 C :   -0.172049
   3 C :   -0.104472
   4 C :   -0.062346
   5 N :   -0.233000
   6 C :    0.145230
   7 C :   -0.370243
   8 H :    0.116846
   9 H :    0.135100
  10 H :    0.134852
  11 H :    0.118145
  12 H :    0.121335
  13 H :    0.117258
  14 H :    0.128733
  15 H :    0.116814
  16 H :    0.128403
Sum of atomic charges:   -0.0000000

LOEWDIN ATOMIC CHARGES
----------------------
   0 C :   -0.254808
   1 C :   -0.155584
   2 C :   -0.098809
   3 C :   -0.159585
   4 C :   -0.206300
   5 N :    0.145569
   6 C :   -0.207428
   7 C :   -0.250965
   8 H :    0.124966
   9 H :    0.127746
  10 H :    0.127709
  11 H :    0.145028
  12 H :    0.142415
  13 H :    0.133755
  14 H :    0.132310
  15 H :    0.121626
  16 H :    0.132354

  Mayer bond orders larger than 0.100000
B(  0-C ,  1-C ) :   0.9062 B(  0-C ,  8-H ) :   0.9837 B(  0-C ,  9-H ) :   0.9816
B(  0-C , 10-H ) :   0.9814 B(  1-C ,  2-C ) :   1.4539 B(  1-C ,  6-C ) :   1.3710
B(  2-C ,  3-C ) :   1.4560 B(  2-C , 11-H ) :   0.9621 B(  3-C ,  4-C ) :   1.4130
B(  3-C , 12-H ) :   0.9651 B(  4-C ,  5-N ) :   1.5157 B(  4-C , 13-H ) :   0.9864
B(  5-N ,  6-C ) :   1.4623 B(  6-C ,  7-C ) :   0.9351 B(  7-C , 14-H ) :   0.9728
B(  7-C , 15-H ) :   1.0004 B(  7-C , 16-H ) :   0.9719

FINAL SINGLE POINT ENERGY      -326.930703823370

DIPOLE MOMENT
-------------

Method             : SCF
Type of density    : Electron Density
Multiplicity       :   1
Irrep              :   0
Energy             :  -326.9406112457701283 Eh
Relativity type    :
Basis              : AO
                                X                 Y                 Z
Electronic contribution:     -5.765303694       1.232261408       0.003911640
Nuclear contribution   :      6.049612836      -2.019536659      -0.004773103
                        -----------------------------------------
Total Dipole Moment    :      0.284309142      -0.787275251      -0.000861463
                        -----------------------------------------
Magnitude (a.u.)       :      0.837039277
Magnitude (Debye)      :      2.127584761

Rotational constants in cm-1:             0.105256             0.075285             0.044618
Rotational constants in MHz :          3155.505666          2256.991132          1337.622203

                             ****ORCA TERMINATED NORMALLY****
TOTAL RUN TIME: 0 days 0 hours 2 minutes 40 seconds 202 msec
