                         Program Version 6.0.0  -   RELEASE  -
|  1> ! wb97x-v def2-tzvp def2/J RIJCOSX DEFGRID2 scfconv7 GCP(DFT/TZ) printgap
|  2> %output
|  3>     printlevel normal
|  4> end
|  5> %cpcm
|  6>     smd true
|  7>     smdsolvent "water"
|  8> end
|  9> * xyz 0 1
| 10> C 1.8356096626872194 -1.466769119504469 -0.0004580849641639345
| 11> C 0.5354471790894976 -0.7144333468497834 0.0002238675707187501
| 12> C -0.6773515741488144 -1.4034110276917873 5.314145011657197e-05
| 13> C -1.8785255909031622 -0.7059145469014418 7.888896434338198e-05
| 14> C -1.8260841489260236 0.6798331731627266 0.00022352126513447323
| 15> N -0.6789615355429995 1.3699663287008064 0.0006768034832085206
| 16> C 0.48360770218735305 0.6924685854324781 0.0007625297506647384
| 17> C 1.7240530436329444 1.5363860613589597 0.00013007389135843612
| 18> H 1.6519639197664286 -2.543895750152834 -0.0031559668317889763
| 19> H 2.440244356224703 -1.2227539194935186 -0.8804828114599835
| 20> H 2.4386663464637555 -1.2270596553248676 0.8818596711521464
| 21> H -0.6744169144764525 -2.4899647952491497 -0.0002129831890547051
| 22> H -2.831785812720115 -1.223591250129738 -4.7750238531596e-05
| 23> H -2.7425437644347888 1.266535919212195 0.00020188846066652638
| 24> H 1.730220137208574 2.198020435142619 0.8728224339535801
| 25> H 2.637697507223899 0.942612785090181 0.01328392105827941
| 26> H 1.7431552752671897 2.1774406743680474 -0.8878425353007598
| 27> *
| 28>
| 29>                          ****END OF INPUT****

CARTESIAN COORDINATES (ANGSTROEM)
---------------------------------
  C      1.835610   -1.466769   -0.000458
  C      0.535447   -0.714433    0.000224
  C     -0.677352   -1.403411    0.000053
  C     -1.878526   -0.705915    0.000079
  C     -1.826084    0.679833    0.000224
  N     -0.678962    1.369966    0.000677
  C      0.483608    0.692469    0.000763
  C      1.724053    1.536386    0.000130
  H      1.651964   -2.543896   -0.003156
  H      2.440244   -1.222754   -0.880483
  H      2.438666   -1.227060    0.881860
  H     -0.674417   -2.489965   -0.000213
  H     -2.831786   -1.223591   -0.000048
  H     -2.742544    1.266536    0.000202
  H      1.730220    2.198020    0.872822
  H      2.637698    0.942613    0.013284
  H      1.743155    2.177441   -0.887843

 Total Charge           Charge          ....    0
 Multiplicity           Mult            ....    1
 Number of Electrons    NEL             ....   58
 Basis Dimension        Dim             ....  302

ORBITAL ENERGIES
----------------

  NO   OCC          E(Eh)            E(eV)
   0   2.0000     -16.522105      -449.5893
   1   2.0000     -12.087969      -328.9304
   2   2.0000     -12.076658      -328.6226
   3   2.0000     -12.060431      -328.1810
   4   2.0000     -12.058034      -328.1158
   5   2.0000     -12.047872      -327.8393
   6   2.0000     -12.035625      -327.5060
   7   2.0000     -12.032488      -327.4206
   8   2.0000      -1.515946       -41.2510
   9   2.0000      -1.345000       -36.5993
  10   2.0000      -1.313732       -35.7485
  11   2.0000      -1.224788       -33.3282
  12   2.0000      -1.189030       -32.3552
  13   2.0000      -1.117055       -30.3966
  14   2.0000      -1.112078       -30.2612
  15   2.0000      -0.995429       -27.0870
  16   2.0000      -0.955540       -26.0016
  17   2.0000      -0.904990       -24.6260
  18   2.0000      -0.870440       -23.6859
  19   2.0000      -0.864553       -23.5257
  20   2.0000      -0.857511       -23.3341
  21   2.0000      -0.835589       -22.7375
  22   2.0000      -0.822711       -22.3871
  23   2.0000      -0.818160       -22.2633
  24   2.0000      -0.804163       -21.8824
  25   2.0000      -0.798895       -21.7390
  26   2.0000      -0.758938       -20.6517
  27   2.0000      -0.689230       -18.7549
  28   2.0000      -0.635984       -17.3060
  29   0.0000      -0.286411        -7.7936
  30   0.0000      -0.242388        -6.5957
  31   0.0000      -0.092497        -2.5170
  32   0.0000      -0.042979        -1.1695
  33   0.0000      -0.034650        -0.9429

MULLIKEN ATOMIC CHARGES
-----------------------
   0 C :   -0.410727
   1 C :    0.039135
   2 C :   -0.197567
   3 C :   -0.157643
   4 C :   -0.077972
   5 N :   -0.313986
   6 C :    0.176166
   7 C :   -0.427074
   8 H :    0.144158
   9 H :    0.151526
  10 H :    0.151387
  11 H :    0.166094
  12 H :    0.166818
  13 H :    0.155757
  14 H :    0.143245
  15 H :    0.147102
  16 H :    0.143583
Sum of atomic charges:    0.0000000

LOEWDIN ATOMIC CHARGES
----------------------
   0 C :   -0.253243
   1 C :   -0.155105
   2 C :   -0.093737
   3 C :   -0.162517
   4 C :   -0.220081
   5 N :    0.103976
   6 C :   -0.212198
   7 C :   -0.255485
   8 H :    0.131243
   9 H :    0.133234
  10 H :    0.133234
  11 H :    0.157618
  12 H :    0.153352
  13 H :    0.141056
  14 H :    0.133966
  15 H :    0.130443
  16 H :    0.134243

  Mayer bond orders larger than 0.100000
B(  0-C ,  1-C ) :   0.9214 B(  0-C ,  8-H ) :   0.9784 B(  0-C ,  9-H ) :   0.9740
B(  0-C , 10-H ) :   0.9737 B(  1-C ,  2-C ) :   1.4392 B(  1-C ,  6-C ) :   1.3708
B(  2-C ,  3-C ) :   1.4398 B(  2-C , 11-H ) :   0.9627 B(  3-C ,  4-C ) :   1.4323
B(  3-C , 12-H ) :   0.9626 B(  4-C ,  5-N ) :   1.5055 B(  4-C , 13-H ) :   0.9684
B(  5-N ,  6-C ) :   1.4317 B(  6-C ,  7-C ) :   0.9260 B(  7-C , 14-H ) :   0.9713
B(  7-C , 15-H ) :   0.9927 B(  7-C , 16-H ) :   0.9704

FINAL SINGLE POINT ENERGY      -326.937295415168

DIPOLE MOMENT
-------------

Method             : SCF
Type of density    : Electron Density
Multiplicity       :   1
Irrep              :   0
Energy             :  -326.9472028375679997 Eh
Relativity type    :
Basis              : AO
                                X                 Y                 Z
Electronic contribution:     -5.624893510       0.816027837       0.003423246
Nuclear contribution   :      6.049612836      -2.019536659      -0.004773103
                        -----------------------------------------
Total Dipole Moment    :      0.424719325      -1.203508823      -0.001349857
                        -----------------------------------------
Magnitude (a.u.)       :      1.276253037
Magnitude (Debye)      :      3.243977416

Rotational constants in cm-1:             0.105256             0.075285             0.044618
Rotational constants in MHz :          3155.505666          2256.991132          1337.622203

                             ****ORCA TERMINATED NORMALLY****
TOTAL RUN TIME: 0 days 0 hours 2 minutes 47 seconds 889 msec
