                         Program Version 6.0.0  -   RELEASE  -
|  1> ! r2scan-3c def2/J RI DEFGRID2 scfconv6 printgap
|  2> %output
|  3>     printlevel normal
|  4> end
|  5> * xyz 0 1
|  6> C -2.5598471207 -0.6501589347 -0.3629250913
|  7> C -1.1892722297 -0.2893696228 0.2175614926
|  8> H -1.2611647334 -0.2576100548 1.3155287666
|  9> C -0.7153334624 1.0823011421 -0.2809462606
| 10> H -0.7206640287 1.0852263392 -1.382138276
| 11> C 0.7247502195 1.3344233338 0.1885934538
| 12> H 0.7210625748 1.4313987771 1.2878974773
| 13> C 1.6251339205 0.1548134944 -0.2119202835
| 14> H 1.6635372852 0.098788038 -1.3059803342
| 15> C 1.0145460393 -1.1490508055 0.3393726205
| 16> H 0.9777911072 -1.09479147 1.4420779762
| 17> O -0.2891904528 -1.3106877329 -0.1754121888
| 18> O 1.7532314106 -2.2710448988 0.0388172456
| 19> O 2.9498688682 0.3595563241 0.205487904
| 20> O 1.1662631425 2.5380854357 -0.3919887801
| 21> O -1.5945270385 2.0548886636 0.2160994154
| 22> O -3.0874059439 -1.817905676 0.2069361462
| 23> H -2.4613845754 -0.7571381906 -1.450325873
| 24> H -3.2579159161 0.1566800647 -0.1367366689
| 25> H 1.7187696648 -2.4471485749 -0.9146113103
| 26> H 3.0445648374 0.1528130245 1.1465065544
| 27> H 2.1318324809 2.583974839 -0.3149285412
| 28> H -1.2501416041 2.92880134 -0.0256038467
| 29> H -2.4561322955 -2.5389541942 0.0658721799
| 30> *
| 31>
| 32>                          ****END OF INPUT****

CARTESIAN COORDINATES (ANGSTROEM)
---------------------------------
  C     -2.559847   -0.650159   -0.362925
  C     -1.189272   -0.289370    0.217561
  H     -1.261165   -0.257610    1.315529
  C     -0.715333    1.082301   -0.280946
  H     -0.720664    1.085226   -1.382138
  C      0.724750    1.334423    0.188593
  H      0.721063    1.431399    1.287897
  C      1.625134    0.154813   -0.211920
  H      1.663537    0.098788   -1.305980
  C      1.014546   -1.149051    0.339373
  H      0.977791   -1.094791    1.442078
  O     -0.289190   -1.310688   -0.175412
  O      1.753231   -2.271045    0.038817
  O      2.949869    0.359556    0.205488
  O      1.166263    2.538085   -0.391989
  O     -1.594527    2.054889    0.216099
  O     -3.087406   -1.817906    0.206936
  H     -2.461385   -0.757138   -1.450326
  H     -3.257916    0.156680   -0.136737
  H      1.718770   -2.447149   -0.914611
  H      3.044565    0.152813    1.146507
  H      2.131832    2.583975   -0.314929
  H     -1.250142    2.928801   -0.025604
  H     -2.456132   -2.538954    0.065872

 Total Charge           Charge          ....    0
 Multiplicity           Mult            ....    1
 Number of Electrons    NEL             ....   96
 Basis Dimension        Dim             ....  318

ORBITAL ENERGIES
----------------

  NO   OCC          E(Eh)            E(eV)
   0   2.0000     -18.981846      -516.5223
   1   2.0000     -18.977889      -516.4146
   2   2.0000     -18.977354      -516.4001
   3   2.0000     -18.967246      -516.1250
   4   2.0000     -18.963329      -516.0184
   5   2.0000     -18.949468      -515.6412
   6   2.0000     -10.152835      -276.2727
   7   2.0000     -10.101674      -274.8805
   8   2.0000     -10.098169      -274.7851
   9   2.0000     -10.097424      -274.7649
  10   2.0000     -10.097140      -274.7572
  11   2.0000     -10.079395      -274.2743
  12   2.0000      -1.062451       -28.9108
  13   2.0000      -1.023460       -27.8498
  14   2.0000      -1.012828       -27.5605
  15   2.0000      -0.997710       -27.1491
  16   2.0000      -0.992584       -27.0096
  17   2.0000      -0.983663       -26.7668
  18   2.0000      -0.759271       -20.6608
  19   2.0000      -0.743492       -20.2314
  20   2.0000      -0.660945       -17.9852
  21   2.0000      -0.629368       -17.1260
  22   2.0000      -0.601350       -16.3636
  23   2.0000      -0.576908       -15.6985
  24   2.0000      -0.535384       -14.5685
  25   2.0000      -0.521922       -14.2022
  26   2.0000      -0.496235       -13.5032
  27   2.0000      -0.483111       -13.1461
  28   2.0000      -0.475214       -12.9312
  29   2.0000      -0.462910       -12.5964
  30   2.0000      -0.453252       -12.3336
  31   2.0000      -0.426519       -11.6062
  32   2.0000      -0.423723       -11.5301
  33   2.0000      -0.391960       -10.6658
  34   2.0000      -0.386992       -10.5306
  35   2.0000      -0.372398       -10.1335
  36   2.0000      -0.356243        -9.6939
  37   2.0000      -0.347382        -9.4527
  38   2.0000      -0.338307        -9.2058
  39   2.0000      -0.335489        -9.1291
  40   2.0000      -0.318350        -8.6627
  41   2.0000      -0.296253        -8.0614
  42   2.0000      -0.285411        -7.7664
  43   2.0000      -0.279028        -7.5927
  44   2.0000      -0.263175        -7.1614
  45   2.0000      -0.247692        -6.7400
  46   2.0000      -0.239594        -6.5197
  47   2.0000      -0.233045        -6.3415
  48   0.0000       0.022941         0.6243
  49   0.0000       0.043324         1.1789
  50   0.0000       0.054792         1.4910
  51   0.0000       0.069299         1.8857
  52   0.0000       0.080978         2.2035

MULLIKEN ATOMIC CHARGES
-----------------------
   0 C :   -0.284481
   1 C :   -0.063783
   2 H :    0.181084
   3 C :    0.041286
   4 H :    0.166658
   5 C :    0.022580
   6 H :    0.167655
   7 C :   -0.016580
   8 H :    0.169894
   9 C :   -0.185587
  10 H :    0.158261
  11 O :   -0.200999
  12 O :   -0.338460
  13 O :   -0.396017
  14 O :   -0.439941
  15 O :   -0.442599
  16 O :   -0.412027
  17 H :    0.140473
  18 H :    0.169448
  19 H :    0.317104
  20 H :    0.304720
  21 H :    0.313163
  22 H :    0.315767
  23 H :    0.312382
Sum of atomic charges:    0.0000000

LOEWDIN ATOMIC CHARGES
----------------------
   0 C :    0.044050
   1 C :    0.118622
   2 H :    0.189709
   3 C :    0.113458
   4 H :    0.183439
   5 C :    0.095917
   6 H :    0.179852
   7 C :    0.100674
   8 H :    0.198911
   9 C :    0.286900
  10 H :    0.192828
  11 O :   -0.686371
  12 O :   -0.474856
  13 O :   -0.560939
  14 O :   -0.582202
  15 O :   -0.577177
  16 O :   -0.587820
  17 H :    0.167586
  18 H :    0.197395
  19 H :    0.282358
  20 H :    0.275051
  21 H :    0.283961
  22 H :    0.284336
  23 H :    0.274317

  Mayer bond orders larger than 0.100000
B(  0-C ,  1-C ) :   0.9394 B(  0-C , 16-O ) :   1.0092 B(  0-C , 17-H ) :   0.9944
B(  0-C , 18-H ) :   0.9626 B(  1-C ,  2-H ) :   0.9534 B(  1-C ,  3-C ) :   0.8492
B(  1-C , 11-O ) :   0.7787 B(  3-C ,  4-H ) :   0.9645 B(  3-C ,  5-C ) :   0.8483
B(  3-C , 15-O ) :   0.8528 B(  5-C ,  6-H ) :   0.9842 B(  5-C ,  7-C ) :   0.8730
B(  5-C , 14-O ) :   0.9016 B(  7-C ,  8-H ) :   0.9435 B(  7-C ,  9-C ) :   0.8311
B(  7-C , 13-O ) :   1.0100 B(  9-C , 10-H ) :   1.0106 B(  9-C , 11-O ) :   0.9479
B(  9-C , 12-O ) :   1.1264 B( 12-O , 19-H ) :   0.8760 B( 13-O , 20-H ) :   0.8852
B( 14-O , 21-H ) :   0.8713 B( 15-O , 22-H ) :   0.8799 B( 16-O , 23-H ) :   0.8771

Dispersion correction           -0.007982524
FINAL SINGLE POINT ENERGY      -687.076585980598

DIPOLE MOMENT
-------------

Method             : SCF
Type of density    : Electron Density
Multiplicity       :   1
Irrep              :   0
Energy             :  -687.0878545483610651 Eh
Relativity type    :
Basis              : AO
                                X                 Y                 Z
Electronic contribution:      1.951142565      -0.990285748       0.109931458
Nuclear contribution   :     -1.065443441       1.252438091      -0.254116289
                        -----------------------------------------
Total Dipole Moment    :      0.885699123       0.262152343      -0.144184831
                        -----------------------------------------
Magnitude (a.u.)       :      0.934866864
Magnitude (Debye)      :      2.376242725

Rotational constants in cm-1:             0.039269             0.025962             0.016341
Rotational constants in MHz :          1177.242755           778.335810           489.892811

                             ****ORCA TERMINATED NORMALLY****
TOTAL RUN TIME: 0 days 0 hours 0 minutes 47 seconds 904 msec
