                         Program Version 6.0.0  -   RELEASE  -
|  1> ! r2scan-3c def2/J RI DEFGRID2 scfconv6 printgap
|  2> %output
|  3>     printlevel normal
|  4> end
|  5> %cpcm
|  6>     smd true
|  7>     smdsolvent "water"
|  8> end
|  9> * xyz 0 1
| 10> C -2.5598471207 -0.6501589347 -0.3629250913
| 11> C -1.1892722297 -0.2893696228 0.2175614926
| 12> H -1.2611647334 -0.2576100548 1.3155287666
| 13> C -0.7153334624 1.0823011421 -0.2809462606
| 14> H -0.7206640287 1.0852263392 -1.382138276
| 15> C 0.7247502195 1.3344233338 0.1885934538
| 16> H 0.7210625748 1.4313987771 1.2878974773
| 17> C 1.6251339205 0.1548134944 -0.2119202835
| 18> H 1.6635372852 0.098788038 -1.3059803342
| 19> C 1.0145460393 -1.1490508055 0.3393726205
| 20> H 0.9777911072 -1.09479147 1.4420779762
| 21> O -0.2891904528 -1.3106877329 -0.1754121888
| 22> O 1.7532314106 -2.2710448988 0.0388172456
| 23> O 2.9498688682 0.3595563241 0.205487904
| 24> O 1.1662631425 2.5380854357 -0.3919887801
| 25> O -1.5945270385 2.0548886636 0.2160994154
| 26> O -3.0874059439 -1.817905676 0.2069361462
| 27> H -2.4613845754 -0.7571381906 -1.450325873
| 28> H -3.2579159161 0.1566800647 -0.1367366689
| 29> H 1.7187696648 -2.4471485749 -0.9146113103
| 30> H 3.0445648374 0.1528130245 1.1465065544
| 31> H 2.1318324809 2.583974839 -0.3149285412
| 32> H -1.2501416041 2.92880134 -0.0256038467
| 33> H -2.4561322955 -2.5389541942 0.0658721799
| 34> *
| 35>
| 36>                          ****END OF INPUT****

CARTESIAN COORDINATES (ANGSTROEM)
---------------------------------
  C     -2.559847   -0.650159   -0.362925
  C     -1.189272   -0.289370    0.217561
  H     -1.261165   -0.257610    1.315529
  C     -0.715333    1.082301   -0.280946
  H     -0.720664    1.085226   -1.382138
  C      0.724750    1.334423    0.188593
  H      0.721063    1.431399    1.287897
  C      1.625134    0.154813   -0.211920
  H      1.663537    0.098788   -1.305980
  C      1.014546   -1.149051    0.339373
  H      0.977791   -1.094791    1.442078
  O     -0.289190   -1.310688   -0.175412
  O      1.753231   -2.271045    0.038817
  O      2.949869    0.359556    0.205488
  O      1.166263    2.538085   -0.391989
  O     -1.594527    2.054889    0.216099
  O     -3.087406   -1.817906    0.206936
  H     -2.461385   -0.757138   -1.450326
  H     -3.257916    0.156680   -0.136737
  H      1.718770   -2.447149   -0.914611
  H      3.044565    0.152813    1.146507
  H      2.131832    2.583975   -0.314929
  H     -1.250142    2.928801   -0.025604
  H     -2.456132   -2.538954    0.065872

 Total Charge           Charge          ....    0
 Multiplicity           Mult            ....    1
 Number of Electrons    NEL             ....   96
 Basis Dimension        Dim             ....  318

ORBITAL ENERGIES
----------------

  NO   OCC          E(Eh)            E(eV)
   0   2.0000     -18.975194      -516.3413
   1   2.0000     -18.970133      -516.2036
   2   2.0000     -18.964261      -516.0438
   3   2.0000     -18.961145      -515.9590
   4   2.0000     -18.959314      -515.9092
   5   2.0000     -18.956614      -515.8357
   6   2.0000     -10.138243      -275.8756
   7   2.0000     -10.089539      -274.5503
   8   2.0000     -10.088034      -274.5094
   9   2.0000     -10.086296      -274.4621
  10   2.0000     -10.084506      -274.4134
  11   2.0000     -10.076344      -274.1913
  12   2.0000      -1.054140       -28.6846
  13   2.0000      -1.013744       -27.5854
  14   2.0000      -1.005546       -27.3623
  15   2.0000      -0.996066       -27.1043
  16   2.0000      -0.985267       -26.8105
  17   2.0000      -0.982325       -26.7304
  18   2.0000      -0.749350       -20.3909
  19   2.0000      -0.733173       -19.9506
  20   2.0000      -0.653074       -17.7711
  21   2.0000      -0.616797       -16.7839
  22   2.0000      -0.593843       -16.1593
  23   2.0000      -0.566090       -15.4041
  24   2.0000      -0.524593       -14.2749
  25   2.0000      -0.510990       -13.9047
  26   2.0000      -0.486945       -13.2504
  27   2.0000      -0.477663       -12.9979
  28   2.0000      -0.467363       -12.7176
  29   2.0000      -0.450828       -12.2677
  30   2.0000      -0.442998       -12.0546
  31   2.0000      -0.421323       -11.4648
  32   2.0000      -0.418617       -11.3911
  33   2.0000      -0.391455       -10.6520
  34   2.0000      -0.377442       -10.2707
  35   2.0000      -0.367915       -10.0115
  36   2.0000      -0.349188        -9.5019
  37   2.0000      -0.342066        -9.3081
  38   2.0000      -0.333385        -9.0719
  39   2.0000      -0.332596        -9.0504
  40   2.0000      -0.313593        -8.5333
  41   2.0000      -0.296028        -8.0553
  42   2.0000      -0.280440        -7.6312
  43   2.0000      -0.273581        -7.4445
  44   2.0000      -0.254412        -6.9229
  45   2.0000      -0.248388        -6.7590
  46   2.0000      -0.240787        -6.5522
  47   2.0000      -0.225155        -6.1268
  48   0.0000       0.038989         1.0609
  49   0.0000       0.062938         1.7126
  50   0.0000       0.080604         2.1934
  51   0.0000       0.087591         2.3835
  52   0.0000       0.095911         2.6099

MULLIKEN ATOMIC CHARGES
-----------------------
   0 C :   -0.283750
   1 C :   -0.060696
   2 H :    0.199335
   3 C :    0.027745
   4 H :    0.184730
   5 C :    0.016342
   6 H :    0.185873
   7 C :   -0.013319
   8 H :    0.193012
   9 C :   -0.132785
  10 H :    0.183254
  11 O :   -0.242642
  12 O :   -0.419545
  13 O :   -0.468852
  14 O :   -0.498233
  15 O :   -0.504069
  16 O :   -0.486682
  17 H :    0.161748
  18 H :    0.174236
  19 H :    0.368903
  20 H :    0.357879
  21 H :    0.348472
  22 H :    0.352944
  23 H :    0.356101
Sum of atomic charges:    0.0000000

LOEWDIN ATOMIC CHARGES
----------------------
   0 C :    0.040370
   1 C :    0.119663
   2 H :    0.196423
   3 C :    0.114358
   4 H :    0.191426
   5 C :    0.101237
   6 H :    0.190708
   7 C :    0.106418
   8 H :    0.206517
   9 C :    0.291879
  10 H :    0.207623
  11 O :   -0.698038
  12 O :   -0.503485
  13 O :   -0.581647
  14 O :   -0.604527
  15 O :   -0.604189
  16 O :   -0.622685
  17 H :    0.177197
  18 H :    0.197489
  19 H :    0.299538
  20 H :    0.293120
  21 H :    0.295258
  22 H :    0.296608
  23 H :    0.288738

  Mayer bond orders larger than 0.100000
B(  0-C ,  1-C ) :   0.9294 B(  0-C , 16-O ) :   0.9898 B(  0-C , 17-H ) :   0.9827
B(  0-C , 18-H ) :   0.9633 B(  1-C ,  2-H ) :   0.9482 B(  1-C ,  3-C ) :   0.8731
B(  1-C , 11-O ) :   0.7860 B(  3-C ,  4-H ) :   0.9533 B(  3-C ,  5-C ) :   0.8751
B(  3-C , 15-O ) :   0.8351 B(  5-C ,  6-H ) :   0.9664 B(  5-C ,  7-C ) :   0.8860
B(  5-C , 14-O ) :   0.8890 B(  7-C ,  8-H ) :   0.9510 B(  7-C ,  9-C ) :   0.8388
B(  7-C , 13-O ) :   0.9923 B(  9-C , 10-H ) :   0.9874 B(  9-C , 11-O ) :   0.9349
B(  9-C , 12-O ) :   1.1076 B( 12-O , 19-H ) :   0.8475 B( 13-O , 20-H ) :   0.8578
B( 14-O , 21-H ) :   0.8555 B( 15-O , 22-H ) :   0.8616 B( 16-O , 23-H ) :   0.8546

Dispersion correction           -0.007982524
FINAL SINGLE POINT ENERGY      -687.111462806933

DIPOLE MOMENT
-------------

Method             : SCF
Type of density    : Electron Density
Multiplicity       :   1
Irrep              :   0
Energy             :  -687.1227313746961727 Eh
Relativity type    :
Basis              : AO
                                X                 Y                 Z
Electronic contribution:      2.279267182      -0.905494910       0.115059341
Nuclear contribution   :     -1.065443441       1.252438091      -0.254116289
                        -----------------------------------------
Total Dipole Moment    :      1.213823740       0.346943181      -0.139056948
                        -----------------------------------------
Magnitude (a.u.)       :      1.270068690
Magnitude (Debye)      :      3.228258057

Rotational constants in cm-1:             0.039269             0.025962             0.016341
Rotational constants in MHz :          1177.242755           778.335810           489.892811

                             ****ORCA TERMINATED NORMALLY****
TOTAL RUN TIME: 0 days 0 hours 0 minutes 57 seconds 46 msec
