                         Program Version 6.0.0  -   RELEASE  -
|  1> ! wb97x-v def2-tzvp def2/J RIJCOSX DEFGRID2 scfconv7 GCP(DFT/TZ) printgap
|  2> %output
|  3>     printlevel normal
|  4> end
|  5> * xyz 0 1
|  6> C -1.9504131837997192 -0.2307432671352465 0.540196854403271
|  7> C -1.1863120989184623 -0.07181128157120797 -0.7688783235789661
|  8> C 0.12048816949145852 0.6996609740973632 -0.635502138671983
|  9> S 1.406586514976309 -0.14163834855434618 0.40105249208061133
| 10> H -1.3678311300301722 -0.7982828457392648 1.272321603046545
| 11> H -2.1805215577301214 0.7477533665257221 0.976877049285191
| 12> H -2.8955040009329696 -0.7585372929675565 0.37879344320403446
| 13> H -1.80705438405416 0.47593836233539505 -1.4907539678484527
| 14> H -0.9843959209300003 -1.0537694916671403 -1.2139583758209225
| 15> H 0.5597205642938731 0.9030313478756542 -1.6155532939320052
| 16> H -0.04715818580543763 1.6620095699823618 -0.13985411203219242
| 17> H 1.5791870376282509 -1.2019658845231533 -0.4112862251092134
| 18> *
| 19>
| 20>                          ****END OF INPUT****

CARTESIAN COORDINATES (ANGSTROEM)
---------------------------------
  C     -1.950413   -0.230743    0.540197
  C     -1.186312   -0.071811   -0.768878
  C      0.120488    0.699661   -0.635502
  S      1.406587   -0.141638    0.401052
  H     -1.367831   -0.798283    1.272322
  H     -2.180522    0.747753    0.976877
  H     -2.895504   -0.758537    0.378793
  H     -1.807054    0.475938   -1.490754
  H     -0.984396   -1.053769   -1.213958
  H      0.559721    0.903031   -1.615553
  H     -0.047158    1.662010   -0.139854
  H      1.579187   -1.201966   -0.411286

 Total Charge           Charge          ....    0
 Multiplicity           Mult            ....    1
 Number of Electrons    NEL             ....   42
 Basis Dimension        Dim             ....  178

ORBITAL ENERGIES
----------------

  NO   OCC          E(Eh)            E(eV)
   0   2.0000     -94.118639     -2561.0984
   1   2.0000     -12.081549      -328.7557
   2   2.0000     -12.052584      -327.9675
   3   2.0000     -12.035247      -327.4957
   4   2.0000      -9.629916      -262.0433
   5   2.0000      -7.607589      -207.0130
   6   2.0000      -7.606407      -206.9808
   7   2.0000      -7.605876      -206.9664
   8   2.0000      -1.311587       -35.6901
   9   2.0000      -1.233981       -33.5783
  10   2.0000      -1.149229       -31.2721
  11   2.0000      -1.056607       -28.7517
  12   2.0000      -0.890800       -24.2399
  13   2.0000      -0.883854       -24.0509
  14   2.0000      -0.866022       -23.5657
  15   2.0000      -0.812957       -22.1217
  16   2.0000      -0.806341       -21.9416
  17   2.0000      -0.790766       -21.5178
  18   2.0000      -0.764976       -20.8160
  19   2.0000      -0.740957       -20.1625
  20   2.0000      -0.644578       -17.5398
  21   0.0000      -0.197966        -5.3869
  22   0.0000      -0.105429        -2.8689
  23   0.0000      -0.022924        -0.6238
  24   0.0000      -0.015929        -0.4334
  25   0.0000       0.002566         0.0698

MULLIKEN ATOMIC CHARGES
-----------------------
   0 C :   -0.338064
   1 C :   -0.149070
   2 C :   -0.185018
   3 S :   -0.224956
   4 H :    0.124298
   5 H :    0.100014
   6 H :    0.113095
   7 H :    0.092640
   8 H :    0.090184
   9 H :    0.131237
  10 H :    0.115983
  11 H :    0.129657
Sum of atomic charges:    0.0000000

LOEWDIN ATOMIC CHARGES
----------------------
   0 C :   -0.313259
   1 C :   -0.325202
   2 C :   -0.468460
   3 S :    0.215234
   4 H :    0.117290
   5 H :    0.116185
   6 H :    0.116753
   7 H :    0.134359
   8 H :    0.129738
   9 H :    0.120464
  10 H :    0.126354
  11 H :    0.030544

  Mayer bond orders larger than 0.100000
B(  0-C ,  1-C ) :   0.9847 B(  0-C ,  4-H ) :   0.9739 B(  0-C ,  5-H ) :   0.9776
B(  0-C ,  6-H ) :   0.9794 B(  1-C ,  2-C ) :   0.9703 B(  1-C ,  7-H ) :   0.9638
B(  1-C ,  8-H ) :   0.9740 B(  2-C ,  3-S ) :   1.0315 B(  2-C ,  9-H ) :   0.9713
B(  2-C , 10-H ) :   0.9627 B(  3-S , 11-H ) :   0.9718

FINAL SINGLE POINT ENERGY      -517.280796258202

DIPOLE MOMENT
-------------

Method             : SCF
Type of density    : Electron Density
Multiplicity       :   1
Irrep              :   0
Energy             :  -517.2890559398015284 Eh
Relativity type    :
Basis              : AO
                                X                 Y                 Z
Electronic contribution:      6.464730842       0.046261227       1.618694349
Nuclear contribution   :     -6.906233516      -0.038346099      -2.137599265
                        -----------------------------------------
Total Dipole Moment    :     -0.441502674       0.007915128      -0.518904916
                        -----------------------------------------
Magnitude (a.u.)       :      0.681358623
Magnitude (Debye)      :      1.731875985

Rotational constants in cm-1:             0.383600             0.105126             0.092059
Rotational constants in MHz :         11500.050005          3151.603309          2759.857600

                             ****ORCA TERMINATED NORMALLY****
TOTAL RUN TIME: 0 days 0 hours 0 minutes 43 seconds 821 msec
