                         Program Version 6.0.0  -   RELEASE  -
|  1> ! wb97x-v def2-tzvp def2/J RIJCOSX DEFGRID2 scfconv7 GCP(DFT/TZ) printgap
|  2> %output
|  3>     printlevel normal
|  4> end
|  5> %cpcm
|  6>     smd true
|  7>     smdsolvent "water"
|  8> end
|  9> * xyz 0 1
| 10> C -1.9504131837997192 -0.2307432671352465 0.540196854403271
| 11> C -1.1863120989184623 -0.07181128157120797 -0.7688783235789661
| 12> C 0.12048816949145852 0.6996609740973632 -0.635502138671983
| 13> S 1.406586514976309 -0.14163834855434618 0.40105249208061133
| 14> H -1.3678311300301722 -0.7982828457392648 1.272321603046545
| 15> H -2.1805215577301214 0.7477533665257221 0.976877049285191
| 16> H -2.8955040009329696 -0.7585372929675565 0.37879344320403446
| 17> H -1.80705438405416 0.47593836233539505 -1.4907539678484527
| 18> H -0.9843959209300003 -1.0537694916671403 -1.2139583758209225
| 19> H 0.5597205642938731 0.9030313478756542 -1.6155532939320052
| 20> H -0.04715818580543763 1.6620095699823618 -0.13985411203219242
| 21> H 1.5791870376282509 -1.2019658845231533 -0.4112862251092134
| 22> *
| 23>
| 24>                          ****END OF INPUT****

CARTESIAN COORDINATES (ANGSTROEM)
---------------------------------
  C     -1.950413   -0.230743    0.540197
  C     -1.186312   -0.071811   -0.768878
  C      0.120488    0.699661   -0.635502
  S      1.406587   -0.141638    0.401052
  H     -1.367831   -0.798283    1.272322
  H     -2.180522    0.747753    0.976877
  H     -2.895504   -0.758537    0.378793
  H     -1.807054    0.475938   -1.490754
  H     -0.984396   -1.053769   -1.213958
  H      0.559721    0.903031   -1.615553
  H     -0.047158    1.662010   -0.139854
  H      1.579187   -1.201966   -0.411286

 Total Charge           Charge          ....    0
 Multiplicity           Mult            ....    1
 Number of Electrons    NEL             ....   42
 Basis Dimension        Dim             ....  178

ORBITAL ENERGIES
----------------

  NO   OCC          E(Eh)            E(eV)
   0   2.0000     -94.115338     -2561.0086
   1   2.0000     -12.069896      -328.4386
   2   2.0000     -12.039228      -327.6041
   3   2.0000     -12.025242      -327.2235
   4   2.0000      -9.626769      -261.9577
   5   2.0000      -7.604468      -206.9281
   6   2.0000      -7.603290      -206.8960
   7   2.0000      -7.602978      -206.8876
   8   2.0000      -1.300900       -35.3993
   9   2.0000      -1.226534       -33.3757
  10   2.0000      -1.140407       -31.0320
  11   2.0000      -1.045286       -28.4437
  12   2.0000      -0.878840       -23.9145
  13   2.0000      -0.872300       -23.7365
  14   2.0000      -0.855909       -23.2905
  15   2.0000      -0.803997       -21.8779
  16   2.0000      -0.795796       -21.6547
  17   2.0000      -0.781349       -21.2616
  18   2.0000      -0.753527       -20.5045
  19   2.0000      -0.734420       -19.9846
  20   2.0000      -0.642352       -17.4793
  21   0.0000      -0.192038        -5.2256
  22   0.0000      -0.096372        -2.6224
  23   0.0000      -0.011270        -0.3067
  24   0.0000      -0.003289        -0.0895
  25   0.0000       0.015369         0.4182

MULLIKEN ATOMIC CHARGES
-----------------------
   0 C :   -0.383465
   1 C :   -0.162909
   2 C :   -0.192627
   3 S :   -0.302907
   4 H :    0.115803
   5 H :    0.119728
   6 H :    0.130005
   7 H :    0.110376
   8 H :    0.108193
   9 H :    0.152064
  10 H :    0.141580
  11 H :    0.164159
Sum of atomic charges:    0.0000000

LOEWDIN ATOMIC CHARGES
----------------------
   0 C :   -0.320668
   1 C :   -0.323171
   2 C :   -0.462519
   3 S :    0.179035
   4 H :    0.112743
   5 H :    0.119450
   6 H :    0.119428
   7 H :    0.139860
   8 H :    0.133797
   9 H :    0.126612
  10 H :    0.132525
  11 H :    0.042907

  Mayer bond orders larger than 0.100000
B(  0-C ,  1-C ) :   0.9788 B(  0-C ,  4-H ) :   0.9744 B(  0-C ,  5-H ) :   0.9759
B(  0-C ,  6-H ) :   0.9778 B(  1-C ,  2-C ) :   0.9720 B(  1-C ,  7-H ) :   0.9617
B(  1-C ,  8-H ) :   0.9733 B(  2-C ,  3-S ) :   1.0096 B(  2-C ,  9-H ) :   0.9673
B(  2-C , 10-H ) :   0.9575 B(  3-S , 11-H ) :   0.9667

FINAL SINGLE POINT ENERGY      -517.282381346218

DIPOLE MOMENT
-------------

Method             : SCF
Type of density    : Electron Density
Multiplicity       :   1
Irrep              :   0
Energy             :  -517.2906410278175144 Eh
Relativity type    :
Basis              : AO
                                X                 Y                 Z
Electronic contribution:      6.320575446       0.085824933       1.397738042
Nuclear contribution   :     -6.906233516      -0.038346099      -2.137599265
                        -----------------------------------------
Total Dipole Moment    :     -0.585658070       0.047478834      -0.739861223
                        -----------------------------------------
Magnitude (a.u.)       :      0.944798520
Magnitude (Debye)      :      2.401486988

Rotational constants in cm-1:             0.383600             0.105126             0.092059
Rotational constants in MHz :         11500.050005          3151.603309          2759.857600

                             ****ORCA TERMINATED NORMALLY****
TOTAL RUN TIME: 0 days 0 hours 0 minutes 46 seconds 153 msec
