                         Program Version 6.0.0  -   RELEASE  -
|  1> ! pbe def2-sv(p) def2/J RI DEFGRID1 loosescf d4 GCP(DFT/SV(P)) printgap
|  2> %output
|  3>     printlevel normal
|  4> end
|  5> * xyz 0 1
|  6> C 2.2922080935 0.1483101977 5.78069e-05
|  7> C 0.811095178 0.2705617091 -0.0001121345
|  8> C 0.047469039 1.3939587571 6.4049e-06
|  9> C -1.3436652299 1.1291849877 -5.47786e-05
| 10> C -1.621825489 -0.196126299 0.0001170702
| 11> S -0.1886588618 -1.1524293062 -3.28052e-05
| 12> H 2.7443253811 1.1364382643 -0.0038841472
| 13> H 2.6304241711 -0.3932497709 0.8823153529
| 14> H 2.6301480049 -0.4003608441 -0.8778721642
| 15> H 0.4604264802 2.3868011356 8.45574e-05
| 16> H -2.0965815092 1.8965794794 -6.40299e-05
| 17> H -2.57493021 -0.6852535161 0.0002928155
| 18> *
| 19>
| 20>                          ****END OF INPUT****

CARTESIAN COORDINATES (ANGSTROEM)
---------------------------------
  C      2.292208    0.148310    0.000058
  C      0.811095    0.270562   -0.000112
  C      0.047469    1.393959    0.000006
  C     -1.343665    1.129185   -0.000055
  C     -1.621825   -0.196126    0.000117
  S     -0.188659   -1.152429   -0.000033
  H      2.744325    1.136438   -0.003884
  H      2.630424   -0.393250    0.882315
  H      2.630148   -0.400361   -0.877872
  H      0.460426    2.386801    0.000085
  H     -2.096582    1.896579   -0.000064
  H     -2.574930   -0.685254    0.000293

 Total Charge           Charge          ....    0
 Multiplicity           Mult            ....    1
 Number of Electrons    NEL             ....   52
 Basis Dimension        Dim             ....  100

ORBITAL ENERGIES
----------------

  NO   OCC          E(Eh)            E(eV)
   0   2.0000     -88.051263     -2395.9967
   1   2.0000      -9.915814      -269.8230
   2   2.0000      -9.904543      -269.5163
   3   2.0000      -9.890643      -269.1381
   4   2.0000      -9.886810      -269.0338
   5   2.0000      -9.884389      -268.9679
   6   2.0000      -7.695989      -209.4185
   7   2.0000      -5.723196      -155.7361
   8   2.0000      -5.718660      -155.6126
   9   2.0000      -5.715800      -155.5348
  10   2.0000      -0.800161       -21.7735
  11   2.0000      -0.686790       -18.6885
  12   2.0000      -0.658468       -17.9178
  13   2.0000      -0.602665       -16.3994
  14   2.0000      -0.499370       -13.5886
  15   2.0000      -0.477138       -12.9836
  16   2.0000      -0.448166       -12.1952
  17   2.0000      -0.384517       -10.4632
  18   2.0000      -0.382407       -10.4058
  19   2.0000      -0.355192        -9.6653
  20   2.0000      -0.338943        -9.2231
  21   2.0000      -0.323538        -8.8039
  22   2.0000      -0.321719        -8.7544
  23   2.0000      -0.299454        -8.1486
  24   2.0000      -0.219888        -5.9834
  25   2.0000      -0.198136        -5.3916
  26   0.0000      -0.034469        -0.9379
  27   0.0000       0.013702         0.3728
  28   0.0000       0.037719         1.0264
  29   0.0000       0.053020         1.4428
  30   0.0000       0.066043         1.7971

MULLIKEN ATOMIC CHARGES
-----------------------
   0 C :   -0.194643
   1 C :   -0.189466
   2 C :   -0.056118
   3 C :   -0.038650
   4 C :   -0.172850
   5 S :    0.096245
   6 H :    0.109741
   7 H :    0.120541
   8 H :    0.120387
   9 H :    0.046693
  10 H :    0.059405
  11 H :    0.098716
Sum of atomic charges:   -0.0000000

LOEWDIN ATOMIC CHARGES
----------------------
   0 C :   -0.337067
   1 C :   -0.201835
   2 C :   -0.176694
   3 C :   -0.169674
   4 C :   -0.303256
   5 S :    0.407858
   6 H :    0.134212
   7 H :    0.133072
   8 H :    0.133020
   9 H :    0.125442
  10 H :    0.127410
  11 H :    0.127512

  Mayer bond orders larger than 0.100000
B(  0-C ,  1-C ) :   1.1310 B(  0-C ,  6-H ) :   0.9411 B(  0-C ,  7-H ) :   0.9323
B(  0-C ,  8-H ) :   0.9324 B(  1-C ,  2-C ) :   1.5850 B(  1-C ,  4-C ) :   0.1004
B(  1-C ,  5-S ) :   1.1596 B(  2-C ,  3-C ) :   1.2449 B(  2-C ,  9-H ) :   0.9661
B(  3-C ,  4-C ) :   1.5653 B(  3-C , 10-H ) :   0.9684 B(  4-C ,  5-S ) :   1.1588
B(  4-C , 11-H ) :   0.9475

Dispersion correction           -0.011887688
FINAL SINGLE POINT ENERGY      -591.584975065608

DIPOLE MOMENT
-------------

Method             : SCF
Type of density    : Electron Density
Multiplicity       :   1
Irrep              :   0
Energy             :  -591.6156729058407109 Eh
Relativity type    :
Basis              : AO
                                X                 Y                 Z
Electronic contribution:     -3.386319012      -3.575326708      -0.000546937
Nuclear contribution   :      3.564659639       3.730303342       0.000819388
                        -----------------------------------------
Total Dipole Moment    :      0.178340627       0.154976634       0.000272451
                        -----------------------------------------
Magnitude (a.u.)       :      0.236269360
Magnitude (Debye)      :      0.600548986

Rotational constants in cm-1:             0.175857             0.105436             0.066731
Rotational constants in MHz :          5272.056980          3160.901814          2000.540194

                             ****ORCA TERMINATED NORMALLY****
TOTAL RUN TIME: 0 days 0 hours 0 minutes 5 seconds 624 msec
