                         Program Version 6.0.0  -   RELEASE  -
|  1> ! r2scan-3c def2/J RI DEFGRID2 scfconv6 printgap
|  2> %output
|  3>     printlevel normal
|  4> end
|  5> * xyz 0 1
|  6> C -2.1966504191 0.6922912551 0.0480035807
|  7> C -2.1967606227 -0.692254722 0.0477919986
|  8> C -1.0023963121 -1.3986585521 -0.0043628673
|  9> C 0.1848622099 -0.6965597237 -0.0511104836
| 10> C 0.1849440952 0.6966416733 -0.0510816498
| 11> C -1.002311798 1.3987248168 -0.0039978792
| 12> C 1.5887331302 1.2217517361 -0.1224275759
| 13> C 2.4427214782 -1.54572e-05 0.2541480691
| 14> C 1.5886111599 -1.2218787777 -0.1218692599
| 15> H -3.1336308384 1.2278549717 0.0910231699
| 16> H -3.1337744015 -1.2277267202 0.0905065854
| 17> H -1.0050465294 -2.4790207004 -0.0039247705
| 18> H -1.0049360289 2.4790481656 -0.0031702595
| 19> H 1.8040556201 1.5488141859 -1.1433277503
| 20> H 1.7539012796 2.0688301059 0.542850514
| 21> H 3.408228784 -0.0001679767 -0.2483022473
| 22> H 2.6187003535 0.0001561925 1.3309100166
| 23> H 1.8042256233 -1.5499477452 -1.1422757025
| 24> H 1.7532981239 -2.0683439516 0.5441753479
| 25> *
| 26>
| 27>                          ****END OF INPUT****

CARTESIAN COORDINATES (ANGSTROEM)
---------------------------------
  C     -2.196650    0.692291    0.048004
  C     -2.196761   -0.692255    0.047792
  C     -1.002396   -1.398659   -0.004363
  C      0.184862   -0.696560   -0.051110
  C      0.184944    0.696642   -0.051082
  C     -1.002312    1.398725   -0.003998
  C      1.588733    1.221752   -0.122428
  C      2.442721   -0.000015    0.254148
  C      1.588611   -1.221879   -0.121869
  H     -3.133631    1.227855    0.091023
  H     -3.133774   -1.227727    0.090507
  H     -1.005047   -2.479021   -0.003925
  H     -1.004936    2.479048   -0.003170
  H      1.804056    1.548814   -1.143328
  H      1.753901    2.068830    0.542851
  H      3.408229   -0.000168   -0.248302
  H      2.618700    0.000156    1.330910
  H      1.804226   -1.549948   -1.142276
  H      1.753298   -2.068344    0.544175

 Total Charge           Charge          ....    0
 Multiplicity           Mult            ....    1
 Number of Electrons    NEL             ....   64
 Basis Dimension        Dim             ....  221

ORBITAL ENERGIES
----------------

  NO   OCC          E(Eh)            E(eV)
   0   2.0000     -10.031102      -272.9602
   1   2.0000     -10.031077      -272.9595
   2   2.0000     -10.030623      -272.9471
   3   2.0000     -10.030204      -272.9357
   4   2.0000     -10.029999      -272.9302
   5   2.0000     -10.028087      -272.8781
   6   2.0000     -10.027947      -272.8743
   7   2.0000     -10.027642      -272.8660
   8   2.0000     -10.027321      -272.8573
   9   2.0000      -0.838870       -22.8268
  10   2.0000      -0.777663       -21.1613
  11   2.0000      -0.722906       -19.6713
  12   2.0000      -0.682017       -18.5586
  13   2.0000      -0.659132       -17.9359
  14   2.0000      -0.576616       -15.6905
  15   2.0000      -0.547249       -14.8914
  16   2.0000      -0.537938       -14.6380
  17   2.0000      -0.471932       -12.8419
  18   2.0000      -0.446641       -12.1537
  19   2.0000      -0.427733       -11.6392
  20   2.0000      -0.412527       -11.2254
  21   2.0000      -0.381019       -10.3680
  22   2.0000      -0.374994       -10.2041
  23   2.0000      -0.374324       -10.1859
  24   2.0000      -0.344876        -9.3845
  25   2.0000      -0.319476        -8.6934
  26   2.0000      -0.317723        -8.6457
  27   2.0000      -0.305053        -8.3009
  28   2.0000      -0.301973        -8.2171
  29   2.0000      -0.294393        -8.0109
  30   2.0000      -0.228200        -6.2096
  31   2.0000      -0.214098        -5.8259
  32   0.0000      -0.028756        -0.7825
  33   0.0000      -0.019114        -0.5201
  34   0.0000       0.085987         2.3398
  35   0.0000       0.099359         2.7037
  36   0.0000       0.108464         2.9514

MULLIKEN ATOMIC CHARGES
-----------------------
   0 C :   -0.151844
   1 C :   -0.151893
   2 C :   -0.220810
   3 C :    0.106933
   4 C :    0.106977
   5 C :   -0.220853
   6 C :   -0.350483
   7 C :   -0.315941
   8 C :   -0.350535
   9 H :    0.144191
  10 H :    0.144195
  11 H :    0.147785
  12 H :    0.147783
  13 H :    0.166875
  14 H :    0.156373
  15 H :    0.152412
  16 H :    0.165587
  17 H :    0.166855
  18 H :    0.156393
Sum of atomic charges:    0.0000000

LOEWDIN ATOMIC CHARGES
----------------------
   0 C :   -0.168890
   1 C :   -0.168893
   2 C :   -0.157122
   3 C :   -0.081672
   4 C :   -0.081676
   5 C :   -0.157125
   6 C :   -0.272127
   7 C :   -0.285624
   8 C :   -0.272133
   9 H :    0.165518
  10 H :    0.165520
  11 H :    0.168129
  12 H :    0.168124
  13 H :    0.167236
  14 H :    0.164049
  15 H :    0.155801
  16 H :    0.159623
  17 H :    0.167216
  18 H :    0.164048

  Mayer bond orders larger than 0.100000
B(  0-C ,  1-C ) :   1.4390 B(  0-C ,  5-C ) :   1.4150 B(  0-C ,  9-H ) :   0.9492
B(  1-C ,  2-C ) :   1.4150 B(  1-C , 10-H ) :   0.9492 B(  2-C ,  3-C ) :   1.3721
B(  2-C , 11-H ) :   0.9404 B(  3-C ,  4-C ) :   1.5143 B(  3-C ,  8-C ) :   0.8436
B(  4-C ,  5-C ) :   1.3721 B(  4-C ,  6-C ) :   0.8435 B(  5-C , 12-H ) :   0.9404
B(  6-C ,  7-C ) :   0.9007 B(  6-C , 13-H ) :   0.9690 B(  6-C , 14-H ) :   0.9856
B(  7-C ,  8-C ) :   0.9007 B(  7-C , 15-H ) :   0.9845 B(  7-C , 16-H ) :   0.9882
B(  8-C , 17-H ) :   0.9689 B(  8-C , 18-H ) :   0.9856

Dispersion correction           -0.006532962
FINAL SINGLE POINT ENERGY      -348.881243387586

DIPOLE MOMENT
-------------

Method             : SCF
Type of density    : Electron Density
Multiplicity       :   1
Irrep              :   0
Energy             :  -348.8800101191571343 Eh
Relativity type    :
Basis              : AO
                                X                 Y                 Z
Electronic contribution:     -4.283997990       0.000396241      -0.080818819
Nuclear contribution   :      4.564210271      -0.000472342       0.054849930
                        -----------------------------------------
Total Dipole Moment    :      0.280212281      -0.000076100      -0.025968890
                        -----------------------------------------
Magnitude (a.u.)       :      0.281413062
Magnitude (Debye)      :      0.715295158

Rotational constants in cm-1:             0.119333             0.050664             0.036543
Rotational constants in MHz :          3577.527978          1518.872212          1095.535838

                             ****ORCA TERMINATED NORMALLY****
TOTAL RUN TIME: 0 days 0 hours 0 minutes 24 seconds 316 msec
