                         Program Version 6.0.0  -   RELEASE  -
|  1> ! r2scan-3c def2/J RI DEFGRID2 scfconv6 printgap
|  2> %output
|  3>     printlevel normal
|  4> end
|  5> %cpcm
|  6>     smd true
|  7>     smdsolvent "water"
|  8> end
|  9> * xyz 0 1
| 10> C -2.1966504191 0.6922912551 0.0480035807
| 11> C -2.1967606227 -0.692254722 0.0477919986
| 12> C -1.0023963121 -1.3986585521 -0.0043628673
| 13> C 0.1848622099 -0.6965597237 -0.0511104836
| 14> C 0.1849440952 0.6966416733 -0.0510816498
| 15> C -1.002311798 1.3987248168 -0.0039978792
| 16> C 1.5887331302 1.2217517361 -0.1224275759
| 17> C 2.4427214782 -1.54572e-05 0.2541480691
| 18> C 1.5886111599 -1.2218787777 -0.1218692599
| 19> H -3.1336308384 1.2278549717 0.0910231699
| 20> H -3.1337744015 -1.2277267202 0.0905065854
| 21> H -1.0050465294 -2.4790207004 -0.0039247705
| 22> H -1.0049360289 2.4790481656 -0.0031702595
| 23> H 1.8040556201 1.5488141859 -1.1433277503
| 24> H 1.7539012796 2.0688301059 0.542850514
| 25> H 3.408228784 -0.0001679767 -0.2483022473
| 26> H 2.6187003535 0.0001561925 1.3309100166
| 27> H 1.8042256233 -1.5499477452 -1.1422757025
| 28> H 1.7532981239 -2.0683439516 0.5441753479
| 29> *
| 30>
| 31>                          ****END OF INPUT****

CARTESIAN COORDINATES (ANGSTROEM)
---------------------------------
  C     -2.196650    0.692291    0.048004
  C     -2.196761   -0.692255    0.047792
  C     -1.002396   -1.398659   -0.004363
  C      0.184862   -0.696560   -0.051110
  C      0.184944    0.696642   -0.051082
  C     -1.002312    1.398725   -0.003998
  C      1.588733    1.221752   -0.122428
  C      2.442721   -0.000015    0.254148
  C      1.588611   -1.221879   -0.121869
  H     -3.133631    1.227855    0.091023
  H     -3.133774   -1.227727    0.090507
  H     -1.005047   -2.479021   -0.003925
  H     -1.004936    2.479048   -0.003170
  H      1.804056    1.548814   -1.143328
  H      1.753901    2.068830    0.542851
  H      3.408229   -0.000168   -0.248302
  H      2.618700    0.000156    1.330910
  H      1.804226   -1.549948   -1.142276
  H      1.753298   -2.068344    0.544175

 Total Charge           Charge          ....    0
 Multiplicity           Mult            ....    1
 Number of Electrons    NEL             ....   64
 Basis Dimension        Dim             ....  221

ORBITAL ENERGIES
----------------

  NO   OCC          E(Eh)            E(eV)
   0   2.0000     -10.031804      -272.9793
   1   2.0000     -10.031377      -272.9677
   2   2.0000     -10.028140      -272.8796
   3   2.0000     -10.027972      -272.8750
   4   2.0000     -10.027682      -272.8671
   5   2.0000     -10.027393      -272.8592
   6   2.0000     -10.023832      -272.7623
   7   2.0000     -10.023806      -272.7616
   8   2.0000     -10.021139      -272.6891
   9   2.0000      -0.838971       -22.8296
  10   2.0000      -0.775664       -21.1069
  11   2.0000      -0.722696       -19.6656
  12   2.0000      -0.680159       -18.5081
  13   2.0000      -0.654875       -17.8201
  14   2.0000      -0.574219       -15.6253
  15   2.0000      -0.542285       -14.7563
  16   2.0000      -0.536541       -14.6000
  17   2.0000      -0.468595       -12.7511
  18   2.0000      -0.441219       -12.0062
  19   2.0000      -0.424930       -11.5629
  20   2.0000      -0.409044       -11.1306
  21   2.0000      -0.378309       -10.2943
  22   2.0000      -0.372003       -10.1227
  23   2.0000      -0.367822       -10.0089
  24   2.0000      -0.346026        -9.4159
  25   2.0000      -0.314478        -8.5574
  26   2.0000      -0.310772        -8.4565
  27   2.0000      -0.301646        -8.2082
  28   2.0000      -0.298002        -8.1090
  29   2.0000      -0.290924        -7.9164
  30   2.0000      -0.232268        -6.3203
  31   2.0000      -0.216141        -5.8815
  32   0.0000      -0.031503        -0.8572
  33   0.0000      -0.021998        -0.5986
  34   0.0000       0.092903         2.5280
  35   0.0000       0.105180         2.8621
  36   0.0000       0.116464         3.1691

MULLIKEN ATOMIC CHARGES
-----------------------
   0 C :   -0.191407
   1 C :   -0.191436
   2 C :   -0.251366
   3 C :    0.076976
   4 C :    0.077015
   5 C :   -0.251381
   6 C :   -0.348825
   7 C :   -0.333726
   8 C :   -0.348828
   9 H :    0.175154
  10 H :    0.175161
  11 H :    0.177223
  12 H :    0.177221
  13 H :    0.183267
  14 H :    0.174036
  15 H :    0.165468
  16 H :    0.178159
  17 H :    0.183245
  18 H :    0.174046
Sum of atomic charges:    0.0000000

LOEWDIN ATOMIC CHARGES
----------------------
   0 C :   -0.184714
   1 C :   -0.184711
   2 C :   -0.168330
   3 C :   -0.088487
   4 C :   -0.088491
   5 C :   -0.168335
   6 C :   -0.273435
   7 C :   -0.287612
   8 C :   -0.273436
   9 H :    0.175262
  10 H :    0.175266
  11 H :    0.178642
  12 H :    0.178635
  13 H :    0.173352
  14 H :    0.169989
  15 H :    0.160775
  16 H :    0.162315
  17 H :    0.173332
  18 H :    0.169985

  Mayer bond orders larger than 0.100000
B(  0-C ,  1-C ) :   1.3951 B(  0-C ,  5-C ) :   1.3785 B(  0-C ,  9-H ) :   0.9594
B(  1-C ,  2-C ) :   1.3785 B(  1-C , 10-H ) :   0.9594 B(  2-C ,  3-C ) :   1.3386
B(  2-C , 11-H ) :   0.9588 B(  3-C ,  4-C ) :   1.4676 B(  3-C ,  8-C ) :   0.8570
B(  4-C ,  5-C ) :   1.3385 B(  4-C ,  6-C ) :   0.8569 B(  5-C , 12-H ) :   0.9588
B(  6-C ,  7-C ) :   0.8831 B(  6-C , 13-H ) :   0.9640 B(  6-C , 14-H ) :   0.9822
B(  7-C ,  8-C ) :   0.8831 B(  7-C , 15-H ) :   0.9787 B(  7-C , 16-H ) :   0.9924
B(  8-C , 17-H ) :   0.9639 B(  8-C , 18-H ) :   0.9823

Dispersion correction           -0.006532962
FINAL SINGLE POINT ENERGY      -348.883353380187

DIPOLE MOMENT
-------------

Method             : SCF
Type of density    : Electron Density
Multiplicity       :   1
Irrep              :   0
Energy             :  -348.8821201117582973 Eh
Relativity type    :
Basis              : AO
                                X                 Y                 Z
Electronic contribution:     -4.132577532       0.000341958      -0.106830504
Nuclear contribution   :      4.564210271      -0.000472342       0.054849930
                        -----------------------------------------
Total Dipole Moment    :      0.431632739      -0.000130384      -0.051980574
                        -----------------------------------------
Magnitude (a.u.)       :      0.434751445
Magnitude (Debye)      :      1.105050352

Rotational constants in cm-1:             0.119333             0.050664             0.036543
Rotational constants in MHz :          3577.527978          1518.872212          1095.535838

                             ****ORCA TERMINATED NORMALLY****
TOTAL RUN TIME: 0 days 0 hours 0 minutes 33 seconds 143 msec
