                         Program Version 6.0.0  -   RELEASE  -
|  1> ! pbe def2-sv(p) def2/J RI DEFGRID1 loosescf d4 GCP(DFT/SV(P)) printgap
|  2> %output
|  3>     printlevel normal
|  4> end
|  5> * xyz 0 1
|  6> C -2.1693264728 0.0067950078 -3.41588e-05
|  7> C -0.8774223152 0.8175427558 7.31168e-05
|  8> C 0.4266799116 -0.0017235035 1.03416e-05
|  9> C 1.6012987913 0.9836481039 1.65188e-05
| 10> C 0.5206052785 -0.8801889157 -1.2499067629
| 11> C 0.5205937001 -0.8802847619 1.2498529214
| 12> H -2.2390476734 -0.6218019528 0.8833859084
| 13> H -3.0222023193 0.6821386628 -0.0005262117
| 14> H -2.2385289568 -0.6224671508 -0.883021197
| 15> H -0.8738798673 1.4652850465 0.8805035229
| 16> H -0.8738605398 1.4653628999 -0.8802944727
| 17> H 1.5677752905 1.6196927399 -0.8818127562
| 18> H 2.5483489958 0.4488237065 -0.0001477727
| 19> H 1.5679830634 1.6195032973 0.8819784192
| 20> H 0.4005933468 -0.2799114962 -2.1491123498
| 21> H 1.4915481189 -1.368839745 -1.2915357163
| 22> H -0.244046105 -1.6521575007 -1.2435787719
| 23> H 1.4912812967 -1.3694674261 1.2911188733
| 24> H -0.2444897036 -1.6518367334 1.2437716491
| 25> H 0.4012431397 -0.2799815676 2.1491281468
| 26> *
| 27>
| 28>                          ****END OF INPUT****

CARTESIAN COORDINATES (ANGSTROEM)
---------------------------------
  C     -2.169326    0.006795   -0.000034
  C     -0.877422    0.817543    0.000073
  C      0.426680   -0.001724    0.000010
  C      1.601299    0.983648    0.000017
  C      0.520605   -0.880189   -1.249907
  C      0.520594   -0.880285    1.249853
  H     -2.239048   -0.621802    0.883386
  H     -3.022202    0.682139   -0.000526
  H     -2.238529   -0.622467   -0.883021
  H     -0.873880    1.465285    0.880504
  H     -0.873861    1.465363   -0.880294
  H      1.567775    1.619693   -0.881813
  H      2.548349    0.448824   -0.000148
  H      1.567983    1.619503    0.881978
  H      0.400593   -0.279911   -2.149112
  H      1.491548   -1.368840   -1.291536
  H     -0.244046   -1.652158   -1.243579
  H      1.491281   -1.369467    1.291119
  H     -0.244490   -1.651837    1.243772
  H      0.401243   -0.279982    2.149128

 Total Charge           Charge          ....    0
 Multiplicity           Mult            ....    1
 Number of Electrons    NEL             ....   50
 Basis Dimension        Dim             ....  112

ORBITAL ENERGIES
----------------

  NO   OCC          E(Eh)            E(eV)
   0   2.0000      -9.901011      -269.4202
   1   2.0000      -9.878223      -268.8001
   2   2.0000      -9.869168      -268.5537
   3   2.0000      -9.867904      -268.5193
   4   2.0000      -9.867890      -268.5189
   5   2.0000      -9.867009      -268.4950
   6   2.0000      -0.743231       -20.2243
   7   2.0000      -0.659145       -17.9363
   8   2.0000      -0.609125       -16.5751
   9   2.0000      -0.608683       -16.5631
  10   2.0000      -0.551423       -15.0050
  11   2.0000      -0.464065       -12.6279
  12   2.0000      -0.410168       -11.1612
  13   2.0000      -0.408692       -11.1211
  14   2.0000      -0.388720       -10.5776
  15   2.0000      -0.375651       -10.2220
  16   2.0000      -0.351967        -9.5775
  17   2.0000      -0.335060        -9.1174
  18   2.0000      -0.330800        -9.0015
  19   2.0000      -0.316718        -8.6183
  20   2.0000      -0.311368        -8.4728
  21   2.0000      -0.298628        -8.1261
  22   2.0000      -0.273834        -7.4514
  23   2.0000      -0.271148        -7.3783
  24   2.0000      -0.266936        -7.2637
  25   0.0000       0.029212         0.7949
  26   0.0000       0.068855         1.8737
  27   0.0000       0.075940         2.0664
  28   0.0000       0.079067         2.1515
  29   0.0000       0.091008         2.4764

MULLIKEN ATOMIC CHARGES
-----------------------
   0 C :   -0.270601
   1 C :   -0.132149
   2 C :   -0.251864
   3 C :   -0.200833
   4 C :   -0.221323
   5 C :   -0.221313
   6 H :    0.102079
   7 H :    0.099913
   8 H :    0.102073
   9 H :    0.075716
  10 H :    0.075711
  11 H :    0.090526
  12 H :    0.091719
  13 H :    0.090526
  14 H :    0.091855
  15 H :    0.092217
  16 H :    0.100844
  17 H :    0.092214
  18 H :    0.100838
  19 H :    0.091850
Sum of atomic charges:   -0.0000000

LOEWDIN ATOMIC CHARGES
----------------------
   0 C :   -0.343395
   1 C :   -0.214839
   2 C :   -0.108996
   3 C :   -0.315422
   4 C :   -0.317687
   5 C :   -0.317685
   6 H :    0.117186
   7 H :    0.120616
   8 H :    0.117187
   9 H :    0.112231
  10 H :    0.112227
  11 H :    0.114652
  12 H :    0.114121
  13 H :    0.114651
  14 H :    0.115756
  15 H :    0.116626
  16 H :    0.115196
  17 H :    0.116623
  18 H :    0.115196
  19 H :    0.115754

  Mayer bond orders larger than 0.100000
B(  0-C ,  1-C ) :   1.1614 B(  0-C ,  6-H ) :   0.9472 B(  0-C ,  7-H ) :   0.9489
B(  0-C ,  8-H ) :   0.9472 B(  1-C ,  2-C ) :   1.0491 B(  1-C ,  9-H ) :   0.9209
B(  1-C , 10-H ) :   0.9209 B(  2-C ,  3-C ) :   1.0785 B(  2-C ,  4-C ) :   1.0716
B(  2-C ,  5-C ) :   1.0716 B(  3-C , 11-H ) :   0.9475 B(  3-C , 12-H ) :   0.9475
B(  3-C , 13-H ) :   0.9475 B(  4-C , 14-H ) :   0.9491 B(  4-C , 15-H ) :   0.9479
B(  4-C , 16-H ) :   0.9430 B(  5-C , 17-H ) :   0.9479 B(  5-C , 18-H ) :   0.9430
B(  5-C , 19-H ) :   0.9491

Dispersion correction           -0.016088777
FINAL SINGLE POINT ENERGY      -236.450122439887

DIPOLE MOMENT
-------------

Method             : SCF
Type of density    : Electron Density
Multiplicity       :   1
Irrep              :   0
Energy             :  -236.5171092990953525 Eh
Relativity type    :
Basis              : AO
                                X                 Y                 Z
Electronic contribution:      0.230414023       0.513967792       0.000126193
Nuclear contribution   :     -0.250753514      -0.511914419      -0.000133902
                        -----------------------------------------
Total Dipole Moment    :     -0.020339491       0.002053374      -0.000007709
                        -----------------------------------------
Magnitude (a.u.)       :      0.020442879
Magnitude (Debye)      :      0.051961669

Rotational constants in cm-1:             0.144339             0.084049             0.083737
Rotational constants in MHz :          4327.163901          2519.735126          2510.357552

                             ****ORCA TERMINATED NORMALLY****
TOTAL RUN TIME: 0 days 0 hours 0 minutes 7 seconds 164 msec
