                         Program Version 6.0.0  -   RELEASE  -
|  1> ! pbe def2-sv(p) def2/J RI DEFGRID1 loosescf d4 GCP(DFT/SV(P)) printgap
|  2> %output
|  3>     printlevel normal
|  4> end
|  5> * xyz 0 1
|  6> C -1.7861909753 -0.0383073016 -0.663019681
|  7> C -0.8516518883 -0.0329001486 0.5429793697
|  8> C 0.1417220353 -1.1971554809 0.5021602434
|  9> C 1.2636100763 -0.7282319093 -0.4331204667
| 10> C 1.2208856671 0.8114887222 -0.4067563937
| 11> C 0.0754808129 1.1854266265 0.5427432089
| 12> H -1.2196962828 -0.0067693911 -1.5892160488
| 13> H -2.3984199804 -0.9375344975 -0.6636868755
| 14> H -2.447381185 0.8250533711 -0.6336268645
| 15> H -1.4575115161 -0.0652087777 1.4532725741
| 16> H 0.5388963134 -1.3677480585 1.5040056647
| 17> H -0.3197445591 -2.1217601809 0.1583954457
| 18> H 2.2303872486 -1.1090598979 -0.1065005701
| 19> H 1.0921489844 -1.0965017429 -1.4444338183
| 20> H 2.1653714086 1.2338462974 -0.0661424993
| 21> H 1.0285431396 1.204095277 -1.4051321543
| 22> H 0.4633835619 1.3436878499 1.5501787848
| 23> H -0.4369367003 2.0940802994 0.2301170225
| 24> *
| 25>
| 26>                          ****END OF INPUT****

CARTESIAN COORDINATES (ANGSTROEM)
---------------------------------
  C     -1.786191   -0.038307   -0.663020
  C     -0.851652   -0.032900    0.542979
  C      0.141722   -1.197155    0.502160
  C      1.263610   -0.728232   -0.433120
  C      1.220886    0.811489   -0.406756
  C      0.075481    1.185427    0.542743
  H     -1.219696   -0.006769   -1.589216
  H     -2.398420   -0.937534   -0.663687
  H     -2.447381    0.825053   -0.633627
  H     -1.457512   -0.065209    1.453273
  H      0.538896   -1.367748    1.504006
  H     -0.319745   -2.121760    0.158395
  H      2.230387   -1.109060   -0.106501
  H      1.092149   -1.096502   -1.444434
  H      2.165371    1.233846   -0.066142
  H      1.028543    1.204095   -1.405132
  H      0.463384    1.343688    1.550179
  H     -0.436937    2.094080    0.230117

 Total Charge           Charge          ....    0
 Multiplicity           Mult            ....    1
 Number of Electrons    NEL             ....   48
 Basis Dimension        Dim             ....  108

ORBITAL ENERGIES
----------------

  NO   OCC          E(Eh)            E(eV)
   0   2.0000      -9.885215      -268.9904
   1   2.0000      -9.875044      -268.7136
   2   2.0000      -9.874959      -268.7113
   3   2.0000      -9.873978      -268.6846
   4   2.0000      -9.873965      -268.6843
   5   2.0000      -9.869779      -268.5703
   6   2.0000      -0.757357       -20.6087
   7   2.0000      -0.658900       -17.9296
   8   2.0000      -0.629937       -17.1415
   9   2.0000      -0.587355       -15.9827
  10   2.0000      -0.494342       -13.4517
  11   2.0000      -0.478706       -13.0262
  12   2.0000      -0.437635       -11.9087
  13   2.0000      -0.421459       -11.4685
  14   2.0000      -0.383932       -10.4473
  15   2.0000      -0.358035        -9.7426
  16   2.0000      -0.347188        -9.4475
  17   2.0000      -0.336238        -9.1495
  18   2.0000      -0.292833        -7.9684
  19   2.0000      -0.289244        -7.8707
  20   2.0000      -0.279167        -7.5965
  21   2.0000      -0.276635        -7.5276
  22   2.0000      -0.273503        -7.4424
  23   2.0000      -0.264793        -7.2054
  24   0.0000       0.026678         0.7259
  25   0.0000       0.046435         1.2636
  26   0.0000       0.075566         2.0562
  27   0.0000       0.088879         2.4185
  28   0.0000       0.096879         2.6362

MULLIKEN ATOMIC CHARGES
-----------------------
   0 C :   -0.243702
   1 C :   -0.197505
   2 C :   -0.120256
   3 C :   -0.165579
   4 C :   -0.165130
   5 C :   -0.120477
   6 H :    0.095877
   7 H :    0.099002
   8 H :    0.099007
   9 H :    0.069728
  10 H :    0.077810
  11 H :    0.080749
  12 H :    0.082627
  13 H :    0.083352
  14 H :    0.082589
  15 H :    0.083315
  16 H :    0.077812
  17 H :    0.080783
Sum of atomic charges:    0.0000000

LOEWDIN ATOMIC CHARGES
----------------------
   0 C :   -0.329921
   1 C :   -0.154849
   2 C :   -0.220301
   3 C :   -0.232688
   4 C :   -0.232630
   5 C :   -0.220390
   6 H :    0.116548
   7 H :    0.117806
   8 H :    0.117813
   9 H :    0.112263
  10 H :    0.115047
  11 H :    0.114175
  12 H :    0.117931
  13 H :    0.116008
  14 H :    0.117911
  15 H :    0.116011
  16 H :    0.115060
  17 H :    0.114205

  Mayer bond orders larger than 0.100000
B(  0-C ,  1-C ) :   1.1097 B(  0-C ,  6-H ) :   0.9515 B(  0-C ,  7-H ) :   0.9501
B(  0-C ,  8-H ) :   0.9501 B(  1-C ,  2-C ) :   1.0782 B(  1-C ,  5-C ) :   1.0785
B(  1-C ,  9-H ) :   0.9097 B(  2-C ,  3-C ) :   1.1535 B(  2-C , 10-H ) :   0.9195
B(  2-C , 11-H ) :   0.9273 B(  3-C ,  4-C ) :   1.1523 B(  3-C , 12-H ) :   0.9255
B(  3-C , 13-H ) :   0.9243 B(  4-C ,  5-C ) :   1.1535 B(  4-C , 14-H ) :   0.9255
B(  4-C , 15-H ) :   0.9243 B(  5-C , 16-H ) :   0.9195 B(  5-C , 17-H ) :   0.9273

Dispersion correction           -0.014797595
FINAL SINGLE POINT ENERGY      -235.267049244550

DIPOLE MOMENT
-------------

Method             : SCF
Type of density    : Electron Density
Multiplicity       :   1
Irrep              :   0
Energy             :  -235.3277330979904036 Eh
Relativity type    :
Basis              : AO
                                X                 Y                 Z
Electronic contribution:      0.709259060       0.003035146       0.972981958
Nuclear contribution   :     -0.713904141      -0.003583268      -0.950142761
                        -----------------------------------------
Total Dipole Moment    :     -0.004645081      -0.000548123       0.022839197
                        -----------------------------------------
Magnitude (a.u.)       :      0.023313218
Magnitude (Debye)      :      0.059257490

Rotational constants in cm-1:             0.165165             0.114848             0.093216
Rotational constants in MHz :          4951.534292          3443.053130          2794.538294

                             ****ORCA TERMINATED NORMALLY****
TOTAL RUN TIME: 0 days 0 hours 0 minutes 5 seconds 565 msec
