                         Program Version 6.0.0  -   RELEASE  -
|  1> ! r2scan-3c def2/J RI DEFGRID2 scfconv6 printgap
|  2> %output
|  3>     printlevel normal
|  4> end
|  5> * xyz 0 1
|  6> C 2.4363737208 0.0294981584 0.0001593622
|  7> C 0.9418974881 -0.0063951012 -0.0002136276
|  8> C 0.2480274977 -1.2134240437 -0.0002359672
|  9> C -1.135727277 -1.2025957257 5.67342e-05
| 10> C -1.7848045866 0.0229985615 0.0001742637
| 11> N -1.1433354118 1.1807518043 -2.3135e-06
| 12> C 0.1803983044 1.1573782905 -8.91947e-05
| 13> H 2.7977175516 1.0539203975 -0.0082075536
| 14> H 2.8232992962 -0.4733855988 0.8846750112
| 15> H 2.8244627185 -0.4886308167 -0.8749191961
| 16> H 0.790604854 -2.1478899679 0.0003981095
| 17> H -1.7005431303 -2.1213125358 -1.42061e-05
| 18> H -2.864449178 0.0885249203 0.00020396
| 19> H 0.6574594268 2.1293885294 -0.0003352747
| 20> *
| 21>
| 22>                          ****END OF INPUT****

CARTESIAN COORDINATES (ANGSTROEM)
---------------------------------
  C      2.436374    0.029498    0.000159
  C      0.941897   -0.006395   -0.000214
  C      0.248027   -1.213424   -0.000236
  C     -1.135727   -1.202596    0.000057
  C     -1.784805    0.022999    0.000174
  N     -1.143335    1.180752   -0.000002
  C      0.180398    1.157378   -0.000089
  H      2.797718    1.053920   -0.008208
  H      2.823299   -0.473386    0.884675
  H      2.824463   -0.488631   -0.874919
  H      0.790605   -2.147890    0.000398
  H     -1.700543   -2.121313   -0.000014
  H     -2.864449    0.088525    0.000204
  H      0.657459    2.129389   -0.000335

 Total Charge           Charge          ....    0
 Multiplicity           Mult            ....    1
 Number of Electrons    NEL             ....   50
 Basis Dimension        Dim             ....  173

ORBITAL ENERGIES
----------------

  NO   OCC          E(Eh)            E(eV)
   0   2.0000     -14.152155      -385.0997
   1   2.0000     -10.062533      -273.8154
   2   2.0000     -10.061847      -273.7968
   3   2.0000     -10.052994      -273.5559
   4   2.0000     -10.050339      -273.4836
   5   2.0000     -10.043736      -273.3040
   6   2.0000     -10.037240      -273.1272
   7   2.0000      -0.912569       -24.8323
   8   2.0000      -0.786797       -21.4098
   9   2.0000      -0.745263       -20.2796
  10   2.0000      -0.671852       -18.2820
  11   2.0000      -0.600467       -16.3395
  12   2.0000      -0.577592       -15.7171
  13   2.0000      -0.490608       -13.3501
  14   2.0000      -0.461384       -12.5549
  15   2.0000      -0.427427       -11.6309
  16   2.0000      -0.406774       -11.0689
  17   2.0000      -0.386128       -10.5071
  18   2.0000      -0.374593       -10.1932
  19   2.0000      -0.364651        -9.9226
  20   2.0000      -0.362871        -9.8742
  21   2.0000      -0.328393        -8.9360
  22   2.0000      -0.267346        -7.2748
  23   2.0000      -0.238624        -6.4933
  24   2.0000      -0.220988        -6.0134
  25   0.0000      -0.054267        -1.4767
  26   0.0000      -0.035791        -0.9739
  27   0.0000       0.079352         2.1593
  28   0.0000       0.102197         2.7809
  29   0.0000       0.105413         2.8684

MULLIKEN ATOMIC CHARGES
-----------------------
   0 C :   -0.535931
   1 C :    0.245427
   2 C :   -0.192539
   3 C :   -0.096846
   4 C :   -0.104844
   5 N :   -0.171705
   6 C :   -0.184957
   7 H :    0.153644
   8 H :    0.162248
   9 H :    0.161788
  10 H :    0.148818
  11 H :    0.148352
  12 H :    0.132923
  13 H :    0.133621
Sum of atomic charges:    0.0000000

LOEWDIN ATOMIC CHARGES
----------------------
   0 C :   -0.388073
   1 C :   -0.082418
   2 C :   -0.124165
   3 C :   -0.143497
   4 C :    0.071866
   5 N :   -0.613402
   6 C :    0.076445
   7 H :    0.162231
   8 H :    0.166099
   9 H :    0.165992
  10 H :    0.170723
  11 H :    0.169483
  12 H :    0.183843
  13 H :    0.184872

  Mayer bond orders larger than 0.100000
B(  0-C ,  1-C ) :   0.8131 B(  0-C ,  7-H ) :   0.9870 B(  0-C ,  8-H ) :   0.9747
B(  0-C ,  9-H ) :   0.9751 B(  1-C ,  2-C ) :   1.3507 B(  1-C ,  6-C ) :   1.3140
B(  2-C ,  3-C ) :   1.4411 B(  2-C , 10-H ) :   0.9505 B(  3-C ,  4-C ) :   1.3495
B(  3-C , 11-H ) :   0.9383 B(  4-C ,  5-N ) :   1.4695 B(  4-C , 12-H ) :   0.9824
B(  5-N ,  6-C ) :   1.5021 B(  6-C , 13-H ) :   0.9938

Dispersion correction           -0.004093989
FINAL SINGLE POINT ENERGY      -287.516991499339

DIPOLE MOMENT
-------------

Method             : SCF
Type of density    : Electron Density
Multiplicity       :   1
Irrep              :   0
Energy             :  -287.5193722370863156 Eh
Relativity type    :
Basis              : AO
                                X                 Y                 Z
Electronic contribution:     -4.374064114       1.076391529      -0.001023225
Nuclear contribution   :      4.992810584      -1.831740812       0.001689498
                        -----------------------------------------
Total Dipole Moment    :      0.618746470      -0.755349284       0.000666273
                        -----------------------------------------
Magnitude (a.u.)       :      0.976422131
Magnitude (Debye)      :      2.481867820

Rotational constants in cm-1:             0.192435             0.087380             0.060769
Rotational constants in MHz :          5769.053391          2619.575206          1821.812071

                             ****ORCA TERMINATED NORMALLY****
TOTAL RUN TIME: 0 days 0 hours 0 minutes 17 seconds 518 msec
