                         Program Version 6.0.0  -   RELEASE  -
|  1> ! r2scan-3c def2/J RI DEFGRID2 scfconv6 printgap
|  2> %output
|  3>     printlevel normal
|  4> end
|  5> %cpcm
|  6>     smd true
|  7>     smdsolvent "water"
|  8> end
|  9> * xyz 0 1
| 10> C 2.4363737208 0.0294981584 0.0001593622
| 11> C 0.9418974881 -0.0063951012 -0.0002136276
| 12> C 0.2480274977 -1.2134240437 -0.0002359672
| 13> C -1.135727277 -1.2025957257 5.67342e-05
| 14> C -1.7848045866 0.0229985615 0.0001742637
| 15> N -1.1433354118 1.1807518043 -2.3135e-06
| 16> C 0.1803983044 1.1573782905 -8.91947e-05
| 17> H 2.7977175516 1.0539203975 -0.0082075536
| 18> H 2.8232992962 -0.4733855988 0.8846750112
| 19> H 2.8244627185 -0.4886308167 -0.8749191961
| 20> H 0.790604854 -2.1478899679 0.0003981095
| 21> H -1.7005431303 -2.1213125358 -1.42061e-05
| 22> H -2.864449178 0.0885249203 0.00020396
| 23> H 0.6574594268 2.1293885294 -0.0003352747
| 24> *
| 25>
| 26>                          ****END OF INPUT****

CARTESIAN COORDINATES (ANGSTROEM)
---------------------------------
  C      2.436374    0.029498    0.000159
  C      0.941897   -0.006395   -0.000214
  C      0.248027   -1.213424   -0.000236
  C     -1.135727   -1.202596    0.000057
  C     -1.784805    0.022999    0.000174
  N     -1.143335    1.180752   -0.000002
  C      0.180398    1.157378   -0.000089
  H      2.797718    1.053920   -0.008208
  H      2.823299   -0.473386    0.884675
  H      2.824463   -0.488631   -0.874919
  H      0.790605   -2.147890    0.000398
  H     -1.700543   -2.121313   -0.000014
  H     -2.864449    0.088525    0.000204
  H      0.657459    2.129389   -0.000335

 Total Charge           Charge          ....    0
 Multiplicity           Mult            ....    1
 Number of Electrons    NEL             ....   50
 Basis Dimension        Dim             ....  173

ORBITAL ENERGIES
----------------

  NO   OCC          E(Eh)            E(eV)
   0   2.0000     -14.156715      -385.2238
   1   2.0000     -10.060780      -273.7677
   2   2.0000     -10.059679      -273.7378
   3   2.0000     -10.048855      -273.4433
   4   2.0000     -10.044051      -273.3125
   5   2.0000     -10.038476      -273.1608
   6   2.0000     -10.021552      -272.7003
   7   2.0000      -0.915170       -24.9030
   8   2.0000      -0.781967       -21.2784
   9   2.0000      -0.740922       -20.1615
  10   2.0000      -0.663732       -18.0611
  11   2.0000      -0.595612       -16.2074
  12   2.0000      -0.572766       -15.5858
  13   2.0000      -0.485272       -13.2049
  14   2.0000      -0.457274       -12.4431
  15   2.0000      -0.418666       -11.3925
  16   2.0000      -0.397745       -10.8232
  17   2.0000      -0.379641       -10.3305
  18   2.0000      -0.366590        -9.9754
  19   2.0000      -0.360353        -9.8057
  20   2.0000      -0.352857        -9.6017
  21   2.0000      -0.320940        -8.7332
  22   2.0000      -0.267134        -7.2691
  23   2.0000      -0.236661        -6.4399
  24   2.0000      -0.228368        -6.2142
  25   0.0000      -0.053783        -1.4635
  26   0.0000      -0.034373        -0.9353
  27   0.0000       0.088992         2.4216
  28   0.0000       0.105285         2.8649
  29   0.0000       0.117900         3.2082

MULLIKEN ATOMIC CHARGES
-----------------------
   0 C :   -0.560649
   1 C :    0.218330
   2 C :   -0.190174
   3 C :   -0.136628
   4 C :   -0.125974
   5 N :   -0.231840
   6 C :   -0.193966
   7 H :    0.172173
   8 H :    0.179347
   9 H :    0.178980
  10 H :    0.185375
  11 H :    0.184327
  12 H :    0.159639
  13 H :    0.161059
Sum of atomic charges:    0.0000000

LOEWDIN ATOMIC CHARGES
----------------------
   0 C :   -0.390236
   1 C :   -0.079569
   2 C :   -0.117321
   3 C :   -0.144113
   4 C :    0.060798
   5 N :   -0.665645
   6 C :    0.068067
   7 H :    0.167734
   8 H :    0.173380
   9 H :    0.173284
  10 H :    0.184587
  11 H :    0.182487
  12 H :    0.192282
  13 H :    0.194266

  Mayer bond orders larger than 0.100000
B(  0-C ,  1-C ) :   0.8240 B(  0-C ,  7-H ) :   0.9832 B(  0-C ,  8-H ) :   0.9663
B(  0-C ,  9-H ) :   0.9667 B(  1-C ,  2-C ) :   1.3347 B(  1-C ,  6-C ) :   1.3260
B(  2-C ,  3-C ) :   1.4186 B(  2-C , 10-H ) :   0.9495 B(  3-C ,  4-C ) :   1.3523
B(  3-C , 11-H ) :   0.9413 B(  4-C ,  5-N ) :   1.4637 B(  4-C , 12-H ) :   0.9709
B(  5-N ,  6-C ) :   1.4913 B(  6-C , 13-H ) :   0.9784

Dispersion correction           -0.004093989
FINAL SINGLE POINT ENERGY      -287.523937746209

DIPOLE MOMENT
-------------

Method             : SCF
Type of density    : Electron Density
Multiplicity       :   1
Irrep              :   0
Energy             :  -287.5263184839564587 Eh
Relativity type    :
Basis              : AO
                                X                 Y                 Z
Electronic contribution:     -4.105836671       0.733925150      -0.000813274
Nuclear contribution   :      4.992810584      -1.831740812       0.001689498
                        -----------------------------------------
Total Dipole Moment    :      0.886973913      -1.097815662       0.000876223
                        -----------------------------------------
Magnitude (a.u.)       :      1.411354923
Magnitude (Debye)      :      3.587379120

Rotational constants in cm-1:             0.192435             0.087380             0.060769
Rotational constants in MHz :          5769.053391          2619.575206          1821.812071

                             ****ORCA TERMINATED NORMALLY****
TOTAL RUN TIME: 0 days 0 hours 0 minutes 25 seconds 70 msec
