                         Program Version 6.0.0  -   RELEASE  -
|  1> ! pbe def2-sv(p) def2/J RI DEFGRID1 loosescf d4 GCP(DFT/SV(P)) printgap
|  2> %output
|  3>     printlevel normal
|  4> end
|  5> * xyz 0 1
|  6> C 2.8606321087 0.0004653655 -0.8209345841
|  7> C 2.4859980467 -1.1300087231 0.1357852468
|  8> H 2.6044493392 -2.1473640628 -0.2213648054
|  9> C 1.0724642898 -0.7758774704 0.6454812264
| 10> H 0.9597656617 -1.2021671097 1.6445025713
| 11> C 1.0724514438 0.7759222683 0.6455437769
| 12> H 0.959254172 1.2021720583 1.6445191248
| 13> C 2.4860214976 1.1303915859 0.1363891889
| 14> H 2.6046375608 2.1479642984 -0.2201402389
| 15> C 3.3420120646 0.7345089529 1.3514838659
| 16> H 3.3565247195 1.3427164546 2.243218625
| 17> C 3.3420372131 -0.7348991481 1.351069339
| 18> H 3.3566084254 -1.343689788 2.2424149403
| 19> O 4.5016476574 -8.36058e-05 1.0760546475
| 20> C -0.2443199958 1.1167348838 -0.1067060586
| 21> C -1.2955206041 0.6703195048 0.9149884144
| 22> C -1.2956025111 -0.6697733585 0.9151963577
| 23> C -0.2444433761 -1.1168465712 -0.1062855733
| 24> C -0.5041256011 -0.000262455 -1.1462710405
| 25> Cl -2.2418666539 -0.0003900806 -1.6607263808
| 26> Cl 0.3355143768 -0.0006063951 -2.6797315329
| 27> Cl -0.3947052058 -2.7623655123 -0.6852654148
| 28> Cl -2.1691821258 -1.7434048156 1.8856152319
| 29> Cl -2.1691341353 1.7445264579 1.8847785221
| 30> Cl -0.3941893105 2.762021385 -0.6864414639
| 31> H 2.3311359784 0.000737197 -1.7556313572
| 32> H 3.9309487527 0.0006181679 -1.0200976461
| 33> *
| 34>
| 35>                          ****END OF INPUT****

CARTESIAN COORDINATES (ANGSTROEM)
---------------------------------
  C      2.860632    0.000465   -0.820935
  C      2.485998   -1.130009    0.135785
  H      2.604449   -2.147364   -0.221365
  C      1.072464   -0.775877    0.645481
  H      0.959766   -1.202167    1.644503
  C      1.072451    0.775922    0.645544
  H      0.959254    1.202172    1.644519
  C      2.486021    1.130392    0.136389
  H      2.604638    2.147964   -0.220140
  C      3.342012    0.734509    1.351484
  H      3.356525    1.342716    2.243219
  C      3.342037   -0.734899    1.351069
  H      3.356608   -1.343690    2.242415
  O      4.501648   -0.000084    1.076055
  C     -0.244320    1.116735   -0.106706
  C     -1.295521    0.670320    0.914988
  C     -1.295603   -0.669773    0.915196
  C     -0.244443   -1.116847   -0.106286
  C     -0.504126   -0.000262   -1.146271
  Cl    -2.241867   -0.000390   -1.660726
  Cl     0.335514   -0.000606   -2.679732
  Cl    -0.394705   -2.762366   -0.685265
  Cl    -2.169182   -1.743405    1.885615
  Cl    -2.169134    1.744526    1.884779
  Cl    -0.394189    2.762021   -0.686441
  H      2.331136    0.000737   -1.755631
  H      3.930949    0.000618   -1.020098

 Total Charge           Charge          ....    0
 Multiplicity           Mult            ....    1
 Number of Electrons    NEL             ....  190
 Basis Dimension        Dim             ....  306

ORBITAL ENERGIES
----------------

  NO   OCC          E(Eh)            E(eV)
   0   2.0000    -100.671276     -2739.4047
   1   2.0000    -100.671244     -2739.4038
   2   2.0000    -100.662778     -2739.1735
   3   2.0000    -100.653211     -2738.9131
   4   2.0000    -100.653206     -2738.9130
   5   2.0000    -100.643410     -2738.6464
   6   2.0000     -18.784879      -511.1625
   7   2.0000     -10.039543      -273.1899
   8   2.0000     -10.005413      -272.2611
   9   2.0000     -10.005400      -272.2608
  10   2.0000      -9.977001      -271.4880
  11   2.0000      -9.976398      -271.4716
  12   2.0000      -9.955409      -270.9004
  13   2.0000      -9.955237      -270.8958
  14   2.0000      -9.937426      -270.4111
  15   2.0000      -9.937391      -270.4102
  16   2.0000      -9.918464      -269.8951
  17   2.0000      -9.918448      -269.8947
  18   2.0000      -9.886119      -269.0150
  19   2.0000      -9.206824      -250.5304
  20   2.0000      -9.206787      -250.5294
  21   2.0000      -9.198740      -250.3104
  22   2.0000      -9.188970      -250.0446
  23   2.0000      -9.188964      -250.0444
  24   2.0000      -9.179106      -249.7762
  25   2.0000      -7.038312      -191.5222
  26   2.0000      -7.038300      -191.5219
  27   2.0000      -7.030427      -191.3076
  28   2.0000      -7.026943      -191.2128
  29   2.0000      -7.026933      -191.2126
  30   2.0000      -7.025929      -191.1852
  31   2.0000      -7.025912      -191.1848
  32   2.0000      -7.020691      -191.0427
  33   2.0000      -7.020688      -191.0426
  34   2.0000      -7.018183      -190.9745
  35   2.0000      -7.018093      -190.9720
  36   2.0000      -7.011309      -190.7874
  37   2.0000      -7.008563      -190.7127
  38   2.0000      -7.008561      -190.7126
  39   2.0000      -7.008356      -190.7071
  40   2.0000      -7.008354      -190.7070
  41   2.0000      -6.998687      -190.4440
  42   2.0000      -6.998068      -190.4271
  43   2.0000      -1.020611       -27.7722
  44   2.0000      -0.910742       -24.7826
  45   2.0000      -0.838875       -22.8269
  46   2.0000      -0.826463       -22.4892
  47   2.0000      -0.816891       -22.2287
  48   2.0000      -0.794904       -21.6304
  49   2.0000      -0.790564       -21.5124
  50   2.0000      -0.767955       -20.8971
  51   2.0000      -0.747701       -20.3460
  52   2.0000      -0.685297       -18.6479
  53   2.0000      -0.668783       -18.1985
  54   2.0000      -0.634134       -17.2557
  55   2.0000      -0.633792       -17.2464
  56   2.0000      -0.611358       -16.6359
  57   2.0000      -0.553619       -15.0647
  58   2.0000      -0.531975       -14.4758
  59   2.0000      -0.510304       -13.8861
  60   2.0000      -0.508293       -13.8314
  61   2.0000      -0.500869       -13.6294
  62   2.0000      -0.499989       -13.6054
  63   2.0000      -0.482193       -13.1211
  64   2.0000      -0.476756       -12.9732
  65   2.0000      -0.467942       -12.7334
  66   2.0000      -0.429388       -11.6842
  67   2.0000      -0.424016       -11.5381
  68   2.0000      -0.420371       -11.4389
  69   2.0000      -0.415003       -11.2928
  70   2.0000      -0.402885       -10.9631
  71   2.0000      -0.393868       -10.7177
  72   2.0000      -0.392220       -10.6728
  73   2.0000      -0.364871        -9.9286
  74   2.0000      -0.364552        -9.9200
  75   2.0000      -0.343278        -9.3411
  76   2.0000      -0.335406        -9.1269
  77   2.0000      -0.334520        -9.1028
  78   2.0000      -0.333280        -9.0690
  79   2.0000      -0.323010        -8.7895
  80   2.0000      -0.315328        -8.5805
  81   2.0000      -0.304200        -8.2777
  82   2.0000      -0.303576        -8.2607
  83   2.0000      -0.300792        -8.1850
  84   2.0000      -0.291494        -7.9320
  85   2.0000      -0.282507        -7.6874
  86   2.0000      -0.280984        -7.6460
  87   2.0000      -0.278991        -7.5917
  88   2.0000      -0.278822        -7.5871
  89   2.0000      -0.270339        -7.3563
  90   2.0000      -0.268086        -7.2950
  91   2.0000      -0.262372        -7.1395
  92   2.0000      -0.254746        -6.9320
  93   2.0000      -0.232736        -6.3331
  94   2.0000      -0.215497        -5.8640
  95   0.0000      -0.062124        -1.6905
  96   0.0000      -0.054734        -1.4894
  97   0.0000      -0.039950        -1.0871
  98   0.0000       0.003631         0.0988
  99   0.0000       0.022338         0.6078

MULLIKEN ATOMIC CHARGES
-----------------------
   0 C :   -0.061008
   1 C :   -0.099714
   2 H :    0.078074
   3 C :   -0.022009
   4 H :    0.082815
   5 C :   -0.022043
   6 H :    0.082828
   7 C :   -0.099732
   8 H :    0.078086
   9 C :    0.011390
  10 H :    0.089931
  11 C :    0.011336
  12 H :    0.089951
  13 O :   -0.208575
  14 C :   -0.053464
  15 C :    0.036541
  16 C :    0.036429
  17 C :   -0.053372
  18 C :   -0.149033
  19 Cl:    0.002376
  20 Cl:    0.023279
  21 Cl:   -0.027733
  22 Cl:   -0.006435
  23 Cl:   -0.006409
  24 Cl:   -0.027747
  25 H :    0.097255
  26 H :    0.116981
Sum of atomic charges:   -0.0000000

LOEWDIN ATOMIC CHARGES
----------------------
   0 C :   -0.232759
   1 C :   -0.133946
   2 H :    0.122053
   3 C :   -0.113686
   4 H :    0.130985
   5 C :   -0.113674
   6 H :    0.130982
   7 C :   -0.133966
   8 H :    0.122059
   9 C :   -0.054597
  10 H :    0.118665
  11 C :   -0.054603
  12 H :    0.118673
  13 O :   -0.114901
  14 C :   -0.165779
  15 C :   -0.209088
  16 C :   -0.209104
  17 C :   -0.165792
  18 C :   -0.215720
  19 Cl:    0.099583
  20 Cl:    0.174965
  21 Cl:    0.130897
  22 Cl:    0.201880
  23 Cl:    0.201885
  24 Cl:    0.130892
  25 H :    0.101322
  26 H :    0.132775

  Mayer bond orders larger than 0.100000
B(  0-C ,  1-C ) :   1.0464 B(  0-C ,  7-C ) :   1.0464 B(  0-C , 25-H ) :   0.8802
B(  0-C , 26-H ) :   0.8892 B(  1-C ,  2-H ) :   0.9123 B(  1-C ,  3-C ) :   1.0045
B(  1-C , 11-C ) :   0.9420 B(  3-C ,  4-H ) :   0.8483 B(  3-C ,  5-C ) :   1.0199
B(  3-C , 17-C ) :   0.9590 B(  5-C ,  6-H ) :   0.8483 B(  5-C ,  7-C ) :   1.0045
B(  5-C , 14-C ) :   0.9590 B(  7-C ,  8-H ) :   0.9123 B(  7-C ,  9-C ) :   0.9420
B(  9-C , 10-H ) :   0.9369 B(  9-C , 11-C ) :   1.0122 B(  9-C , 13-O ) :   1.0407
B( 11-C , 12-H ) :   0.9369 B( 11-C , 13-O ) :   1.0407 B( 14-C , 15-C ) :   0.9017
B( 14-C , 18-C ) :   0.8107 B( 14-C , 24-Cl) :   1.1394 B( 15-C , 16-C ) :   1.7515
B( 15-C , 23-Cl) :   1.1431 B( 16-C , 17-C ) :   0.9017 B( 16-C , 22-Cl) :   1.1430
B( 17-C , 18-C ) :   0.8107 B( 17-C , 21-Cl) :   1.1394 B( 18-C , 19-Cl) :   1.1225
B( 18-C , 20-Cl) :   1.1321

Dispersion correction           -0.060016353
FINAL SINGLE POINT ENERGY     -3295.298215858010

DIPOLE MOMENT
-------------

Method             : SCF
Type of density    : Electron Density
Multiplicity       :   1
Irrep              :   0
Energy             : -3295.3518429062792165 Eh
Relativity type    :
Basis              : AO
                                X                 Y                 Z
Electronic contribution:    -28.159647034      -0.001101300      -6.207618547
Nuclear contribution   :     28.367542252       0.001218837       6.897838779
                        -----------------------------------------
Total Dipole Moment    :      0.207895218       0.000117537       0.690220232
                        -----------------------------------------
Magnitude (a.u.)       :      0.720849779
Magnitude (Debye)      :      1.832254527

Rotational constants in cm-1:             0.010241             0.007418             0.007115
Rotational constants in MHz :           307.029750           222.387330           213.312068

                             ****ORCA TERMINATED NORMALLY****
TOTAL RUN TIME: 0 days 0 hours 0 minutes 27 seconds 969 msec
