                         Program Version 6.0.0  -   RELEASE  -
|  1> ! pbe def2-sv(p) def2/J RI DEFGRID1 loosescf d4 GCP(DFT/SV(P)) printgap
|  2> %output
|  3>     printlevel normal
|  4> end
|  5> * xyz 0 1
|  6> C -2.2131979588 -0.9734401857 -0.4085141997
|  7> C -1.1750541651 -0.1963655063 0.4179784795
|  8> H -1.666940411 0.2315141668 1.3000931071
|  9> C -0.5963765387 0.960270009 -0.407498463
| 10> H -0.4746010829 0.6392990525 -1.4563151485
| 11> C 0.7839510662 1.3265868457 0.1538465907
| 12> H 0.6967354026 1.5202674439 1.228817171
| 13> C 1.7369633827 0.1451855593 -0.0663975729
| 14> H 2.056451398 0.1308626582 -1.121149132
| 15> C 1.0050235992 -1.1897037304 0.1914755687
| 16> H 1.657781836 -1.8061768844 0.8260779361
| 17> O -0.1599139191 -1.0416032287 0.955631284
| 18> O 0.7662756482 -1.7907620131 -1.0431014693
| 19> O 2.8538679118 0.1956392958 0.7822780614
| 20> O 1.2631886851 2.5216309674 -0.4098691686
| 21> O -1.4882084639 2.0433842093 -0.3463520045
| 22> O -2.797955176 -2.043411151 0.2870108477
| 23> H -1.7322226308 -1.4141096549 -1.2838532817
| 24> H -2.9707036813 -0.2519852694 -0.7425321397
| 25> H 0.4552915043 -2.699594976 -0.9108062488
| 26> H 3.2775838133 1.0645013422 0.7016539967
| 27> H 1.4249660287 2.3965644266 -1.3578063606
| 28> H -0.9772175033 2.8656038897 -0.4374841741
| 29> H -3.2219531844 -1.7136666352 1.0915817962
| 30> *
| 31>
| 32>                          ****END OF INPUT****

CARTESIAN COORDINATES (ANGSTROEM)
---------------------------------
  C     -2.213198   -0.973440   -0.408514
  C     -1.175054   -0.196366    0.417978
  H     -1.666940    0.231514    1.300093
  C     -0.596377    0.960270   -0.407498
  H     -0.474601    0.639299   -1.456315
  C      0.783951    1.326587    0.153847
  H      0.696735    1.520267    1.228817
  C      1.736963    0.145186   -0.066398
  H      2.056451    0.130863   -1.121149
  C      1.005024   -1.189704    0.191476
  H      1.657782   -1.806177    0.826078
  O     -0.159914   -1.041603    0.955631
  O      0.766276   -1.790762   -1.043101
  O      2.853868    0.195639    0.782278
  O      1.263189    2.521631   -0.409869
  O     -1.488208    2.043384   -0.346352
  O     -2.797955   -2.043411    0.287011
  H     -1.732223   -1.414110   -1.283853
  H     -2.970704   -0.251985   -0.742532
  H      0.455292   -2.699595   -0.910806
  H      3.277584    1.064501    0.701654
  H      1.424966    2.396564   -1.357806
  H     -0.977218    2.865604   -0.437484
  H     -3.221953   -1.713667    1.091582

 Total Charge           Charge          ....    0
 Multiplicity           Mult            ....    1
 Number of Electrons    NEL             ....   96
 Basis Dimension        Dim             ....  192

ORBITAL ENERGIES
----------------

  NO   OCC          E(Eh)            E(eV)
   0   2.0000     -18.777805      -510.9701
   1   2.0000     -18.768044      -510.7044
   2   2.0000     -18.763340      -510.5764
   3   2.0000     -18.756794      -510.3983
   4   2.0000     -18.751444      -510.2527
   5   2.0000     -18.741247      -509.9753
   6   2.0000      -9.987034      -271.7610
   7   2.0000      -9.948998      -270.7260
   8   2.0000      -9.947089      -270.6741
   9   2.0000      -9.944816      -270.6122
  10   2.0000      -9.941575      -270.5240
  11   2.0000      -9.923878      -270.0424
  12   2.0000      -0.982019       -26.7221
  13   2.0000      -0.960584       -26.1388
  14   2.0000      -0.933390       -25.3988
  15   2.0000      -0.924376       -25.1535
  16   2.0000      -0.919521       -25.0214
  17   2.0000      -0.908598       -24.7242
  18   2.0000      -0.708206       -19.2713
  19   2.0000      -0.693973       -18.8840
  20   2.0000      -0.622014       -16.9259
  21   2.0000      -0.583169       -15.8688
  22   2.0000      -0.572559       -15.5801
  23   2.0000      -0.527708       -14.3597
  24   2.0000      -0.519422       -14.1342
  25   2.0000      -0.479379       -13.0446
  26   2.0000      -0.476711       -12.9720
  27   2.0000      -0.461301       -12.5526
  28   2.0000      -0.446674       -12.1546
  29   2.0000      -0.417523       -11.3614
  30   2.0000      -0.415156       -11.2970
  31   2.0000      -0.402064       -10.9407
  32   2.0000      -0.389851       -10.6084
  33   2.0000      -0.381667       -10.3857
  34   2.0000      -0.368592       -10.0299
  35   2.0000      -0.352166        -9.5829
  36   2.0000      -0.332692        -9.0530
  37   2.0000      -0.319876        -8.7043
  38   2.0000      -0.303719        -8.2646
  39   2.0000      -0.294619        -8.0170
  40   2.0000      -0.284211        -7.7338
  41   2.0000      -0.265358        -7.2208
  42   2.0000      -0.255345        -6.9483
  43   2.0000      -0.254793        -6.9333
  44   2.0000      -0.234083        -6.3697
  45   2.0000      -0.223271        -6.0755
  46   2.0000      -0.213514        -5.8100
  47   2.0000      -0.202532        -5.5112
  48   0.0000       0.004936         0.1343
  49   0.0000       0.025087         0.6826
  50   0.0000       0.032971         0.8972
  51   0.0000       0.047043         1.2801
  52   0.0000       0.048926         1.3313

MULLIKEN ATOMIC CHARGES
-----------------------
   0 C :    0.054454
   1 C :    0.066459
   2 H :    0.061366
   3 C :   -0.008890
   4 H :    0.053234
   5 C :    0.026112
   6 H :    0.072862
   7 C :    0.078604
   8 H :    0.053191
   9 C :    0.172090
  10 H :    0.078251
  11 O :   -0.307321
  12 O :   -0.402069
  13 O :   -0.410832
  14 O :   -0.421137
  15 O :   -0.412942
  16 O :   -0.428627
  17 H :    0.077504
  18 H :    0.083248
  19 H :    0.314433
  20 H :    0.305106
  21 H :    0.301433
  22 H :    0.299031
  23 H :    0.294439
Sum of atomic charges:    0.0000000

LOEWDIN ATOMIC CHARGES
----------------------
   0 C :   -0.139923
   1 C :   -0.066218
   2 H :    0.113873
   3 C :   -0.080869
   4 H :    0.099340
   5 C :   -0.089231
   6 H :    0.124212
   7 C :   -0.081478
   8 H :    0.101844
   9 C :    0.002303
  10 H :    0.107746
  11 O :   -0.140773
  12 O :   -0.309244
  13 O :   -0.315091
  14 O :   -0.309528
  15 O :   -0.322889
  16 O :   -0.335807
  17 H :    0.110454
  18 H :    0.103530
  19 H :    0.293007
  20 H :    0.287302
  21 H :    0.285654
  22 H :    0.278970
  23 H :    0.282814

  Mayer bond orders larger than 0.100000
B(  0-C ,  1-C ) :   1.0557 B(  0-C , 16-O ) :   1.0845 B(  0-C , 17-H ) :   0.9003
B(  0-C , 18-H ) :   0.9132 B(  1-C ,  2-H ) :   0.8776 B(  1-C ,  3-C ) :   0.9660
B(  1-C , 11-O ) :   0.9865 B(  3-C ,  4-H ) :   0.8756 B(  3-C ,  5-C ) :   1.0267
B(  3-C , 15-O ) :   1.0853 B(  5-C ,  6-H ) :   0.8462 B(  5-C ,  7-C ) :   1.0342
B(  5-C , 14-O ) :   1.0141 B(  7-C ,  8-H ) :   0.8755 B(  7-C ,  9-C ) :   0.9793
B(  7-C , 13-O ) :   1.0890 B(  9-C , 10-H ) :   0.8949 B(  9-C , 11-O ) :   1.0934
B(  9-C , 12-O ) :   1.0985 B( 12-O , 19-H ) :   0.8325 B( 13-O , 20-H ) :   0.8419
B( 14-O , 21-H ) :   0.8445 B( 15-O , 22-H ) :   0.8236 B( 16-O , 23-H ) :   0.8536

Dispersion correction           -0.024418062
FINAL SINGLE POINT ENERGY      -685.691948031666

DIPOLE MOMENT
-------------

Method             : SCF
Type of density    : Electron Density
Multiplicity       :   1
Irrep              :   0
Energy             :  -685.8218993500156557 Eh
Relativity type    :
Basis              : AO
                                X                 Y                 Z
Electronic contribution:      1.778851134      -0.338411654       1.608344549
Nuclear contribution   :     -1.377162332       0.901826992      -2.024721320
                        -----------------------------------------
Total Dipole Moment    :      0.401688802       0.563415338      -0.416376770
                        -----------------------------------------
Magnitude (a.u.)       :      0.807564456
Magnitude (Debye)      :      2.052665720

Rotational constants in cm-1:             0.042676             0.026036             0.018490
Rotational constants in MHz :          1279.394235           780.539589           554.327523

                             ****ORCA TERMINATED NORMALLY****
TOTAL RUN TIME: 0 days 0 hours 0 minutes 12 seconds 203 msec
