                         Program Version 6.0.0  -   RELEASE  -
|  1> ! pbe def2-sv(p) def2/J RI DEFGRID1 loosescf d4 GCP(DFT/SV(P)) printgap
|  2> %output
|  3>     printlevel normal
|  4> end
|  5> * xyz 0 1
|  6> C 1.952723473 5.44997e-05 -0.7616463463
|  7> C 1.112449113 -2.21648e-05 0.5144299206
|  8> C 0.2382515122 1.2538141017 0.6292497202
|  9> C -0.9171699258 1.2520593511 -0.3682600902
| 10> C -1.7711094755 8.31616e-05 -0.194852093
| 11> C -0.9173253641 -1.2520224362 -0.3681523197
| 12> C 0.2383215185 -1.2539293496 0.6291216154
| 13> H 2.5887083043 0.8820345547 -0.7916141169
| 14> H 2.5888962318 -0.8818919966 -0.7914101954
| 15> H 1.3297946723 -0.0002060495 -1.6508267732
| 16> H 1.8099238472 -2.98564e-05 1.3616418054
| 17> H -0.1735244491 1.300676208 1.6406708957
| 18> H 0.8540606331 2.1434389911 0.480424112
| 19> H -1.5295227857 2.1433904775 -0.2149202596
| 20> H -0.5294720837 1.2905510199 -1.3874956193
| 21> H -2.2129451104 0.0001545414 0.8046837553
| 22> H -2.586238499 9.38549e-05 -0.9216187497
| 23> H -1.529800969 -2.1432252326 -0.2145503167
| 24> H -0.5298274469 -1.2907717501 -1.3874490589
| 25> H -0.1731962391 -1.3011902357 1.6406335995
| 26> H 0.8541442258 -2.1434673984 0.4797883804
| 27> *
| 28>
| 29>                          ****END OF INPUT****

CARTESIAN COORDINATES (ANGSTROEM)
---------------------------------
  C      1.952723    0.000054   -0.761646
  C      1.112449   -0.000022    0.514430
  C      0.238252    1.253814    0.629250
  C     -0.917170    1.252059   -0.368260
  C     -1.771109    0.000083   -0.194852
  C     -0.917325   -1.252022   -0.368152
  C      0.238322   -1.253929    0.629122
  H      2.588708    0.882035   -0.791614
  H      2.588896   -0.881892   -0.791410
  H      1.329795   -0.000206   -1.650827
  H      1.809924   -0.000030    1.361642
  H     -0.173524    1.300676    1.640671
  H      0.854061    2.143439    0.480424
  H     -1.529523    2.143390   -0.214920
  H     -0.529472    1.290551   -1.387496
  H     -2.212945    0.000155    0.804684
  H     -2.586238    0.000094   -0.921619
  H     -1.529801   -2.143225   -0.214550
  H     -0.529827   -1.290772   -1.387449
  H     -0.173196   -1.301190    1.640634
  H      0.854144   -2.143467    0.479788

 Total Charge           Charge          ....    0
 Multiplicity           Mult            ....    1
 Number of Electrons    NEL             ....   56
 Basis Dimension        Dim             ....  126

ORBITAL ENERGIES
----------------

  NO   OCC          E(Eh)            E(eV)
   0   2.0000      -9.886542      -269.0265
   1   2.0000      -9.876174      -268.7444
   2   2.0000      -9.875967      -268.7387
   3   2.0000      -9.875946      -268.7381
   4   2.0000      -9.875270      -268.7197
   5   2.0000      -9.875252      -268.7193
   6   2.0000      -9.869158      -268.5534
   7   2.0000      -0.753052       -20.4916
   8   2.0000      -0.679780       -18.4977
   9   2.0000      -0.660297       -17.9676
  10   2.0000      -0.602438       -16.3932
  11   2.0000      -0.535996       -14.5852
  12   2.0000      -0.525968       -14.3123
  13   2.0000      -0.468323       -12.7437
  14   2.0000      -0.432890       -11.7795
  15   2.0000      -0.399043       -10.8585
  16   2.0000      -0.393939       -10.7196
  17   2.0000      -0.378167       -10.2905
  18   2.0000      -0.354361        -9.6427
  19   2.0000      -0.352654        -9.5962
  20   2.0000      -0.328133        -8.9289
  21   2.0000      -0.313311        -8.5256
  22   2.0000      -0.310515        -8.4495
  23   2.0000      -0.293713        -7.9923
  24   2.0000      -0.290300        -7.8995
  25   2.0000      -0.266954        -7.2642
  26   2.0000      -0.250779        -6.8240
  27   2.0000      -0.250244        -6.8095
  28   0.0000       0.029816         0.8113
  29   0.0000       0.048946         1.3319
  30   0.0000       0.068610         1.8670
  31   0.0000       0.077505         2.1090
  32   0.0000       0.093945         2.5564

MULLIKEN ATOMIC CHARGES
-----------------------
   0 C :   -0.262575
   1 C :   -0.156627
   2 C :   -0.123605
   3 C :   -0.160187
   4 C :   -0.153459
   5 C :   -0.160225
   6 C :   -0.123607
   7 H :    0.096905
   8 H :    0.096899
   9 H :    0.105755
  10 H :    0.064159
  11 H :    0.071671
  12 H :    0.077632
  13 H :    0.082419
  14 H :    0.079754
  15 H :    0.071296
  16 H :    0.082305
  17 H :    0.082421
  18 H :    0.079753
  19 H :    0.071683
  20 H :    0.077632
Sum of atomic charges:    0.0000000

LOEWDIN ATOMIC CHARGES
----------------------
   0 C :   -0.332795
   1 C :   -0.152534
   2 C :   -0.217566
   3 C :   -0.228252
   4 C :   -0.225487
   5 C :   -0.228252
   6 C :   -0.217565
   7 H :    0.118204
   8 H :    0.118200
   9 H :    0.114044
  10 H :    0.113802
  11 H :    0.113176
  12 H :    0.113004
  13 H :    0.115861
  14 H :    0.113617
  15 H :    0.112440
  16 H :    0.114434
  17 H :    0.115864
  18 H :    0.113616
  19 H :    0.113179
  20 H :    0.113009

  Mayer bond orders larger than 0.100000
B(  0-C ,  1-C ) :   1.1048 B(  0-C ,  7-H ) :   0.9491 B(  0-C ,  8-H ) :   0.9491
B(  0-C ,  9-H ) :   0.9430 B(  1-C ,  2-C ) :   1.0893 B(  1-C ,  6-C ) :   1.0893
B(  1-C , 10-H ) :   0.8962 B(  2-C ,  3-C ) :   1.1289 B(  2-C , 11-H ) :   0.9135
B(  2-C , 12-H ) :   0.9189 B(  3-C ,  4-C ) :   1.1314 B(  3-C , 13-H ) :   0.9184
B(  3-C , 14-H ) :   0.9156 B(  4-C ,  5-C ) :   1.1314 B(  4-C , 15-H ) :   0.9149
B(  4-C , 16-H ) :   0.9204 B(  5-C ,  6-C ) :   1.1289 B(  5-C , 17-H ) :   0.9184
B(  5-C , 18-H ) :   0.9156 B(  6-C , 19-H ) :   0.9135 B(  6-C , 20-H ) :   0.9189

Dispersion correction           -0.019044022
FINAL SINGLE POINT ENERGY      -274.489328822280

DIPOLE MOMENT
-------------

Method             : SCF
Type of density    : Electron Density
Multiplicity       :   1
Irrep              :   0
Energy             :  -274.5602930705907738 Eh
Relativity type    :
Basis              : AO
                                X                 Y                 Z
Electronic contribution:     -0.707941005       0.000392830       0.903209852
Nuclear contribution   :      0.713942384      -0.000415486      -0.893171125
                        -----------------------------------------
Total Dipole Moment    :      0.006001380      -0.000022656       0.010038727
                        -----------------------------------------
Magnitude (a.u.)       :      0.011695859
Magnitude (Debye)      :      0.029728510

Rotational constants in cm-1:             0.118076             0.085301             0.064980
Rotational constants in MHz :          3539.831033          2557.271834          1948.059989

                             ****ORCA TERMINATED NORMALLY****
TOTAL RUN TIME: 0 days 0 hours 0 minutes 9 seconds 177 msec
