                         Program Version 6.0.0  -   RELEASE  -
|  1> ! r2scan-3c def2/J RI DEFGRID2 scfconv6 printgap
|  2> %output
|  3>     printlevel normal
|  4> end
|  5> * xyz 0 1
|  6> C -2.3150342985 0.1705627794 -0.2720478869
|  7> C -0.9536179634 0.3469834357 0.395312321
|  8> C -0.0002647614 -0.7399145585 -0.0010071243
|  9> C 1.3079883754 -0.6030175984 -0.155650384
| 10> C 2.0734769345 0.6703651051 0.0391939677
| 11> H -2.7576792742 -0.783078136 0.0074280853
| 12> H -2.2118135151 0.1967953049 -1.354606139
| 13> H -2.9926870934 0.9658257905 0.029041163
| 14> H -0.5411000151 1.3210770666 0.1297243118
| 15> H -1.0838299183 0.3262175614 1.4825781088
| 16> H -0.4535674444 -1.7100166689 -0.1589955828
| 17> H 1.8936620641 -1.4621871578 -0.4545580099
| 18> H 1.933037752 1.3320833986 -0.8159978357
| 19> H 3.1358007224 0.4647196566 0.1361814734
| 20> H 1.7370386178 1.1958089953 0.930080323
| 21> *
| 22>
| 23>                          ****END OF INPUT****

CARTESIAN COORDINATES (ANGSTROEM)
---------------------------------
  C     -2.315034    0.170563   -0.272048
  C     -0.953618    0.346983    0.395312
  C     -0.000265   -0.739915   -0.001007
  C      1.307988   -0.603018   -0.155650
  C      2.073477    0.670365    0.039194
  H     -2.757679   -0.783078    0.007428
  H     -2.211814    0.196795   -1.354606
  H     -2.992687    0.965826    0.029041
  H     -0.541100    1.321077    0.129724
  H     -1.083830    0.326218    1.482578
  H     -0.453567   -1.710017   -0.158996
  H      1.893662   -1.462187   -0.454558
  H      1.933038    1.332083   -0.815998
  H      3.135801    0.464720    0.136181
  H      1.737039    1.195809    0.930080

 Total Charge           Charge          ....    0
 Multiplicity           Mult            ....    1
 Number of Electrons    NEL             ....   40
 Basis Dimension        Dim             ....  145

ORBITAL ENERGIES
----------------

  NO   OCC          E(Eh)            E(eV)
   0   2.0000     -10.028077      -272.8778
   1   2.0000     -10.022150      -272.7166
   2   2.0000     -10.021394      -272.6960
   3   2.0000     -10.018935      -272.6291
   4   2.0000     -10.018023      -272.6043
   5   2.0000      -0.772175       -21.0119
   6   2.0000      -0.718067       -19.5396
   7   2.0000      -0.646469       -17.5913
   8   2.0000      -0.581819       -15.8321
   9   2.0000      -0.494673       -13.4607
  10   2.0000      -0.443261       -12.0618
  11   2.0000      -0.410056       -11.1582
  12   2.0000      -0.397273       -10.8103
  13   2.0000      -0.380076       -10.3424
  14   2.0000      -0.348795        -9.4912
  15   2.0000      -0.338311        -9.2059
  16   2.0000      -0.327724        -8.9178
  17   2.0000      -0.312523        -8.5042
  18   2.0000      -0.290435        -7.9031
  19   2.0000      -0.216901        -5.9022
  20   0.0000      -0.004463        -0.1214
  21   0.0000       0.094049         2.5592
  22   0.0000       0.115594         3.1455
  23   0.0000       0.131774         3.5858
  24   0.0000       0.144404         3.9294

MULLIKEN ATOMIC CHARGES
-----------------------
   0 C :   -0.462226
   1 C :   -0.248866
   2 C :   -0.153088
   3 C :   -0.139648
   4 C :   -0.493579
   5 H :    0.139614
   6 H :    0.149635
   7 H :    0.144457
   8 H :    0.144113
   9 H :    0.153605
  10 H :    0.147766
  11 H :    0.151745
  12 H :    0.163410
  13 H :    0.144932
  14 H :    0.158129
Sum of atomic charges:   -0.0000000

LOEWDIN ATOMIC CHARGES
----------------------
   0 C :   -0.418813
   1 C :   -0.307248
   2 C :   -0.211409
   3 C :   -0.215610
   4 C :   -0.420879
   5 H :    0.150014
   6 H :    0.152703
   7 H :    0.149677
   8 H :    0.158400
   9 H :    0.162368
  10 H :    0.163038
  11 H :    0.159951
  12 H :    0.162806
  13 H :    0.155827
  14 H :    0.159175

  Mayer bond orders larger than 0.100000
B(  0-C ,  1-C ) :   0.8923 B(  0-C ,  5-H ) :   0.9748 B(  0-C ,  6-H ) :   0.9826
B(  0-C ,  7-H ) :   0.9747 B(  1-C ,  2-C ) :   0.9205 B(  1-C ,  8-H ) :   0.9837
B(  1-C ,  9-H ) :   0.9662 B(  2-C ,  3-C ) :   1.9488 B(  2-C , 10-H ) :   0.9432
B(  3-C ,  4-C ) :   0.8939 B(  3-C , 11-H ) :   0.9481 B(  4-C , 12-H ) :   0.9696
B(  4-C , 13-H ) :   0.9737 B(  4-C , 14-H ) :   0.9855

Dispersion correction           -0.003241211
FINAL SINGLE POINT ENERGY      -196.458967426685

DIPOLE MOMENT
-------------

Method             : SCF
Type of density    : Electron Density
Multiplicity       :   1
Irrep              :   0
Energy             :  -196.4618555924365353 Eh
Relativity type    :
Basis              : AO
                                X                 Y                 Z
Electronic contribution:      1.247010494      -1.590114828       0.100778603
Nuclear contribution   :     -1.258217487       1.733033291      -0.064850260
                        -----------------------------------------
Total Dipole Moment    :     -0.011206993       0.142918463       0.035928343
                        -----------------------------------------
Magnitude (a.u.)       :      0.147790830
Magnitude (Debye)      :      0.375654437

Rotational constants in cm-1:             0.431471             0.084559             0.075923
Rotational constants in MHz :         12935.165720          2535.004703          2276.128734

                             ****ORCA TERMINATED NORMALLY****
TOTAL RUN TIME: 0 days 0 hours 0 minutes 11 seconds 51 msec
