                         Program Version 6.0.0  -   RELEASE  -
|  1> ! r2scan-3c def2/J RI DEFGRID2 scfconv6 printgap
|  2> %output
|  3>     printlevel normal
|  4> end
|  5> %cpcm
|  6>     smd true
|  7>     smdsolvent "water"
|  8> end
|  9> * xyz 0 1
| 10> C -2.3150342985 0.1705627794 -0.2720478869
| 11> C -0.9536179634 0.3469834357 0.395312321
| 12> C -0.0002647614 -0.7399145585 -0.0010071243
| 13> C 1.3079883754 -0.6030175984 -0.155650384
| 14> C 2.0734769345 0.6703651051 0.0391939677
| 15> H -2.7576792742 -0.783078136 0.0074280853
| 16> H -2.2118135151 0.1967953049 -1.354606139
| 17> H -2.9926870934 0.9658257905 0.029041163
| 18> H -0.5411000151 1.3210770666 0.1297243118
| 19> H -1.0838299183 0.3262175614 1.4825781088
| 20> H -0.4535674444 -1.7100166689 -0.1589955828
| 21> H 1.8936620641 -1.4621871578 -0.4545580099
| 22> H 1.933037752 1.3320833986 -0.8159978357
| 23> H 3.1358007224 0.4647196566 0.1361814734
| 24> H 1.7370386178 1.1958089953 0.930080323
| 25> *
| 26>
| 27>                          ****END OF INPUT****

CARTESIAN COORDINATES (ANGSTROEM)
---------------------------------
  C     -2.315034    0.170563   -0.272048
  C     -0.953618    0.346983    0.395312
  C     -0.000265   -0.739915   -0.001007
  C      1.307988   -0.603018   -0.155650
  C      2.073477    0.670365    0.039194
  H     -2.757679   -0.783078    0.007428
  H     -2.211814    0.196795   -1.354606
  H     -2.992687    0.965826    0.029041
  H     -0.541100    1.321077    0.129724
  H     -1.083830    0.326218    1.482578
  H     -0.453567   -1.710017   -0.158996
  H      1.893662   -1.462187   -0.454558
  H      1.933038    1.332083   -0.815998
  H      3.135801    0.464720    0.136181
  H      1.737039    1.195809    0.930080

 Total Charge           Charge          ....    0
 Multiplicity           Mult            ....    1
 Number of Electrons    NEL             ....   40
 Basis Dimension        Dim             ....  145

ORBITAL ENERGIES
----------------

  NO   OCC          E(Eh)            E(eV)
   0   2.0000     -10.021852      -272.7085
   1   2.0000     -10.020528      -272.6724
   2   2.0000     -10.017759      -272.5971
   3   2.0000     -10.014215      -272.5006
   4   2.0000     -10.010763      -272.4067
   5   2.0000      -0.769196       -20.9309
   6   2.0000      -0.712809       -19.3965
   7   2.0000      -0.641916       -17.4674
   8   2.0000      -0.576647       -15.6914
   9   2.0000      -0.490236       -13.3400
  10   2.0000      -0.438809       -11.9406
  11   2.0000      -0.404375       -11.0036
  12   2.0000      -0.392148       -10.6709
  13   2.0000      -0.374085       -10.1794
  14   2.0000      -0.341950        -9.3049
  15   2.0000      -0.332394        -9.0449
  16   2.0000      -0.322114        -8.7652
  17   2.0000      -0.306112        -8.3297
  18   2.0000      -0.285495        -7.7687
  19   2.0000      -0.217811        -5.9269
  20   0.0000      -0.004382        -0.1192
  21   0.0000       0.100050         2.7225
  22   0.0000       0.122283         3.3275
  23   0.0000       0.138248         3.7619
  24   0.0000       0.151334         4.1180

MULLIKEN ATOMIC CHARGES
-----------------------
   0 C :   -0.494816
   1 C :   -0.248816
   2 C :   -0.202506
   3 C :   -0.188241
   4 C :   -0.512748
   5 H :    0.153198
   6 H :    0.156037
   7 H :    0.157126
   8 H :    0.159372
   9 H :    0.165480
  10 H :    0.170813
  11 H :    0.175510
  12 H :    0.177161
  13 H :    0.161542
  14 H :    0.170887
Sum of atomic charges:    0.0000000

LOEWDIN ATOMIC CHARGES
----------------------
   0 C :   -0.425721
   1 C :   -0.309626
   2 C :   -0.226001
   3 C :   -0.229200
   4 C :   -0.427140
   5 H :    0.153730
   6 H :    0.153705
   7 H :    0.153420
   8 H :    0.162907
   9 H :    0.167054
  10 H :    0.168681
  11 H :    0.165778
  12 H :    0.168267
  13 H :    0.160610
  14 H :    0.163538

  Mayer bond orders larger than 0.100000
B(  0-C ,  1-C ) :   0.8840 B(  0-C ,  5-H ) :   0.9717 B(  0-C ,  6-H ) :   0.9811
B(  0-C ,  7-H ) :   0.9719 B(  1-C ,  2-C ) :   0.9071 B(  1-C ,  8-H ) :   0.9850
B(  1-C ,  9-H ) :   0.9601 B(  2-C ,  3-C ) :   1.9157 B(  2-C , 10-H ) :   0.9461
B(  3-C ,  4-C ) :   0.8871 B(  3-C , 11-H ) :   0.9524 B(  4-C , 12-H ) :   0.9633
B(  4-C , 13-H ) :   0.9699 B(  4-C , 14-H ) :   0.9811

Dispersion correction           -0.003241211
FINAL SINGLE POINT ENERGY      -196.457731378696

DIPOLE MOMENT
-------------

Method             : SCF
Type of density    : Electron Density
Multiplicity       :   1
Irrep              :   0
Energy             :  -196.4606195444473826 Eh
Relativity type    :
Basis              : AO
                                X                 Y                 Z
Electronic contribution:      1.240049982      -1.528269091       0.124991754
Nuclear contribution   :     -1.258217487       1.733033291      -0.064850260
                        -----------------------------------------
Total Dipole Moment    :     -0.018167505       0.204764200       0.060141494
                        -----------------------------------------
Magnitude (a.u.)       :      0.214185516
Magnitude (Debye)      :      0.544416316

Rotational constants in cm-1:             0.431471             0.084559             0.075923
Rotational constants in MHz :         12935.165720          2535.004703          2276.128734

                             ****ORCA TERMINATED NORMALLY****
TOTAL RUN TIME: 0 days 0 hours 0 minutes 13 seconds 950 msec
