                         Program Version 6.0.0  -   RELEASE  -
|  1> ! pbe def2-sv(p) def2/J RI DEFGRID1 loosescf d4 GCP(DFT/SV(P)) printgap
|  2> %output
|  3>     printlevel normal
|  4> end
|  5> * xyz 0 1
|  6> C -2.9207392575 -2.65654e-05 -0.0499189355
|  7> C -1.4448999584 -6.08277e-05 0.3392593094
|  8> C -0.7383512591 -1.2477345055 -0.1920586657
|  9> C 0.7383472807 -1.2476547455 0.1923829481
| 10> C 1.4447921378 -3.39499e-05 -0.3392149042
| 11> C 0.7384541223 1.2477688393 0.1921013207
| 12> C -0.738406151 1.2477906495 -0.1917745613
| 13> C 2.9208041601 -7.73058e-05 0.0492874623
| 14> H -3.4199459325 0.8822808199 0.3439176901
| 15> H -3.0269434974 0.0002777502 -1.1327757433
| 16> H -3.4197539503 -0.8827183898 0.3432891059
| 17> H -1.3719540325 -0.0001771783 1.4331301478
| 18> H -1.2224618573 -2.1428904625 0.2046393961
| 19> H -0.8295855427 -1.2739906471 -1.2807766521
| 20> H 0.8295662834 -1.2736334327 1.2811171456
| 21> H 1.2225256233 -2.1428719185 -0.204093058
| 22> H 1.3713772965 -0.0001545502 -1.4330602219
| 23> H 0.8301917796 1.2743444828 1.2807718715
| 24> H 1.2223967754 2.1428201352 -0.2050688527
| 25> H -1.2223759091 2.1427605013 0.205514385
| 26> H -0.8300589058 1.2745570355 -1.2804453151
| 27> H 3.0275356702 -0.0015459176 1.1320422803
| 28> H 3.4194466258 0.8831177687 -0.3432548446
| 29> H 3.4200267623 -0.8818374272 -0.3457097009
| 30> *
| 31>
| 32>                          ****END OF INPUT****

CARTESIAN COORDINATES (ANGSTROEM)
---------------------------------
  C     -2.920739   -0.000027   -0.049919
  C     -1.444900   -0.000061    0.339259
  C     -0.738351   -1.247735   -0.192059
  C      0.738347   -1.247655    0.192383
  C      1.444792   -0.000034   -0.339215
  C      0.738454    1.247769    0.192101
  C     -0.738406    1.247791   -0.191775
  C      2.920804   -0.000077    0.049287
  H     -3.419946    0.882281    0.343918
  H     -3.026943    0.000278   -1.132776
  H     -3.419754   -0.882718    0.343289
  H     -1.371954   -0.000177    1.433130
  H     -1.222462   -2.142890    0.204639
  H     -0.829586   -1.273991   -1.280777
  H      0.829566   -1.273633    1.281117
  H      1.222526   -2.142872   -0.204093
  H      1.371377   -0.000155   -1.433060
  H      0.830192    1.274344    1.280772
  H      1.222397    2.142820   -0.205069
  H     -1.222376    2.142761    0.205514
  H     -0.830059    1.274557   -1.280445
  H      3.027536   -0.001546    1.132042
  H      3.419447    0.883118   -0.343255
  H      3.420027   -0.881837   -0.345710

 Total Charge           Charge          ....    0
 Multiplicity           Mult            ....    1
 Number of Electrons    NEL             ....   64
 Basis Dimension        Dim             ....  144

ORBITAL ENERGIES
----------------

  NO   OCC          E(Eh)            E(eV)
   0   2.0000      -9.886467      -269.0244
   1   2.0000      -9.886445      -269.0238
   2   2.0000      -9.875446      -268.7246
   3   2.0000      -9.875414      -268.7237
   4   2.0000      -9.875396      -268.7232
   5   2.0000      -9.875390      -268.7230
   6   2.0000      -9.868124      -268.5253
   7   2.0000      -9.868113      -268.5250
   8   2.0000      -0.757512       -20.6129
   9   2.0000      -0.698705       -19.0127
  10   2.0000      -0.660887       -17.9837
  11   2.0000      -0.628493       -17.1022
  12   2.0000      -0.568557       -15.4712
  13   2.0000      -0.539660       -14.6849
  14   2.0000      -0.503719       -13.7069
  15   2.0000      -0.493367       -13.4252
  16   2.0000      -0.421099       -11.4587
  17   2.0000      -0.395376       -10.7587
  18   2.0000      -0.392964       -10.6931
  19   2.0000      -0.381821       -10.3899
  20   2.0000      -0.379226       -10.3193
  21   2.0000      -0.353200        -9.6111
  22   2.0000      -0.339531        -9.2391
  23   2.0000      -0.328617        -8.9421
  24   2.0000      -0.321029        -8.7356
  25   2.0000      -0.311171        -8.4674
  26   2.0000      -0.298808        -8.1310
  27   2.0000      -0.287276        -7.8172
  28   2.0000      -0.280986        -7.6460
  29   2.0000      -0.275459        -7.4956
  30   2.0000      -0.252692        -6.8761
  31   2.0000      -0.247990        -6.7482
  32   0.0000       0.038276         1.0416
  33   0.0000       0.046002         1.2518
  34   0.0000       0.048950         1.3320
  35   0.0000       0.068694         1.8693
  36   0.0000       0.087667         2.3856

MULLIKEN ATOMIC CHARGES
-----------------------
   0 C :   -0.197398
   1 C :   -0.215322
   2 C :   -0.104251
   3 C :   -0.104241
   4 C :   -0.215348
   5 C :   -0.104282
   6 C :   -0.104304
   7 C :   -0.197346
   8 H :    0.093806
   9 H :    0.088197
  10 H :    0.093799
  11 H :    0.062001
  12 H :    0.076867
  13 H :    0.064858
  14 H :    0.064859
  15 H :    0.076863
  16 H :    0.061996
  17 H :    0.064869
  18 H :    0.076865
  19 H :    0.076867
  20 H :    0.064863
  21 H :    0.088188
  22 H :    0.093794
  23 H :    0.093800
Sum of atomic charges:    0.0000000

LOEWDIN ATOMIC CHARGES
----------------------
   0 C :   -0.327122
   1 C :   -0.153676
   2 C :   -0.216384
   3 C :   -0.216378
   4 C :   -0.153676
   5 C :   -0.216389
   6 C :   -0.216387
   7 C :   -0.327130
   8 H :    0.116096
   9 H :    0.115823
  10 H :    0.116093
  11 H :    0.112553
  12 H :    0.113790
  13 H :    0.112710
  14 H :    0.112708
  15 H :    0.113788
  16 H :    0.112549
  17 H :    0.112711
  18 H :    0.113793
  19 H :    0.113798
  20 H :    0.112711
  21 H :    0.115828
  22 H :    0.116090
  23 H :    0.116101

  Mayer bond orders larger than 0.100000
B(  0-C ,  1-C ) :   1.1153 B(  0-C ,  8-H ) :   0.9488 B(  0-C ,  9-H ) :   0.9460
B(  0-C , 10-H ) :   0.9488 B(  1-C ,  2-C ) :   1.0957 B(  1-C ,  6-C ) :   1.0957
B(  1-C , 11-H ) :   0.8936 B(  2-C ,  3-C ) :   1.1398 B(  2-C , 12-H ) :   0.9157
B(  2-C , 13-H ) :   0.9045 B(  3-C ,  4-C ) :   1.0957 B(  3-C , 14-H ) :   0.9044
B(  3-C , 15-H ) :   0.9157 B(  4-C ,  5-C ) :   1.0957 B(  4-C ,  7-C ) :   1.1153
B(  4-C , 16-H ) :   0.8936 B(  5-C ,  6-C ) :   1.1399 B(  5-C , 17-H ) :   0.9045
B(  5-C , 18-H ) :   0.9157 B(  6-C , 19-H ) :   0.9157 B(  6-C , 20-H ) :   0.9045
B(  7-C , 21-H ) :   0.9460 B(  7-C , 22-H ) :   0.9488 B(  7-C , 23-H ) :   0.9488

Dispersion correction           -0.021935039
FINAL SINGLE POINT ENERGY      -313.707225698123

DIPOLE MOMENT
-------------

Method             : SCF
Type of density    : Electron Density
Multiplicity       :   1
Irrep              :   0
Energy             :  -313.7881934035081599 Eh
Relativity type    :
Basis              : AO
                                X                 Y                 Z
Electronic contribution:      0.000011524      -0.000325453       0.000731748
Nuclear contribution   :     -0.000012019       0.000317634      -0.000715224
                        -----------------------------------------
Total Dipole Moment    :     -0.000000495      -0.000007819       0.000016524
                        -----------------------------------------
Magnitude (a.u.)       :      0.000018288
Magnitude (Debye)      :      0.000046484

Rotational constants in cm-1:             0.138656             0.044588             0.036450
Rotational constants in MHz :          4156.798084          1336.706289          1092.729578

                             ****ORCA TERMINATED NORMALLY****
TOTAL RUN TIME: 0 days 0 hours 0 minutes 10 seconds 127 msec
