                         Program Version 6.0.0  -   RELEASE  -
|  1> ! r2scan-3c def2/J RI DEFGRID2 scfconv6 printgap
|  2> %output
|  3>     printlevel normal
|  4> end
|  5> * xyz 0 1
|  6> C 1.4528243552 0.4104316023 1.1765633518
|  7> C 0.6847251909 0.440270573 -0.1393800347
|  8> C 1.3971534606 -0.4039014545 -1.2037958719
|  9> C -0.7688390142 0.0012203393 -0.0611939983
| 10> O -1.4457919783 -0.0612982158 -1.0721670565
| 11> C -1.3367463025 -0.3340609727 1.2831630234
| 12> H 0.9884816748 1.0450466764 1.9252263051
| 13> H 1.5223735237 -0.6024993341 1.5638779008
| 14> H 2.4631579988 0.7741885048 1.0058610516
| 15> H 0.6485787348 1.4737268319 -0.5073361219
| 16> H 1.5017490215 -1.4307031314 -0.8600467501
| 17> H 2.3854459733 -0.0009981542 -1.4057589837
| 18> H 0.8206997524 -0.4054242446 -2.1259443554
| 19> H -2.3721693466 -0.6462163963 1.1759392452
| 20> H -1.2828450884 0.5374740876 1.93017001
| 21> H -0.755567886 -1.1295932879 1.7410546983
| 22> *
| 23>
| 24>                          ****END OF INPUT****

CARTESIAN COORDINATES (ANGSTROEM)
---------------------------------
  C      1.452824    0.410432    1.176563
  C      0.684725    0.440271   -0.139380
  C      1.397153   -0.403901   -1.203796
  C     -0.768839    0.001220   -0.061194
  O     -1.445792   -0.061298   -1.072167
  C     -1.336746   -0.334061    1.283163
  H      0.988482    1.045047    1.925226
  H      1.522374   -0.602499    1.563878
  H      2.463158    0.774189    1.005861
  H      0.648579    1.473727   -0.507336
  H      1.501749   -1.430703   -0.860047
  H      2.385446   -0.000998   -1.405759
  H      0.820700   -0.405424   -2.125944
  H     -2.372169   -0.646216    1.175939
  H     -1.282845    0.537474    1.930170
  H     -0.755568   -1.129593    1.741055

 Total Charge           Charge          ....    0
 Multiplicity           Mult            ....    1
 Number of Electrons    NEL             ....   48
 Basis Dimension        Dim             ....  169

ORBITAL ENERGIES
----------------

  NO   OCC          E(Eh)            E(eV)
   0   2.0000     -18.932792      -515.1874
   1   2.0000     -10.117099      -275.3003
   2   2.0000     -10.047883      -273.4168
   3   2.0000     -10.034414      -273.0503
   4   2.0000     -10.030672      -272.9485
   5   2.0000     -10.024008      -272.7671
   6   2.0000      -1.000112       -27.2144
   7   2.0000      -0.779441       -21.2097
   8   2.0000      -0.711265       -19.3545
   9   2.0000      -0.659487       -17.9456
  10   2.0000      -0.594643       -16.1811
  11   2.0000      -0.493047       -13.4165
  12   2.0000      -0.447856       -12.1868
  13   2.0000      -0.436633       -11.8814
  14   2.0000      -0.413855       -11.2616
  15   2.0000      -0.398265       -10.8373
  16   2.0000      -0.376681       -10.2500
  17   2.0000      -0.367715       -10.0060
  18   2.0000      -0.362016        -9.8510
  19   2.0000      -0.345525        -9.4022
  20   2.0000      -0.327309        -8.9065
  21   2.0000      -0.314281        -8.5520
  22   2.0000      -0.301235        -8.1970
  23   2.0000      -0.210759        -5.7350
  24   0.0000      -0.046582        -1.2676
  25   0.0000       0.076405         2.0791
  26   0.0000       0.118319         3.2196
  27   0.0000       0.122932         3.3451
  28   0.0000       0.129785         3.5316

MULLIKEN ATOMIC CHARGES
-----------------------
   0 C :   -0.508934
   1 C :   -0.022802
   2 C :   -0.487705
   3 C :    0.264091
   4 O :   -0.358482
   5 C :   -0.486650
   6 H :    0.144404
   7 H :    0.158908
   8 H :    0.151444
   9 H :    0.165582
  10 H :    0.146521
  11 H :    0.148478
  12 H :    0.181326
  13 H :    0.178787
  14 H :    0.168414
  15 H :    0.156618
Sum of atomic charges:   -0.0000000

LOEWDIN ATOMIC CHARGES
----------------------
   0 C :   -0.412081
   1 C :   -0.224855
   2 C :   -0.388837
   3 C :    0.225912
   4 O :   -0.473982
   5 C :   -0.380270
   6 H :    0.154182
   7 H :    0.154888
   8 H :    0.158357
   9 H :    0.183111
  10 H :    0.154918
  11 H :    0.152866
  12 H :    0.172854
  13 H :    0.175330
  14 H :    0.174425
  15 H :    0.173183

  Mayer bond orders larger than 0.100000
B(  0-C ,  1-C ) :   0.8713 B(  0-C ,  6-H ) :   0.9665 B(  0-C ,  7-H ) :   0.9956
B(  0-C ,  8-H ) :   0.9602 B(  1-C ,  2-C ) :   0.9061 B(  1-C ,  3-C ) :   0.8982
B(  1-C ,  9-H ) :   0.9288 B(  2-C , 10-H ) :   0.9816 B(  2-C , 11-H ) :   0.9752
B(  2-C , 12-H ) :   0.9638 B(  3-C ,  4-O ) :   1.8990 B(  3-C ,  5-C ) :   0.9267
B(  5-C , 13-H ) :   0.9795 B(  5-C , 14-H ) :   0.9584 B(  5-C , 15-H ) :   0.9449

Dispersion correction           -0.003948941
FINAL SINGLE POINT ENERGY      -271.702419951182

DIPOLE MOMENT
-------------

Method             : SCF
Type of density    : Electron Density
Multiplicity       :   1
Irrep              :   0
Energy             :  -271.7061717229710212 Eh
Relativity type    :
Basis              : AO
                                X                 Y                 Z
Electronic contribution:     -4.845145313       0.451578787      -3.237372796
Nuclear contribution   :      5.532404736      -0.362101496       4.152406305
                        -----------------------------------------
Total Dipole Moment    :      0.687259423       0.089477290       0.915033509
                        -----------------------------------------
Magnitude (a.u.)       :      1.147875438
Magnitude (Debye)      :      2.917667493

Rotational constants in cm-1:             0.152872             0.106520             0.070077
Rotational constants in MHz :          4583.001999          3193.391843          2100.841291

                             ****ORCA TERMINATED NORMALLY****
TOTAL RUN TIME: 0 days 0 hours 0 minutes 22 seconds 201 msec
