                         Program Version 6.0.0  -   RELEASE  -
|  1> ! r2scan-3c def2/J RI DEFGRID2 scfconv6 printgap
|  2> %output
|  3>     printlevel normal
|  4> end
|  5> %cpcm
|  6>     smd true
|  7>     smdsolvent "water"
|  8> end
|  9> * xyz 0 1
| 10> C 1.4528243552 0.4104316023 1.1765633518
| 11> C 0.6847251909 0.440270573 -0.1393800347
| 12> C 1.3971534606 -0.4039014545 -1.2037958719
| 13> C -0.7688390142 0.0012203393 -0.0611939983
| 14> O -1.4457919783 -0.0612982158 -1.0721670565
| 15> C -1.3367463025 -0.3340609727 1.2831630234
| 16> H 0.9884816748 1.0450466764 1.9252263051
| 17> H 1.5223735237 -0.6024993341 1.5638779008
| 18> H 2.4631579988 0.7741885048 1.0058610516
| 19> H 0.6485787348 1.4737268319 -0.5073361219
| 20> H 1.5017490215 -1.4307031314 -0.8600467501
| 21> H 2.3854459733 -0.0009981542 -1.4057589837
| 22> H 0.8206997524 -0.4054242446 -2.1259443554
| 23> H -2.3721693466 -0.6462163963 1.1759392452
| 24> H -1.2828450884 0.5374740876 1.93017001
| 25> H -0.755567886 -1.1295932879 1.7410546983
| 26> *
| 27>
| 28>                          ****END OF INPUT****

CARTESIAN COORDINATES (ANGSTROEM)
---------------------------------
  C      1.452824    0.410432    1.176563
  C      0.684725    0.440271   -0.139380
  C      1.397153   -0.403901   -1.203796
  C     -0.768839    0.001220   -0.061194
  O     -1.445792   -0.061298   -1.072167
  C     -1.336746   -0.334061    1.283163
  H      0.988482    1.045047    1.925226
  H      1.522374   -0.602499    1.563878
  H      2.463158    0.774189    1.005861
  H      0.648579    1.473727   -0.507336
  H      1.501749   -1.430703   -0.860047
  H      2.385446   -0.000998   -1.405759
  H      0.820700   -0.405424   -2.125944
  H     -2.372169   -0.646216    1.175939
  H     -1.282845    0.537474    1.930170
  H     -0.755568   -1.129593    1.741055

 Total Charge           Charge          ....    0
 Multiplicity           Mult            ....    1
 Number of Electrons    NEL             ....   48
 Basis Dimension        Dim             ....  169

ORBITAL ENERGIES
----------------

  NO   OCC          E(Eh)            E(eV)
   0   2.0000     -18.943556      -515.4804
   1   2.0000     -10.122772      -275.4546
   2   2.0000     -10.038673      -273.1662
   3   2.0000     -10.022018      -272.7130
   4   2.0000     -10.015650      -272.5397
   5   2.0000     -10.012773      -272.4614
   6   2.0000      -1.012505       -27.5517
   7   2.0000      -0.769442       -20.9376
   8   2.0000      -0.701738       -19.0953
   9   2.0000      -0.646574       -17.5942
  10   2.0000      -0.586680       -15.9644
  11   2.0000      -0.487242       -13.2585
  12   2.0000      -0.445051       -12.1104
  13   2.0000      -0.427071       -11.6212
  14   2.0000      -0.415272       -11.3001
  15   2.0000      -0.389405       -10.5963
  16   2.0000      -0.368280       -10.0214
  17   2.0000      -0.358571        -9.7572
  18   2.0000      -0.347559        -9.4576
  19   2.0000      -0.340743        -9.2721
  20   2.0000      -0.322550        -8.7770
  21   2.0000      -0.304358        -8.2820
  22   2.0000      -0.296969        -8.0809
  23   2.0000      -0.220880        -6.0104
  24   0.0000      -0.048547        -1.3210
  25   0.0000       0.089521         2.4360
  26   0.0000       0.130214         3.5433
  27   0.0000       0.134752         3.6668
  28   0.0000       0.139676         3.8008

MULLIKEN ATOMIC CHARGES
-----------------------
   0 C :   -0.561729
   1 C :    0.003059
   2 C :   -0.526821
   3 C :    0.313010
   4 O :   -0.468050
   5 C :   -0.530357
   6 H :    0.164549
   7 H :    0.178980
   8 H :    0.163400
   9 H :    0.187312
  10 H :    0.168796
  11 H :    0.168416
  12 H :    0.166189
  13 H :    0.177263
  14 H :    0.204068
  15 H :    0.191913
Sum of atomic charges:   -0.0000000

LOEWDIN ATOMIC CHARGES
----------------------
   0 C :   -0.415057
   1 C :   -0.217274
   2 C :   -0.394868
   3 C :    0.245774
   4 O :   -0.553646
   5 C :   -0.379238
   6 H :    0.160997
   7 H :    0.161515
   8 H :    0.161685
   9 H :    0.191272
  10 H :    0.161239
  11 H :    0.160013
  12 H :    0.165138
  13 H :    0.174459
  14 H :    0.189903
  15 H :    0.188089

  Mayer bond orders larger than 0.100000
B(  0-C ,  1-C ) :   0.8640 B(  0-C ,  6-H ) :   0.9641 B(  0-C ,  7-H ) :   0.9912
B(  0-C ,  8-H ) :   0.9575 B(  1-C ,  2-C ) :   0.8812 B(  1-C ,  3-C ) :   0.9147
B(  1-C ,  9-H ) :   0.9229 B(  2-C , 10-H ) :   0.9787 B(  2-C , 11-H ) :   0.9707
B(  2-C , 12-H ) :   0.9670 B(  3-C ,  4-O ) :   1.8259 B(  3-C ,  5-C ) :   0.9360
B(  5-C , 13-H ) :   0.9778 B(  5-C , 14-H ) :   0.9414 B(  5-C , 15-H ) :   0.9318

Dispersion correction           -0.003948941
FINAL SINGLE POINT ENERGY      -271.709052744638

DIPOLE MOMENT
-------------

Method             : SCF
Type of density    : Electron Density
Multiplicity       :   1
Irrep              :   0
Energy             :  -271.7128045164261607 Eh
Relativity type    :
Basis              : AO
                                X                 Y                 Z
Electronic contribution:     -4.531711321       0.492303047      -2.760264458
Nuclear contribution   :      5.532404736      -0.362101496       4.152406305
                        -----------------------------------------
Total Dipole Moment    :      1.000693415       0.130201550       1.392141847
                        -----------------------------------------
Magnitude (a.u.)       :      1.719418122
Magnitude (Debye)      :      4.370413543

Rotational constants in cm-1:             0.152872             0.106520             0.070077
Rotational constants in MHz :          4583.001999          3193.391843          2100.841291

                             ****ORCA TERMINATED NORMALLY****
TOTAL RUN TIME: 0 days 0 hours 0 minutes 22 seconds 931 msec
