                         Program Version 6.0.0  -   RELEASE  -
|  1> ! wb97x-v def2-tzvp def2/J RIJCOSX DEFGRID2 scfconv7 GCP(DFT/TZ) printgap
|  2> %output
|  3>     printlevel normal
|  4> end
|  5> * xyz 0 1
|  6> C -1.7013642163963403 0.6238980237495589 -0.6276530529196355
|  7> C -1.2047433946318513 -0.07481902490394249 0.6317473078387581
|  8> C 0.04522000185189111 -0.9401519794239559 0.3816718403087007
|  9> C 1.2015286152631595 -0.15781865201805167 -0.025461465779557355
| 10> C 2.1448481208395886 0.5224388849288745 -0.3508416184046219
| 11> H -1.9636765647176644 -0.10651482748788504 -1.4011060389204253
| 12> H -2.5902995533364064 1.2262837698744429 -0.41658133689818533
| 13> H -0.9357746874511543 1.2905043584934197 -1.0393854032055412
| 14> H -0.9768406143154765 0.6617481146696763 1.410193017340507
| 15> H -1.986667730723259 -0.7315048225605477 1.0280393566791297
| 16> H -0.17485151359674306 -1.6852317288246166 -0.3935226698839358
| 17> H 0.29968236787842845 -1.4966440790597337 1.2914212699447762
| 18> H 2.9802082588737226 1.116203045749712 -0.6474921949956213
| 19> *
| 20>
| 21>                          ****END OF INPUT****

CARTESIAN COORDINATES (ANGSTROEM)
---------------------------------
  C     -1.701364    0.623898   -0.627653
  C     -1.204743   -0.074819    0.631747
  C      0.045220   -0.940152    0.381672
  C      1.201529   -0.157819   -0.025461
  C      2.144848    0.522439   -0.350842
  H     -1.963677   -0.106515   -1.401106
  H     -2.590300    1.226284   -0.416581
  H     -0.935775    1.290504   -1.039385
  H     -0.976841    0.661748    1.410193
  H     -1.986668   -0.731505    1.028039
  H     -0.174852   -1.685232   -0.393523
  H      0.299682   -1.496644    1.291421
  H      2.980208    1.116203   -0.647492

 Total Charge           Charge          ....    0
 Multiplicity           Mult            ....    1
 Number of Electrons    NEL             ....   38
 Basis Dimension        Dim             ....  203

ORBITAL ENERGIES
----------------

  NO   OCC          E(Eh)            E(eV)
   0   2.0000     -12.070118      -328.4446
   1   2.0000     -12.052377      -327.9618
   2   2.0000     -12.049728      -327.8898
   3   2.0000     -12.035843      -327.5119
   4   2.0000     -12.034988      -327.4887
   5   2.0000      -1.326494       -36.0957
   6   2.0000      -1.276353       -34.7313
   7   2.0000      -1.203609       -32.7519
   8   2.0000      -1.087143       -29.5827
   9   2.0000      -0.981636       -26.7117
  10   2.0000      -0.934892       -25.4397
  11   2.0000      -0.889194       -24.1962
  12   2.0000      -0.873042       -23.7567
  13   2.0000      -0.842119       -22.9152
  14   2.0000      -0.804531       -21.8924
  15   2.0000      -0.785819       -21.3832
  16   2.0000      -0.766513       -20.8579
  17   2.0000      -0.676074       -18.3969
  18   2.0000      -0.672501       -18.2997
  19   0.0000      -0.160050        -4.3552
  20   0.0000      -0.148005        -4.0274
  21   0.0000      -0.050311        -1.3690
  22   0.0000      -0.012625        -0.3435
  23   0.0000      -0.001210        -0.0329

MULLIKEN ATOMIC CHARGES
-----------------------
   0 C :   -0.353049
   1 C :   -0.140836
   2 C :   -0.218151
   3 C :   -0.091093
   4 C :   -0.164032
   5 H :    0.101291
   6 H :    0.113290
   7 H :    0.128245
   8 H :    0.099385
   9 H :    0.096930
  10 H :    0.126148
  11 H :    0.126791
  12 H :    0.175081
Sum of atomic charges:    0.0000000

LOEWDIN ATOMIC CHARGES
----------------------
   0 C :   -0.303350
   1 C :   -0.273114
   2 C :   -0.244741
   3 C :   -0.116443
   4 C :   -0.115819
   5 H :    0.116700
   6 H :    0.116868
   7 H :    0.123227
   8 H :    0.135786
   9 H :    0.131807
  10 H :    0.153037
  11 H :    0.152937
  12 H :    0.123105

  Mayer bond orders larger than 0.100000
B(  0-C ,  1-C ) :   0.9895 B(  0-C ,  5-H ) :   0.9774 B(  0-C ,  6-H ) :   0.9800
B(  0-C ,  7-H ) :   0.9766 B(  1-C ,  2-C ) :   0.9693 B(  1-C ,  8-H ) :   0.9717
B(  1-C ,  9-H ) :   0.9753 B(  2-C ,  3-C ) :   1.0428 B(  2-C , 10-H ) :   0.9888
B(  2-C , 11-H ) :   0.9645 B(  3-C ,  4-C ) :   2.8301 B(  4-C , 12-H ) :   0.9682

FINAL SINGLE POINT ENERGY      -195.284892438597

DIPOLE MOMENT
-------------

Method             : SCF
Type of density    : Electron Density
Multiplicity       :   1
Irrep              :   0
Energy             :  -195.2925925038967421 Eh
Relativity type    :
Basis              : AO
                                X                 Y                 Z
Electronic contribution:      4.780405793      -0.369767832       0.245559406
Nuclear contribution   :     -5.066075984       0.262334309      -0.151837318
                        -----------------------------------------
Total Dipole Moment    :     -0.285670191      -0.107433523       0.093722088
                        -----------------------------------------
Magnitude (a.u.)       :      0.319269870
Magnitude (Debye)      :      0.811519516

Rotational constants in cm-1:             0.333236             0.105345             0.087899
Rotational constants in MHz :          9990.155302          3158.159731          2635.153875

                             ****ORCA TERMINATED NORMALLY****
TOTAL RUN TIME: 0 days 0 hours 0 minutes 57 seconds 735 msec
