                         Program Version 6.0.0  -   RELEASE  -
|  1> ! wb97x-v def2-tzvp def2/J RIJCOSX DEFGRID2 scfconv7 GCP(DFT/TZ) printgap
|  2> %output
|  3>     printlevel normal
|  4> end
|  5> %cpcm
|  6>     smd true
|  7>     smdsolvent "water"
|  8> end
|  9> * xyz 0 1
| 10> C -1.7013642163963403 0.6238980237495589 -0.6276530529196355
| 11> C -1.2047433946318513 -0.07481902490394249 0.6317473078387581
| 12> C 0.04522000185189111 -0.9401519794239559 0.3816718403087007
| 13> C 1.2015286152631595 -0.15781865201805167 -0.025461465779557355
| 14> C 2.1448481208395886 0.5224388849288745 -0.3508416184046219
| 15> H -1.9636765647176644 -0.10651482748788504 -1.4011060389204253
| 16> H -2.5902995533364064 1.2262837698744429 -0.41658133689818533
| 17> H -0.9357746874511543 1.2905043584934197 -1.0393854032055412
| 18> H -0.9768406143154765 0.6617481146696763 1.410193017340507
| 19> H -1.986667730723259 -0.7315048225605477 1.0280393566791297
| 20> H -0.17485151359674306 -1.6852317288246166 -0.3935226698839358
| 21> H 0.29968236787842845 -1.4966440790597337 1.2914212699447762
| 22> H 2.9802082588737226 1.116203045749712 -0.6474921949956213
| 23> *
| 24>
| 25>                          ****END OF INPUT****

CARTESIAN COORDINATES (ANGSTROEM)
---------------------------------
  C     -1.701364    0.623898   -0.627653
  C     -1.204743   -0.074819    0.631747
  C      0.045220   -0.940152    0.381672
  C      1.201529   -0.157819   -0.025461
  C      2.144848    0.522439   -0.350842
  H     -1.963677   -0.106515   -1.401106
  H     -2.590300    1.226284   -0.416581
  H     -0.935775    1.290504   -1.039385
  H     -0.976841    0.661748    1.410193
  H     -1.986668   -0.731505    1.028039
  H     -0.174852   -1.685232   -0.393523
  H      0.299682   -1.496644    1.291421
  H      2.980208    1.116203   -0.647492

 Total Charge           Charge          ....    0
 Multiplicity           Mult            ....    1
 Number of Electrons    NEL             ....   38
 Basis Dimension        Dim             ....  203

ORBITAL ENERGIES
----------------

  NO   OCC          E(Eh)            E(eV)
   0   2.0000     -12.060890      -328.1935
   1   2.0000     -12.055649      -328.0509
   2   2.0000     -12.042378      -327.6898
   3   2.0000     -12.038532      -327.5851
   4   2.0000     -12.026724      -327.2638
   5   2.0000      -1.324884       -36.0519
   6   2.0000      -1.276155       -34.7259
   7   2.0000      -1.197896       -32.5964
   8   2.0000      -1.079433       -29.3729
   9   2.0000      -0.979655       -26.6578
  10   2.0000      -0.929269       -25.2867
  11   2.0000      -0.880337       -23.9552
  12   2.0000      -0.865092       -23.5404
  13   2.0000      -0.833413       -22.6783
  14   2.0000      -0.796162       -21.6647
  15   2.0000      -0.777935       -21.1687
  16   2.0000      -0.757235       -20.6054
  17   2.0000      -0.682124       -18.5615
  18   2.0000      -0.678263       -18.4565
  19   0.0000      -0.163332        -4.4445
  20   0.0000      -0.151739        -4.1290
  21   0.0000      -0.045900        -1.2490
  22   0.0000      -0.002893        -0.0787
  23   0.0000       0.008063         0.2194

MULLIKEN ATOMIC CHARGES
-----------------------
   0 C :   -0.398243
   1 C :   -0.160598
   2 C :   -0.211496
   3 C :   -0.131346
   4 C :   -0.240406
   5 H :    0.122173
   6 H :    0.131174
   7 H :    0.125604
   8 H :    0.110626
   9 H :    0.116967
  10 H :    0.151746
  11 H :    0.152250
  12 H :    0.231549
Sum of atomic charges:    0.0000000

LOEWDIN ATOMIC CHARGES
----------------------
   0 C :   -0.310014
   1 C :   -0.272110
   2 C :   -0.240782
   3 C :   -0.132180
   4 C :   -0.141651
   5 H :    0.120566
   6 H :    0.120105
   7 H :    0.119881
   8 H :    0.137297
   9 H :    0.137890
  10 H :    0.161503
  11 H :    0.161153
  12 H :    0.138342

  Mayer bond orders larger than 0.100000
B(  0-C ,  1-C ) :   0.9841 B(  0-C ,  5-H ) :   0.9758 B(  0-C ,  6-H ) :   0.9778
B(  0-C ,  7-H ) :   0.9757 B(  1-C ,  2-C ) :   0.9649 B(  1-C ,  8-H ) :   0.9728
B(  1-C ,  9-H ) :   0.9725 B(  2-C ,  3-C ) :   1.0647 B(  2-C , 10-H ) :   0.9771
B(  2-C , 11-H ) :   0.9551 B(  3-C ,  4-C ) :   2.7679 B(  4-C , 12-H ) :   0.9682

FINAL SINGLE POINT ENERGY      -195.285651708411

DIPOLE MOMENT
-------------

Method             : SCF
Type of density    : Electron Density
Multiplicity       :   1
Irrep              :   0
Energy             :  -195.2933517737108389 Eh
Relativity type    :
Basis              : AO
                                X                 Y                 Z
Electronic contribution:      4.653138141      -0.472165585       0.299158902
Nuclear contribution   :     -5.066075984       0.262334309      -0.151837318
                        -----------------------------------------
Total Dipole Moment    :     -0.412937843      -0.209831276       0.147321584
                        -----------------------------------------
Magnitude (a.u.)       :      0.486056042
Magnitude (Debye)      :      1.235456274

Rotational constants in cm-1:             0.333236             0.105345             0.087899
Rotational constants in MHz :          9990.155302          3158.159731          2635.153875

                             ****ORCA TERMINATED NORMALLY****
TOTAL RUN TIME: 0 days 0 hours 0 minutes 55 seconds 493 msec
