                         Program Version 6.0.0  -   RELEASE  -
|  1> ! r2scan-3c def2/J RI DEFGRID2 scfconv6 printgap
|  2> %output
|  3>     printlevel normal
|  4> end
|  5> * xyz 0 1
|  6> C -1.7945016022 -0.0001257028 0.1539403225
|  7> C -0.9452520573 -1.2520048125 0.3531206214
|  8> C 0.2350746209 -1.2614296861 -0.6164753791
|  9> C 1.0993816655 9.80987e-05 -0.4874187697
| 10> C 0.2348761141 1.2615329576 -0.6163904243
| 11> C -0.9454003729 1.2518542346 0.353240557
| 12> O 1.8736622737 0.0001632632 0.6984665443
| 13> H -2.6290542663 -0.0002300412 0.8574740456
| 14> H -2.2062371913 -8.18018e-05 -0.8575265734
| 15> H -0.5826949188 -1.2880273738 1.3831107583
| 16> H -1.5511355961 -2.1449632571 0.1895869456
| 17> H 0.8628595492 -2.1363781243 -0.4364675763
| 18> H -0.1370345584 -1.3148047997 -1.6407250306
| 19> H 1.8511621859 0.0002038917 -1.2864786827
| 20> H 0.8625169057 2.1365373257 -0.4362141193
| 21> H -0.1371673372 1.3149485723 -1.6406548584
| 22> H -0.5826598333 1.2877796866 1.3831638644
| 23> H -1.55143757 2.1447539875 0.1899113043
| 24> H 1.2723197177 -0.0014370072 1.4556603346
| 25> *
| 26>
| 27>                          ****END OF INPUT****

CARTESIAN COORDINATES (ANGSTROEM)
---------------------------------
  C     -1.794502   -0.000126    0.153940
  C     -0.945252   -1.252005    0.353121
  C      0.235075   -1.261430   -0.616475
  C      1.099382    0.000098   -0.487419
  C      0.234876    1.261533   -0.616390
  C     -0.945400    1.251854    0.353241
  O      1.873662    0.000163    0.698467
  H     -2.629054   -0.000230    0.857474
  H     -2.206237   -0.000082   -0.857527
  H     -0.582695   -1.288027    1.383111
  H     -1.551136   -2.144963    0.189587
  H      0.862860   -2.136378   -0.436468
  H     -0.137035   -1.314805   -1.640725
  H      1.851162    0.000204   -1.286479
  H      0.862517    2.136537   -0.436214
  H     -0.137167    1.314949   -1.640655
  H     -0.582660    1.287780    1.383164
  H     -1.551438    2.144754    0.189911
  H      1.272320   -0.001437    1.455660

 Total Charge           Charge          ....    0
 Multiplicity           Mult            ....    1
 Number of Electrons    NEL             ....   56
 Basis Dimension        Dim             ....  198

ORBITAL ENERGIES
----------------

  NO   OCC          E(Eh)            E(eV)
   0   2.0000     -18.943129      -515.4687
   1   2.0000     -10.075748      -274.1751
   2   2.0000     -10.029260      -272.9101
   3   2.0000     -10.029229      -272.9092
   4   2.0000     -10.027239      -272.8550
   5   2.0000     -10.023398      -272.7505
   6   2.0000     -10.023363      -272.7496
   7   2.0000      -0.982192       -26.7268
   8   2.0000      -0.793702       -21.5977
   9   2.0000      -0.712983       -19.4012
  10   2.0000      -0.701138       -19.0789
  11   2.0000      -0.583079       -15.8664
  12   2.0000      -0.579840       -15.7783
  13   2.0000      -0.523012       -14.2319
  14   2.0000      -0.472797       -12.8655
  15   2.0000      -0.435029       -11.8377
  16   2.0000      -0.419280       -11.4092
  17   2.0000      -0.415363       -11.3026
  18   2.0000      -0.385994       -10.5034
  19   2.0000      -0.361971        -9.8497
  20   2.0000      -0.349414        -9.5081
  21   2.0000      -0.349078        -9.4989
  22   2.0000      -0.322752        -8.7825
  23   2.0000      -0.307981        -8.3806
  24   2.0000      -0.299097        -8.1388
  25   2.0000      -0.283047        -7.7021
  26   2.0000      -0.265261        -7.2181
  27   2.0000      -0.228626        -6.2212
  28   0.0000       0.054749         1.4898
  29   0.0000       0.093747         2.5510
  30   0.0000       0.107802         2.9334
  31   0.0000       0.118395         3.2217
  32   0.0000       0.125399         3.4123

MULLIKEN ATOMIC CHARGES
-----------------------
   0 C :   -0.275324
   1 C :   -0.327549
   2 C :   -0.278398
   3 C :   -0.017115
   4 C :   -0.277991
   5 C :   -0.327602
   6 O :   -0.410025
   7 H :    0.149943
   8 H :    0.143205
   9 H :    0.141690
  10 H :    0.150770
  11 H :    0.157793
  12 H :    0.141941
  13 H :    0.148198
  14 H :    0.157748
  15 H :    0.141898
  16 H :    0.141774
  17 H :    0.150754
  18 H :    0.288289
Sum of atomic charges:    0.0000000

LOEWDIN ATOMIC CHARGES
----------------------
   0 C :   -0.302084
   1 C :   -0.304060
   2 C :   -0.284182
   3 C :    0.052404
   4 C :   -0.284179
   5 C :   -0.304056
   6 O :   -0.602140
   7 H :    0.154886
   8 H :    0.155865
   9 H :    0.150061
  10 H :    0.157844
  11 H :    0.166442
  12 H :    0.160916
  13 H :    0.182709
  14 H :    0.166447
  15 H :    0.160896
  16 H :    0.150097
  17 H :    0.157836
  18 H :    0.264301

  Mayer bond orders larger than 0.100000
B(  0-C ,  1-C ) :   0.9053 B(  0-C ,  5-C ) :   0.9053 B(  0-C ,  7-H ) :   0.9460
B(  0-C ,  8-H ) :   0.9920 B(  1-C ,  2-C ) :   0.8895 B(  1-C ,  9-H ) :   0.9957
B(  1-C , 10-H ) :   0.9386 B(  2-C ,  3-C ) :   0.9324 B(  2-C , 11-H ) :   0.9458
B(  2-C , 12-H ) :   0.9867 B(  3-C ,  4-C ) :   0.9324 B(  3-C ,  6-O ) :   0.9566
B(  3-C , 13-H ) :   0.9434 B(  4-C ,  5-C ) :   0.8895 B(  4-C , 14-H ) :   0.9457
B(  4-C , 15-H ) :   0.9866 B(  5-C , 16-H ) :   0.9957 B(  5-C , 17-H ) :   0.9386
B(  6-O , 18-H ) :   0.8882

Dispersion correction           -0.005442955
FINAL SINGLE POINT ENERGY      -311.007072524683

DIPOLE MOMENT
-------------

Method             : SCF
Type of density    : Electron Density
Multiplicity       :   1
Irrep              :   0
Energy             :  -311.0108405474214237 Eh
Relativity type    :
Basis              : AO
                                X                 Y                 Z
Electronic contribution:      3.525782129       0.000643501       0.691891448
Nuclear contribution   :     -4.220745457      -0.001591466      -0.776909016
                        -----------------------------------------
Total Dipole Moment    :     -0.694963328      -0.000947964      -0.085017568
                        -----------------------------------------
Magnitude (a.u.)       :      0.700144922
Magnitude (Debye)      :      1.779626963

Rotational constants in cm-1:             0.121139             0.086768             0.065469
Rotational constants in MHz :          3631.660800          2601.252881          1962.714123

                             ****ORCA TERMINATED NORMALLY****
TOTAL RUN TIME: 0 days 0 hours 0 minutes 54 seconds 583 msec
