                         Program Version 6.0.0  -   RELEASE  -
|  1> ! r2scan-3c def2/J RI DEFGRID2 scfconv6 printgap
|  2> %output
|  3>     printlevel normal
|  4> end
|  5> %cpcm
|  6>     smd true
|  7>     smdsolvent "water"
|  8> end
|  9> * xyz 0 1
| 10> C -1.7945016022 -0.0001257028 0.1539403225
| 11> C -0.9452520573 -1.2520048125 0.3531206214
| 12> C 0.2350746209 -1.2614296861 -0.6164753791
| 13> C 1.0993816655 9.80987e-05 -0.4874187697
| 14> C 0.2348761141 1.2615329576 -0.6163904243
| 15> C -0.9454003729 1.2518542346 0.353240557
| 16> O 1.8736622737 0.0001632632 0.6984665443
| 17> H -2.6290542663 -0.0002300412 0.8574740456
| 18> H -2.2062371913 -8.18018e-05 -0.8575265734
| 19> H -0.5826949188 -1.2880273738 1.3831107583
| 20> H -1.5511355961 -2.1449632571 0.1895869456
| 21> H 0.8628595492 -2.1363781243 -0.4364675763
| 22> H -0.1370345584 -1.3148047997 -1.6407250306
| 23> H 1.8511621859 0.0002038917 -1.2864786827
| 24> H 0.8625169057 2.1365373257 -0.4362141193
| 25> H -0.1371673372 1.3149485723 -1.6406548584
| 26> H -0.5826598333 1.2877796866 1.3831638644
| 27> H -1.55143757 2.1447539875 0.1899113043
| 28> H 1.2723197177 -0.0014370072 1.4556603346
| 29> *
| 30>
| 31>                          ****END OF INPUT****

CARTESIAN COORDINATES (ANGSTROEM)
---------------------------------
  C     -1.794502   -0.000126    0.153940
  C     -0.945252   -1.252005    0.353121
  C      0.235075   -1.261430   -0.616475
  C      1.099382    0.000098   -0.487419
  C      0.234876    1.261533   -0.616390
  C     -0.945400    1.251854    0.353241
  O      1.873662    0.000163    0.698467
  H     -2.629054   -0.000230    0.857474
  H     -2.206237   -0.000082   -0.857527
  H     -0.582695   -1.288027    1.383111
  H     -1.551136   -2.144963    0.189587
  H      0.862860   -2.136378   -0.436468
  H     -0.137035   -1.314805   -1.640725
  H      1.851162    0.000204   -1.286479
  H      0.862517    2.136537   -0.436214
  H     -0.137167    1.314949   -1.640655
  H     -0.582660    1.287780    1.383164
  H     -1.551438    2.144754    0.189911
  H      1.272320   -0.001437    1.455660

 Total Charge           Charge          ....    0
 Multiplicity           Mult            ....    1
 Number of Electrons    NEL             ....   56
 Basis Dimension        Dim             ....  198

ORBITAL ENERGIES
----------------

  NO   OCC          E(Eh)            E(eV)
   0   2.0000     -18.948725      -515.6210
   1   2.0000     -10.071544      -274.0606
   2   2.0000     -10.015894      -272.5463
   3   2.0000     -10.015883      -272.5460
   4   2.0000     -10.014672      -272.5131
   5   2.0000     -10.014652      -272.5125
   6   2.0000     -10.014017      -272.4953
   7   2.0000      -0.986631       -26.8476
   8   2.0000      -0.783080       -21.3087
   9   2.0000      -0.702403       -19.1134
  10   2.0000      -0.692768       -18.8512
  11   2.0000      -0.575692       -15.6654
  12   2.0000      -0.569697       -15.5022
  13   2.0000      -0.514323       -13.9955
  14   2.0000      -0.465855       -12.6765
  15   2.0000      -0.426117       -11.5952
  16   2.0000      -0.409742       -11.1496
  17   2.0000      -0.409137       -11.1332
  18   2.0000      -0.379818       -10.3354
  19   2.0000      -0.354649        -9.6505
  20   2.0000      -0.340176        -9.2566
  21   2.0000      -0.339024        -9.2253
  22   2.0000      -0.311138        -8.4665
  23   2.0000      -0.308499        -8.3947
  24   2.0000      -0.285172        -7.7599
  25   2.0000      -0.275905        -7.5078
  26   2.0000      -0.257715        -7.0128
  27   2.0000      -0.231513        -6.2998
  28   0.0000       0.069837         1.9004
  29   0.0000       0.108713         2.9582
  30   0.0000       0.117042         3.1849
  31   0.0000       0.127960         3.4820
  32   0.0000       0.133864         3.6426

MULLIKEN ATOMIC CHARGES
-----------------------
   0 C :   -0.299006
   1 C :   -0.324294
   2 C :   -0.312056
   3 C :   -0.002374
   4 C :   -0.311843
   5 C :   -0.324250
   6 O :   -0.504465
   7 H :    0.155845
   8 H :    0.152218
   9 H :    0.157826
  10 H :    0.156773
  11 H :    0.158653
  12 H :    0.158563
  13 H :    0.156654
  14 H :    0.158615
  15 H :    0.158524
  16 H :    0.157824
  17 H :    0.156759
  18 H :    0.350034
Sum of atomic charges:   -0.0000000

LOEWDIN ATOMIC CHARGES
----------------------
   0 C :   -0.303890
   1 C :   -0.305908
   2 C :   -0.285393
   3 C :    0.049666
   4 C :   -0.285408
   5 C :   -0.305910
   6 O :   -0.642278
   7 H :    0.156595
   8 H :    0.157946
   9 H :    0.157267
  10 H :    0.158977
  11 H :    0.164841
  12 H :    0.167212
  13 H :    0.185142
  14 H :    0.164834
  15 H :    0.167195
  16 H :    0.157275
  17 H :    0.158968
  18 H :    0.282869

  Mayer bond orders larger than 0.100000
B(  0-C ,  1-C ) :   0.9089 B(  0-C ,  5-C ) :   0.9089 B(  0-C ,  7-H ) :   0.9439
B(  0-C ,  8-H ) :   0.9926 B(  1-C ,  2-C ) :   0.8947 B(  1-C ,  9-H ) :   0.9878
B(  1-C , 10-H ) :   0.9395 B(  2-C ,  3-C ) :   0.9351 B(  2-C , 11-H ) :   0.9487
B(  2-C , 12-H ) :   0.9827 B(  3-C ,  4-C ) :   0.9352 B(  3-C ,  6-O ) :   0.9252
B(  3-C , 13-H ) :   0.9403 B(  4-C ,  5-C ) :   0.8948 B(  4-C , 14-H ) :   0.9487
B(  4-C , 15-H ) :   0.9826 B(  5-C , 16-H ) :   0.9879 B(  5-C , 17-H ) :   0.9395
B(  6-O , 18-H ) :   0.8606

Dispersion correction           -0.005442955
FINAL SINGLE POINT ENERGY      -311.014904740958

DIPOLE MOMENT
-------------

Method             : SCF
Type of density    : Electron Density
Multiplicity       :   1
Irrep              :   0
Energy             :  -311.0186727636967703 Eh
Relativity type    :
Basis              : AO
                                X                 Y                 Z
Electronic contribution:      3.257667702       0.000151133       0.702787893
Nuclear contribution   :     -4.220745457      -0.001591466      -0.776909016
                        -----------------------------------------
Total Dipole Moment    :     -0.963077755      -0.001440333      -0.074121123
                        -----------------------------------------
Magnitude (a.u.)       :      0.965926901
Magnitude (Debye)      :      2.455191065

Rotational constants in cm-1:             0.121139             0.086768             0.065469
Rotational constants in MHz :          3631.660800          2601.252881          1962.714123

                             ****ORCA TERMINATED NORMALLY****
TOTAL RUN TIME: 0 days 0 hours 1 minutes 4 seconds 668 msec
