                         Program Version 6.0.0  -   RELEASE  -
|  1> ! pbe def2-sv(p) def2/J RI DEFGRID1 loosescf d4 GCP(DFT/SV(P)) printgap
|  2> %output
|  3>     printlevel normal
|  4> end
|  5> * xyz 0 1
|  6> C -1.7626108987 -1.0068627299 -0.7008554764
|  7> C -1.062141651 -0.4439259283 0.552963578
|  8> H -1.7547491815 -0.5334664555 1.3984270061
|  9> C -0.6814398151 1.0418137229 0.4189669718
| 10> H -1.5138725982 1.5704073547 -0.0565368348
| 11> C 0.5700802488 1.2416140159 -0.4551902492
| 12> H 0.9174567594 2.2734845324 -0.2827651255
| 13> C 1.7028531463 0.3082880051 0.014220285
| 14> H 2.4943169737 0.2987975136 -0.7491188548
| 15> C 1.2174901583 -1.1451836238 0.1733038503
| 16> H 1.9558123501 -1.6968106358 0.7806765746
| 17> O 0.0465690696 -1.2535444677 0.9387775115
| 18> O 1.1166233354 -1.701822552 -1.0988694334
| 19> O 2.1734248409 0.8267891898 1.2334549059
| 20> O 0.2139162183 1.0524982883 -1.7970040455
| 21> O -0.521655415 1.6499513119 1.676033902
| 22> O -3.088582205 -0.5511420992 -0.8260959686
| 23> H -1.8346071317 -2.0909033316 -0.5812668391
| 24> H -1.1766443749 -0.7767524375 -1.5947711666
| 25> H 0.9009100413 -2.6440531631 -1.0361798799
| 26> H 2.962180686 0.3470754302 1.5252121083
| 27> H 0.9675191425 1.2460701988 -2.3725178597
| 28> H 0.3084557924 1.3365438116 2.0718460364
| 29> H -3.0911202933 0.359521042 -1.1484652127
| 30> *
| 31>
| 32>                          ****END OF INPUT****

CARTESIAN COORDINATES (ANGSTROEM)
---------------------------------
  C     -1.762611   -1.006863   -0.700855
  C     -1.062142   -0.443926    0.552964
  H     -1.754749   -0.533466    1.398427
  C     -0.681440    1.041814    0.418967
  H     -1.513873    1.570407   -0.056537
  C      0.570080    1.241614   -0.455190
  H      0.917457    2.273485   -0.282765
  C      1.702853    0.308288    0.014220
  H      2.494317    0.298798   -0.749119
  C      1.217490   -1.145184    0.173304
  H      1.955812   -1.696811    0.780677
  O      0.046569   -1.253544    0.938778
  O      1.116623   -1.701823   -1.098869
  O      2.173425    0.826789    1.233455
  O      0.213916    1.052498   -1.797004
  O     -0.521655    1.649951    1.676034
  O     -3.088582   -0.551142   -0.826096
  H     -1.834607   -2.090903   -0.581267
  H     -1.176644   -0.776752   -1.594771
  H      0.900910   -2.644053   -1.036180
  H      2.962181    0.347075    1.525212
  H      0.967519    1.246070   -2.372518
  H      0.308456    1.336544    2.071846
  H     -3.091120    0.359521   -1.148465

 Total Charge           Charge          ....    0
 Multiplicity           Mult            ....    1
 Number of Electrons    NEL             ....   96
 Basis Dimension        Dim             ....  192

ORBITAL ENERGIES
----------------

  NO   OCC          E(Eh)            E(eV)
   0   2.0000     -18.781381      -511.0674
   1   2.0000     -18.768661      -510.7212
   2   2.0000     -18.765797      -510.6433
   3   2.0000     -18.763647      -510.5848
   4   2.0000     -18.736274      -509.8399
   5   2.0000     -18.733392      -509.7615
   6   2.0000      -9.992536      -271.9107
   7   2.0000      -9.955774      -270.9104
   8   2.0000      -9.948193      -270.7041
   9   2.0000      -9.937409      -270.4107
  10   2.0000      -9.928145      -270.1585
  11   2.0000      -9.912548      -269.7341
  12   2.0000      -0.983707       -26.7680
  13   2.0000      -0.954406       -25.9707
  14   2.0000      -0.940100       -25.5814
  15   2.0000      -0.921851       -25.0849
  16   2.0000      -0.910374       -24.7725
  17   2.0000      -0.906340       -24.6628
  18   2.0000      -0.699994       -19.0478
  19   2.0000      -0.690014       -18.7762
  20   2.0000      -0.614626       -16.7248
  21   2.0000      -0.593345       -16.1457
  22   2.0000      -0.568836       -15.4788
  23   2.0000      -0.530939       -14.4476
  24   2.0000      -0.491795       -13.3824
  25   2.0000      -0.485504       -13.2112
  26   2.0000      -0.473572       -12.8866
  27   2.0000      -0.458886       -12.4869
  28   2.0000      -0.453504       -12.3405
  29   2.0000      -0.435594       -11.8531
  30   2.0000      -0.409062       -11.1311
  31   2.0000      -0.395624       -10.7655
  32   2.0000      -0.381395       -10.3783
  33   2.0000      -0.372016       -10.1231
  34   2.0000      -0.355450        -9.6723
  35   2.0000      -0.351939        -9.5768
  36   2.0000      -0.330823        -9.0022
  37   2.0000      -0.324979        -8.8431
  38   2.0000      -0.309865        -8.4318
  39   2.0000      -0.279052        -7.5934
  40   2.0000      -0.276694        -7.5292
  41   2.0000      -0.261274        -7.1096
  42   2.0000      -0.251534        -6.8446
  43   2.0000      -0.247548        -6.7361
  44   2.0000      -0.242633        -6.6024
  45   2.0000      -0.222326        -6.0498
  46   2.0000      -0.212174        -5.7735
  47   2.0000      -0.191256        -5.2043
  48   0.0000       0.002437         0.0663
  49   0.0000       0.009890         0.2691
  50   0.0000       0.024887         0.6772
  51   0.0000       0.037999         1.0340
  52   0.0000       0.066876         1.8198

MULLIKEN ATOMIC CHARGES
-----------------------
   0 C :    0.003189
   1 C :    0.038100
   2 H :    0.077818
   3 C :    0.060705
   4 H :    0.053550
   5 C :    0.046678
   6 H :    0.078188
   7 C :    0.010833
   8 H :    0.062479
   9 C :    0.205502
  10 H :    0.043861
  11 O :   -0.313905
  12 O :   -0.390401
  13 O :   -0.418419
  14 O :   -0.398611
  15 O :   -0.429226
  16 O :   -0.436156
  17 H :    0.066887
  18 H :    0.112472
  19 H :    0.307074
  20 H :    0.310769
  21 H :    0.305264
  22 H :    0.301782
  23 H :    0.301566
Sum of atomic charges:   -0.0000000

LOEWDIN ATOMIC CHARGES
----------------------
   0 C :   -0.152701
   1 C :   -0.073028
   2 H :    0.120815
   3 C :   -0.062822
   4 H :    0.110202
   5 C :   -0.069518
   6 H :    0.107001
   7 C :   -0.087762
   8 H :    0.102923
   9 C :   -0.011035
  10 H :    0.087890
  11 O :   -0.143735
  12 O :   -0.305029
  13 O :   -0.303594
  14 O :   -0.303361
  15 O :   -0.319380
  16 O :   -0.335258
  17 H :    0.105362
  18 H :    0.107741
  19 H :    0.288685
  20 H :    0.292360
  21 H :    0.288996
  22 H :    0.273490
  23 H :    0.281758

  Mayer bond orders larger than 0.100000
B(  0-C ,  1-C ) :   1.0244 B(  0-C , 16-O ) :   1.0633 B(  0-C , 17-H ) :   0.9132
B(  0-C , 18-H ) :   0.8996 B(  1-C ,  2-H ) :   0.8923 B(  1-C ,  3-C ) :   1.0007
B(  1-C , 11-O ) :   0.9707 B(  3-C ,  4-H ) :   0.8849 B(  3-C ,  5-C ) :   0.9926
B(  3-C , 15-O ) :   1.0663 B(  5-C ,  6-H ) :   0.9002 B(  5-C ,  7-C ) :   0.9797
B(  5-C , 14-O ) :   1.0773 B(  7-C ,  8-H ) :   0.8919 B(  7-C ,  9-C ) :   0.9668
B(  7-C , 13-O ) :   1.0259 B(  9-C , 10-H ) :   0.9030 B(  9-C , 11-O ) :   1.0871
B(  9-C , 12-O ) :   1.1313 B( 12-O , 19-H ) :   0.8336 B( 13-O , 20-H ) :   0.8389
B( 14-O , 21-H ) :   0.8407 B( 15-O , 22-H ) :   0.8198 B( 16-O , 23-H ) :   0.8491

Dispersion correction           -0.025803621
FINAL SINGLE POINT ENERGY      -685.691922025563

DIPOLE MOMENT
-------------

Method             : SCF
Type of density    : Electron Density
Multiplicity       :   1
Irrep              :   0
Energy             :  -685.8226418508659208 Eh
Relativity type    :
Basis              : AO
                                X                 Y                 Z
Electronic contribution:      0.751999371       0.005569535       1.397392551
Nuclear contribution   :      1.064556069      -0.290576822      -1.917118471
                        -----------------------------------------
Total Dipole Moment    :      1.816555440      -0.285007287      -0.519725919
                        -----------------------------------------
Magnitude (a.u.)       :      1.910816017
Magnitude (Debye)      :      4.856908330

Rotational constants in cm-1:             0.040630             0.028448             0.024579
Rotational constants in MHz :          1218.054423           852.851457           736.871303

                             ****ORCA TERMINATED NORMALLY****
TOTAL RUN TIME: 0 days 0 hours 0 minutes 12 seconds 224 msec
