                         Program Version 6.0.0  -   RELEASE  -
|  1> ! pbe def2-sv(p) def2/J RI DEFGRID1 loosescf d4 GCP(DFT/SV(P)) printgap
|  2> %output
|  3>     printlevel normal
|  4> end
|  5> * xyz 0 1
|  6> C -2.7603818232 -0.8947059288 -0.0299924728
|  7> N -1.8804226063 0.2435482566 0.0250597814
|  8> C -0.5203629327 0.1685582071 0.0122104431
|  9> C 0.1613980311 -1.0522500749 -0.0555469146
| 10> C 1.5421381637 -1.0833485263 -0.0659292858
| 11> C 2.2812366899 0.086230693 -0.0098715043
| 12> C 1.6158389821 1.3011469022 0.057477606
| 13> C 0.2385122628 1.3460380834 0.0685553195
| 14> H -3.7885968402 -0.5462031977 -0.0056441043
| 15> H -2.5971963687 -1.5605262461 0.8228025961
| 16> H -2.6074717232 -1.4671298239 -0.9498851165
| 17> H -2.2901777607 1.159057147 0.0740045988
| 18> H -0.390059884 -1.9777334433 -0.1001204036
| 19> H 2.0488051785 -2.0367878994 -0.1187411526
| 20> H 3.3603084101 0.0534983863 -0.0184598319
| 21> H 2.1794748703 2.2223591303 0.1017622225
| 22> H -0.2708546461 2.2981945919 0.1212689187
| 23> *
| 24>
| 25>                          ****END OF INPUT****

CARTESIAN COORDINATES (ANGSTROEM)
---------------------------------
  C     -2.760382   -0.894706   -0.029992
  N     -1.880423    0.243548    0.025060
  C     -0.520363    0.168558    0.012210
  C      0.161398   -1.052250   -0.055547
  C      1.542138   -1.083349   -0.065929
  C      2.281237    0.086231   -0.009872
  C      1.615839    1.301147    0.057478
  C      0.238512    1.346038    0.068555
  H     -3.788597   -0.546203   -0.005644
  H     -2.597196   -1.560526    0.822803
  H     -2.607472   -1.467130   -0.949885
  H     -2.290178    1.159057    0.074005
  H     -0.390060   -1.977733   -0.100120
  H      2.048805   -2.036788   -0.118741
  H      3.360308    0.053498   -0.018460
  H      2.179475    2.222359    0.101762
  H     -0.270855    2.298195    0.121269

 Total Charge           Charge          ....    0
 Multiplicity           Mult            ....    1
 Number of Electrons    NEL             ....   58
 Basis Dimension        Dim             ....  130

ORBITAL ENERGIES
----------------

  NO   OCC          E(Eh)            E(eV)
   0   2.0000     -13.999261      -380.9393
   1   2.0000      -9.922947      -270.0171
   2   2.0000      -9.920043      -269.9381
   3   2.0000      -9.879688      -268.8400
   4   2.0000      -9.879478      -268.8343
   5   2.0000      -9.875709      -268.7317
   6   2.0000      -9.874487      -268.6984
   7   2.0000      -9.869311      -268.5576
   8   2.0000      -0.849066       -23.1043
   9   2.0000      -0.752378       -20.4732
  10   2.0000      -0.666214       -18.1286
  11   2.0000      -0.656810       -17.8727
  12   2.0000      -0.609027       -16.5725
  13   2.0000      -0.543212       -14.7815
  14   2.0000      -0.519125       -14.1261
  15   2.0000      -0.478428       -13.0187
  16   2.0000      -0.443513       -12.0686
  17   2.0000      -0.414906       -11.2902
  18   2.0000      -0.396957       -10.8017
  19   2.0000      -0.384086       -10.4515
  20   2.0000      -0.372149       -10.1267
  21   2.0000      -0.363252        -9.8846
  22   2.0000      -0.348695        -9.4885
  23   2.0000      -0.326070        -8.8728
  24   2.0000      -0.304020        -8.2728
  25   2.0000      -0.287056        -7.8112
  26   2.0000      -0.256828        -6.9887
  27   2.0000      -0.216097        -5.8803
  28   2.0000      -0.160425        -4.3654
  29   0.0000      -0.020587        -0.5602
  30   0.0000      -0.001244        -0.0338
  31   0.0000       0.031215         0.8494
  32   0.0000       0.053027         1.4429
  33   0.0000       0.059470         1.6183

MULLIKEN ATOMIC CHARGES
-----------------------
   0 C :   -0.168444
   1 N :   -0.283068
   2 C :    0.220182
   3 C :   -0.170154
   4 C :   -0.055887
   5 C :   -0.057214
   6 C :   -0.062093
   7 C :   -0.142264
   8 H :    0.109035
   9 H :    0.112770
  10 H :    0.112556
  11 H :    0.213764
  12 H :    0.024606
  13 H :    0.044560
  14 H :    0.039936
  15 H :    0.044862
  16 H :    0.016850
Sum of atomic charges:   -0.0000000

LOEWDIN ATOMIC CHARGES
----------------------
   0 C :   -0.257839
   1 N :   -0.176141
   2 C :    0.001830
   3 C :   -0.176048
   4 C :   -0.115842
   5 C :   -0.165617
   6 C :   -0.118994
   7 C :   -0.164596
   8 H :    0.123020
   9 H :    0.113562
  10 H :    0.113472
  11 H :    0.229192
  12 H :    0.120366
  13 H :    0.120273
  14 H :    0.118114
  15 H :    0.120411
  16 H :    0.114837

  Mayer bond orders larger than 0.100000
B(  0-C ,  1-N ) :   1.0575 B(  0-C ,  8-H ) :   0.9585 B(  0-C ,  9-H ) :   0.9437
B(  0-C , 10-H ) :   0.9438 B(  1-N ,  2-C ) :   1.2155 B(  1-N , 11-H ) :   0.8711
B(  2-C ,  3-C ) :   1.3145 B(  2-C ,  7-C ) :   1.2991 B(  3-C ,  4-C ) :   1.3768
B(  3-C , 12-H ) :   0.9580 B(  4-C ,  5-C ) :   1.3793 B(  4-C , 13-H ) :   0.9606
B(  5-C ,  6-C ) :   1.3531 B(  5-C , 14-H ) :   0.9670 B(  6-C ,  7-C ) :   1.4147
B(  6-C , 15-H ) :   0.9603 B(  7-C , 16-H ) :   0.9587

Dispersion correction           -0.016398734
FINAL SINGLE POINT ENERGY      -326.172974963250

DIPOLE MOMENT
-------------

Method             : SCF
Type of density    : Electron Density
Multiplicity       :   1
Irrep              :   0
Energy             :  -326.2248966467442983 Eh
Relativity type    :
Basis              : AO
                                X                 Y                 Z
Electronic contribution:      3.159054644       1.843427586       0.078618669
Nuclear contribution   :     -4.096755540      -1.739221828      -0.068360414
                        -----------------------------------------
Total Dipole Moment    :     -0.937700896       0.104205759       0.010258255
                        -----------------------------------------
Magnitude (a.u.)       :      0.943529037
Magnitude (Debye)      :      2.398260218

Rotational constants in cm-1:             0.168899             0.051010             0.039469
Rotational constants in MHz :          5063.467814          1529.249453          1183.259288

                             ****ORCA TERMINATED NORMALLY****
TOTAL RUN TIME: 0 days 0 hours 0 minutes 7 seconds 376 msec
