                         Program Version 6.0.0  -   RELEASE  -
|  1> ! pbe def2-sv(p) def2/J RI DEFGRID1 loosescf d4 GCP(DFT/SV(P)) printgap
|  2> %output
|  3>     printlevel normal
|  4> end
|  5> * xyz 0 1
|  6> C -1.8162702757 -1.3585481804 -0.0003899813
|  7> C -0.4797801854 -1.7084216218 0.0005065215
|  8> C 0.4993477833 -0.7285798832 8.65332e-05
|  9> C 0.1296396552 0.611170368 0.0002581674
| 10> C -1.2042897389 0.9691884333 0.0007586427
| 11> C -2.1908815302 -0.0165973272 0.0006044354
| 12> O -3.475430854 0.3856101937 -0.0005237946
| 13> Cl 1.3426187552 1.8495254241 -0.0003645804
| 14> Cl 2.1776416727 -1.1752239298 2.74618e-05
| 15> H -2.5651024506 -2.1345423223 -0.0011436974
| 16> H -0.186774877 -2.7450676976 0.0032447617
| 17> H -1.4953796975 2.0061642441 -0.0013325977
| 18> H -4.0841737361 -0.3708755076 -0.0023351917
| 19> *
| 20>
| 21>                          ****END OF INPUT****

CARTESIAN COORDINATES (ANGSTROEM)
---------------------------------
  C     -1.816270   -1.358548   -0.000390
  C     -0.479780   -1.708422    0.000507
  C      0.499348   -0.728580    0.000087
  C      0.129640    0.611170    0.000258
  C     -1.204290    0.969188    0.000759
  C     -2.190882   -0.016597    0.000604
  O     -3.475431    0.385610   -0.000524
  Cl     1.342619    1.849525   -0.000365
  Cl     2.177642   -1.175224    0.000027
  H     -2.565102   -2.134542   -0.001144
  H     -0.186775   -2.745068    0.003245
  H     -1.495380    2.006164   -0.001333
  H     -4.084174   -0.370876   -0.002335

 Total Charge           Charge          ....    0
 Multiplicity           Mult            ....    1
 Number of Electrons    NEL             ....   82
 Basis Dimension        Dim             ....  142

ORBITAL ENERGIES
----------------

  NO   OCC          E(Eh)            E(eV)
   0   2.0000    -100.643444     -2738.6473
   1   2.0000    -100.640105     -2738.5565
   2   2.0000     -18.799621      -511.5637
   3   2.0000      -9.972084      -271.3542
   4   2.0000      -9.962330      -271.0888
   5   2.0000      -9.954270      -270.8695
   6   2.0000      -9.915465      -269.8135
   7   2.0000      -9.909594      -269.6538
   8   2.0000      -9.907272      -269.5906
   9   2.0000      -9.179182      -249.7782
  10   2.0000      -9.175745      -249.6847
  11   2.0000      -7.010783      -190.7731
  12   2.0000      -7.007365      -190.6801
  13   2.0000      -6.999204      -190.4580
  14   2.0000      -6.998328      -190.4342
  15   2.0000      -6.995646      -190.3612
  16   2.0000      -6.995017      -190.3441
  17   2.0000      -0.984340       -26.7853
  18   2.0000      -0.834434       -22.7061
  19   2.0000      -0.778816       -21.1927
  20   2.0000      -0.761896       -20.7323
  21   2.0000      -0.683513       -18.5993
  22   2.0000      -0.656908       -17.8754
  23   2.0000      -0.577774       -15.7220
  24   2.0000      -0.563551       -15.3350
  25   2.0000      -0.504729       -13.7344
  26   2.0000      -0.461189       -12.5496
  27   2.0000      -0.445924       -12.1342
  28   2.0000      -0.412893       -11.2354
  29   2.0000      -0.399847       -10.8804
  30   2.0000      -0.391594       -10.6558
  31   2.0000      -0.370602       -10.0846
  32   2.0000      -0.354283        -9.6405
  33   2.0000      -0.351739        -9.5713
  34   2.0000      -0.318676        -8.6716
  35   2.0000      -0.303524        -8.2593
  36   2.0000      -0.280785        -7.6405
  37   2.0000      -0.274313        -7.4644
  38   2.0000      -0.257639        -7.0107
  39   2.0000      -0.231178        -6.2907
  40   2.0000      -0.200937        -5.4678
  41   0.0000      -0.053591        -1.4583
  42   0.0000      -0.036188        -0.9847
  43   0.0000      -0.015378        -0.4184
  44   0.0000       0.008000         0.2177
  45   0.0000       0.057130         1.5546

MULLIKEN ATOMIC CHARGES
-----------------------
   0 C :   -0.158548
   1 C :   -0.112665
   2 C :    0.085524
   3 C :    0.087350
   4 C :   -0.181614
   5 C :    0.259328
   6 O :   -0.321000
   7 Cl:   -0.057046
   8 Cl:   -0.067526
   9 H :    0.038127
  10 H :    0.055238
  11 H :    0.049562
  12 H :    0.323270
Sum of atomic charges:   -0.0000000

LOEWDIN ATOMIC CHARGES
----------------------
   0 C :   -0.175914
   1 C :   -0.125572
   2 C :   -0.173938
   3 C :   -0.143879
   4 C :   -0.160010
   5 C :    0.020897
   6 O :   -0.219610
   7 Cl:    0.142472
   8 Cl:    0.129631
   9 H :    0.126151
  10 H :    0.135198
  11 H :    0.141486
  12 H :    0.303088

  Mayer bond orders larger than 0.100000
B(  0-C ,  1-C ) :   1.3484 B(  0-C ,  5-C ) :   1.2896 B(  0-C ,  9-H ) :   0.9611
B(  1-C ,  2-C ) :   1.3892 B(  1-C , 10-H ) :   0.9623 B(  2-C ,  3-C ) :   1.4055
B(  2-C ,  8-Cl) :   1.0234 B(  3-C ,  4-C ) :   1.3748 B(  3-C ,  7-Cl) :   1.0304
B(  4-C ,  5-C ) :   1.3048 B(  4-C , 11-H ) :   0.9752 B(  5-C ,  6-O ) :   1.2035
B(  6-O , 12-H ) :   0.8383

Dispersion correction           -0.017265340
FINAL SINGLE POINT ENERGY     -1225.363078377305

DIPOLE MOMENT
-------------

Method             : SCF
Type of density    : Electron Density
Multiplicity       :   1
Irrep              :   0
Energy             : -1225.3956886943292375 Eh
Relativity type    :
Basis              : AO
                                X                 Y                 Z
Electronic contribution:     11.425092472       3.272398864      -0.000002788
Nuclear contribution   :    -12.592669446      -3.943089347      -0.001025132
                        -----------------------------------------
Total Dipole Moment    :     -1.167576974      -0.670690483      -0.001027920
                        -----------------------------------------
Magnitude (a.u.)       :      1.346500193
Magnitude (Debye)      :      3.422531499

Rotational constants in cm-1:             0.062820             0.029487             0.020068
Rotational constants in MHz :          1883.287380           884.000722           601.609774

                             ****ORCA TERMINATED NORMALLY****
TOTAL RUN TIME: 0 days 0 hours 0 minutes 7 seconds 163 msec
