                         Program Version 6.0.0  -   RELEASE  -
|  1> ! r2scan-3c def2/J RI DEFGRID2 scfconv6 printgap
|  2> %output
|  3>     printlevel normal
|  4> end
|  5> * xyz 0 1
|  6> C -1.7861909753 -0.0383073016 -0.663019681
|  7> C -0.8516518883 -0.0329001486 0.5429793697
|  8> C 0.1417220353 -1.1971554809 0.5021602434
|  9> C 1.2636100763 -0.7282319093 -0.4331204667
| 10> C 1.2208856671 0.8114887222 -0.4067563937
| 11> C 0.0754808129 1.1854266265 0.5427432089
| 12> H -1.2196962828 -0.0067693911 -1.5892160488
| 13> H -2.3984199804 -0.9375344975 -0.6636868755
| 14> H -2.447381185 0.8250533711 -0.6336268645
| 15> H -1.4575115161 -0.0652087777 1.4532725741
| 16> H 0.5388963134 -1.3677480585 1.5040056647
| 17> H -0.3197445591 -2.1217601809 0.1583954457
| 18> H 2.2303872486 -1.1090598979 -0.1065005701
| 19> H 1.0921489844 -1.0965017429 -1.4444338183
| 20> H 2.1653714086 1.2338462974 -0.0661424993
| 21> H 1.0285431396 1.204095277 -1.4051321543
| 22> H 0.4633835619 1.3436878499 1.5501787848
| 23> H -0.4369367003 2.0940802994 0.2301170225
| 24> *
| 25>
| 26>                          ****END OF INPUT****

CARTESIAN COORDINATES (ANGSTROEM)
---------------------------------
  C     -1.786191   -0.038307   -0.663020
  C     -0.851652   -0.032900    0.542979
  C      0.141722   -1.197155    0.502160
  C      1.263610   -0.728232   -0.433120
  C      1.220886    0.811489   -0.406756
  C      0.075481    1.185427    0.542743
  H     -1.219696   -0.006769   -1.589216
  H     -2.398420   -0.937534   -0.663687
  H     -2.447381    0.825053   -0.633627
  H     -1.457512   -0.065209    1.453273
  H      0.538896   -1.367748    1.504006
  H     -0.319745   -2.121760    0.158395
  H      2.230387   -1.109060   -0.106501
  H      1.092149   -1.096502   -1.444434
  H      2.165371    1.233846   -0.066142
  H      1.028543    1.204095   -1.405132
  H      0.463384    1.343688    1.550179
  H     -0.436937    2.094080    0.230117

 Total Charge           Charge          ....    0
 Multiplicity           Mult            ....    1
 Number of Electrons    NEL             ....   48
 Basis Dimension        Dim             ....  174

ORBITAL ENERGIES
----------------

  NO   OCC          E(Eh)            E(eV)
   0   2.0000     -10.025842      -272.8170
   1   2.0000     -10.018016      -272.6041
   2   2.0000     -10.017901      -272.6010
   3   2.0000     -10.016575      -272.5649
   4   2.0000     -10.016564      -272.5646
   5   2.0000     -10.012455      -272.4528
   6   2.0000      -0.803949       -21.8766
   7   2.0000      -0.702189       -19.1075
   8   2.0000      -0.671486       -18.2721
   9   2.0000      -0.625303       -17.0153
  10   2.0000      -0.525089       -14.2884
  11   2.0000      -0.507891       -13.8204
  12   2.0000      -0.455052       -12.3826
  13   2.0000      -0.438332       -11.9276
  14   2.0000      -0.399405       -10.8684
  15   2.0000      -0.372159       -10.1270
  16   2.0000      -0.360822        -9.8185
  17   2.0000      -0.349788        -9.5182
  18   2.0000      -0.303487        -8.2583
  19   2.0000      -0.300708        -8.1827
  20   2.0000      -0.289310        -7.8725
  21   2.0000      -0.287206        -7.8153
  22   2.0000      -0.283846        -7.7238
  23   2.0000      -0.274288        -7.4637
  24   0.0000       0.074610         2.0302
  25   0.0000       0.101681         2.7669
  26   0.0000       0.124395         3.3849
  27   0.0000       0.127801         3.4776
  28   0.0000       0.134222         3.6524

MULLIKEN ATOMIC CHARGES
-----------------------
   0 C :   -0.514718
   1 C :    0.024227
   2 C :   -0.327678
   3 C :   -0.343450
   4 C :   -0.343503
   5 C :   -0.327784
   6 H :    0.152528
   7 H :    0.146805
   8 H :    0.146779
   9 H :    0.154262
  10 H :    0.153247
  11 H :    0.150788
  12 H :    0.150626
  13 H :    0.161582
  14 H :    0.150649
  15 H :    0.161593
  16 H :    0.153261
  17 H :    0.150786
Sum of atomic charges:    0.0000000

LOEWDIN ATOMIC CHARGES
----------------------
   0 C :   -0.409270
   1 C :   -0.238865
   2 C :   -0.301143
   3 C :   -0.310743
   4 C :   -0.310770
   5 C :   -0.301143
   6 H :    0.155001
   7 H :    0.153383
   8 H :    0.153380
   9 H :    0.157073
  10 H :    0.157227
  11 H :    0.158270
  12 H :    0.156125
  13 H :    0.154918
  14 H :    0.156135
  15 H :    0.154932
  16 H :    0.157219
  17 H :    0.158271

  Mayer bond orders larger than 0.100000
B(  0-C ,  1-C ) :   0.9418 B(  0-C ,  6-H ) :   0.9800 B(  0-C ,  7-H ) :   0.9750
B(  0-C ,  8-H ) :   0.9749 B(  1-C ,  2-C ) :   0.8936 B(  1-C ,  5-C ) :   0.8936
B(  1-C ,  9-H ) :   0.9397 B(  2-C ,  3-C ) :   0.9125 B(  2-C , 10-H ) :   0.9731
B(  2-C , 11-H ) :   0.9696 B(  3-C ,  4-C ) :   0.9231 B(  3-C , 12-H ) :   0.9655
B(  3-C , 13-H ) :   0.9955 B(  4-C ,  5-C ) :   0.9125 B(  4-C , 14-H ) :   0.9655
B(  4-C , 15-H ) :   0.9955 B(  5-C , 16-H ) :   0.9731 B(  5-C , 17-H ) :   0.9696

Dispersion correction           -0.004790730
FINAL SINGLE POINT ENERGY      -235.783772817308

DIPOLE MOMENT
-------------

Method             : SCF
Type of density    : Electron Density
Multiplicity       :   1
Irrep              :   0
Energy             :  -235.7865627049462773 Eh
Relativity type    :
Basis              : AO
                                X                 Y                 Z
Electronic contribution:      0.709034385       0.002841709       0.986173285
Nuclear contribution   :     -0.713904141      -0.003583268      -0.950142761
                        -----------------------------------------
Total Dipole Moment    :     -0.004869756      -0.000741560       0.036030524
                        -----------------------------------------
Magnitude (a.u.)       :      0.036365685
Magnitude (Debye)      :      0.092434226

Rotational constants in cm-1:             0.165165             0.114848             0.093216
Rotational constants in MHz :          4951.534292          3443.053130          2794.538294

                             ****ORCA TERMINATED NORMALLY****
TOTAL RUN TIME: 0 days 0 hours 0 minutes 10 seconds 955 msec
