                         Program Version 6.0.0  -   RELEASE  -
|  1> ! r2scan-3c def2/J RI DEFGRID2 scfconv6 printgap
|  2> %output
|  3>     printlevel normal
|  4> end
|  5> %cpcm
|  6>     smd true
|  7>     smdsolvent "water"
|  8> end
|  9> * xyz 0 1
| 10> C -1.7861909753 -0.0383073016 -0.663019681
| 11> C -0.8516518883 -0.0329001486 0.5429793697
| 12> C 0.1417220353 -1.1971554809 0.5021602434
| 13> C 1.2636100763 -0.7282319093 -0.4331204667
| 14> C 1.2208856671 0.8114887222 -0.4067563937
| 15> C 0.0754808129 1.1854266265 0.5427432089
| 16> H -1.2196962828 -0.0067693911 -1.5892160488
| 17> H -2.3984199804 -0.9375344975 -0.6636868755
| 18> H -2.447381185 0.8250533711 -0.6336268645
| 19> H -1.4575115161 -0.0652087777 1.4532725741
| 20> H 0.5388963134 -1.3677480585 1.5040056647
| 21> H -0.3197445591 -2.1217601809 0.1583954457
| 22> H 2.2303872486 -1.1090598979 -0.1065005701
| 23> H 1.0921489844 -1.0965017429 -1.4444338183
| 24> H 2.1653714086 1.2338462974 -0.0661424993
| 25> H 1.0285431396 1.204095277 -1.4051321543
| 26> H 0.4633835619 1.3436878499 1.5501787848
| 27> H -0.4369367003 2.0940802994 0.2301170225
| 28> *
| 29>
| 30>                          ****END OF INPUT****

CARTESIAN COORDINATES (ANGSTROEM)
---------------------------------
  C     -1.786191   -0.038307   -0.663020
  C     -0.851652   -0.032900    0.542979
  C      0.141722   -1.197155    0.502160
  C      1.263610   -0.728232   -0.433120
  C      1.220886    0.811489   -0.406756
  C      0.075481    1.185427    0.542743
  H     -1.219696   -0.006769   -1.589216
  H     -2.398420   -0.937534   -0.663687
  H     -2.447381    0.825053   -0.633627
  H     -1.457512   -0.065209    1.453273
  H      0.538896   -1.367748    1.504006
  H     -0.319745   -2.121760    0.158395
  H      2.230387   -1.109060   -0.106501
  H      1.092149   -1.096502   -1.444434
  H      2.165371    1.233846   -0.066142
  H      1.028543    1.204095   -1.405132
  H      0.463384    1.343688    1.550179
  H     -0.436937    2.094080    0.230117

 Total Charge           Charge          ....    0
 Multiplicity           Mult            ....    1
 Number of Electrons    NEL             ....   48
 Basis Dimension        Dim             ....  174

ORBITAL ENERGIES
----------------

  NO   OCC          E(Eh)            E(eV)
   0   2.0000     -10.019354      -272.6405
   1   2.0000     -10.011304      -272.4214
   2   2.0000     -10.011190      -272.4183
   3   2.0000     -10.009805      -272.3806
   4   2.0000     -10.009788      -272.3802
   5   2.0000     -10.005107      -272.2528
   6   2.0000      -0.797360       -21.6973
   7   2.0000      -0.695682       -18.9305
   8   2.0000      -0.665170       -18.1002
   9   2.0000      -0.618814       -16.8388
  10   2.0000      -0.518884       -14.1196
  11   2.0000      -0.501580       -13.6487
  12   2.0000      -0.448398       -12.2015
  13   2.0000      -0.431709       -11.7474
  14   2.0000      -0.392459       -10.6794
  15   2.0000      -0.365297        -9.9402
  16   2.0000      -0.353876        -9.6295
  17   2.0000      -0.342795        -9.3279
  18   2.0000      -0.297275        -8.0893
  19   2.0000      -0.294377        -8.0104
  20   2.0000      -0.282827        -7.6961
  21   2.0000      -0.280537        -7.6338
  22   2.0000      -0.276965        -7.5366
  23   2.0000      -0.267243        -7.2721
  24   0.0000       0.082655         2.2492
  25   0.0000       0.109112         2.9691
  26   0.0000       0.129338         3.5195
  27   0.0000       0.132320         3.6006
  28   0.0000       0.140021         3.8102

MULLIKEN ATOMIC CHARGES
-----------------------
   0 C :   -0.549278
   1 C :    0.025445
   2 C :   -0.348983
   3 C :   -0.357620
   4 C :   -0.357537
   5 C :   -0.349335
   6 H :    0.163309
   7 H :    0.156887
   8 H :    0.156843
   9 H :    0.160900
  10 H :    0.162093
  11 H :    0.159220
  12 H :    0.158695
  13 H :    0.169641
  14 H :    0.158711
  15 H :    0.169635
  16 H :    0.162121
  17 H :    0.159252
Sum of atomic charges:    0.0000000

LOEWDIN ATOMIC CHARGES
----------------------
   0 C :   -0.417315
   1 C :   -0.238730
   2 C :   -0.305294
   3 C :   -0.314733
   4 C :   -0.314726
   5 C :   -0.305295
   6 H :    0.157942
   7 H :    0.155538
   8 H :    0.155512
   9 H :    0.158692
  10 H :    0.159277
  11 H :    0.160093
  12 H :    0.157741
  13 H :    0.157081
  14 H :    0.157754
  15 H :    0.157092
  16 H :    0.159271
  17 H :    0.160099

  Mayer bond orders larger than 0.100000
B(  0-C ,  1-C ) :   0.9359 B(  0-C ,  6-H ) :   0.9771 B(  0-C ,  7-H ) :   0.9725
B(  0-C ,  8-H ) :   0.9725 B(  1-C ,  2-C ) :   0.8924 B(  1-C ,  5-C ) :   0.8926
B(  1-C ,  9-H ) :   0.9408 B(  2-C ,  3-C ) :   0.9108 B(  2-C , 10-H ) :   0.9720
B(  2-C , 11-H ) :   0.9686 B(  3-C ,  4-C ) :   0.9196 B(  3-C , 12-H ) :   0.9647
B(  3-C , 13-H ) :   0.9933 B(  4-C ,  5-C ) :   0.9107 B(  4-C , 14-H ) :   0.9648
B(  4-C , 15-H ) :   0.9933 B(  5-C , 16-H ) :   0.9720 B(  5-C , 17-H ) :   0.9686

Dispersion correction           -0.004790730
FINAL SINGLE POINT ENERGY      -235.781594679127

DIPOLE MOMENT
-------------

Method             : SCF
Type of density    : Electron Density
Multiplicity       :   1
Irrep              :   0
Energy             :  -235.7843845667649134 Eh
Relativity type    :
Basis              : AO
                                X                 Y                 Z
Electronic contribution:      0.705083858       0.002730505       0.989490886
Nuclear contribution   :     -0.713904141      -0.003583268      -0.950142761
                        -----------------------------------------
Total Dipole Moment    :     -0.008820283      -0.000852763       0.039348125
                        -----------------------------------------
Magnitude (a.u.)       :      0.040333603
Magnitude (Debye)      :      0.102519870

Rotational constants in cm-1:             0.165165             0.114848             0.093216
Rotational constants in MHz :          4951.534292          3443.053130          2794.538294

                             ****ORCA TERMINATED NORMALLY****
TOTAL RUN TIME: 0 days 0 hours 0 minutes 13 seconds 569 msec
