                         Program Version 6.0.0  -   RELEASE  -
|  1> ! pbe def2-sv(p) def2/J RI DEFGRID1 loosescf d4 GCP(DFT/SV(P)) printgap
|  2> %output
|  3>     printlevel normal
|  4> end
|  5> * xyz 0 1
|  6> C -2.4200509553 -0.6932065539 -0.010593507
|  7> C -0.9899995068 -0.2799213087 0.3587231986
|  8> H -0.9666792291 0.0576195104 1.4073185138
|  9> C -0.5028987929 0.8686095786 -0.529357247
| 10> H -0.3879956138 0.5021122337 -1.5590338362
| 11> C 0.8755754042 1.3386189487 -0.0364553035
| 12> H 0.6996746498 1.9949110678 0.8313939606
| 13> C 1.7351064273 0.1447581607 0.4447647783
| 14> H 2.7478313826 0.2481202798 0.0323537294
| 15> C 1.1939895859 -1.1869351756 -0.0947663027
| 16> H 1.7443204535 -2.0064377187 0.3953940232
| 17> O -0.1475025404 -1.4206267927 0.2336193781
| 18> O 1.4066018374 -1.203037414 -1.4733115529
| 19> O 1.7565486604 0.0386337664 1.8460707273
| 20> O 1.4622578132 2.0576146978 -1.0918655629
| 21> O -1.4402938195 1.9134137013 -0.473223593
| 22> O -2.9589387353 -1.6728427935 0.837248341
| 23> H -2.4198948675 -1.1341800746 -1.0089517729
| 24> H -3.0388913717 0.2122615264 -0.0143525109
| 25> H 1.1280749525 -2.058349608 -1.8350567377
| 26> H 2.3206426538 0.7283560765 2.2264658216
| 27> H 2.3017063467 2.4504798593 -0.813224296
| 28> H -1.1427998725 2.6238620995 -1.0611789465
| 29> H -2.9445162642 -1.3525083125 1.7501771896
| 30> *
| 31>
| 32>                          ****END OF INPUT****

CARTESIAN COORDINATES (ANGSTROEM)
---------------------------------
  C     -2.420051   -0.693207   -0.010594
  C     -0.990000   -0.279921    0.358723
  H     -0.966679    0.057620    1.407319
  C     -0.502899    0.868610   -0.529357
  H     -0.387996    0.502112   -1.559034
  C      0.875575    1.338619   -0.036455
  H      0.699675    1.994911    0.831394
  C      1.735106    0.144758    0.444765
  H      2.747831    0.248120    0.032354
  C      1.193990   -1.186935   -0.094766
  H      1.744320   -2.006438    0.395394
  O     -0.147503   -1.420627    0.233619
  O      1.406602   -1.203037   -1.473312
  O      1.756549    0.038634    1.846071
  O      1.462258    2.057615   -1.091866
  O     -1.440294    1.913414   -0.473224
  O     -2.958939   -1.672843    0.837248
  H     -2.419895   -1.134180   -1.008952
  H     -3.038891    0.212262   -0.014353
  H      1.128075   -2.058350   -1.835057
  H      2.320643    0.728356    2.226466
  H      2.301706    2.450480   -0.813224
  H     -1.142800    2.623862   -1.061179
  H     -2.944516   -1.352508    1.750177

 Total Charge           Charge          ....    0
 Multiplicity           Mult            ....    1
 Number of Electrons    NEL             ....   96
 Basis Dimension        Dim             ....  192

ORBITAL ENERGIES
----------------

  NO   OCC          E(Eh)            E(eV)
   0   2.0000     -18.762913      -510.5648
   1   2.0000     -18.758836      -510.4539
   2   2.0000     -18.757737      -510.4240
   3   2.0000     -18.757154      -510.4081
   4   2.0000     -18.750201      -510.2189
   5   2.0000     -18.731039      -509.6975
   6   2.0000      -9.982062      -271.6257
   7   2.0000      -9.947053      -270.6731
   8   2.0000      -9.941596      -270.5246
   9   2.0000      -9.937079      -270.4017
  10   2.0000      -9.935202      -270.3506
  11   2.0000      -9.916328      -269.8370
  12   2.0000      -0.975114       -26.5342
  13   2.0000      -0.943943       -25.6860
  14   2.0000      -0.935454       -25.4550
  15   2.0000      -0.922823       -25.1113
  16   2.0000      -0.912687       -24.8355
  17   2.0000      -0.900422       -24.5017
  18   2.0000      -0.702511       -19.1163
  19   2.0000      -0.687177       -18.6990
  20   2.0000      -0.616932       -16.7876
  21   2.0000      -0.575813       -15.6687
  22   2.0000      -0.561548       -15.2805
  23   2.0000      -0.521038       -14.1782
  24   2.0000      -0.499364       -13.5884
  25   2.0000      -0.489818       -13.3286
  26   2.0000      -0.475343       -12.9348
  27   2.0000      -0.456031       -12.4092
  28   2.0000      -0.441119       -12.0034
  29   2.0000      -0.428852       -11.6697
  30   2.0000      -0.399371       -10.8674
  31   2.0000      -0.392408       -10.6780
  32   2.0000      -0.382292       -10.4027
  33   2.0000      -0.363484        -9.8909
  34   2.0000      -0.360404        -9.8071
  35   2.0000      -0.342807        -9.3282
  36   2.0000      -0.329428        -8.9642
  37   2.0000      -0.324604        -8.8329
  38   2.0000      -0.298421        -8.1204
  39   2.0000      -0.288810        -7.8589
  40   2.0000      -0.272977        -7.4281
  41   2.0000      -0.254783        -6.9330
  42   2.0000      -0.245985        -6.6936
  43   2.0000      -0.243952        -6.6383
  44   2.0000      -0.223021        -6.0687
  45   2.0000      -0.218613        -5.9488
  46   2.0000      -0.211455        -5.7540
  47   2.0000      -0.194831        -5.3016
  48   0.0000       0.005786         0.1575
  49   0.0000       0.023197         0.6312
  50   0.0000       0.035319         0.9611
  51   0.0000       0.042285         1.1506
  52   0.0000       0.049528         1.3477

MULLIKEN ATOMIC CHARGES
-----------------------
   0 C :    0.095983
   1 C :    0.009434
   2 H :    0.047086
   3 C :    0.046054
   4 H :    0.069183
   5 C :    0.079870
   6 H :    0.038229
   7 C :    0.007957
   8 H :    0.057608
   9 C :    0.176641
  10 H :    0.063782
  11 O :   -0.300889
  12 O :   -0.387583
  13 O :   -0.410239
  14 O :   -0.411757
  15 O :   -0.413731
  16 O :   -0.429126
  17 H :    0.067513
  18 H :    0.087150
  19 H :    0.305039
  20 H :    0.303751
  21 H :    0.298341
  22 H :    0.307308
  23 H :    0.292396
Sum of atomic charges:    0.0000000

LOEWDIN ATOMIC CHARGES
----------------------
   0 C :   -0.128445
   1 C :   -0.062070
   2 H :    0.102348
   3 C :   -0.073146
   4 H :    0.113218
   5 C :   -0.082418
   6 H :    0.097782
   7 C :   -0.088701
   8 H :    0.106629
   9 C :   -0.000403
  10 H :    0.098810
  11 O :   -0.137846
  12 O :   -0.312536
  13 O :   -0.311821
  14 O :   -0.318781
  15 O :   -0.316871
  16 O :   -0.334071
  17 H :    0.113209
  18 H :    0.104341
  19 H :    0.287513
  20 H :    0.288296
  21 H :    0.283414
  22 H :    0.290222
  23 H :    0.281326

  Mayer bond orders larger than 0.100000
B(  0-C ,  1-C ) :   1.0474 B(  0-C , 16-O ) :   1.0832 B(  0-C , 17-H ) :   0.9051
B(  0-C , 18-H ) :   0.9109 B(  1-C ,  2-H ) :   0.8655 B(  1-C ,  3-C ) :   1.0482
B(  1-C , 11-O ) :   0.9883 B(  3-C ,  4-H ) :   0.8351 B(  3-C ,  5-C ) :   1.0900
B(  3-C , 15-O ) :   1.0573 B(  5-C ,  6-H ) :   0.8644 B(  5-C ,  7-C ) :   0.9577
B(  5-C , 14-O ) :   1.0800 B(  7-C ,  8-H ) :   0.8751 B(  7-C ,  9-C ) :   1.0524
B(  7-C , 13-O ) :   1.0495 B(  9-C , 10-H ) :   0.8927 B(  9-C , 11-O ) :   1.0821
B(  9-C , 12-O ) :   1.1397 B( 12-O , 19-H ) :   0.8410 B( 13-O , 20-H ) :   0.8481
B( 14-O , 21-H ) :   0.8468 B( 15-O , 22-H ) :   0.8425 B( 16-O , 23-H ) :   0.8538

Dispersion correction           -0.024301408
FINAL SINGLE POINT ENERGY      -685.684770897412

DIPOLE MOMENT
-------------

Method             : SCF
Type of density    : Electron Density
Multiplicity       :   1
Irrep              :   0
Energy             :  -685.8134101656257826 Eh
Relativity type    :
Basis              : AO
                                X                 Y                 Z
Electronic contribution:      1.234820691      -1.074924892      -0.071976463
Nuclear contribution   :      0.040074439       2.121875698       0.327784581
                        -----------------------------------------
Total Dipole Moment    :      1.274895130       1.046950807       0.255808118
                        -----------------------------------------
Magnitude (a.u.)       :      1.669401503
Magnitude (Debye)      :      4.243281401

Rotational constants in cm-1:             0.040068             0.025500             0.020731
Rotational constants in MHz :          1201.211664           764.479868           621.497080

                             ****ORCA TERMINATED NORMALLY****
TOTAL RUN TIME: 0 days 0 hours 0 minutes 11 seconds 762 msec
