                         Program Version 6.0.0  -   RELEASE  -
|  1> ! pbe def2-sv(p) def2/J RI DEFGRID1 loosescf d4 GCP(DFT/SV(P)) printgap
|  2> %output
|  3>     printlevel normal
|  4> end
|  5> * xyz 0 1
|  6> C -2.3027189531 -0.9451409449 0.7015780817
|  7> C -0.8655926032 -0.3918984469 0.7906601397
|  8> H -0.7274060013 -0.0070621229 1.8116377765
|  9> C -0.6238650832 0.7540891602 -0.1925893342
| 10> H -0.7245251174 0.3636025954 -1.2169455533
| 11> C 0.8054796971 1.299898351 -0.0223545256
| 12> H 0.8260104548 1.9782792413 0.8388604089
| 13> C 1.8203609315 0.1604483978 0.2470438409
| 14> H 2.7121658122 0.345195014 -0.360428792
| 15> C 1.214665062 -1.1909350934 -0.1569126572
| 16> H 1.9066601035 -1.9997932337 0.1234849489
| 17> O 0.0499155892 -1.4702385522 0.5801314514
| 18> O 0.998905361 -1.1749731186 -1.5333337574
| 19> O 2.2645951063 0.1291171475 1.5782223686
| 20> O 1.1674545327 2.0873049552 -1.1296166719
| 21> O -1.5945712697 1.7457879351 0.0459465793
| 22> O -2.7884887212 -1.0791403078 -0.6084383931
| 23> H -2.9546314064 -0.2972301087 1.2948356765
| 24> H -2.2948596496 -1.9488433876 1.1316109266
| 25> H 0.6675319992 -2.0371161208 -1.8285465633
| 26> H 1.6042890242 -0.3040579132 2.138339948
| 27> H 1.2297347234 1.5236003706 -1.9154005784
| 28> H -1.3395121725 2.5480410529 -0.4337532851
| 29> H -3.0340331447 -0.2039788099 -0.9401526059
| 30> *
| 31>
| 32>                          ****END OF INPUT****

CARTESIAN COORDINATES (ANGSTROEM)
---------------------------------
  C     -2.302719   -0.945141    0.701578
  C     -0.865593   -0.391898    0.790660
  H     -0.727406   -0.007062    1.811638
  C     -0.623865    0.754089   -0.192589
  H     -0.724525    0.363603   -1.216946
  C      0.805480    1.299898   -0.022355
  H      0.826010    1.978279    0.838860
  C      1.820361    0.160448    0.247044
  H      2.712166    0.345195   -0.360429
  C      1.214665   -1.190935   -0.156913
  H      1.906660   -1.999793    0.123485
  O      0.049916   -1.470239    0.580131
  O      0.998905   -1.174973   -1.533334
  O      2.264595    0.129117    1.578222
  O      1.167455    2.087305   -1.129617
  O     -1.594571    1.745788    0.045947
  O     -2.788489   -1.079140   -0.608438
  H     -2.954631   -0.297230    1.294836
  H     -2.294860   -1.948843    1.131611
  H      0.667532   -2.037116   -1.828547
  H      1.604289   -0.304058    2.138340
  H      1.229735    1.523600   -1.915401
  H     -1.339512    2.548041   -0.433753
  H     -3.034033   -0.203979   -0.940153

 Total Charge           Charge          ....    0
 Multiplicity           Mult            ....    1
 Number of Electrons    NEL             ....   96
 Basis Dimension        Dim             ....  192

ORBITAL ENERGIES
----------------

  NO   OCC          E(Eh)            E(eV)
   0   2.0000     -18.776411      -510.9321
   1   2.0000     -18.775661      -510.9117
   2   2.0000     -18.761353      -510.5224
   3   2.0000     -18.756653      -510.3945
   4   2.0000     -18.755428      -510.3611
   5   2.0000     -18.748580      -510.1748
   6   2.0000      -9.992599      -271.9124
   7   2.0000      -9.948481      -270.7119
   8   2.0000      -9.944941      -270.6156
   9   2.0000      -9.942893      -270.5599
  10   2.0000      -9.941264      -270.5156
  11   2.0000      -9.931239      -270.2428
  12   2.0000      -0.989274       -26.9195
  13   2.0000      -0.946826       -25.7644
  14   2.0000      -0.934808       -25.4374
  15   2.0000      -0.930546       -25.3214
  16   2.0000      -0.921238       -25.0681
  17   2.0000      -0.916574       -24.9413
  18   2.0000      -0.706639       -19.2286
  19   2.0000      -0.692413       -18.8415
  20   2.0000      -0.623066       -16.9545
  21   2.0000      -0.593972       -16.1628
  22   2.0000      -0.569386       -15.4938
  23   2.0000      -0.530452       -14.4343
  24   2.0000      -0.513561       -13.9747
  25   2.0000      -0.490066       -13.3354
  26   2.0000      -0.465176       -12.6581
  27   2.0000      -0.457746       -12.4559
  28   2.0000      -0.451865       -12.2959
  29   2.0000      -0.442476       -12.0404
  30   2.0000      -0.423185       -11.5154
  31   2.0000      -0.399699       -10.8764
  32   2.0000      -0.383119       -10.4252
  33   2.0000      -0.370704       -10.0874
  34   2.0000      -0.368287       -10.0216
  35   2.0000      -0.359275        -9.7764
  36   2.0000      -0.344765        -9.3815
  37   2.0000      -0.312895        -8.5143
  38   2.0000      -0.306914        -8.3516
  39   2.0000      -0.293003        -7.9730
  40   2.0000      -0.281831        -7.6690
  41   2.0000      -0.270740        -7.3672
  42   2.0000      -0.261826        -7.1246
  43   2.0000      -0.251598        -6.8463
  44   2.0000      -0.240406        -6.5418
  45   2.0000      -0.230176        -6.2634
  46   2.0000      -0.216161        -5.8820
  47   2.0000      -0.204348        -5.5606
  48   0.0000       0.009854         0.2681
  49   0.0000       0.023411         0.6370
  50   0.0000       0.024658         0.6710
  51   0.0000       0.050534         1.3751
  52   0.0000       0.059124         1.6089

MULLIKEN ATOMIC CHARGES
-----------------------
   0 C :    0.069014
   1 C :    0.015633
   2 H :    0.049581
   3 C :    0.059828
   4 H :    0.046707
   5 C :    0.052235
   6 H :    0.068518
   7 C :    0.056523
   8 H :    0.078097
   9 C :    0.126949
  10 H :    0.073209
  11 O :   -0.314866
  12 O :   -0.393800
  13 O :   -0.417975
  14 O :   -0.427051
  15 O :   -0.422154
  16 O :   -0.437034
  17 H :    0.084516
  18 H :    0.090558
  19 H :    0.313677
  20 H :    0.307017
  21 H :    0.304361
  22 H :    0.309412
  23 H :    0.307043
Sum of atomic charges:    0.0000000

LOEWDIN ATOMIC CHARGES
----------------------
   0 C :   -0.124503
   1 C :   -0.068209
   2 H :    0.101839
   3 C :   -0.096216
   4 H :    0.100267
   5 C :   -0.079479
   6 H :    0.120339
   7 C :   -0.081752
   8 H :    0.123297
   9 C :   -0.015380
  10 H :    0.101056
  11 O :   -0.150541
  12 O :   -0.312383
  13 O :   -0.307189
  14 O :   -0.315692
  15 O :   -0.324598
  16 O :   -0.332865
  17 H :    0.106553
  18 H :    0.118822
  19 H :    0.293165
  20 H :    0.283824
  21 H :    0.284712
  22 H :    0.289904
  23 H :    0.285031

  Mayer bond orders larger than 0.100000
B(  0-C ,  1-C ) :   1.0066 B(  0-C , 16-O ) :   1.1048 B(  0-C , 17-H ) :   0.9182
B(  0-C , 18-H ) :   0.9216 B(  1-C ,  2-H ) :   0.8735 B(  1-C ,  3-C ) :   1.0424
B(  1-C , 11-O ) :   0.9677 B(  3-C ,  4-H ) :   0.8142 B(  3-C ,  5-C ) :   1.0699
B(  3-C , 15-O ) :   1.0524 B(  5-C ,  6-H ) :   0.8623 B(  5-C ,  7-C ) :   0.9545
B(  5-C , 14-O ) :   1.0259 B(  7-C ,  8-H ) :   0.8774 B(  7-C ,  9-C ) :   1.0519
B(  7-C , 13-O ) :   1.0522 B(  9-C , 10-H ) :   0.8984 B(  9-C , 11-O ) :   1.0590
B(  9-C , 12-O ) :   1.1186 B( 12-O , 19-H ) :   0.8343 B( 13-O , 20-H ) :   0.8405
B( 14-O , 21-H ) :   0.8444 B( 15-O , 22-H ) :   0.8377 B( 16-O , 23-H ) :   0.8390

Dispersion correction           -0.025057821
FINAL SINGLE POINT ENERGY      -685.693856694127

DIPOLE MOMENT
-------------

Method             : SCF
Type of density    : Electron Density
Multiplicity       :   1
Irrep              :   0
Energy             :  -685.8248493947315865 Eh
Relativity type    :
Basis              : AO
                                X                 Y                 Z
Electronic contribution:      1.783584974      -0.162251812      -0.963444972
Nuclear contribution   :     -1.995516796      -0.033405841       0.587943790
                        -----------------------------------------
Total Dipole Moment    :     -0.211931822      -0.195657653      -0.375501181
                        -----------------------------------------
Magnitude (a.u.)       :      0.473495672
Magnitude (Debye)      :      1.203530351

Rotational constants in cm-1:             0.041224             0.027003             0.022444
Rotational constants in MHz :          1235.855227           809.540708           672.843649

                             ****ORCA TERMINATED NORMALLY****
TOTAL RUN TIME: 0 days 0 hours 0 minutes 12 seconds 91 msec
