                         Program Version 6.0.0  -   RELEASE  -
|  1> ! wb97x-v def2-tzvp def2/J RIJCOSX DEFGRID2 scfconv7 GCP(DFT/TZ) printgap
|  2> %output
|  3>     printlevel normal
|  4> end
|  5> * xyz 0 1
|  6> C 2.8923774880688637 -0.0009217697014470749 1.1659797550582691
|  7> C 1.9965182440893903 1.1951191707820206 1.4629278125359835
|  8> H 2.0690317922582295 1.4491456808741374 2.521296527640485
|  9> C 0.5077949985265761 0.7919254710697108 1.2436749625963235
| 10> H -0.040396060132668984 1.1735450902934614 2.1059132263296796
| 11> C 0.5073533561678729 -0.7925006572824096 1.2436874745433466
| 12> H -0.041030923630949366 -1.1735617691905331 2.1060080811123623
| 13> C 1.9958596709819998 -1.1964099060571223 1.46306676012431
| 14> H 2.068323603912865 -1.4504918441825394 2.5213793591922857
| 15> Cl 2.610878249484097 -2.687953184875718 0.6174959131261007
| 16> C -0.4052137009484439 -1.1289632158421414 0.0041526987467926215
| 17> C -1.788077350988799 -0.6668112301456832 0.47339485049736846
| 18> C -1.7876351994935087 0.6678510420112221 0.47326853281587794
| 19> C -0.4044173233637474 1.129151360419422 0.004036279651762806
| 20> C -0.12738623171102587 -9.76863794880734e-05 -1.0294701974667888
| 21> Cl 1.5022162904850793 -0.0004490113035477191 -1.7297040859992887
| 22> Cl -1.2881910425610694 0.0006036870539764672 -2.4062811724288338
| 23> Cl -0.3941450416909484 2.7762909855837052 -0.6450060818800968
| 24> Cl -3.0004081172597106 1.720069370416665 1.0465922726916477
| 25> Cl -3.0016194773324965 -1.7180830555139694 1.0466739527655222
| 26> Cl -0.3964930392059613 -2.7760005323024464 -0.6450021226282512
| 27> Cl 2.6116564309701125 2.6864525997418736 0.6171989876266112
| 28> H 3.772971827910924 -0.0010995598272879837 1.8118615477823374
| 29> H 3.2336961317687467 -0.0010421828937316826 0.13380617136255643
| 30> *
| 31>
| 32>                          ****END OF INPUT****

CARTESIAN COORDINATES (ANGSTROEM)
---------------------------------
  C      2.892377   -0.000922    1.165980
  C      1.996518    1.195119    1.462928
  H      2.069032    1.449146    2.521297
  C      0.507795    0.791925    1.243675
  H     -0.040396    1.173545    2.105913
  C      0.507353   -0.792501    1.243687
  H     -0.041031   -1.173562    2.106008
  C      1.995860   -1.196410    1.463067
  H      2.068324   -1.450492    2.521379
  Cl     2.610878   -2.687953    0.617496
  C     -0.405214   -1.128963    0.004153
  C     -1.788077   -0.666811    0.473395
  C     -1.787635    0.667851    0.473269
  C     -0.404417    1.129151    0.004036
  C     -0.127386   -0.000098   -1.029470
  Cl     1.502216   -0.000449   -1.729704
  Cl    -1.288191    0.000604   -2.406281
  Cl    -0.394145    2.776291   -0.645006
  Cl    -3.000408    1.720069    1.046592
  Cl    -3.001619   -1.718083    1.046674
  Cl    -0.396493   -2.776001   -0.645002
  Cl     2.611656    2.686453    0.617199
  H      3.772972   -0.001100    1.811862
  H      3.233696   -0.001042    0.133806

 Total Charge           Charge          ....    0
 Multiplicity           Mult            ....    1
 Number of Electrons    NEL             ....  202
 Basis Dimension        Dim             ....  642

ORBITAL ENERGIES
----------------

  NO   OCC          E(Eh)            E(eV)
   0   2.0000    -107.181085     -2916.5456
   1   2.0000    -107.181057     -2916.5448
   2   2.0000    -107.167491     -2916.1757
   3   2.0000    -107.160995     -2915.9989
   4   2.0000    -107.158920     -2915.9425
   5   2.0000    -107.158906     -2915.9421
   6   2.0000    -107.142191     -2915.4872
   7   2.0000    -107.142184     -2915.4870
   8   2.0000     -12.217152      -332.4456
   9   2.0000     -12.183245      -331.5230
  10   2.0000     -12.182701      -331.5081
  11   2.0000     -12.153450      -330.7122
  12   2.0000     -12.150865      -330.6418
  13   2.0000     -12.145351      -330.4918
  14   2.0000     -12.144964      -330.4813
  15   2.0000     -12.121759      -329.8498
  16   2.0000     -12.120702      -329.8211
  17   2.0000     -12.077692      -328.6507
  18   2.0000     -11.333765      -308.4074
  19   2.0000     -11.333745      -308.4069
  20   2.0000     -11.321221      -308.0661
  21   2.0000     -11.314215      -307.8754
  22   2.0000     -11.312169      -307.8198
  23   2.0000     -11.312139      -307.8190
  24   2.0000     -11.295404      -307.3636
  25   2.0000     -11.295390      -307.3632
  26   2.0000      -9.125812      -248.3260
  27   2.0000      -9.125258      -248.3109
  28   2.0000      -9.122875      -248.2461
  29   2.0000      -9.122843      -248.2452
  30   2.0000      -9.122351      -248.2318
  31   2.0000      -9.122233      -248.2286
  32   2.0000      -9.112899      -247.9746
  33   2.0000      -9.110001      -247.8957
  34   2.0000      -9.109839      -247.8913
  35   2.0000      -9.105675      -247.7780
  36   2.0000      -9.104066      -247.7342
  37   2.0000      -9.103582      -247.7211
  38   2.0000      -9.102900      -247.7025
  39   2.0000      -9.102756      -247.6986
  40   2.0000      -9.100909      -247.6483
  41   2.0000      -9.100825      -247.6460
  42   2.0000      -9.100817      -247.6458
  43   2.0000      -9.100760      -247.6443
  44   2.0000      -9.087073      -247.2718
  45   2.0000      -9.086657      -247.2605
  46   2.0000      -9.084180      -247.1931
  47   2.0000      -9.084141      -247.1920
  48   2.0000      -9.084134      -247.1919
  49   2.0000      -9.084038      -247.1892
  50   2.0000      -1.527200       -41.5572
  51   2.0000      -1.471692       -40.0468
  52   2.0000      -1.456708       -39.6391
  53   2.0000      -1.440153       -39.1886
  54   2.0000      -1.432935       -38.9921
  55   2.0000      -1.426444       -38.8155
  56   2.0000      -1.407466       -38.2991
  57   2.0000      -1.404511       -38.2187
  58   2.0000      -1.393302       -37.9137
  59   2.0000      -1.349715       -36.7276
  60   2.0000      -1.285443       -34.9787
  61   2.0000      -1.274968       -34.6936
  62   2.0000      -1.242166       -33.8011
  63   2.0000      -1.214830       -33.0572
  64   2.0000      -1.119467       -30.4623
  65   2.0000      -1.092359       -29.7246
  66   2.0000      -1.072805       -29.1925
  67   2.0000      -1.053178       -28.6584
  68   2.0000      -1.020305       -27.7639
  69   2.0000      -1.001694       -27.2575
  70   2.0000      -0.984757       -26.7966
  71   2.0000      -0.963175       -26.2093
  72   2.0000      -0.947001       -25.7692
  73   2.0000      -0.941283       -25.6136
  74   2.0000      -0.938431       -25.5360
  75   2.0000      -0.928311       -25.2606
  76   2.0000      -0.920333       -25.0435
  77   2.0000      -0.909026       -24.7359
  78   2.0000      -0.884736       -24.0749
  79   2.0000      -0.876352       -23.8467
  80   2.0000      -0.872230       -23.7346
  81   2.0000      -0.863879       -23.5073
  82   2.0000      -0.852768       -23.2050
  83   2.0000      -0.851333       -23.1660
  84   2.0000      -0.838214       -22.8090
  85   2.0000      -0.829637       -22.5756
  86   2.0000      -0.828400       -22.5419
  87   2.0000      -0.823209       -22.4006
  88   2.0000      -0.817959       -22.2578
  89   2.0000      -0.815883       -22.2013
  90   2.0000      -0.809374       -22.0242
  91   2.0000      -0.805199       -21.9106
  92   2.0000      -0.804661       -21.8959
  93   2.0000      -0.802606       -21.8400
  94   2.0000      -0.800945       -21.7948
  95   2.0000      -0.787914       -21.4402
  96   2.0000      -0.781396       -21.2629
  97   2.0000      -0.776646       -21.1336
  98   2.0000      -0.776626       -21.1331
  99   2.0000      -0.772418       -21.0186
 100   2.0000      -0.715214       -19.4620
 101   0.0000      -0.360423        -9.8076
 102   0.0000      -0.326084        -8.8732
 103   0.0000      -0.309728        -8.4281
 104   0.0000      -0.306627        -8.3437
 105   0.0000      -0.294784        -8.0215

MULLIKEN ATOMIC CHARGES
-----------------------
   0 C :   -0.255020
   1 C :    0.030297
   2 H :    0.126882
   3 C :   -0.214284
   4 H :    0.125042
   5 C :   -0.214269
   6 H :    0.125027
   7 C :    0.030273
   8 H :    0.126907
   9 Cl:   -0.121515
  10 C :    0.247994
  11 C :   -0.107046
  12 C :   -0.107186
  13 C :    0.247858
  14 C :   -0.013218
  15 Cl:   -0.044482
  16 Cl:   -0.054025
  17 Cl:   -0.040315
  18 Cl:   -0.001821
  19 Cl:   -0.001780
  20 Cl:   -0.040351
  21 Cl:   -0.121513
  22 H :    0.129782
  23 H :    0.146763
Sum of atomic charges:    0.0000000

LOEWDIN ATOMIC CHARGES
----------------------
   0 C :   -0.276903
   1 C :   -0.425334
   2 H :    0.146735
   3 C :   -0.153604
   4 H :    0.165338
   5 C :   -0.153570
   6 H :    0.165343
   7 C :   -0.425257
   8 H :    0.146729
   9 Cl:    0.291072
  10 C :   -0.482577
  11 C :   -0.480684
  12 C :   -0.480616
  13 C :   -0.482523
  14 C :   -0.706155
  15 Cl:    0.435456
  16 Cl:    0.388162
  17 Cl:    0.411331
  18 Cl:    0.470490
  19 Cl:    0.470554
  20 Cl:    0.411398
  21 Cl:    0.291127
  22 H :    0.141462
  23 H :    0.132026

  Mayer bond orders larger than 0.100000
B(  0-C ,  1-C ) :   0.9989 B(  0-C ,  7-C ) :   0.9990 B(  0-C , 22-H ) :   0.9713
B(  0-C , 23-H ) :   0.9585 B(  1-C ,  2-H ) :   0.9796 B(  1-C ,  3-C ) :   0.9641
B(  1-C , 21-Cl) :   1.0884 B(  3-C ,  4-H ) :   0.9455 B(  3-C ,  5-C ) :   0.9738
B(  3-C , 13-C ) :   0.8829 B(  5-C ,  6-H ) :   0.9455 B(  5-C ,  7-C ) :   0.9641
B(  5-C , 10-C ) :   0.8829 B(  7-C ,  8-H ) :   0.9796 B(  7-C ,  9-Cl) :   1.0884
B( 10-C , 11-C ) :   0.8808 B( 10-C , 14-C ) :   1.0345 B( 10-C , 20-Cl) :   1.1714
B( 11-C , 12-C ) :   1.6880 B( 11-C , 19-Cl) :   1.2312 B( 12-C , 13-C ) :   0.8807
B( 12-C , 18-Cl) :   1.2312 B( 13-C , 14-C ) :   1.0344 B( 13-C , 17-Cl) :   1.1715
B( 14-C , 15-Cl) :   1.1109 B( 14-C , 16-Cl) :   1.1257

FINAL SINGLE POINT ENERGY     -4065.833703086612

DIPOLE MOMENT
-------------

Method             : SCF
Type of density    : Electron Density
Multiplicity       :   1
Irrep              :   0
Energy             : -4065.8498769202119547 Eh
Relativity type    :
Basis              : AO
                                X                 Y                 Z
Electronic contribution:    -12.193694566       0.004453467     -12.085278760
Nuclear contribution   :     12.245672236      -0.004418121      13.511273596
                        -----------------------------------------
Total Dipole Moment    :      0.051977670       0.000035346       1.425994836
                        -----------------------------------------
Magnitude (a.u.)       :      1.426941818
Magnitude (Debye)      :      3.626997860

Rotational constants in cm-1:             0.008618             0.007726             0.005700
Rotational constants in MHz :           258.351288           231.625885           170.893014

                             ****ORCA TERMINATED NORMALLY****
TOTAL RUN TIME: 0 days 0 hours 12 minutes 46 seconds 162 msec
