                         Program Version 6.0.0  -   RELEASE  -
|  1> ! wb97x-v def2-tzvp def2/J RIJCOSX DEFGRID2 scfconv7 GCP(DFT/TZ) printgap
|  2> %output
|  3>     printlevel normal
|  4> end
|  5> %cpcm
|  6>     smd true
|  7>     smdsolvent "water"
|  8> end
|  9> * xyz 0 1
| 10> C 2.8923774880688637 -0.0009217697014470749 1.1659797550582691
| 11> C 1.9965182440893903 1.1951191707820206 1.4629278125359835
| 12> H 2.0690317922582295 1.4491456808741374 2.521296527640485
| 13> C 0.5077949985265761 0.7919254710697108 1.2436749625963235
| 14> H -0.040396060132668984 1.1735450902934614 2.1059132263296796
| 15> C 0.5073533561678729 -0.7925006572824096 1.2436874745433466
| 16> H -0.041030923630949366 -1.1735617691905331 2.1060080811123623
| 17> C 1.9958596709819998 -1.1964099060571223 1.46306676012431
| 18> H 2.068323603912865 -1.4504918441825394 2.5213793591922857
| 19> Cl 2.610878249484097 -2.687953184875718 0.6174959131261007
| 20> C -0.4052137009484439 -1.1289632158421414 0.0041526987467926215
| 21> C -1.788077350988799 -0.6668112301456832 0.47339485049736846
| 22> C -1.7876351994935087 0.6678510420112221 0.47326853281587794
| 23> C -0.4044173233637474 1.129151360419422 0.004036279651762806
| 24> C -0.12738623171102587 -9.76863794880734e-05 -1.0294701974667888
| 25> Cl 1.5022162904850793 -0.0004490113035477191 -1.7297040859992887
| 26> Cl -1.2881910425610694 0.0006036870539764672 -2.4062811724288338
| 27> Cl -0.3941450416909484 2.7762909855837052 -0.6450060818800968
| 28> Cl -3.0004081172597106 1.720069370416665 1.0465922726916477
| 29> Cl -3.0016194773324965 -1.7180830555139694 1.0466739527655222
| 30> Cl -0.3964930392059613 -2.7760005323024464 -0.6450021226282512
| 31> Cl 2.6116564309701125 2.6864525997418736 0.6171989876266112
| 32> H 3.772971827910924 -0.0010995598272879837 1.8118615477823374
| 33> H 3.2336961317687467 -0.0010421828937316826 0.13380617136255643
| 34> *
| 35>
| 36>                          ****END OF INPUT****

CARTESIAN COORDINATES (ANGSTROEM)
---------------------------------
  C      2.892377   -0.000922    1.165980
  C      1.996518    1.195119    1.462928
  H      2.069032    1.449146    2.521297
  C      0.507795    0.791925    1.243675
  H     -0.040396    1.173545    2.105913
  C      0.507353   -0.792501    1.243687
  H     -0.041031   -1.173562    2.106008
  C      1.995860   -1.196410    1.463067
  H      2.068324   -1.450492    2.521379
  Cl     2.610878   -2.687953    0.617496
  C     -0.405214   -1.128963    0.004153
  C     -1.788077   -0.666811    0.473395
  C     -1.787635    0.667851    0.473269
  C     -0.404417    1.129151    0.004036
  C     -0.127386   -0.000098   -1.029470
  Cl     1.502216   -0.000449   -1.729704
  Cl    -1.288191    0.000604   -2.406281
  Cl    -0.394145    2.776291   -0.645006
  Cl    -3.000408    1.720069    1.046592
  Cl    -3.001619   -1.718083    1.046674
  Cl    -0.396493   -2.776001   -0.645002
  Cl     2.611656    2.686453    0.617199
  H      3.772972   -0.001100    1.811862
  H      3.233696   -0.001042    0.133806

 Total Charge           Charge          ....    0
 Multiplicity           Mult            ....    1
 Number of Electrons    NEL             ....  202
 Basis Dimension        Dim             ....  642

ORBITAL ENERGIES
----------------

  NO   OCC          E(Eh)            E(eV)
   0   2.0000    -107.176623     -2916.4242
   1   2.0000    -107.176595     -2916.4234
   2   2.0000    -107.167100     -2916.1650
   3   2.0000    -107.162755     -2916.0468
   4   2.0000    -107.158050     -2915.9188
   5   2.0000    -107.158036     -2915.9184
   6   2.0000    -107.134054     -2915.2658
   7   2.0000    -107.134046     -2915.2656
   8   2.0000     -12.214701      -332.3789
   9   2.0000     -12.176779      -331.3470
  10   2.0000     -12.176232      -331.3321
  11   2.0000     -12.147248      -330.5434
  12   2.0000     -12.144658      -330.4729
  13   2.0000     -12.125327      -329.9469
  14   2.0000     -12.124933      -329.9362
  15   2.0000     -12.101919      -329.3099
  16   2.0000     -12.100857      -329.2811
  17   2.0000     -12.056620      -328.0773
  18   2.0000     -11.329308      -308.2861
  19   2.0000     -11.329289      -308.2856
  20   2.0000     -11.320845      -308.0558
  21   2.0000     -11.316079      -307.9262
  22   2.0000     -11.311398      -307.7988
  23   2.0000     -11.311368      -307.7980
  24   2.0000     -11.287446      -307.1470
  25   2.0000     -11.287428      -307.1465
  26   2.0000      -9.121354      -248.2047
  27   2.0000      -9.120804      -248.1897
  28   2.0000      -9.118419      -248.1248
  29   2.0000      -9.118411      -248.1246
  30   2.0000      -9.117907      -248.1109
  31   2.0000      -9.117802      -248.1080
  32   2.0000      -9.112551      -247.9651
  33   2.0000      -9.109728      -247.8883
  34   2.0000      -9.109479      -247.8815
  35   2.0000      -9.107392      -247.8247
  36   2.0000      -9.104749      -247.7528
  37   2.0000      -9.104631      -247.7496
  38   2.0000      -9.103269      -247.7125
  39   2.0000      -9.102798      -247.6997
  40   2.0000      -9.100198      -247.6290
  41   2.0000      -9.100137      -247.6273
  42   2.0000      -9.100093      -247.6261
  43   2.0000      -9.100039      -247.6246
  44   2.0000      -9.079062      -247.0538
  45   2.0000      -9.078654      -247.0427
  46   2.0000      -9.076330      -246.9795
  47   2.0000      -9.076286      -246.9783
  48   2.0000      -9.076283      -246.9782
  49   2.0000      -9.076192      -246.9757
  50   2.0000      -1.521849       -41.4116
  51   2.0000      -1.468609       -39.9629
  52   2.0000      -1.452537       -39.5255
  53   2.0000      -1.433979       -39.0206
  54   2.0000      -1.430440       -38.9243
  55   2.0000      -1.417303       -38.5668
  56   2.0000      -1.405165       -38.2365
  57   2.0000      -1.398088       -38.0439
  58   2.0000      -1.388678       -37.7879
  59   2.0000      -1.336727       -36.3742
  60   2.0000      -1.272723       -34.6325
  61   2.0000      -1.263862       -34.3914
  62   2.0000      -1.231656       -33.5151
  63   2.0000      -1.200302       -32.6619
  64   2.0000      -1.107601       -30.1394
  65   2.0000      -1.078391       -29.3445
  66   2.0000      -1.060476       -28.8570
  67   2.0000      -1.045934       -28.4613
  68   2.0000      -1.015810       -27.6416
  69   2.0000      -0.992333       -27.0028
  70   2.0000      -0.971319       -26.4309
  71   2.0000      -0.957235       -26.0477
  72   2.0000      -0.939711       -25.5708
  73   2.0000      -0.931814       -25.3560
  74   2.0000      -0.926611       -25.2144
  75   2.0000      -0.918106       -24.9829
  76   2.0000      -0.913531       -24.8585
  77   2.0000      -0.898532       -24.4503
  78   2.0000      -0.869055       -23.6482
  79   2.0000      -0.862760       -23.4769
  80   2.0000      -0.862517       -23.4703
  81   2.0000      -0.852595       -23.2003
  82   2.0000      -0.837115       -22.7791
  83   2.0000      -0.836415       -22.7600
  84   2.0000      -0.833650       -22.6848
  85   2.0000      -0.828453       -22.5433
  86   2.0000      -0.825149       -22.4534
  87   2.0000      -0.817212       -22.2375
  88   2.0000      -0.814858       -22.1734
  89   2.0000      -0.810715       -22.0607
  90   2.0000      -0.809009       -22.0142
  91   2.0000      -0.803282       -21.8584
  92   2.0000      -0.801292       -21.8043
  93   2.0000      -0.798378       -21.7250
  94   2.0000      -0.797632       -21.7047
  95   2.0000      -0.779945       -21.2234
  96   2.0000      -0.777561       -21.1585
  97   2.0000      -0.768811       -20.9204
  98   2.0000      -0.764863       -20.8130
  99   2.0000      -0.762220       -20.7411
 100   2.0000      -0.708457       -19.2781
 101   0.0000      -0.357164        -9.7189
 102   0.0000      -0.320987        -8.7345
 103   0.0000      -0.303003        -8.2451
 104   0.0000      -0.296087        -8.0569
 105   0.0000      -0.291962        -7.9447

MULLIKEN ATOMIC CHARGES
-----------------------
   0 C :   -0.268743
   1 C :    0.037442
   2 H :    0.167733
   3 C :   -0.199871
   4 H :    0.159935
   5 C :   -0.199869
   6 H :    0.159925
   7 C :    0.037438
   8 H :    0.167756
   9 Cl:   -0.174450
  10 C :    0.257323
  11 C :   -0.103628
  12 C :   -0.103743
  13 C :    0.257145
  14 C :   -0.028722
  15 Cl:   -0.055634
  16 Cl:   -0.073753
  17 Cl:   -0.068601
  18 Cl:   -0.011731
  19 Cl:   -0.011686
  20 Cl:   -0.068645
  21 Cl:   -0.174438
  22 H :    0.151745
  23 H :    0.147072
Sum of atomic charges:    0.0000000

LOEWDIN ATOMIC CHARGES
----------------------
   0 C :   -0.273952
   1 C :   -0.411020
   2 H :    0.161813
   3 C :   -0.141630
   4 H :    0.180066
   5 C :   -0.141597
   6 H :    0.180073
   7 C :   -0.410936
   8 H :    0.161806
   9 Cl:    0.259764
  10 C :   -0.480908
  11 C :   -0.476712
  12 C :   -0.476645
  13 C :   -0.480854
  14 C :   -0.707262
  15 Cl:    0.427490
  16 Cl:    0.372710
  17 Cl:    0.394572
  18 Cl:    0.464897
  19 Cl:    0.464966
  20 Cl:    0.394638
  21 Cl:    0.259828
  22 H :    0.149521
  23 H :    0.129373

  Mayer bond orders larger than 0.100000
B(  0-C ,  1-C ) :   1.0162 B(  0-C ,  7-C ) :   1.0163 B(  0-C , 22-H ) :   0.9525
B(  0-C , 23-H ) :   0.9616 B(  1-C ,  2-H ) :   0.9611 B(  1-C ,  3-C ) :   0.9918
B(  1-C , 21-Cl) :   1.0183 B(  3-C ,  4-H ) :   0.9228 B(  3-C ,  5-C ) :   0.9963
B(  3-C , 13-C ) :   0.8801 B(  5-C ,  6-H ) :   0.9228 B(  5-C ,  7-C ) :   0.9918
B(  5-C , 10-C ) :   0.8801 B(  7-C ,  8-H ) :   0.9611 B(  7-C ,  9-Cl) :   1.0183
B( 10-C , 11-C ) :   0.8876 B( 10-C , 14-C ) :   1.0426 B( 10-C , 20-Cl) :   1.1203
B( 11-C , 12-C ) :   1.7033 B( 11-C , 19-Cl) :   1.2142 B( 12-C , 13-C ) :   0.8875
B( 12-C , 18-Cl) :   1.2142 B( 13-C , 14-C ) :   1.0426 B( 13-C , 17-Cl) :   1.1204
B( 14-C , 15-Cl) :   1.1224 B( 14-C , 16-Cl) :   1.1155

FINAL SINGLE POINT ENERGY     -4065.844034722690

DIPOLE MOMENT
-------------

Method             : SCF
Type of density    : Electron Density
Multiplicity       :   1
Irrep              :   0
Energy             : -4065.8602085562902175 Eh
Relativity type    :
Basis              : AO
                                X                 Y                 Z
Electronic contribution:    -12.113645822       0.004440389     -11.054684436
Nuclear contribution   :     12.245672236      -0.004418121      13.511273596
                        -----------------------------------------
Total Dipole Moment    :      0.132026414       0.000022268       2.456589160
                        -----------------------------------------
Magnitude (a.u.)       :      2.460134402
Magnitude (Debye)      :      6.253164702

Rotational constants in cm-1:             0.008618             0.007726             0.005700
Rotational constants in MHz :           258.351288           231.625885           170.893014

                             ****ORCA TERMINATED NORMALLY****
TOTAL RUN TIME: 0 days 0 hours 12 minutes 58 seconds 960 msec
