                         Program Version 6.0.0  -   RELEASE  -
|  1> ! pbe def2-sv(p) def2/J RI DEFGRID1 loosescf d4 GCP(DFT/SV(P)) printgap
|  2> %output
|  3>     printlevel normal
|  4> end
|  5> * xyz 0 1
|  6> C -1.9039073273 -0.0436530117 0.2458594926
|  7> C -0.9081548075 -1.1894029624 0.4632009659
|  8> C 0.1934541942 -1.147935892 -0.5889306689
|  9> C 1.0554584688 0.1139534291 -0.4349201892
| 10> C 0.2399118796 1.2704746567 0.1651997634
| 11> C -1.2064944109 1.2035736613 -0.3127327674
| 12> O 2.1637404205 -0.2221906344 0.386686392
| 13> H -2.3864676747 0.1941374619 1.1951465714
| 14> H -2.6841773738 -0.3590847444 -0.4484903786
| 15> H -0.4470784606 -1.1100440878 1.4487493319
| 16> H -1.4275721207 -2.1473746512 0.4195481059
| 17> H 0.8518467619 -2.0113795685 -0.4848283204
| 18> H -0.2489030513 -1.1723797402 -1.584987212
| 19> H 1.4310180599 0.4071993956 -1.4294709331
| 20> H 0.2664328222 1.189429998 1.253548052
| 21> H 0.6870851325 2.2259863769 -0.1152217903
| 22> H -1.7422784724 2.1007328446 -0.0005487165
| 23> H -1.2114596113 1.1802060031 -1.4041596418
| 24> H 2.7108025322 0.5627167145 0.5218987192
| 25> *
| 26>
| 27>                          ****END OF INPUT****

CARTESIAN COORDINATES (ANGSTROEM)
---------------------------------
  C     -1.903907   -0.043653    0.245859
  C     -0.908155   -1.189403    0.463201
  C      0.193454   -1.147936   -0.588931
  C      1.055458    0.113953   -0.434920
  C      0.239912    1.270475    0.165200
  C     -1.206494    1.203574   -0.312733
  O      2.163740   -0.222191    0.386686
  H     -2.386468    0.194137    1.195147
  H     -2.684177   -0.359085   -0.448490
  H     -0.447078   -1.110044    1.448749
  H     -1.427572   -2.147375    0.419548
  H      0.851847   -2.011380   -0.484828
  H     -0.248903   -1.172380   -1.584987
  H      1.431018    0.407199   -1.429471
  H      0.266433    1.189430    1.253548
  H      0.687085    2.225986   -0.115222
  H     -1.742278    2.100733   -0.000549
  H     -1.211460    1.180206   -1.404160
  H      2.710803    0.562717    0.521899

 Total Charge           Charge          ....    0
 Multiplicity           Mult            ....    1
 Number of Electrons    NEL             ....   56
 Basis Dimension        Dim             ....  122

ORBITAL ENERGIES
----------------

  NO   OCC          E(Eh)            E(eV)
   0   2.0000     -18.736977      -509.8591
   1   2.0000      -9.931719      -270.2558
   2   2.0000      -9.883053      -268.9315
   3   2.0000      -9.880292      -268.8564
   4   2.0000      -9.879177      -268.8261
   5   2.0000      -9.876388      -268.7502
   6   2.0000      -9.875495      -268.7259
   7   2.0000      -0.913411       -24.8552
   8   2.0000      -0.745810       -20.2945
   9   2.0000      -0.662662       -18.0320
  10   2.0000      -0.650716       -17.7069
  11   2.0000      -0.554150       -15.0792
  12   2.0000      -0.535922       -14.5832
  13   2.0000      -0.474979       -12.9248
  14   2.0000      -0.459254       -12.4969
  15   2.0000      -0.435708       -11.8562
  16   2.0000      -0.408894       -11.1266
  17   2.0000      -0.371020       -10.0960
  18   2.0000      -0.361547        -9.8382
  19   2.0000      -0.335884        -9.1399
  20   2.0000      -0.331274        -9.0144
  21   2.0000      -0.325260        -8.8508
  22   2.0000      -0.318884        -8.6773
  23   2.0000      -0.289464        -7.8767
  24   2.0000      -0.272347        -7.4109
  25   2.0000      -0.264161        -7.1882
  26   2.0000      -0.251873        -6.8538
  27   2.0000      -0.207014        -5.6331
  28   0.0000       0.025237         0.6867
  29   0.0000       0.043911         1.1949
  30   0.0000       0.052636         1.4323
  31   0.0000       0.079276         2.1572
  32   0.0000       0.093002         2.5307

MULLIKEN ATOMIC CHARGES
-----------------------
   0 C :   -0.158663
   1 C :   -0.165268
   2 C :   -0.121666
   3 C :    0.016802
   4 C :   -0.147816
   5 C :   -0.162205
   6 O :   -0.426107
   7 H :    0.081409
   8 H :    0.080650
   9 H :    0.087518
  10 H :    0.084991
  11 H :    0.093624
  12 H :    0.075840
  13 H :    0.052062
  14 H :    0.074396
  15 H :    0.077618
  16 H :    0.085949
  17 H :    0.077659
  18 H :    0.293205
Sum of atomic charges:   -0.0000000

LOEWDIN ATOMIC CHARGES
----------------------
   0 C :   -0.230126
   1 C :   -0.230419
   2 C :   -0.230787
   3 C :   -0.050850
   4 C :   -0.246267
   5 C :   -0.228920
   6 O :   -0.334605
   7 H :    0.116458
   8 H :    0.115565
   9 H :    0.118866
  10 H :    0.117978
  11 H :    0.127628
  12 H :    0.117008
  13 H :    0.093757
  14 H :    0.117744
  15 H :    0.113281
  16 H :    0.118626
  17 H :    0.114411
  18 H :    0.280651

  Mayer bond orders larger than 0.100000
B(  0-C ,  1-C ) :   1.1442 B(  0-C ,  5-C ) :   1.1378 B(  0-C ,  7-H ) :   0.9218
B(  0-C ,  8-H ) :   0.9231 B(  1-C ,  2-C ) :   1.1854 B(  1-C ,  9-H ) :   0.9063
B(  1-C , 10-H ) :   0.9221 B(  2-C ,  3-C ) :   1.0886 B(  2-C , 11-H ) :   0.9051
B(  2-C , 12-H ) :   0.9068 B(  3-C ,  4-C ) :   1.0921 B(  3-C ,  6-O ) :   1.0664
B(  3-C , 13-H ) :   0.9058 B(  4-C ,  5-C ) :   1.1707 B(  4-C , 14-H ) :   0.8899
B(  4-C , 15-H ) :   0.9144 B(  5-C , 16-H ) :   0.9192 B(  5-C , 17-H ) :   0.9108
B(  6-O , 18-H ) :   0.8534

Dispersion correction           -0.016389409
FINAL SINGLE POINT ENERGY      -310.336714625011

DIPOLE MOMENT
-------------

Method             : SCF
Type of density    : Electron Density
Multiplicity       :   1
Irrep              :   0
Energy             :  -310.4096742257733013 Eh
Relativity type    :
Basis              : AO
                                X                 Y                 Z
Electronic contribution:      3.841497893      -0.463473501       0.432447809
Nuclear contribution   :     -3.908901057       0.991295999      -0.584197235
                        -----------------------------------------
Total Dipole Moment    :     -0.067403164       0.527822498      -0.151749426
                        -----------------------------------------
Magnitude (a.u.)       :      0.553324195
Magnitude (Debye)      :      1.406438331

Rotational constants in cm-1:             0.139810             0.077450             0.058959
Rotational constants in MHz :          4191.392509          2321.898474          1767.538733

                             ****ORCA TERMINATED NORMALLY****
TOTAL RUN TIME: 0 days 0 hours 0 minutes 30 seconds 141 msec
