                         Program Version 6.0.0  -   RELEASE  -
|  1> ! pbe def2-sv(p) def2/J RI DEFGRID1 loosescf d4 GCP(DFT/SV(P)) printgap
|  2> %output
|  3>     printlevel normal
|  4> end
|  5> * xyz 0 1
|  6> C -2.7394532625 0.2190721641 0.6703374501
|  7> C -1.9331242947 -0.2293333086 -0.5509721234
|  8> C -0.4639146442 -0.1155500579 -0.2901459126
|  9> C 0.1829615035 1.1218899751 -0.2365258375
| 10> N 1.475174138 1.2337744827 0.0203630846
| 11> C 2.1481645678 0.1074844859 0.2271307803
| 12> C 1.5191344523 -1.1267916565 0.1683538123
| 13> N 0.2229543681 -1.2364208587 -0.0878199688
| 14> H -2.5017175398 -0.4040153889 1.5289283622
| 15> H -3.8022364983 0.1335999482 0.4629866974
| 16> H -2.5149751078 1.2529985413 0.9213811274
| 17> H -2.1950602682 0.3955525195 -1.4065318736
| 18> H -2.1636367482 -1.2685427067 -0.7830466768
| 19> H -0.3494324037 2.0467609262 -0.4098499345
| 20> H 3.2023230974 0.2097085694 0.437925276
| 21> H 2.0538197349 -2.0524952122 0.3264821533
| 22> *
| 23>
| 24>                          ****END OF INPUT****

CARTESIAN COORDINATES (ANGSTROEM)
---------------------------------
  C     -2.739453    0.219072    0.670337
  C     -1.933124   -0.229333   -0.550972
  C     -0.463915   -0.115550   -0.290146
  C      0.182962    1.121890   -0.236526
  N      1.475174    1.233774    0.020363
  C      2.148165    0.107484    0.227131
  C      1.519134   -1.126792    0.168354
  N      0.222954   -1.236421   -0.087820
  H     -2.501718   -0.404015    1.528928
  H     -3.802236    0.133600    0.462987
  H     -2.514975    1.252999    0.921381
  H     -2.195060    0.395553   -1.406532
  H     -2.163637   -1.268543   -0.783047
  H     -0.349432    2.046761   -0.409850
  H      3.202323    0.209709    0.437925
  H      2.053820   -2.052495    0.326482

 Total Charge           Charge          ....    0
 Multiplicity           Mult            ....    1
 Number of Electrons    NEL             ....   58
 Basis Dimension        Dim             ....  128

ORBITAL ENERGIES
----------------

  NO   OCC          E(Eh)            E(eV)
   0   2.0000     -14.000296      -380.9674
   1   2.0000     -13.999619      -380.9490
   2   2.0000      -9.942737      -270.5556
   3   2.0000      -9.931665      -270.2543
   4   2.0000      -9.931445      -270.2484
   5   2.0000      -9.929372      -270.1919
   6   2.0000      -9.897393      -269.3217
   7   2.0000      -9.888081      -269.0684
   8   2.0000      -0.898259       -24.4429
   9   2.0000      -0.823831       -22.4176
  10   2.0000      -0.731363       -19.9014
  11   2.0000      -0.675348       -18.3772
  12   2.0000      -0.600875       -16.3506
  13   2.0000      -0.591724       -16.1016
  14   2.0000      -0.543246       -14.7825
  15   2.0000      -0.476717       -12.9721
  16   2.0000      -0.465662       -12.6713
  17   2.0000      -0.429067       -11.6755
  18   2.0000      -0.403754       -10.9867
  19   2.0000      -0.396317       -10.7843
  20   2.0000      -0.386624       -10.5206
  21   2.0000      -0.361217        -9.8292
  22   2.0000      -0.340559        -9.2671
  23   2.0000      -0.319918        -8.7054
  24   2.0000      -0.312646        -8.5075
  25   2.0000      -0.298631        -8.1262
  26   2.0000      -0.250312        -6.8113
  27   2.0000      -0.244967        -6.6659
  28   2.0000      -0.198380        -5.3982
  29   0.0000      -0.077019        -2.0958
  30   0.0000      -0.056897        -1.5483
  31   0.0000       0.042853         1.1661
  32   0.0000       0.068535         1.8649
  33   0.0000       0.074524         2.0279

MULLIKEN ATOMIC CHARGES
-----------------------
   0 C :   -0.296277
   1 C :   -0.088899
   2 C :   -0.080327
   3 C :   -0.076402
   4 N :   -0.039870
   5 C :   -0.060311
   6 C :   -0.048093
   7 N :   -0.049759
   8 H :    0.114247
   9 H :    0.113295
  10 H :    0.108045
  11 H :    0.095673
  12 H :    0.093598
  13 H :    0.063486
  14 H :    0.076355
  15 H :    0.075239
Sum of atomic charges:    0.0000000

LOEWDIN ATOMIC CHARGES
----------------------
   0 C :   -0.331946
   1 C :   -0.227394
   2 C :   -0.022337
   3 C :   -0.094612
   4 N :   -0.050148
   5 C :   -0.104065
   6 C :   -0.095613
   7 N :   -0.055323
   8 H :    0.124482
   9 H :    0.123339
  10 H :    0.118875
  11 H :    0.128180
  12 H :    0.129853
  13 H :    0.117458
  14 H :    0.119634
  15 H :    0.119618

  Mayer bond orders larger than 0.100000
B(  0-C ,  1-C ) :   1.1423 B(  0-C ,  8-H ) :   0.9514 B(  0-C ,  9-H ) :   0.9506
B(  0-C , 10-H ) :   0.9558 B(  1-C ,  2-C ) :   1.0594 B(  1-C , 11-H ) :   0.9081
B(  1-C , 12-H ) :   0.9023 B(  2-C ,  3-C ) :   1.3227 B(  2-C ,  5-C ) :   0.1030
B(  2-C ,  7-N ) :   1.5648 B(  3-C ,  4-N ) :   1.5725 B(  3-C , 13-H ) :   0.9479
B(  4-N ,  5-C ) :   1.5314 B(  5-C ,  6-C ) :   1.3668 B(  5-C , 14-H ) :   0.9475
B(  6-C ,  7-N ) :   1.5250 B(  6-C , 15-H ) :   0.9459

Dispersion correction           -0.015136616
FINAL SINGLE POINT ENERGY      -342.198607003413

DIPOLE MOMENT
-------------

Method             : SCF
Type of density    : Electron Density
Multiplicity       :   1
Irrep              :   0
Energy             :  -342.2467613703168468 Eh
Relativity type    :
Basis              : AO
                                X                 Y                 Z
Electronic contribution:      7.486168440      -0.329630266      -1.010988971
Nuclear contribution   :     -7.750204436       0.294165966       1.011238005
                        -----------------------------------------
Total Dipole Moment    :     -0.264035996      -0.035464300       0.000249034
                        -----------------------------------------
Magnitude (a.u.)       :      0.266407181
Magnitude (Debye)      :      0.677153239

Rotational constants in cm-1:             0.160582             0.052323             0.043165
Rotational constants in MHz :          4814.134542          1568.590328          1294.040556

                             ****ORCA TERMINATED NORMALLY****
TOTAL RUN TIME: 0 days 0 hours 0 minutes 7 seconds 672 msec
