                         Program Version 6.0.0  -   RELEASE  -
|  1> ! pbe def2-sv(p) def2/J RI DEFGRID1 loosescf d4 GCP(DFT/SV(P)) printgap
|  2> %output
|  3>     printlevel normal
|  4> end
|  5> * xyz 0 1
|  6> C 1.7215753014 0.2953968444 -5.07455e-05
|  7> C 0.6785033595 -0.5060670917 5.51847e-05
|  8> Cl -0.95722655 0.0807859093 -7.6951e-06
|  9> H 2.7145714856 -0.1155355451 -5.82399e-05
| 10> H 1.6249377559 1.3663036668 0.0003266926
| 11> H 0.7300171099 -1.5819315329 -5.06866e-05
| 12> *
| 13>
| 14>                          ****END OF INPUT****

CARTESIAN COORDINATES (ANGSTROEM)
---------------------------------
  C      1.721575    0.295397   -0.000051
  C      0.678503   -0.506067    0.000055
  Cl    -0.957227    0.080786   -0.000008
  H      2.714571   -0.115536   -0.000058
  H      1.624938    1.366304    0.000327
  H      0.730017   -1.581932   -0.000051

 Total Charge           Charge          ....    0
 Multiplicity           Mult            ....    1
 Number of Electrons    NEL             ....   32
 Basis Dimension        Dim             ....   52

ORBITAL ENERGIES
----------------

  NO   OCC          E(Eh)            E(eV)
   0   2.0000    -100.638428     -2738.5108
   1   2.0000      -9.947897      -270.6960
   2   2.0000      -9.896513      -269.2978
   3   2.0000      -9.174480      -249.6503
   4   2.0000      -7.005721      -190.6354
   5   2.0000      -6.994721      -190.3360
   6   2.0000      -6.993753      -190.3097
   7   2.0000      -0.793017       -21.5791
   8   2.0000      -0.673538       -18.3279
   9   2.0000      -0.522998       -14.2315
  10   2.0000      -0.439891       -11.9700
  11   2.0000      -0.404073       -10.9954
  12   2.0000      -0.341634        -9.2963
  13   2.0000      -0.323287        -8.7971
  14   2.0000      -0.265735        -7.2310
  15   2.0000      -0.228602        -6.2206
  16   0.0000      -0.034678        -0.9436
  17   0.0000       0.021461         0.5840
  18   0.0000       0.059370         1.6155
  19   0.0000       0.084398         2.2966
  20   0.0000       0.151718         4.1285

MULLIKEN ATOMIC CHARGES
-----------------------
   0 C :   -0.164555
   1 C :   -0.106182
   2 Cl:   -0.091774
   3 H :    0.115641
   4 H :    0.116185
   5 H :    0.130686
Sum of atomic charges:   -0.0000000

LOEWDIN ATOMIC CHARGES
----------------------
   0 C :   -0.273520
   1 C :   -0.226784
   2 Cl:    0.102255
   3 H :    0.136165
   4 H :    0.132604
   5 H :    0.129280

  Mayer bond orders larger than 0.100000
B(  0-C ,  1-C ) :   2.0345 B(  0-C ,  3-H ) :   0.9161 B(  0-C ,  4-H ) :   0.9202
B(  1-C ,  2-Cl) :   1.0601 B(  1-C ,  5-H ) :   0.9233

Dispersion correction           -0.003316049
FINAL SINGLE POINT ENERGY      -537.662153886360

DIPOLE MOMENT
-------------

Method             : SCF
Type of density    : Electron Density
Multiplicity       :   1
Irrep              :   0
Energy             :  -537.6786876849063219 Eh
Relativity type    :
Basis              : AO
                                X                 Y                 Z
Electronic contribution:     -5.587415413       0.259996124      -0.000146620
Nuclear contribution   :      6.040886068      -0.419119497       0.000214631
                        -----------------------------------------
Total Dipole Moment    :      0.453470656      -0.159123373       0.000068011
                        -----------------------------------------
Magnitude (a.u.)       :      0.480578701
Magnitude (Debye)      :      1.221533981

Rotational constants in cm-1:             1.921489             0.200116             0.181240
Rotational constants in MHz :         57604.805417          5999.318633          5433.446165

                             ****ORCA TERMINATED NORMALLY****
TOTAL RUN TIME: 0 days 0 hours 0 minutes 3 seconds 395 msec
