                         Program Version 6.0.0  -   RELEASE  -
|  1> ! pbe def2-sv(p) def2/J RI DEFGRID1 loosescf d4 GCP(DFT/SV(P)) printgap
|  2> %output
|  3>     printlevel normal
|  4> end
|  5> * xyz 0 1
|  6> C -2.1899133399 -0.6435644406 -0.7336094359
|  7> C -1.3894050953 -0.481511645 0.5789295215
|  8> H -2.0909155397 -0.7345905235 1.3870378922
|  9> C -0.8804054358 0.9484740675 0.8207081095
| 10> H -1.687489046 1.651675702 0.5690487676
| 11> C 0.3249124492 1.3161214382 -0.0618153848
| 12> H 0.9794753801 1.9569982626 0.5454347532
| 13> C 1.1432039887 0.0793118081 -0.4579349644
| 14> H 0.7626695026 -0.3365469476 -1.4035267719
| 15> C 0.9760293671 -1.0072906876 0.6105151615
| 16> H 1.2942842396 -0.6029420558 1.5929245245
| 17> O -0.354627807 -1.4568502 0.6907899675
| 18> O 1.7699143106 -2.0854636844 0.2483966694
| 19> O 2.4874946304 0.4672176417 -0.5912004872
| 20> O -0.1529381732 2.0202057387 -1.184042596
| 21> O -0.475064442 1.1242536851 2.1591533283
| 22> O -1.5275421183 -0.2918557087 -1.9175974773
| 23> H -3.1186162298 -0.0673904411 -0.6265218751
| 24> H -2.4380083401 -1.7022180842 -0.8391408375
| 25> H 1.4875724377 -2.870334392 0.741516903
| 26> H 3.0280242925 -0.328548334 -0.7069570868
| 27> H 0.6019285708 2.3396959483 -1.6995644454
| 28> H -1.2389558737 1.0491626498 2.7503254448
| 29> H -1.296236795 0.6559852476 -1.8920714501
| 30> *
| 31>
| 32>                          ****END OF INPUT****

CARTESIAN COORDINATES (ANGSTROEM)
---------------------------------
  C     -2.189913   -0.643564   -0.733609
  C     -1.389405   -0.481512    0.578930
  H     -2.090916   -0.734591    1.387038
  C     -0.880405    0.948474    0.820708
  H     -1.687489    1.651676    0.569049
  C      0.324912    1.316121   -0.061815
  H      0.979475    1.956998    0.545435
  C      1.143204    0.079312   -0.457935
  H      0.762670   -0.336547   -1.403527
  C      0.976029   -1.007291    0.610515
  H      1.294284   -0.602942    1.592925
  O     -0.354628   -1.456850    0.690790
  O      1.769914   -2.085464    0.248397
  O      2.487495    0.467218   -0.591200
  O     -0.152938    2.020206   -1.184043
  O     -0.475064    1.124254    2.159153
  O     -1.527542   -0.291856   -1.917597
  H     -3.118616   -0.067390   -0.626522
  H     -2.438008   -1.702218   -0.839141
  H      1.487572   -2.870334    0.741517
  H      3.028024   -0.328548   -0.706957
  H      0.601929    2.339696   -1.699564
  H     -1.238956    1.049163    2.750325
  H     -1.296237    0.655985   -1.892071

 Total Charge           Charge          ....    0
 Multiplicity           Mult            ....    1
 Number of Electrons    NEL             ....   96
 Basis Dimension        Dim             ....  192

ORBITAL ENERGIES
----------------

  NO   OCC          E(Eh)            E(eV)
   0   2.0000     -18.777448      -510.9603
   1   2.0000     -18.763616      -510.5839
   2   2.0000     -18.760764      -510.5063
   3   2.0000     -18.758638      -510.4485
   4   2.0000     -18.747426      -510.1434
   5   2.0000     -18.735593      -509.8214
   6   2.0000      -9.976970      -271.4871
   7   2.0000      -9.955963      -270.9155
   8   2.0000      -9.949792      -270.7476
   9   2.0000      -9.947667      -270.6898
  10   2.0000      -9.930406      -270.2201
  11   2.0000      -9.929498      -270.1954
  12   2.0000      -0.977861       -26.6089
  13   2.0000      -0.954673       -25.9780
  14   2.0000      -0.940261       -25.5858
  15   2.0000      -0.923096       -25.1187
  16   2.0000      -0.913674       -24.8623
  17   2.0000      -0.902573       -24.5603
  18   2.0000      -0.709160       -19.2972
  19   2.0000      -0.688497       -18.7350
  20   2.0000      -0.618683       -16.8352
  21   2.0000      -0.583889       -15.8884
  22   2.0000      -0.568493       -15.4695
  23   2.0000      -0.525232       -14.2923
  24   2.0000      -0.505824       -13.7642
  25   2.0000      -0.489726       -13.3261
  26   2.0000      -0.477508       -12.9937
  27   2.0000      -0.452773       -12.3206
  28   2.0000      -0.443160       -12.0590
  29   2.0000      -0.432107       -11.7582
  30   2.0000      -0.413419       -11.2497
  31   2.0000      -0.397777       -10.8241
  32   2.0000      -0.391218       -10.6456
  33   2.0000      -0.375664       -10.2223
  34   2.0000      -0.366416        -9.9707
  35   2.0000      -0.352991        -9.6054
  36   2.0000      -0.322419        -8.7735
  37   2.0000      -0.321593        -8.7510
  38   2.0000      -0.315905        -8.5962
  39   2.0000      -0.287447        -7.8218
  40   2.0000      -0.284382        -7.7384
  41   2.0000      -0.273208        -7.4344
  42   2.0000      -0.243880        -6.6363
  43   2.0000      -0.239972        -6.5300
  44   2.0000      -0.237666        -6.4672
  45   2.0000      -0.229389        -6.2420
  46   2.0000      -0.205675        -5.5967
  47   2.0000      -0.194971        -5.3054
  48   0.0000       0.009725         0.2646
  49   0.0000       0.021890         0.5957
  50   0.0000       0.035929         0.9777
  51   0.0000       0.051822         1.4101
  52   0.0000       0.065734         1.7887

MULLIKEN ATOMIC CHARGES
-----------------------
   0 C :    0.056493
   1 C :    0.053457
   2 H :    0.047002
   3 C :   -0.008232
   4 H :    0.076504
   5 C :    0.084667
   6 H :    0.085912
   7 C :    0.017904
   8 H :    0.063241
   9 C :    0.200917
  10 H :    0.047084
  11 O :   -0.325771
  12 O :   -0.399332
  13 O :   -0.429942
  14 O :   -0.422527
  15 O :   -0.410102
  16 O :   -0.435174
  17 H :    0.063328
  18 H :    0.088609
  19 H :    0.309282
  20 H :    0.309859
  21 H :    0.323253
  22 H :    0.304354
  23 H :    0.299214
Sum of atomic charges:    0.0000000

LOEWDIN ATOMIC CHARGES
----------------------
   0 C :   -0.129914
   1 C :   -0.072168
   2 H :    0.108757
   3 C :   -0.069295
   4 H :    0.111169
   5 C :   -0.058570
   6 H :    0.123835
   7 C :   -0.103379
   8 H :    0.112102
   9 C :   -0.004175
  10 H :    0.084353
  11 O :   -0.160081
  12 O :   -0.309769
  13 O :   -0.325876
  14 O :   -0.303657
  15 O :   -0.311810
  16 O :   -0.338609
  17 H :    0.095738
  18 H :    0.117839
  19 H :    0.291958
  20 H :    0.288310
  21 H :    0.300554
  22 H :    0.287924
  23 H :    0.264766

  Mayer bond orders larger than 0.100000
B(  0-C ,  1-C ) :   1.0043 B(  0-C , 16-O ) :   1.1290 B(  0-C , 17-H ) :   0.9098
B(  0-C , 18-H ) :   0.9145 B(  1-C ,  2-H ) :   0.8721 B(  1-C ,  3-C ) :   1.0268
B(  1-C , 11-O ) :   0.9956 B(  3-C ,  4-H ) :   0.8920 B(  3-C ,  5-C ) :   1.0215
B(  3-C , 15-O ) :   1.0321 B(  5-C ,  6-H ) :   0.8580 B(  5-C ,  7-C ) :   1.0321
B(  5-C , 14-O ) :   1.0200 B(  7-C ,  8-H ) :   0.8190 B(  7-C ,  9-C ) :   1.0644
B(  7-C , 13-O ) :   1.0583 B(  9-C , 10-H ) :   0.8838 B(  9-C , 11-O ) :   1.0214
B(  9-C , 12-O ) :   1.1451 B( 12-O , 19-H ) :   0.8383 B( 13-O , 20-H ) :   0.8352
B( 14-O , 21-H ) :   0.8369 B( 14-O , 23-H ) :   0.1271 B( 15-O , 22-H ) :   0.8450
B( 16-O , 23-H ) :   0.7840

Dispersion correction           -0.025490152
FINAL SINGLE POINT ENERGY      -685.693695349628

DIPOLE MOMENT
-------------

Method             : SCF
Type of density    : Electron Density
Multiplicity       :   1
Irrep              :   0
Energy             :  -685.8257225775394090 Eh
Relativity type    :
Basis              : AO
                                X                 Y                 Z
Electronic contribution:      3.064250351      -0.747206541       0.305088014
Nuclear contribution   :     -3.460606608       0.945144183       0.383822429
                        -----------------------------------------
Total Dipole Moment    :     -0.396356257       0.197937641       0.688910443
                        -----------------------------------------
Magnitude (a.u.)       :      0.819069710
Magnitude (Debye)      :      2.081909752

Rotational constants in cm-1:             0.035293             0.029144             0.026759
Rotational constants in MHz :          1058.069681           873.714844           802.226065

                             ****ORCA TERMINATED NORMALLY****
TOTAL RUN TIME: 0 days 0 hours 0 minutes 12 seconds 79 msec
