                         Program Version 6.0.0  -   RELEASE  -
|  1> ! wb97x-v def2-tzvp def2/J RIJCOSX DEFGRID2 scfconv7 GCP(DFT/TZ) printgap
|  2> %output
|  3>     printlevel normal
|  4> end
|  5> * xyz 0 1
|  6> C -3.4462138358123275 0.5812229486356176 -0.006857064911927723
|  7> C -1.9520480675514804 0.4704215049726361 0.050607339204674716
|  8> C -1.1324801621979157 1.4452142163985218 -0.3590595926121688
|  9> C 0.3637259876950032 1.3606737858615545 -0.3690134162833227
| 10> C 0.8725113802676034 -0.08045249083902917 -0.18396134742713435
| 11> H 0.6412173510931075 -0.6237882060379317 -1.1136180643602387
| 12> C 0.08490397154356352 -0.729555634357449 0.9495850104005484
| 13> C -1.4011686788861404 -0.8122382024926995 0.6177390127470042
| 14> H -1.9585421381858519 -1.0483531758866245 1.5372685891328381
| 15> O -1.671742370243111 -1.8616335077265558 -0.3533192263260585
| 16> C 2.3756002877923925 -0.11197651110246148 -0.02113888766836624
| 17> C 2.98870804539891 -0.5524267805568193 1.0828916909097774
| 18> C 3.1623685137953674 0.3941112457287242 -1.1979766290002805
| 19> H -3.875563854600649 -0.21146954430538623 -0.6312037911053524
| 20> H -3.7600281251947782 1.5455493400086395 -0.41580234130373467
| 21> H -3.8851209917981486 0.4660637279847432 0.9922358010720186
| 22> H -1.566618956783972 2.3768663763393247 -0.7216236126175852
| 23> H 0.7336849575218305 1.7814212327884313 -1.310976628990123
| 24> H 0.7771405966136405 1.9992879739646132 0.42770606628492486
| 25> H 0.45243458089446836 -1.7402597451431487 1.1625802728519976
| 26> H 0.20254338306600908 -0.13905890688397238 1.8681150417796304
| 27> H -1.4463023602743978 -2.7004363690355997 0.07091518445948512
| 28> H 4.073872114634975 -0.5590839245264632 1.1473140086000333
| 29> H 2.443277432993672 -0.9197659400539882 1.9461793187859189
| 30> H 2.835551938363621 -0.09491167185814123 -2.1236055060616117
| 31> H 3.011349592426209 1.4703598780968368 -1.3424385834092036
| 32> H 4.232880121727469 0.21817711110581298 -1.0665970562836462
| 33> *
| 34>
| 35>                          ****END OF INPUT****

CARTESIAN COORDINATES (ANGSTROEM)
---------------------------------
  C     -3.446214    0.581223   -0.006857
  C     -1.952048    0.470422    0.050607
  C     -1.132480    1.445214   -0.359060
  C      0.363726    1.360674   -0.369013
  C      0.872511   -0.080452   -0.183961
  H      0.641217   -0.623788   -1.113618
  C      0.084904   -0.729556    0.949585
  C     -1.401169   -0.812238    0.617739
  H     -1.958542   -1.048353    1.537269
  O     -1.671742   -1.861634   -0.353319
  C      2.375600   -0.111977   -0.021139
  C      2.988708   -0.552427    1.082892
  C      3.162369    0.394111   -1.197977
  H     -3.875564   -0.211470   -0.631204
  H     -3.760028    1.545549   -0.415802
  H     -3.885121    0.466064    0.992236
  H     -1.566619    2.376866   -0.721624
  H      0.733685    1.781421   -1.310977
  H      0.777141    1.999288    0.427706
  H      0.452435   -1.740260    1.162580
  H      0.202543   -0.139059    1.868115
  H     -1.446302   -2.700436    0.070915
  H      4.073872   -0.559084    1.147314
  H      2.443277   -0.919766    1.946179
  H      2.835552   -0.094912   -2.123606
  H      3.011350    1.470360   -1.342439
  H      4.232880    0.218177   -1.066597

 Total Charge           Charge          ....    0
 Multiplicity           Mult            ....    1
 Number of Electrons    NEL             ....   84
 Basis Dimension        Dim             ....  437

ORBITAL ENERGIES
----------------

  NO   OCC          E(Eh)            E(eV)
   0   2.0000     -21.668811      -589.6383
   1   2.0000     -12.098696      -329.2223
   2   2.0000     -12.056134      -328.0641
   3   2.0000     -12.051101      -327.9271
   4   2.0000     -12.047748      -327.8359
   5   2.0000     -12.047221      -327.8215
   6   2.0000     -12.042873      -327.7032
   7   2.0000     -12.041520      -327.6664
   8   2.0000     -12.039469      -327.6106
   9   2.0000     -12.034219      -327.4678
  10   2.0000     -12.029234      -327.3321
  11   2.0000      -1.665268       -45.3142
  12   2.0000      -1.364362       -37.1262
  13   2.0000      -1.325023       -36.0557
  14   2.0000      -1.267645       -34.4944
  15   2.0000      -1.256735       -34.1975
  16   2.0000      -1.186300       -32.2809
  17   2.0000      -1.183328       -32.2000
  18   2.0000      -1.134712       -30.8771
  19   2.0000      -1.102097       -29.9896
  20   2.0000      -1.028847       -27.9964
  21   2.0000      -1.005963       -27.3737
  22   2.0000      -0.975987       -26.5579
  23   2.0000      -0.942232       -25.6394
  24   2.0000      -0.927982       -25.2517
  25   2.0000      -0.912940       -24.8424
  26   2.0000      -0.898372       -24.4459
  27   2.0000      -0.893440       -24.3117
  28   2.0000      -0.869023       -23.6473
  29   2.0000      -0.864190       -23.5158
  30   2.0000      -0.837323       -22.7847
  31   2.0000      -0.829313       -22.5667
  32   2.0000      -0.826552       -22.4916
  33   2.0000      -0.816133       -22.2081
  34   2.0000      -0.812086       -22.0980
  35   2.0000      -0.805547       -21.9200
  36   2.0000      -0.799374       -21.7521
  37   2.0000      -0.773181       -21.0393
  38   2.0000      -0.769863       -20.9490
  39   2.0000      -0.762772       -20.7561
  40   2.0000      -0.642997       -17.4968
  41   2.0000      -0.639825       -17.4105
  42   0.0000      -0.222336        -6.0501
  43   0.0000      -0.196564        -5.3488
  44   0.0000      -0.115325        -3.1382
  45   0.0000      -0.058849        -1.6014
  46   0.0000      -0.050355        -1.3702

MULLIKEN ATOMIC CHARGES
-----------------------
   0 C :   -0.359117
   1 C :    0.003197
   2 C :   -0.208581
   3 C :   -0.152291
   4 C :    0.045819
   5 H :    0.084993
   6 C :   -0.294583
   7 C :    0.127219
   8 H :    0.084058
   9 O :   -0.442011
  10 C :    0.013602
  11 C :   -0.300957
  12 C :   -0.368348
  13 H :    0.135749
  14 H :    0.109624
  15 H :    0.106614
  16 H :    0.107511
  17 H :    0.107378
  18 H :    0.104742
  19 H :    0.112155
  20 H :    0.103307
  21 H :    0.293605
  22 H :    0.106922
  23 H :    0.118709
  24 H :    0.119701
  25 H :    0.125390
  26 H :    0.115591
Sum of atomic charges:   -0.0000000

LOEWDIN ATOMIC CHARGES
----------------------
   0 C :   -0.256404
   1 C :   -0.179820
   2 C :   -0.130821
   3 C :   -0.212007
   4 C :   -0.205666
   5 H :    0.166502
   6 C :   -0.208888
   7 C :   -0.287424
   8 H :    0.138386
   9 O :   -0.034224
  10 C :   -0.202901
  11 C :   -0.199385
  12 C :   -0.254147
  13 H :    0.130301
  14 H :    0.122787
  15 H :    0.122550
  16 H :    0.140014
  17 H :    0.141635
  18 H :    0.146597
  19 H :    0.137430
  20 H :    0.146196
  21 H :    0.165060
  22 H :    0.118780
  23 H :    0.119648
  24 H :    0.126246
  25 H :    0.125301
  26 H :    0.124255

  Mayer bond orders larger than 0.100000
B(  0-C ,  1-C ) :   0.9577 B(  0-C , 13-H ) :   0.9742 B(  0-C , 14-H ) :   0.9907
B(  0-C , 15-H ) :   0.9724 B(  1-C ,  2-C ) :   1.9085 B(  1-C ,  7-C ) :   0.9771
B(  2-C ,  3-C ) :   1.0007 B(  2-C , 16-H ) :   0.9602 B(  3-C ,  4-C ) :   0.9683
B(  3-C , 17-H ) :   0.9670 B(  3-C , 18-H ) :   0.9445 B(  4-C ,  5-H ) :   0.9613
B(  4-C ,  6-C ) :   0.9555 B(  4-C , 10-C ) :   0.9316 B(  6-C ,  7-C ) :   1.0064
B(  6-C , 19-H ) :   0.9829 B(  6-C , 20-H ) :   0.9544 B(  7-C ,  8-H ) :   0.9769
B(  7-C ,  9-O ) :   1.1019 B(  9-O , 21-H ) :   0.9049 B( 10-C , 11-C ) :   1.9162
B( 10-C , 12-C ) :   0.9681 B( 11-C , 22-H ) :   0.9663 B( 11-C , 23-H ) :   0.9701
B( 12-C , 24-H ) :   0.9760 B( 12-C , 25-H ) :   0.9717 B( 12-C , 26-H ) :   0.9829

FINAL SINGLE POINT ENERGY      -465.919034426323

DIPOLE MOMENT
-------------

Method             : SCF
Type of density    : Electron Density
Multiplicity       :   1
Irrep              :   0
Energy             :  -465.9368392067231071 Eh
Relativity type    :
Basis              : AO
                                X                 Y                 Z
Electronic contribution:     -2.649286944      -2.107500312       0.120499753
Nuclear contribution   :      2.785912678       2.109609788       0.243149768
                        -----------------------------------------
Total Dipole Moment    :      0.136625735       0.002109476       0.363649522
                        -----------------------------------------
Magnitude (a.u.)       :      0.388473958
Magnitude (Debye)      :      0.987422329

Rotational constants in cm-1:             0.070970             0.022394             0.019432
Rotational constants in MHz :          2127.612895           671.347344           582.549357

                             ****ORCA TERMINATED NORMALLY****
TOTAL RUN TIME: 0 days 0 hours 5 minutes 26 seconds 462 msec
