                         Program Version 6.0.0  -   RELEASE  -
|  1> ! wb97x-v def2-tzvp def2/J RIJCOSX DEFGRID2 scfconv7 GCP(DFT/TZ) printgap
|  2> %output
|  3>     printlevel normal
|  4> end
|  5> %cpcm
|  6>     smd true
|  7>     smdsolvent "water"
|  8> end
|  9> * xyz 0 1
| 10> C -3.4462138358123275 0.5812229486356176 -0.006857064911927723
| 11> C -1.9520480675514804 0.4704215049726361 0.050607339204674716
| 12> C -1.1324801621979157 1.4452142163985218 -0.3590595926121688
| 13> C 0.3637259876950032 1.3606737858615545 -0.3690134162833227
| 14> C 0.8725113802676034 -0.08045249083902917 -0.18396134742713435
| 15> H 0.6412173510931075 -0.6237882060379317 -1.1136180643602387
| 16> C 0.08490397154356352 -0.729555634357449 0.9495850104005484
| 17> C -1.4011686788861404 -0.8122382024926995 0.6177390127470042
| 18> H -1.9585421381858519 -1.0483531758866245 1.5372685891328381
| 19> O -1.671742370243111 -1.8616335077265558 -0.3533192263260585
| 20> C 2.3756002877923925 -0.11197651110246148 -0.02113888766836624
| 21> C 2.98870804539891 -0.5524267805568193 1.0828916909097774
| 22> C 3.1623685137953674 0.3941112457287242 -1.1979766290002805
| 23> H -3.875563854600649 -0.21146954430538623 -0.6312037911053524
| 24> H -3.7600281251947782 1.5455493400086395 -0.41580234130373467
| 25> H -3.8851209917981486 0.4660637279847432 0.9922358010720186
| 26> H -1.566618956783972 2.3768663763393247 -0.7216236126175852
| 27> H 0.7336849575218305 1.7814212327884313 -1.310976628990123
| 28> H 0.7771405966136405 1.9992879739646132 0.42770606628492486
| 29> H 0.45243458089446836 -1.7402597451431487 1.1625802728519976
| 30> H 0.20254338306600908 -0.13905890688397238 1.8681150417796304
| 31> H -1.4463023602743978 -2.7004363690355997 0.07091518445948512
| 32> H 4.073872114634975 -0.5590839245264632 1.1473140086000333
| 33> H 2.443277432993672 -0.9197659400539882 1.9461793187859189
| 34> H 2.835551938363621 -0.09491167185814123 -2.1236055060616117
| 35> H 3.011349592426209 1.4703598780968368 -1.3424385834092036
| 36> H 4.232880121727469 0.21817711110581298 -1.0665970562836462
| 37> *
| 38>
| 39>                          ****END OF INPUT****

CARTESIAN COORDINATES (ANGSTROEM)
---------------------------------
  C     -3.446214    0.581223   -0.006857
  C     -1.952048    0.470422    0.050607
  C     -1.132480    1.445214   -0.359060
  C      0.363726    1.360674   -0.369013
  C      0.872511   -0.080452   -0.183961
  H      0.641217   -0.623788   -1.113618
  C      0.084904   -0.729556    0.949585
  C     -1.401169   -0.812238    0.617739
  H     -1.958542   -1.048353    1.537269
  O     -1.671742   -1.861634   -0.353319
  C      2.375600   -0.111977   -0.021139
  C      2.988708   -0.552427    1.082892
  C      3.162369    0.394111   -1.197977
  H     -3.875564   -0.211470   -0.631204
  H     -3.760028    1.545549   -0.415802
  H     -3.885121    0.466064    0.992236
  H     -1.566619    2.376866   -0.721624
  H      0.733685    1.781421   -1.310977
  H      0.777141    1.999288    0.427706
  H      0.452435   -1.740260    1.162580
  H      0.202543   -0.139059    1.868115
  H     -1.446302   -2.700436    0.070915
  H      4.073872   -0.559084    1.147314
  H      2.443277   -0.919766    1.946179
  H      2.835552   -0.094912   -2.123606
  H      3.011350    1.470360   -1.342439
  H      4.232880    0.218177   -1.066597

 Total Charge           Charge          ....    0
 Multiplicity           Mult            ....    1
 Number of Electrons    NEL             ....   84
 Basis Dimension        Dim             ....  437

ORBITAL ENERGIES
----------------

  NO   OCC          E(Eh)            E(eV)
   0   2.0000     -21.671084      -589.7002
   1   2.0000     -12.092788      -329.0615
   2   2.0000     -12.053874      -328.0026
   3   2.0000     -12.045131      -327.7647
   4   2.0000     -12.044845      -327.7569
   5   2.0000     -12.039569      -327.6133
   6   2.0000     -12.037970      -327.5698
   7   2.0000     -12.032531      -327.4218
   8   2.0000     -12.030314      -327.3615
   9   2.0000     -12.030087      -327.3553
  10   2.0000     -12.024361      -327.1995
  11   2.0000      -1.667872       -45.3851
  12   2.0000      -1.359797       -37.0019
  13   2.0000      -1.321774       -35.9673
  14   2.0000      -1.262638       -34.3581
  15   2.0000      -1.251102       -34.0442
  16   2.0000      -1.180917       -32.1344
  17   2.0000      -1.179214       -32.0880
  18   2.0000      -1.130584       -30.7648
  19   2.0000      -1.096591       -29.8398
  20   2.0000      -1.028517       -27.9874
  21   2.0000      -1.003400       -27.3039
  22   2.0000      -0.974364       -26.5138
  23   2.0000      -0.940369       -25.5887
  24   2.0000      -0.924704       -25.1625
  25   2.0000      -0.910295       -24.7704
  26   2.0000      -0.895062       -24.3559
  27   2.0000      -0.888564       -24.1791
  28   2.0000      -0.864150       -23.5147
  29   2.0000      -0.858619       -23.3642
  30   2.0000      -0.830788       -22.6069
  31   2.0000      -0.822802       -22.3896
  32   2.0000      -0.820956       -22.3393
  33   2.0000      -0.810471       -22.0540
  34   2.0000      -0.806110       -21.9354
  35   2.0000      -0.799769       -21.7628
  36   2.0000      -0.793666       -21.5968
  37   2.0000      -0.766590       -20.8600
  38   2.0000      -0.762739       -20.7552
  39   2.0000      -0.756301       -20.5800
  40   2.0000      -0.641605       -17.4590
  41   2.0000      -0.637916       -17.3586
  42   0.0000      -0.220156        -5.9907
  43   0.0000      -0.194596        -5.2952
  44   0.0000      -0.111840        -3.0433
  45   0.0000      -0.047181        -1.2839
  46   0.0000      -0.040963        -1.1147

MULLIKEN ATOMIC CHARGES
-----------------------
   0 C :   -0.388468
   1 C :   -0.052482
   2 C :   -0.253253
   3 C :   -0.160206
   4 C :    0.036972
   5 H :    0.084132
   6 C :   -0.284791
   7 C :    0.159294
   8 H :    0.118678
   9 O :   -0.559107
  10 C :   -0.029509
  11 C :   -0.397621
  12 C :   -0.408476
  13 H :    0.131403
  14 H :    0.135719
  15 H :    0.133911
  16 H :    0.147165
  17 H :    0.133067
  18 H :    0.117509
  19 H :    0.136210
  20 H :    0.117974
  21 H :    0.356197
  22 H :    0.147838
  23 H :    0.156096
  24 H :    0.137898
  25 H :    0.146612
  26 H :    0.137238
Sum of atomic charges:   -0.0000000

LOEWDIN ATOMIC CHARGES
----------------------
   0 C :   -0.264194
   1 C :   -0.195496
   2 C :   -0.137727
   3 C :   -0.211160
   4 C :   -0.208565
   5 H :    0.164440
   6 C :   -0.205674
   7 C :   -0.281315
   8 H :    0.148587
   9 O :   -0.074566
  10 C :   -0.208209
  11 C :   -0.220849
  12 C :   -0.257969
  13 H :    0.127329
  14 H :    0.127976
  15 H :    0.128937
  16 H :    0.147418
  17 H :    0.147901
  18 H :    0.150014
  19 H :    0.144764
  20 H :    0.150763
  21 H :    0.187979
  22 H :    0.124282
  23 H :    0.125748
  24 H :    0.130761
  25 H :    0.131149
  26 H :    0.127677

  Mayer bond orders larger than 0.100000
B(  0-C ,  1-C ) :   0.9626 B(  0-C , 13-H ) :   0.9667 B(  0-C , 14-H ) :   0.9887
B(  0-C , 15-H ) :   0.9718 B(  1-C ,  2-C ) :   1.8962 B(  1-C ,  7-C ) :   0.9665
B(  2-C ,  3-C ) :   0.9931 B(  2-C , 16-H ) :   0.9638 B(  3-C ,  4-C ) :   0.9614
B(  3-C , 17-H ) :   0.9653 B(  3-C , 18-H ) :   0.9414 B(  4-C ,  5-H ) :   0.9588
B(  4-C ,  6-C ) :   0.9510 B(  4-C , 10-C ) :   0.9251 B(  6-C ,  7-C ) :   1.0077
B(  6-C , 19-H ) :   0.9798 B(  6-C , 20-H ) :   0.9501 B(  7-C ,  8-H ) :   0.9844
B(  7-C ,  9-O ) :   1.0378 B(  9-O , 21-H ) :   0.8697 B( 10-C , 11-C ) :   1.8999
B( 10-C , 12-C ) :   0.9742 B( 11-C , 22-H ) :   0.9678 B( 11-C , 23-H ) :   0.9702
B( 12-C , 24-H ) :   0.9720 B( 12-C , 25-H ) :   0.9651 B( 12-C , 26-H ) :   0.9793

FINAL SINGLE POINT ENERGY      -465.927048688008

DIPOLE MOMENT
-------------

Method             : SCF
Type of density    : Electron Density
Multiplicity       :   1
Irrep              :   0
Energy             :  -465.9448534684081551 Eh
Relativity type    :
Basis              : AO
                                X                 Y                 Z
Electronic contribution:     -2.569066166      -2.057139544       0.351494479
Nuclear contribution   :      2.785912678       2.109609788       0.243149768
                        -----------------------------------------
Total Dipole Moment    :      0.216846512       0.052470244       0.594644247
                        -----------------------------------------
Magnitude (a.u.)       :      0.635119923
Magnitude (Debye)      :      1.614346550

Rotational constants in cm-1:             0.070970             0.022394             0.019432
Rotational constants in MHz :          2127.612895           671.347344           582.549357

                             ****ORCA TERMINATED NORMALLY****
TOTAL RUN TIME: 0 days 0 hours 5 minutes 35 seconds 471 msec
