                         Program Version 6.0.0  -   RELEASE  -
|  1> ! wb97x-v def2-tzvp def2/J RIJCOSX DEFGRID2 scfconv7 GCP(DFT/TZ) printgap
|  2> %output
|  3>     printlevel normal
|  4> end
|  5> * xyz 0 1
|  6> C -0.42219754967077894 -1.0599562787261738 5.1503815832794345e-05
|  7> C 0.94845661019811 -1.2204991299880246 2.050402262952928e-05
|  8> C 1.775613662417412 -0.08671415682698985 3.819611771124386e-05
|  9> C 1.2287846372344342 1.200834489314045 9.102765180765281e-05
| 10> C -0.14541659080212704 1.3480901453058265 0.00012800536514855852
| 11> C -0.9887598000898716 0.22584297563583863 9.110240017361816e-05
| 12> C -2.4277405323934556 0.4270732760947801 -1.773993672330595e-05
| 13> O -3.2692747163237867 -0.4718559467966561 -0.00018351693818382321
| 14> O 3.1321138456187563 -0.18568679029901086 -4.023483449570205e-06
| 15> H -1.0715823623096599 -1.9295973222876812 2.1641359443073784e-05
| 16> H 1.3961711032006627 -2.210261195175301 -2.3364622283190914e-05
| 17> H 1.8901382923246994 2.0605417889872513 8.854035415288748e-05
| 18> H -0.5828370902401695 2.3427485296338344 0.00017227294576939214
| 19> H -2.750418120635767 1.4872039986934964 0.0002519765883771322
| 20> H 3.393343155709313 -1.1184535518860759 -4.263015486991942e-05
| 21> *
| 22>
| 23>                          ****END OF INPUT****

CARTESIAN COORDINATES (ANGSTROEM)
---------------------------------
  C     -0.422198   -1.059956    0.000052
  C      0.948457   -1.220499    0.000021
  C      1.775614   -0.086714    0.000038
  C      1.228785    1.200834    0.000091
  C     -0.145417    1.348090    0.000128
  C     -0.988760    0.225843    0.000091
  C     -2.427741    0.427073   -0.000018
  O     -3.269275   -0.471856   -0.000184
  O      3.132114   -0.185687   -0.000004
  H     -1.071582   -1.929597    0.000022
  H      1.396171   -2.210261   -0.000023
  H      1.890138    2.060542    0.000089
  H     -0.582837    2.342749    0.000172
  H     -2.750418    1.487204    0.000252
  H      3.393343   -1.118454   -0.000043

 Total Charge           Charge          ....    0
 Multiplicity           Mult            ....    1
 Number of Electrons    NEL             ....   64
 Basis Dimension        Dim             ....  315

ORBITAL ENERGIES
----------------

  NO   OCC          E(Eh)            E(eV)
   0   2.0000     -21.726864      -591.2180
   1   2.0000     -21.662705      -589.4722
   2   2.0000     -12.141237      -330.3799
   3   2.0000     -12.135186      -330.2152
   4   2.0000     -12.079936      -328.7118
   5   2.0000     -12.077360      -328.6417
   6   2.0000     -12.071235      -328.4750
   7   2.0000     -12.065590      -328.3214
   8   2.0000     -12.064350      -328.2876
   9   2.0000      -1.745204       -47.4894
  10   2.0000      -1.699207       -46.2378
  11   2.0000      -1.408830       -38.3362
  12   2.0000      -1.316391       -35.8208
  13   2.0000      -1.302749       -35.4496
  14   2.0000      -1.207557       -32.8593
  15   2.0000      -1.154296       -31.4100
  16   2.0000      -1.123477       -30.5714
  17   2.0000      -1.079327       -29.3700
  18   2.0000      -1.032602       -28.0985
  19   2.0000      -1.019095       -27.7310
  20   2.0000      -0.987457       -26.8701
  21   2.0000      -0.972516       -26.4635
  22   2.0000      -0.950286       -25.8586
  23   2.0000      -0.921469       -25.0744
  24   2.0000      -0.907803       -24.7026
  25   2.0000      -0.899785       -24.4844
  26   2.0000      -0.893874       -24.3235
  27   2.0000      -0.828185       -22.5360
  28   2.0000      -0.797429       -21.6991
  29   2.0000      -0.789603       -21.4862
  30   2.0000      -0.667129       -18.1535
  31   2.0000      -0.663743       -18.0614
  32   0.0000      -0.353044        -9.6068
  33   0.0000      -0.255585        -6.9548
  34   0.0000      -0.222568        -6.0564
  35   0.0000      -0.153715        -4.1828
  36   0.0000      -0.086177        -2.3450

MULLIKEN ATOMIC CHARGES
-----------------------
   0 C :   -0.208462
   1 C :   -0.155048
   2 C :    0.249947
   3 C :   -0.192749
   4 C :   -0.149903
   5 C :    0.139074
   6 C :    0.086752
   7 O :   -0.320588
   8 O :   -0.373741
   9 H :    0.152572
  10 H :    0.120307
  11 H :    0.131712
  12 H :    0.129789
  13 H :    0.070789
  14 H :    0.319549
Sum of atomic charges:   -0.0000000

LOEWDIN ATOMIC CHARGES
----------------------
   0 C :   -0.063155
   1 C :   -0.137412
   2 C :   -0.248355
   3 C :   -0.118471
   4 C :   -0.083341
   5 C :   -0.178560
   6 C :   -0.246503
   7 O :    0.074501
   8 O :    0.091965
   9 H :    0.157375
  10 H :    0.143059
  11 H :    0.150458
  12 H :    0.150231
  13 H :    0.117040
  14 H :    0.191169

  Mayer bond orders larger than 0.100000
B(  0-C ,  1-C ) :   1.4580 B(  0-C ,  5-C ) :   1.3596 B(  0-C ,  9-H ) :   0.9403
B(  1-C ,  2-C ) :   1.3263 B(  1-C , 10-H ) :   0.9567 B(  2-C ,  3-C ) :   1.3975
B(  2-C ,  8-O ) :   1.1808 B(  3-C ,  4-C ) :   1.4651 B(  3-C , 11-H ) :   0.9728
B(  4-C ,  5-C ) :   1.3446 B(  4-C , 12-H ) :   0.9606 B(  5-C ,  6-C ) :   0.9242
B(  5-C ,  7-O ) :  -0.1367 B(  5-C , 13-H ) :  -0.1023 B(  6-C ,  7-O ) :   2.1096
B(  6-C , 13-H ) :   1.0205 B(  8-O , 14-H ) :   0.8839

FINAL SINGLE POINT ENERGY      -420.821852594615

DIPOLE MOMENT
-------------

Method             : SCF
Type of density    : Electron Density
Multiplicity       :   1
Irrep              :   0
Energy             :  -420.8293919394148475 Eh
Relativity type    :
Basis              : AO
                                X                 Y                 Z
Electronic contribution:     -0.760170950      -0.541013326      -0.000203324
Nuclear contribution   :      2.144978727       0.576773349       0.000329790
                        -----------------------------------------
Total Dipole Moment    :      1.384807777       0.035760022       0.000126466
                        -----------------------------------------
Magnitude (a.u.)       :      1.385269423
Magnitude (Debye)      :      3.521075050

Rotational constants in cm-1:             0.169393             0.033316             0.027840
Rotational constants in MHz :          5078.265914           998.790874           834.635225

                             ****ORCA TERMINATED NORMALLY****
TOTAL RUN TIME: 0 days 0 hours 2 minutes 41 seconds 480 msec
