                         Program Version 6.0.0  -   RELEASE  -
|  1> ! wb97x-v def2-tzvp def2/J RIJCOSX DEFGRID2 scfconv7 GCP(DFT/TZ) printgap
|  2> %output
|  3>     printlevel normal
|  4> end
|  5> %cpcm
|  6>     smd true
|  7>     smdsolvent "water"
|  8> end
|  9> * xyz 0 1
| 10> C -0.42219754967077894 -1.0599562787261738 5.1503815832794345e-05
| 11> C 0.94845661019811 -1.2204991299880246 2.050402262952928e-05
| 12> C 1.775613662417412 -0.08671415682698985 3.819611771124386e-05
| 13> C 1.2287846372344342 1.200834489314045 9.102765180765281e-05
| 14> C -0.14541659080212704 1.3480901453058265 0.00012800536514855852
| 15> C -0.9887598000898716 0.22584297563583863 9.110240017361816e-05
| 16> C -2.4277405323934556 0.4270732760947801 -1.773993672330595e-05
| 17> O -3.2692747163237867 -0.4718559467966561 -0.00018351693818382321
| 18> O 3.1321138456187563 -0.18568679029901086 -4.023483449570205e-06
| 19> H -1.0715823623096599 -1.9295973222876812 2.1641359443073784e-05
| 20> H 1.3961711032006627 -2.210261195175301 -2.3364622283190914e-05
| 21> H 1.8901382923246994 2.0605417889872513 8.854035415288748e-05
| 22> H -0.5828370902401695 2.3427485296338344 0.00017227294576939214
| 23> H -2.750418120635767 1.4872039986934964 0.0002519765883771322
| 24> H 3.393343155709313 -1.1184535518860759 -4.263015486991942e-05
| 25> *
| 26>
| 27>                          ****END OF INPUT****

CARTESIAN COORDINATES (ANGSTROEM)
---------------------------------
  C     -0.422198   -1.059956    0.000052
  C      0.948457   -1.220499    0.000021
  C      1.775614   -0.086714    0.000038
  C      1.228785    1.200834    0.000091
  C     -0.145417    1.348090    0.000128
  C     -0.988760    0.225843    0.000091
  C     -2.427741    0.427073   -0.000018
  O     -3.269275   -0.471856   -0.000184
  O      3.132114   -0.185687   -0.000004
  H     -1.071582   -1.929597    0.000022
  H      1.396171   -2.210261   -0.000023
  H      1.890138    2.060542    0.000089
  H     -0.582837    2.342749    0.000172
  H     -2.750418    1.487204    0.000252
  H      3.393343   -1.118454   -0.000043

 Total Charge           Charge          ....    0
 Multiplicity           Mult            ....    1
 Number of Electrons    NEL             ....   64
 Basis Dimension        Dim             ....  315

ORBITAL ENERGIES
----------------

  NO   OCC          E(Eh)            E(eV)
   0   2.0000     -21.712488      -590.8268
   1   2.0000     -21.672822      -589.7475
   2   2.0000     -12.141281      -330.3810
   3   2.0000     -12.131581      -330.1171
   4   2.0000     -12.069424      -328.4257
   5   2.0000     -12.068641      -328.4044
   6   2.0000     -12.057466      -328.1003
   7   2.0000     -12.056945      -328.0862
   8   2.0000     -12.053875      -328.0026
   9   2.0000      -1.730768       -47.0966
  10   2.0000      -1.713321       -46.6218
  11   2.0000      -1.399910       -38.0935
  12   2.0000      -1.308450       -35.6047
  13   2.0000      -1.291914       -35.1548
  14   2.0000      -1.200246       -32.6604
  15   2.0000      -1.145830       -31.1796
  16   2.0000      -1.120084       -30.4790
  17   2.0000      -1.072439       -29.1826
  18   2.0000      -1.028742       -27.9935
  19   2.0000      -1.016330       -27.6557
  20   2.0000      -0.989684       -26.9307
  21   2.0000      -0.959815       -26.1179
  22   2.0000      -0.943875       -25.6841
  23   2.0000      -0.912492       -24.8302
  24   2.0000      -0.907425       -24.6923
  25   2.0000      -0.898737       -24.4559
  26   2.0000      -0.886771       -24.1303
  27   2.0000      -0.816814       -22.2266
  28   2.0000      -0.802102       -21.8263
  29   2.0000      -0.781921       -21.2771
  30   2.0000      -0.657892       -17.9022
  31   2.0000      -0.655819       -17.8457
  32   0.0000      -0.350224        -9.5301
  33   0.0000      -0.244705        -6.6588
  34   0.0000      -0.216453        -5.8900
  35   0.0000      -0.139483        -3.7955
  36   0.0000      -0.069734        -1.8976

MULLIKEN ATOMIC CHARGES
-----------------------
   0 C :   -0.215784
   1 C :   -0.220680
   2 C :    0.284890
   3 C :   -0.236429
   4 C :   -0.179794
   5 C :    0.118335
   6 C :    0.152080
   7 O :   -0.454591
   8 O :   -0.441997
   9 H :    0.165776
  10 H :    0.177631
  11 H :    0.164132
  12 H :    0.174084
  13 H :    0.127472
  14 H :    0.384876
Sum of atomic charges:   -0.0000000

LOEWDIN ATOMIC CHARGES
----------------------
   0 C :   -0.072218
   1 C :   -0.125565
   2 C :   -0.246436
   3 C :   -0.124561
   4 C :   -0.076967
   5 C :   -0.189653
   6 C :   -0.227343
   7 O :   -0.008455
   8 O :    0.075625
   9 H :    0.159634
  10 H :    0.160497
  11 H :    0.158257
  12 H :    0.163693
  13 H :    0.135889
  14 H :    0.217602

  Mayer bond orders larger than 0.100000
B(  0-C ,  1-C ) :   1.4531 B(  0-C ,  5-C ) :   1.2732 B(  0-C ,  9-H ) :   0.9554
B(  1-C ,  2-C ) :   1.3234 B(  1-C , 10-H ) :   0.9658 B(  2-C ,  3-C ) :   1.3599
B(  2-C ,  8-O ) :   1.1484 B(  3-C ,  4-C ) :   1.4610 B(  3-C , 11-H ) :   0.9784
B(  4-C ,  5-C ) :   1.3300 B(  4-C , 12-H ) :   0.9669 B(  5-C ,  6-C ) :   0.9826
B(  5-C ,  7-O ) :  -0.1278 B(  6-C ,  7-O ) :   1.9754 B(  6-C , 13-H ) :   0.9994
B(  8-O , 14-H ) :   0.8419

FINAL SINGLE POINT ENERGY      -420.837683730008

DIPOLE MOMENT
-------------

Method             : SCF
Type of density    : Electron Density
Multiplicity       :   1
Irrep              :   0
Energy             :  -420.8452230748081320 Eh
Relativity type    :
Basis              : AO
                                X                 Y                 Z
Electronic contribution:     -0.173615565      -0.429036692      -0.000140310
Nuclear contribution   :      2.144978727       0.576773349       0.000329790
                        -----------------------------------------
Total Dipole Moment    :      1.971363162       0.147736657       0.000189480
                        -----------------------------------------
Magnitude (a.u.)       :      1.976891214
Magnitude (Debye)      :      5.024858135

Rotational constants in cm-1:             0.169393             0.033316             0.027840
Rotational constants in MHz :          5078.265914           998.790874           834.635225

                             ****ORCA TERMINATED NORMALLY****
TOTAL RUN TIME: 0 days 0 hours 2 minutes 33 seconds 871 msec
