                         Program Version 6.0.0  -   RELEASE  -
|  1> ! pbe def2-sv(p) def2/J RI DEFGRID1 loosescf d4 GCP(DFT/SV(P)) printgap
|  2> %output
|  3>     printlevel normal
|  4> end
|  5> * xyz 0 1
|  6> C 2.0585894043 -1.0443810459 -5.38683e-05
|  7> C 2.3401904314 0.3173417143 -0.0002130427
|  8> C 1.3183642463 1.2441670809 -0.0001791432
|  9> C -0.0161529541 0.8369731264 0.0001516559
| 10> C -0.3099083282 -0.5444290907 6.74911e-05
| 11> C 0.7477644651 -1.4628348557 0.0001920908
| 12> C -1.6722321121 -1.0439746813 -0.000153475
| 13> O -2.698743238 -0.3929520999 -0.0002550584
| 14> O -1.0234970528 1.7200318982 0.0003631626
| 15> H 2.860601948 -1.7645050678 -0.0002342916
| 16> H 3.3644568493 0.6554546225 0.0004901754
| 17> H 1.5472057684 2.2995556236 -0.0001132406
| 18> H 0.510194907 -2.5158765639 0.0008177929
| 19> H -1.7291073766 -2.150835998 -0.0001157316
| 20> H -0.6935883598 2.6342791939 -0.0003169783
| 21> *
| 22>
| 23>                          ****END OF INPUT****

CARTESIAN COORDINATES (ANGSTROEM)
---------------------------------
  C      2.058589   -1.044381   -0.000054
  C      2.340190    0.317342   -0.000213
  C      1.318364    1.244167   -0.000179
  C     -0.016153    0.836973    0.000152
  C     -0.309908   -0.544429    0.000067
  C      0.747764   -1.462835    0.000192
  C     -1.672232   -1.043975   -0.000153
  O     -2.698743   -0.392952   -0.000255
  O     -1.023497    1.720032    0.000363
  H      2.860602   -1.764505   -0.000234
  H      3.364457    0.655455    0.000490
  H      1.547206    2.299556   -0.000113
  H      0.510195   -2.515877    0.000818
  H     -1.729107   -2.150836   -0.000116
  H     -0.693588    2.634279   -0.000317

 Total Charge           Charge          ....    0
 Multiplicity           Mult            ....    1
 Number of Electrons    NEL             ....   64
 Basis Dimension        Dim             ....  138

ORBITAL ENERGIES
----------------

  NO   OCC          E(Eh)            E(eV)
   0   2.0000     -18.801645      -511.6188
   1   2.0000     -18.733746      -509.7711
   2   2.0000      -9.977359      -271.4977
   3   2.0000      -9.959875      -271.0220
   4   2.0000      -9.914255      -269.7806
   5   2.0000      -9.911942      -269.7177
   6   2.0000      -9.909039      -269.6386
   7   2.0000      -9.907266      -269.5904
   8   2.0000      -9.900783      -269.4140
   9   2.0000      -0.987411       -26.8688
  10   2.0000      -0.925326       -25.1794
  11   2.0000      -0.789407       -21.4809
  12   2.0000      -0.702586       -19.1183
  13   2.0000      -0.680796       -18.5254
  14   2.0000      -0.591810       -16.1040
  15   2.0000      -0.582421       -15.8485
  16   2.0000      -0.525443       -14.2980
  17   2.0000      -0.499296       -13.5865
  18   2.0000      -0.453815       -12.3489
  19   2.0000      -0.437160       -11.8957
  20   2.0000      -0.406789       -11.0693
  21   2.0000      -0.393911       -10.7189
  22   2.0000      -0.390748       -10.6328
  23   2.0000      -0.372679       -10.1411
  24   2.0000      -0.343725        -9.3532
  25   2.0000      -0.337619        -9.1871
  26   2.0000      -0.330910        -9.0045
  27   2.0000      -0.315621        -8.5885
  28   2.0000      -0.314337        -8.5536
  29   2.0000      -0.246011        -6.6943
  30   2.0000      -0.213626        -5.8131
  31   2.0000      -0.190300        -5.1783
  32   0.0000      -0.087940        -2.3930
  33   0.0000      -0.039464        -1.0739
  34   0.0000       0.005795         0.1577
  35   0.0000       0.011387         0.3099
  36   0.0000       0.038031         1.0349

MULLIKEN ATOMIC CHARGES
-----------------------
   0 C :   -0.041436
   1 C :   -0.037283
   2 C :   -0.162307
   3 C :    0.177187
   4 C :    0.031750
   5 C :   -0.108974
   6 C :    0.014937
   7 O :   -0.151816
   8 O :   -0.275363
   9 H :    0.055773
  10 H :    0.063149
  11 H :    0.030706
  12 H :    0.055480
  13 H :    0.026884
  14 H :    0.321314
Sum of atomic charges:   -0.0000000

LOEWDIN ATOMIC CHARGES
----------------------
   0 C :   -0.146014
   1 C :   -0.095612
   2 C :   -0.173035
   3 C :    0.050918
   4 C :   -0.116746
   5 C :   -0.087469
   6 C :   -0.006693
   7 O :   -0.124845
   8 O :   -0.185653
   9 H :    0.126955
  10 H :    0.129173
  11 H :    0.123461
  12 H :    0.128859
  13 H :    0.075225
  14 H :    0.301476

  Mayer bond orders larger than 0.100000
B(  0-C ,  1-C ) :   1.3396 B(  0-C ,  5-C ) :   1.3844 B(  0-C ,  9-H ) :   0.9682
B(  1-C ,  2-C ) :   1.3804 B(  1-C , 10-H ) :   0.9615 B(  2-C ,  3-C ) :   1.3068
B(  2-C , 11-H ) :   0.9547 B(  3-C ,  4-C ) :   1.3026 B(  3-C ,  8-O ) :   1.2953
B(  4-C ,  5-C ) :   1.3351 B(  4-C ,  6-C ) :   0.9966 B(  5-C , 12-H ) :   0.9576
B(  6-C ,  7-O ) :   2.1626 B(  6-C , 13-H ) :   0.9169 B(  8-O , 14-H ) :   0.8325

Dispersion correction           -0.015843021
FINAL SINGLE POINT ENERGY      -419.921235228869

DIPOLE MOMENT
-------------

Method             : SCF
Type of density    : Electron Density
Multiplicity       :   1
Irrep              :   0
Energy             :  -419.9669489258328667 Eh
Relativity type    :
Basis              : AO
                                X                 Y                 Z
Electronic contribution:     -3.970018224       1.274786294      -0.000531842
Nuclear contribution   :      5.442302239      -0.770202615       0.000496702
                        -----------------------------------------
Total Dipole Moment    :      1.472284015       0.504583680      -0.000035140
                        -----------------------------------------
Magnitude (a.u.)       :      1.556349868
Magnitude (Debye)      :      3.955926982

Rotational constants in cm-1:             0.105114             0.049850             0.033814
Rotational constants in MHz :          3151.246828          1494.456156          1013.711025

                             ****ORCA TERMINATED NORMALLY****
TOTAL RUN TIME: 0 days 0 hours 0 minutes 8 seconds 883 msec
