                         Program Version 6.0.0  -   RELEASE  -
|  1> ! r2scan-3c def2/J RI DEFGRID2 scfconv6 printgap
|  2> %output
|  3>     printlevel normal
|  4> end
|  5> %cpcm
|  6>     smd true
|  7>     smdsolvent "water"
|  8> end
|  9> * xyz 0 1
| 10> C -1.3631925946 -0.8758612355 0.2335817658
| 11> S 0.0001623271 0.1577241197 -0.4348444298
| 12> O 0.0016306975 1.4033339505 0.3887423882
| 13> C 1.3612110811 -0.8788930576 0.233559975
| 14> H -1.2607055934 -0.9645437935 1.3088313467
| 15> H -1.315183983 -1.8420857249 -0.2515496293
| 16> H -2.2965014323 -0.3796243517 -0.009204825
| 17> H 1.2600906963 -0.9644912245 1.3092191156
| 18> H 2.2958431711 -0.3863974887 -0.0119641811
| 19> H 1.3090204561 -1.8461771674 -0.2491458709
| 20> *
| 21>
| 22>                          ****END OF INPUT****

CARTESIAN COORDINATES (ANGSTROEM)
---------------------------------
  C     -1.363193   -0.875861    0.233582
  S      0.000162    0.157724   -0.434844
  O      0.001631    1.403334    0.388742
  C      1.361211   -0.878893    0.233560
  H     -1.260706   -0.964544    1.308831
  H     -1.315184   -1.842086   -0.251550
  H     -2.296501   -0.379624   -0.009205
  H      1.260091   -0.964491    1.309219
  H      2.295843   -0.386397   -0.011964
  H      1.309020   -1.846177   -0.249146

 Total Charge           Charge          ....    0
 Multiplicity           Mult            ....    1
 Number of Electrons    NEL             ....   42
 Basis Dimension        Dim             ....  119

ORBITAL ENERGIES
----------------

  NO   OCC          E(Eh)            E(eV)
   0   2.0000     -88.663095     -2412.6455
   1   2.0000     -18.918680      -514.8035
   2   2.0000     -10.045589      -273.3544
   3   2.0000     -10.045571      -273.3539
   4   2.0000      -7.946244      -216.2283
   5   2.0000      -5.892938      -160.3550
   6   2.0000      -5.891072      -160.3042
   7   2.0000      -5.884796      -160.1334
   8   2.0000      -0.988452       -26.8972
   9   2.0000      -0.748617       -20.3709
  10   2.0000      -0.675951       -18.3936
  11   2.0000      -0.566486       -15.4149
  12   2.0000      -0.426460       -11.6046
  13   2.0000      -0.421570       -11.4715
  14   2.0000      -0.420701       -11.4479
  15   2.0000      -0.380545       -10.3552
  16   2.0000      -0.377571       -10.2742
  17   2.0000      -0.351943        -9.5769
  18   2.0000      -0.334080        -9.0908
  19   2.0000      -0.250578        -6.8186
  20   2.0000      -0.211950        -5.7675
  21   0.0000       0.013422         0.3652
  22   0.0000       0.014283         0.3887
  23   0.0000       0.062759         1.7078
  24   0.0000       0.109422         2.9775
  25   0.0000       0.153207         4.1690

MULLIKEN ATOMIC CHARGES
-----------------------
   0 C :   -0.454827
   1 S :    0.413679
   2 O :   -0.648846
   3 C :   -0.454777
   4 H :    0.196227
   5 H :    0.186028
   6 H :    0.190132
   7 H :    0.196263
   8 H :    0.190152
   9 H :    0.185969
Sum of atomic charges:    0.0000000

LOEWDIN ATOMIC CHARGES
----------------------
   0 C :   -0.429190
   1 S :    0.603389
   2 O :   -0.818729
   3 C :   -0.429190
   4 H :    0.177951
   5 H :    0.180883
   6 H :    0.178010
   7 H :    0.177970
   8 H :    0.178001
   9 H :    0.180904

  Mayer bond orders larger than 0.100000
B(  0-C ,  1-S ) :   0.9220 B(  0-C ,  4-H ) :   0.9371 B(  0-C ,  5-H ) :   0.9296
B(  0-C ,  6-H ) :   0.9332 B(  1-S ,  2-O ) :   1.3894 B(  1-S ,  3-C ) :   0.9220
B(  3-C ,  7-H ) :   0.9371 B(  3-C ,  8-H ) :   0.9333 B(  3-C ,  9-H ) :   0.9296

Dispersion correction           -0.002103280
FINAL SINGLE POINT ENERGY      -553.148906772870

DIPOLE MOMENT
-------------

Method             : SCF
Type of density    : Electron Density
Multiplicity       :   1
Irrep              :   0
Energy             :  -553.1584010844889008 Eh
Relativity type    :
Basis              : AO
                                X                 Y                 Z
Electronic contribution:      0.004352016       3.741732554      -2.217017556
Nuclear contribution   :     -0.006957332      -5.972336131       1.984773790
                        -----------------------------------------
Total Dipole Moment    :     -0.002605317      -2.230603577      -0.232243766
                        -----------------------------------------
Magnitude (a.u.)       :      2.242662764
Magnitude (Debye)      :      5.700395728

Rotational constants in cm-1:             0.230308             0.224024             0.138516
Rotational constants in MHz :          6904.467863          6716.064656          4152.593893

                             ****ORCA TERMINATED NORMALLY****
TOTAL RUN TIME: 0 days 0 hours 0 minutes 13 seconds 523 msec
