                         Program Version 6.0.0  -   RELEASE  -
|  1> ! pbe def2-sv(p) def2/J RI DEFGRID1 loosescf d4 GCP(DFT/SV(P)) printgap
|  2> %output
|  3>     printlevel normal
|  4> end
|  5> * xyz 0 1
|  6> C -3.0829903909 0.4062566804 0.0002016151
|  7> C -1.6252395053 0.0548488153 -0.0002333035
|  8> C -1.1974958239 -1.2625706734 -0.0001866917
|  9> C 0.1534399309 -1.5680232445 -4.6132e-06
| 10> C 1.0999736548 -0.555671222 7.3937e-05
| 11> C 0.6912658305 0.7836984492 6.83741e-05
| 12> C -0.6634377495 1.060534325 -6.31356e-05
| 13> C 1.7252359611 1.8669084841 -6.10487e-05
| 14> O 2.4414269016 -0.8139917538 0.0001056283
| 15> H -3.3309137069 0.9914661135 0.8843403637
| 16> H -3.3283824848 1.00516213 -0.8753512754
| 17> H -3.6970745122 -0.4901164992 -0.0074720622
| 18> H -1.92061346 -2.064949251 -0.0002520458
| 19> H 0.4707146919 -2.6014956913 -4.73395e-05
| 20> H -0.983506171 2.0929281254 -4.09762e-05
| 21> H 2.366680811 1.7693689739 0.8746415338
| 22> H 2.361384104 1.774193111 -0.879179178
| 23> H 1.2592393264 2.8478221535 0.0039156874
| 24> H 2.5971963398 -1.7695081477 0.0002099118
| 25> *
| 26>
| 27>                          ****END OF INPUT****

CARTESIAN COORDINATES (ANGSTROEM)
---------------------------------
  C     -3.082990    0.406257    0.000202
  C     -1.625240    0.054849   -0.000233
  C     -1.197496   -1.262571   -0.000187
  C      0.153440   -1.568023   -0.000005
  C      1.099974   -0.555671    0.000074
  C      0.691266    0.783698    0.000068
  C     -0.663438    1.060534   -0.000063
  C      1.725236    1.866908   -0.000061
  O      2.441427   -0.813992    0.000106
  H     -3.330914    0.991466    0.884340
  H     -3.328382    1.005162   -0.875351
  H     -3.697075   -0.490116   -0.007472
  H     -1.920613   -2.064949   -0.000252
  H      0.470715   -2.601496   -0.000047
  H     -0.983506    2.092928   -0.000041
  H      2.366681    1.769369    0.874642
  H      2.361384    1.774193   -0.879179
  H      1.259239    2.847822    0.003916
  H      2.597196   -1.769508    0.000210

 Total Charge           Charge          ....    0
 Multiplicity           Mult            ....    1
 Number of Electrons    NEL             ....   66
 Basis Dimension        Dim             ....  146

ORBITAL ENERGIES
----------------

  NO   OCC          E(Eh)            E(eV)
   0   2.0000     -18.778752      -510.9958
   1   2.0000      -9.942041      -270.5367
   2   2.0000      -9.891603      -269.1642
   3   2.0000      -9.889214      -269.0992
   4   2.0000      -9.884760      -268.9780
   5   2.0000      -9.883624      -268.9471
   6   2.0000      -9.881263      -268.8828
   7   2.0000      -9.877616      -268.7836
   8   2.0000      -9.874778      -268.7064
   9   2.0000      -0.958446       -26.0807
  10   2.0000      -0.770809       -20.9748
  11   2.0000      -0.698073       -18.9955
  12   2.0000      -0.677838       -18.4449
  13   2.0000      -0.613289       -16.6884
  14   2.0000      -0.602885       -16.4053
  15   2.0000      -0.553396       -15.0587
  16   2.0000      -0.508065       -13.8252
  17   2.0000      -0.485374       -13.2077
  18   2.0000      -0.432581       -11.7711
  19   2.0000      -0.408283       -11.1099
  20   2.0000      -0.382203       -10.4003
  21   2.0000      -0.381782       -10.3888
  22   2.0000      -0.366359        -9.9691
  23   2.0000      -0.358701        -9.7608
  24   2.0000      -0.350664        -9.5421
  25   2.0000      -0.338912        -9.2223
  26   2.0000      -0.335065        -9.1176
  27   2.0000      -0.317567        -8.6414
  28   2.0000      -0.300658        -8.1813
  29   2.0000      -0.284370        -7.7381
  30   2.0000      -0.280404        -7.6302
  31   2.0000      -0.216194        -5.8829
  32   2.0000      -0.182874        -4.9763
  33   0.0000      -0.025919        -0.7053
  34   0.0000      -0.011636        -0.3166
  35   0.0000       0.024131         0.6566
  36   0.0000       0.051742         1.4080
  37   0.0000       0.064869         1.7652

MULLIKEN ATOMIC CHARGES
-----------------------
   0 C :   -0.222114
   1 C :    0.081193
   2 C :   -0.132468
   3 C :   -0.162423
   4 C :    0.184166
   5 C :   -0.007938
   6 C :   -0.219100
   7 C :   -0.204606
   8 O :   -0.340428
   9 H :    0.110637
  10 H :    0.110400
  11 H :    0.096168
  12 H :    0.031792
  13 H :    0.017972
  14 H :    0.018117
  15 H :    0.114594
  16 H :    0.114639
  17 H :    0.093172
  18 H :    0.316227
Sum of atomic charges:    0.0000000

LOEWDIN ATOMIC CHARGES
----------------------
   0 C :   -0.322432
   1 C :   -0.068061
   2 C :   -0.127349
   3 C :   -0.175554
   4 C :    0.019837
   5 C :   -0.067830
   6 C :   -0.118914
   7 C :   -0.318827
   8 O :   -0.240018
   9 H :    0.128808
  10 H :    0.128701
  11 H :    0.121813
  12 H :    0.119623
  13 H :    0.117837
  14 H :    0.118738
  15 H :    0.132271
  16 H :    0.132308
  17 H :    0.121539
  18 H :    0.297510

  Mayer bond orders larger than 0.100000
B(  0-C ,  1-C ) :   1.0937 B(  0-C ,  9-H ) :   0.9376 B(  0-C , 10-H ) :   0.9378
B(  0-C , 11-H ) :   0.9460 B(  1-C ,  2-C ) :   1.4100 B(  1-C ,  6-C ) :   1.3214
B(  2-C ,  3-C ) :   1.3318 B(  2-C , 12-H ) :   0.9585 B(  3-C ,  4-C ) :   1.3284
B(  3-C , 13-H ) :   0.9581 B(  4-C ,  5-C ) :   1.3704 B(  4-C ,  8-O ) :   1.2105
B(  5-C ,  6-C ) :   1.4183 B(  5-C ,  7-C ) :   1.1092 B(  6-C , 14-H ) :   0.9651
B(  7-C , 15-H ) :   0.9323 B(  7-C , 16-H ) :   0.9323 B(  7-C , 17-H ) :   0.9392
B(  8-O , 18-H ) :   0.8416

Dispersion correction           -0.018954249
FINAL SINGLE POINT ENERGY      -385.240917658735

DIPOLE MOMENT
-------------

Method             : SCF
Type of density    : Electron Density
Multiplicity       :   1
Irrep              :   0
Energy             :  -385.2996765047167855 Eh
Relativity type    :
Basis              : AO
                                X                 Y                 Z
Electronic contribution:      3.950311804      -3.746478210      -0.000387095
Nuclear contribution   :     -3.909075439       3.323005400       0.000718908
                        -----------------------------------------
Total Dipole Moment    :      0.041236365      -0.423472810       0.000331813
                        -----------------------------------------
Magnitude (a.u.)       :      0.425475932
Magnitude (Debye)      :      1.081473873

Rotational constants in cm-1:             0.101362             0.043913             0.030990
Rotational constants in MHz :          3038.741420          1316.479611           929.045458

                             ****ORCA TERMINATED NORMALLY****
TOTAL RUN TIME: 0 days 0 hours 0 minutes 12 seconds 886 msec
