                         Program Version 6.0.0  -   RELEASE  -
|  1> ! r2scan-3c def2/J RI DEFGRID2 scfconv6 printgap
|  2> %output
|  3>     printlevel normal
|  4> end
|  5> * xyz 0 1
|  6> C 3.240837694 -0.108473324 1.0060480076
|  7> C 1.913074207 -0.1123190753 0.3325669835
|  8> C 1.3448077775 1.010580353 -0.134986583
|  9> C 0.043695651 1.0524000792 -0.7751547648
| 10> O -0.3810644963 2.0722797888 -1.313832401
| 11> C -0.7808195846 -0.2175566943 -0.6983284121
| 12> H -1.5135738968 -0.1969647259 -1.5123793062
| 13> C 0.1569397679 -1.4126069516 -0.8797629584
| 14> C 1.2411315781 -1.4396213209 0.1924385883
| 15> C -1.5617713861 -0.2101935717 0.6387716096
| 16> C -2.6003107657 0.9113075281 0.6276664249
| 17> C -2.2640139991 -1.5435574479 0.8929430786
| 18> H 3.5949456428 0.9032966179 1.1794571462
| 19> H 3.9673055872 -0.6336707732 0.3874469423
| 20> H 3.1789471505 -0.6375751063 1.9549387276
| 21> H 1.8558749647 1.9615294369 -0.0656753757
| 22> H -0.4104655811 -2.3421414657 -0.874411435
| 23> H 0.6311923031 -1.3199799748 -1.8605294041
| 24> H 0.8074189752 -1.7072199045 1.1599917662
| 25> H 1.9850505507 -2.2019365338 -0.0455711545
| 26> H -0.8558220464 -0.0146366705 1.4528619647
| 27> H -3.3729189481 0.7025829778 -0.109601431
| 28> H -2.1452556143 1.866624376 0.3748464586
| 29> H -3.0704554965 1.0033407267 1.6037880811
| 30> H -2.904624844 -1.453758305 1.766880463
| 31> H -1.5555463586 -2.3452771654 1.0760859039
| 32> H -2.8849161801 -1.8111980375 0.0411713812
| 33> *
| 34>
| 35>                          ****END OF INPUT****

CARTESIAN COORDINATES (ANGSTROEM)
---------------------------------
  C      3.240838   -0.108473    1.006048
  C      1.913074   -0.112319    0.332567
  C      1.344808    1.010580   -0.134987
  C      0.043696    1.052400   -0.775155
  O     -0.381064    2.072280   -1.313832
  C     -0.780820   -0.217557   -0.698328
  H     -1.513574   -0.196965   -1.512379
  C      0.156940   -1.412607   -0.879763
  C      1.241132   -1.439621    0.192439
  C     -1.561771   -0.210194    0.638772
  C     -2.600311    0.911308    0.627666
  C     -2.264014   -1.543557    0.892943
  H      3.594946    0.903297    1.179457
  H      3.967306   -0.633671    0.387447
  H      3.178947   -0.637575    1.954939
  H      1.855875    1.961529   -0.065675
  H     -0.410466   -2.342141   -0.874411
  H      0.631192   -1.319980   -1.860529
  H      0.807419   -1.707220    1.159992
  H      1.985051   -2.201937   -0.045571
  H     -0.855822   -0.014637    1.452862
  H     -3.372919    0.702583   -0.109601
  H     -2.145256    1.866624    0.374846
  H     -3.070455    1.003341    1.603788
  H     -2.904625   -1.453758    1.766880
  H     -1.555546   -2.345277    1.076086
  H     -2.884916   -1.811198    0.041171

 Total Charge           Charge          ....    0
 Multiplicity           Mult            ....    1
 Number of Electrons    NEL             ....   84
 Basis Dimension        Dim             ....  294

ORBITAL ENERGIES
----------------

  NO   OCC          E(Eh)            E(eV)
   0   2.0000     -18.921957      -514.8926
   1   2.0000     -10.102515      -274.9034
   2   2.0000     -10.069248      -273.9982
   3   2.0000     -10.048761      -273.4407
   4   2.0000     -10.042416      -273.2680
   5   2.0000     -10.042270      -273.2641
   6   2.0000     -10.039144      -273.1790
   7   2.0000     -10.036430      -273.1051
   8   2.0000     -10.030340      -272.9394
   9   2.0000     -10.021836      -272.7080
  10   2.0000     -10.009712      -272.3781
  11   2.0000      -0.984268       -26.7833
  12   2.0000      -0.827126       -22.5072
  13   2.0000      -0.780526       -21.2392
  14   2.0000      -0.730217       -19.8702
  15   2.0000      -0.701850       -19.0983
  16   2.0000      -0.665694       -18.1145
  17   2.0000      -0.650488       -17.7007
  18   2.0000      -0.591836       -16.1047
  19   2.0000      -0.549318       -14.9477
  20   2.0000      -0.537286       -14.6203
  21   2.0000      -0.484504       -13.1840
  22   2.0000      -0.455019       -12.3817
  23   2.0000      -0.438069       -11.9205
  24   2.0000      -0.427618       -11.6361
  25   2.0000      -0.415808       -11.3147
  26   2.0000      -0.409220       -11.1354
  27   2.0000      -0.397463       -10.8155
  28   2.0000      -0.378465       -10.2986
  29   2.0000      -0.374378       -10.1873
  30   2.0000      -0.367407        -9.9977
  31   2.0000      -0.360738        -9.8162
  32   2.0000      -0.353750        -9.6260
  33   2.0000      -0.348562        -9.4849
  34   2.0000      -0.337224        -9.1763
  35   2.0000      -0.320825        -8.7301
  36   2.0000      -0.311095        -8.4653
  37   2.0000      -0.304470        -8.2850
  38   2.0000      -0.292420        -7.9571
  39   2.0000      -0.284347        -7.7375
  40   2.0000      -0.241563        -6.5733
  41   2.0000      -0.199621        -5.4320
  42   0.0000      -0.077027        -2.0960
  43   0.0000       0.033394         0.9087
  44   0.0000       0.063113         1.7174
  45   0.0000       0.094864         2.5814
  46   0.0000       0.097504         2.6532

MULLIKEN ATOMIC CHARGES
-----------------------
   0 C :   -0.518518
   1 C :    0.198627
   2 C :   -0.287889
   3 C :    0.190466
   4 O :   -0.350150
   5 C :   -0.089332
   6 H :    0.196882
   7 C :   -0.392701
   8 C :   -0.303734
   9 C :   -0.091415
  10 C :   -0.510409
  11 C :   -0.496353
  12 H :    0.160585
  13 H :    0.169120
  14 H :    0.156689
  15 H :    0.168722
  16 H :    0.174891
  17 H :    0.172054
  18 H :    0.183149
  19 H :    0.164032
  20 H :    0.170272
  21 H :    0.149627
  22 H :    0.176623
  23 H :    0.146335
  24 H :    0.150468
  25 H :    0.145049
  26 H :    0.166911
Sum of atomic charges:    0.0000000

LOEWDIN ATOMIC CHARGES
----------------------
   0 C :   -0.385389
   1 C :   -0.065386
   2 C :   -0.167351
   3 C :    0.222080
   4 O :   -0.480281
   5 C :   -0.191394
   6 H :    0.184646
   7 C :   -0.273208
   8 C :   -0.278229
   9 C :   -0.218762
  10 C :   -0.404322
  11 C :   -0.411069
  12 H :    0.163691
  13 H :    0.169458
  14 H :    0.167205
  15 H :    0.183011
  16 H :    0.162593
  17 H :    0.168143
  18 H :    0.175788
  19 H :    0.168636
  20 H :    0.163408
  21 H :    0.156720
  22 H :    0.174399
  23 H :    0.150717
  24 H :    0.157412
  25 H :    0.149679
  26 H :    0.157805

  Mayer bond orders larger than 0.100000
B(  0-C ,  1-C ) :   0.8417 B(  0-C , 12-H ) :   0.9926 B(  0-C , 13-H ) :   0.9668
B(  0-C , 14-H ) :   0.9624 B(  1-C ,  2-C ) :   1.6703 B(  1-C ,  8-C ) :   0.8698
B(  2-C ,  3-C ) :   1.0973 B(  2-C , 15-H ) :   0.9379 B(  3-C ,  4-O ) :   1.9372
B(  3-C ,  5-C ) :   0.8998 B(  5-C ,  6-H ) :   0.9882 B(  5-C ,  7-C ) :   0.8187
B(  5-C ,  9-C ) :   0.8759 B(  7-C ,  8-C ) :   0.8910 B(  7-C , 16-H ) :   0.9868
B(  7-C , 17-H ) :   1.0035 B(  8-C , 18-H ) :   0.9637 B(  8-C , 19-H ) :   0.9632
B(  9-C , 10-C ) :   0.9263 B(  9-C , 11-C ) :   0.8574 B(  9-C , 20-H ) :   0.9515
B( 10-C , 21-H ) :   0.9846 B( 10-C , 22-H ) :   0.9572 B( 10-C , 23-H ) :   0.9779
B( 11-C , 24-H ) :   0.9715 B( 11-C , 25-H ) :   0.9705 B( 11-C , 26-H ) :   0.9943

Dispersion correction           -0.009833085
FINAL SINGLE POINT ENERGY      -465.793883202188

DIPOLE MOMENT
-------------

Method             : SCF
Type of density    : Electron Density
Multiplicity       :   1
Irrep              :   0
Energy             :  -465.7955738799823848 Eh
Relativity type    :
Basis              : AO
                                X                 Y                 Z
Electronic contribution:      3.246131449       6.342264873      -5.309136192
Nuclear contribution   :     -2.531986681      -7.687552286       6.106088987
                        -----------------------------------------
Total Dipole Moment    :      0.714144768      -1.345287412       0.796952795
                        -----------------------------------------
Magnitude (a.u.)       :      1.718992359
Magnitude (Debye)      :      4.369331339

Rotational constants in cm-1:             0.051806             0.029479             0.023083
Rotational constants in MHz :          1553.094293           883.747172           692.024656

                             ****ORCA TERMINATED NORMALLY****
TOTAL RUN TIME: 0 days 0 hours 0 minutes 40 seconds 986 msec
