                         Program Version 6.0.0  -   RELEASE  -
|  1> ! r2scan-3c def2/J RI DEFGRID2 scfconv6 printgap
|  2> %output
|  3>     printlevel normal
|  4> end
|  5> %cpcm
|  6>     smd true
|  7>     smdsolvent "water"
|  8> end
|  9> * xyz 0 1
| 10> C 3.240837694 -0.108473324 1.0060480076
| 11> C 1.913074207 -0.1123190753 0.3325669835
| 12> C 1.3448077775 1.010580353 -0.134986583
| 13> C 0.043695651 1.0524000792 -0.7751547648
| 14> O -0.3810644963 2.0722797888 -1.313832401
| 15> C -0.7808195846 -0.2175566943 -0.6983284121
| 16> H -1.5135738968 -0.1969647259 -1.5123793062
| 17> C 0.1569397679 -1.4126069516 -0.8797629584
| 18> C 1.2411315781 -1.4396213209 0.1924385883
| 19> C -1.5617713861 -0.2101935717 0.6387716096
| 20> C -2.6003107657 0.9113075281 0.6276664249
| 21> C -2.2640139991 -1.5435574479 0.8929430786
| 22> H 3.5949456428 0.9032966179 1.1794571462
| 23> H 3.9673055872 -0.6336707732 0.3874469423
| 24> H 3.1789471505 -0.6375751063 1.9549387276
| 25> H 1.8558749647 1.9615294369 -0.0656753757
| 26> H -0.4104655811 -2.3421414657 -0.874411435
| 27> H 0.6311923031 -1.3199799748 -1.8605294041
| 28> H 0.8074189752 -1.7072199045 1.1599917662
| 29> H 1.9850505507 -2.2019365338 -0.0455711545
| 30> H -0.8558220464 -0.0146366705 1.4528619647
| 31> H -3.3729189481 0.7025829778 -0.109601431
| 32> H -2.1452556143 1.866624376 0.3748464586
| 33> H -3.0704554965 1.0033407267 1.6037880811
| 34> H -2.904624844 -1.453758305 1.766880463
| 35> H -1.5555463586 -2.3452771654 1.0760859039
| 36> H -2.8849161801 -1.8111980375 0.0411713812
| 37> *
| 38>
| 39>                          ****END OF INPUT****

CARTESIAN COORDINATES (ANGSTROEM)
---------------------------------
  C      3.240838   -0.108473    1.006048
  C      1.913074   -0.112319    0.332567
  C      1.344808    1.010580   -0.134987
  C      0.043696    1.052400   -0.775155
  O     -0.381064    2.072280   -1.313832
  C     -0.780820   -0.217557   -0.698328
  H     -1.513574   -0.196965   -1.512379
  C      0.156940   -1.412607   -0.879763
  C      1.241132   -1.439621    0.192439
  C     -1.561771   -0.210194    0.638772
  C     -2.600311    0.911308    0.627666
  C     -2.264014   -1.543557    0.892943
  H      3.594946    0.903297    1.179457
  H      3.967306   -0.633671    0.387447
  H      3.178947   -0.637575    1.954939
  H      1.855875    1.961529   -0.065675
  H     -0.410466   -2.342141   -0.874411
  H      0.631192   -1.319980   -1.860529
  H      0.807419   -1.707220    1.159992
  H      1.985051   -2.201937   -0.045571
  H     -0.855822   -0.014637    1.452862
  H     -3.372919    0.702583   -0.109601
  H     -2.145256    1.866624    0.374846
  H     -3.070455    1.003341    1.603788
  H     -2.904625   -1.453758    1.766880
  H     -1.555546   -2.345277    1.076086
  H     -2.884916   -1.811198    0.041171

 Total Charge           Charge          ....    0
 Multiplicity           Mult            ....    1
 Number of Electrons    NEL             ....   84
 Basis Dimension        Dim             ....  294

ORBITAL ENERGIES
----------------

  NO   OCC          E(Eh)            E(eV)
   0   2.0000     -18.937457      -515.3144
   1   2.0000     -10.112267      -275.1688
   2   2.0000     -10.065115      -273.8857
   3   2.0000     -10.034769      -273.0599
   4   2.0000     -10.031819      -272.9797
   5   2.0000     -10.031212      -272.9631
   6   2.0000     -10.025548      -272.8090
   7   2.0000     -10.024643      -272.7844
   8   2.0000     -10.023433      -272.7515
   9   2.0000     -10.009128      -272.3622
  10   2.0000     -10.007081      -272.3065
  11   2.0000      -1.001884       -27.2627
  12   2.0000      -0.818541       -22.2736
  13   2.0000      -0.772242       -21.0138
  14   2.0000      -0.718832       -19.5604
  15   2.0000      -0.695148       -18.9159
  16   2.0000      -0.653870       -17.7927
  17   2.0000      -0.643212       -17.5027
  18   2.0000      -0.581939       -15.8354
  19   2.0000      -0.545858       -14.8535
  20   2.0000      -0.530477       -14.4350
  21   2.0000      -0.475147       -12.9294
  22   2.0000      -0.444784       -12.1032
  23   2.0000      -0.433294       -11.7905
  24   2.0000      -0.421448       -11.4682
  25   2.0000      -0.409644       -11.1470
  26   2.0000      -0.405599       -11.0369
  27   2.0000      -0.390871       -10.6361
  28   2.0000      -0.368571       -10.0293
  29   2.0000      -0.365675        -9.9505
  30   2.0000      -0.360583        -9.8120
  31   2.0000      -0.351008        -9.5514
  32   2.0000      -0.346783        -9.4365
  33   2.0000      -0.344664        -9.3788
  34   2.0000      -0.331115        -9.0101
  35   2.0000      -0.312998        -8.5171
  36   2.0000      -0.304262        -8.2794
  37   2.0000      -0.298344        -8.1184
  38   2.0000      -0.283799        -7.7226
  39   2.0000      -0.277175        -7.5423
  40   2.0000      -0.239180        -6.5084
  41   2.0000      -0.215062        -5.8521
  42   0.0000      -0.078552        -2.1375
  43   0.0000       0.034608         0.9417
  44   0.0000       0.077864         2.1188
  45   0.0000       0.105722         2.8768
  46   0.0000       0.110611         3.0099

MULLIKEN ATOMIC CHARGES
-----------------------
   0 C :   -0.553135
   1 C :    0.216290
   2 C :   -0.360241
   3 C :    0.236296
   4 O :   -0.465696
   5 C :   -0.099828
   6 H :    0.202014
   7 C :   -0.402995
   8 C :   -0.311038
   9 C :   -0.045750
  10 C :   -0.567258
  11 C :   -0.542648
  12 H :    0.175194
  13 H :    0.192746
  14 H :    0.181507
  15 H :    0.188459
  16 H :    0.188650
  17 H :    0.182513
  18 H :    0.210412
  19 H :    0.187469
  20 H :    0.185674
  21 H :    0.167662
  22 H :    0.165160
  23 H :    0.164111
  24 H :    0.160775
  25 H :    0.166006
  26 H :    0.177652
Sum of atomic charges:    0.0000000

LOEWDIN ATOMIC CHARGES
----------------------
   0 C :   -0.387084
   1 C :   -0.031671
   2 C :   -0.194193
   3 C :    0.227142
   4 O :   -0.573516
   5 C :   -0.189968
   6 H :    0.186008
   7 C :   -0.270509
   8 C :   -0.274024
   9 C :   -0.213468
  10 C :   -0.414978
  11 C :   -0.415052
  12 H :    0.167778
  13 H :    0.180829
  14 H :    0.178476
  15 H :    0.187311
  16 H :    0.169126
  17 H :    0.170992
  18 H :    0.188499
  19 H :    0.179392
  20 H :    0.169168
  21 H :    0.159327
  22 H :    0.166107
  23 H :    0.156510
  24 H :    0.159809
  25 H :    0.157509
  26 H :    0.160479

  Mayer bond orders larger than 0.100000
B(  0-C ,  1-C ) :   0.8492 B(  0-C , 12-H ) :   0.9889 B(  0-C , 13-H ) :   0.9531
B(  0-C , 14-H ) :   0.9528 B(  1-C ,  2-C ) :   1.6547 B(  1-C ,  8-C ) :   0.8750
B(  2-C ,  3-C ) :   1.0932 B(  2-C , 15-H ) :   0.9342 B(  3-C ,  4-O ) :   1.8548
B(  3-C ,  5-C ) :   0.9088 B(  5-C ,  6-H ) :   0.9848 B(  5-C ,  7-C ) :   0.8207
B(  5-C ,  9-C ) :   0.8735 B(  7-C ,  8-C ) :   0.8751 B(  7-C , 16-H ) :   0.9801
B(  7-C , 17-H ) :   1.0050 B(  8-C , 18-H ) :   0.9548 B(  8-C , 19-H ) :   0.9562
B(  9-C , 10-C ) :   0.8901 B(  9-C , 11-C ) :   0.8540 B(  9-C , 20-H ) :   0.9482
B( 10-C , 21-H ) :   0.9859 B( 10-C , 22-H ) :   0.9638 B( 10-C , 23-H ) :   0.9734
B( 11-C , 24-H ) :   0.9696 B( 11-C , 25-H ) :   0.9654 B( 11-C , 26-H ) :   0.9914

Dispersion correction           -0.009833085
FINAL SINGLE POINT ENERGY      -465.802894623379

DIPOLE MOMENT
-------------

Method             : SCF
Type of density    : Electron Density
Multiplicity       :   1
Irrep              :   0
Energy             :  -465.8045853011738018 Eh
Relativity type    :
Basis              : AO
                                X                 Y                 Z
Electronic contribution:      3.664817045       5.488837893      -4.832632602
Nuclear contribution   :     -2.531986681      -7.687552286       6.106088987
                        -----------------------------------------
Total Dipole Moment    :      1.132830364      -2.198714393       1.273456385
                        -----------------------------------------
Magnitude (a.u.)       :      2.781967070
Magnitude (Debye)      :      7.071198335

Rotational constants in cm-1:             0.051806             0.029479             0.023083
Rotational constants in MHz :          1553.094293           883.747172           692.024656

                             ****ORCA TERMINATED NORMALLY****
TOTAL RUN TIME: 0 days 0 hours 0 minutes 51 seconds 808 msec
