                         Program Version 6.0.0  -   RELEASE  -
|  1> ! wb97x-v def2-tzvp def2/J RIJCOSX DEFGRID2 scfconv7 GCP(DFT/TZ) printgap
|  2> %output
|  3>     printlevel normal
|  4> end
|  5> * xyz 0 1
|  6> C -2.4207767222963383 -0.3115232137195362 -1.2380268363940603
|  7> C -1.7224741673949249 0.04156404565141989 0.04664652647811275
|  8> C -2.4196531088217585 0.32149794904631973 1.1579019662394412
|  9> C -0.2399471689767825 0.05000754530935806 0.03716854523850814
| 10> C 0.4790016782101267 -0.7683510550897248 -0.8477064571581959
| 11> C 1.8710158114108553 -0.7738825137130148 -0.8472041003356802
| 12> C 2.577614139468901 0.05007132086166504 0.02443036024456988
| 13> C 1.8773113865937394 0.8834575852537987 0.8958631403433811
| 14> C 0.487837853857116 0.8855760050043804 0.9001875331270497
| 15> H -2.258170592464697 -1.363030759467405 -1.5026688147297989
| 16> H -3.4976699572806185 -0.15152665635984516 -1.1478675998648766
| 17> H -2.0406128647019792 0.2890118113088066 -2.072448188468583
| 18> H -1.934247691758771 0.5330361886457229 2.105794051121878
| 19> H -3.5056444816978005 0.3273527024807041 1.1444773765438607
| 20> H -0.05004918582062048 -1.4209582073456042 -1.5339411227215576
| 21> H 2.4044277491965853 -1.424409720600595 -1.5337622505496984
| 22> H 3.662946236859376 0.05177511899115852 0.018566697481482743
| 23> H 2.416870493340266 1.5453015553650598 1.5665037204688645
| 24> H -0.04224454692135309 1.560577641247233 1.5646386600520719
| 25> *
| 26>
| 27>                          ****END OF INPUT****

CARTESIAN COORDINATES (ANGSTROEM)
---------------------------------
  C     -2.420777   -0.311523   -1.238027
  C     -1.722474    0.041564    0.046647
  C     -2.419653    0.321498    1.157902
  C     -0.239947    0.050008    0.037169
  C      0.479002   -0.768351   -0.847706
  C      1.871016   -0.773883   -0.847204
  C      2.577614    0.050071    0.024430
  C      1.877311    0.883458    0.895863
  C      0.487838    0.885576    0.900188
  H     -2.258171   -1.363031   -1.502669
  H     -3.497670   -0.151527   -1.147868
  H     -2.040613    0.289012   -2.072448
  H     -1.934248    0.533036    2.105794
  H     -3.505644    0.327353    1.144477
  H     -0.050049   -1.420958   -1.533941
  H      2.404428   -1.424410   -1.533762
  H      3.662946    0.051775    0.018567
  H      2.416870    1.545302    1.566504
  H     -0.042245    1.560578    1.564639

 Total Charge           Charge          ....    0
 Multiplicity           Mult            ....    1
 Number of Electrons    NEL             ....   64
 Basis Dimension        Dim             ....  339

ORBITAL ENERGIES
----------------

  NO   OCC          E(Eh)            E(eV)
   0   2.0000     -12.064422      -328.2896
   1   2.0000     -12.061986      -328.2233
   2   2.0000     -12.053508      -327.9926
   3   2.0000     -12.053161      -327.9832
   4   2.0000     -12.051557      -327.9395
   5   2.0000     -12.050799      -327.9189
   6   2.0000     -12.049859      -327.8933
   7   2.0000     -12.044140      -327.7377
   8   2.0000     -12.037550      -327.5584
   9   2.0000      -1.388168       -37.7740
  10   2.0000      -1.329922       -36.1890
  11   2.0000      -1.273712       -34.6595
  12   2.0000      -1.260531       -34.3008
  13   2.0000      -1.190745       -32.4018
  14   2.0000      -1.120262       -30.4839
  15   2.0000      -1.104033       -30.0423
  16   2.0000      -1.025495       -27.9051
  17   2.0000      -0.961602       -26.1665
  18   2.0000      -0.953846       -25.9555
  19   2.0000      -0.925001       -25.1706
  20   2.0000      -0.897514       -24.4226
  21   2.0000      -0.882179       -24.0053
  22   2.0000      -0.875047       -23.8112
  23   2.0000      -0.837414       -22.7872
  24   2.0000      -0.832591       -22.6560
  25   2.0000      -0.813673       -22.1412
  26   2.0000      -0.805799       -21.9269
  27   2.0000      -0.796618       -21.6771
  28   2.0000      -0.773018       -21.0349
  29   2.0000      -0.680010       -18.5040
  30   2.0000      -0.639072       -17.3900
  31   2.0000      -0.613217       -16.6865
  32   0.0000      -0.263111        -7.1596
  33   0.0000      -0.235843        -6.4176
  34   0.0000      -0.176901        -4.8137
  35   0.0000      -0.064773        -1.7626
  36   0.0000      -0.049702        -1.3524

MULLIKEN ATOMIC CHARGES
-----------------------
   0 C :   -0.353002
   1 C :    0.012645
   2 C :   -0.274504
   3 C :    0.179226
   4 C :   -0.185468
   5 C :   -0.135372
   6 C :   -0.115923
   7 C :   -0.120932
   8 C :   -0.199010
   9 H :    0.119977
  10 H :    0.115480
  11 H :    0.130893
  12 H :    0.118610
  13 H :    0.113122
  14 H :    0.118179
  15 H :    0.116116
  16 H :    0.117424
  17 H :    0.116343
  18 H :    0.126195
Sum of atomic charges:    0.0000000

LOEWDIN ATOMIC CHARGES
----------------------
   0 C :   -0.250682
   1 C :   -0.184564
   2 C :   -0.175225
   3 C :   -0.106055
   4 C :   -0.103214
   5 C :   -0.139678
   6 C :   -0.141045
   7 C :   -0.138962
   8 C :   -0.097781
   9 H :    0.125390
  10 H :    0.125432
  11 H :    0.128324
  12 H :    0.121423
  13 H :    0.120228
  14 H :    0.145430
  15 H :    0.141733
  16 H :    0.140773
  17 H :    0.141894
  18 H :    0.146582

  Mayer bond orders larger than 0.100000
B(  0-C ,  1-C ) :   0.9710 B(  0-C ,  9-H ) :   0.9681 B(  0-C , 10-H ) :   0.9795
B(  0-C , 11-H ) :   0.9781 B(  1-C ,  2-C ) :   1.8921 B(  1-C ,  3-C ) :   0.9241
B(  2-C , 12-H ) :   0.9674 B(  2-C , 13-H ) :   0.9655 B(  3-C ,  4-C ) :   1.3565
B(  3-C ,  8-C ) :   1.3819 B(  4-C ,  5-C ) :   1.4542 B(  4-C , 14-H ) :   0.9679
B(  5-C ,  6-C ) :   1.4293 B(  5-C , 15-H ) :   0.9737 B(  6-C ,  7-C ) :   1.4116
B(  6-C , 16-H ) :   0.9731 B(  7-C ,  8-C ) :   1.4689 B(  7-C , 17-H ) :   0.9735
B(  8-C , 18-H ) :   0.9582

FINAL SINGLE POINT ENERGY      -348.973011266179

DIPOLE MOMENT
-------------

Method             : SCF
Type of density    : Electron Density
Multiplicity       :   1
Irrep              :   0
Energy             :  -348.9833659882792176 Eh
Relativity type    :
Basis              : AO
                                X                 Y                 Z
Electronic contribution:      4.631695554       0.375808008       1.187267457
Nuclear contribution   :     -4.624393838      -0.406194415      -1.316693768
                        -----------------------------------------
Total Dipole Moment    :      0.007301716      -0.030386407      -0.129426311
                        -----------------------------------------
Magnitude (a.u.)       :      0.133145855
Magnitude (Debye)      :      0.338429869

Rotational constants in cm-1:             0.119531             0.040178             0.031114
Rotational constants in MHz :          3583.446985          1204.514617           932.771533

                             ****ORCA TERMINATED NORMALLY****
TOTAL RUN TIME: 0 days 0 hours 3 minutes 15 seconds 594 msec
