                         Program Version 6.0.0  -   RELEASE  -
|  1> ! wb97x-v def2-tzvp def2/J RIJCOSX DEFGRID2 scfconv7 GCP(DFT/TZ) printgap
|  2> %output
|  3>     printlevel normal
|  4> end
|  5> %cpcm
|  6>     smd true
|  7>     smdsolvent "water"
|  8> end
|  9> * xyz 0 1
| 10> C -2.4207767222963383 -0.3115232137195362 -1.2380268363940603
| 11> C -1.7224741673949249 0.04156404565141989 0.04664652647811275
| 12> C -2.4196531088217585 0.32149794904631973 1.1579019662394412
| 13> C -0.2399471689767825 0.05000754530935806 0.03716854523850814
| 14> C 0.4790016782101267 -0.7683510550897248 -0.8477064571581959
| 15> C 1.8710158114108553 -0.7738825137130148 -0.8472041003356802
| 16> C 2.577614139468901 0.05007132086166504 0.02443036024456988
| 17> C 1.8773113865937394 0.8834575852537987 0.8958631403433811
| 18> C 0.487837853857116 0.8855760050043804 0.9001875331270497
| 19> H -2.258170592464697 -1.363030759467405 -1.5026688147297989
| 20> H -3.4976699572806185 -0.15152665635984516 -1.1478675998648766
| 21> H -2.0406128647019792 0.2890118113088066 -2.072448188468583
| 22> H -1.934247691758771 0.5330361886457229 2.105794051121878
| 23> H -3.5056444816978005 0.3273527024807041 1.1444773765438607
| 24> H -0.05004918582062048 -1.4209582073456042 -1.5339411227215576
| 25> H 2.4044277491965853 -1.424409720600595 -1.5337622505496984
| 26> H 3.662946236859376 0.05177511899115852 0.018566697481482743
| 27> H 2.416870493340266 1.5453015553650598 1.5665037204688645
| 28> H -0.04224454692135309 1.560577641247233 1.5646386600520719
| 29> *
| 30>
| 31>                          ****END OF INPUT****

CARTESIAN COORDINATES (ANGSTROEM)
---------------------------------
  C     -2.420777   -0.311523   -1.238027
  C     -1.722474    0.041564    0.046647
  C     -2.419653    0.321498    1.157902
  C     -0.239947    0.050008    0.037169
  C      0.479002   -0.768351   -0.847706
  C      1.871016   -0.773883   -0.847204
  C      2.577614    0.050071    0.024430
  C      1.877311    0.883458    0.895863
  C      0.487838    0.885576    0.900188
  H     -2.258171   -1.363031   -1.502669
  H     -3.497670   -0.151527   -1.147868
  H     -2.040613    0.289012   -2.072448
  H     -1.934248    0.533036    2.105794
  H     -3.505644    0.327353    1.144477
  H     -0.050049   -1.420958   -1.533941
  H      2.404428   -1.424410   -1.533762
  H      3.662946    0.051775    0.018567
  H      2.416870    1.545302    1.566504
  H     -0.042245    1.560578    1.564639

 Total Charge           Charge          ....    0
 Multiplicity           Mult            ....    1
 Number of Electrons    NEL             ....   64
 Basis Dimension        Dim             ....  339

ORBITAL ENERGIES
----------------

  NO   OCC          E(Eh)            E(eV)
   0   2.0000     -12.062737      -328.2438
   1   2.0000     -12.061108      -328.1994
   2   2.0000     -12.050728      -327.9170
   3   2.0000     -12.050651      -327.9149
   4   2.0000     -12.049098      -327.8726
   5   2.0000     -12.048385      -327.8532
   6   2.0000     -12.047333      -327.8246
   7   2.0000     -12.033853      -327.4578
   8   2.0000     -12.032817      -327.4296
   9   2.0000      -1.387737       -37.7622
  10   2.0000      -1.327649       -36.1272
  11   2.0000      -1.272344       -34.6222
  12   2.0000      -1.258728       -34.2517
  13   2.0000      -1.184083       -32.2205
  14   2.0000      -1.117984       -30.4219
  15   2.0000      -1.101717       -29.9792
  16   2.0000      -1.022097       -27.8127
  17   2.0000      -0.957450       -26.0536
  18   2.0000      -0.952099       -25.9079
  19   2.0000      -0.920535       -25.0490
  20   2.0000      -0.893171       -24.3044
  21   2.0000      -0.877162       -23.8688
  22   2.0000      -0.871177       -23.7059
  23   2.0000      -0.829714       -22.5777
  24   2.0000      -0.826839       -22.4994
  25   2.0000      -0.806067       -21.9342
  26   2.0000      -0.800585       -21.7850
  27   2.0000      -0.791659       -21.5421
  28   2.0000      -0.773483       -21.0475
  29   2.0000      -0.679170       -18.4811
  30   2.0000      -0.639290       -17.3960
  31   2.0000      -0.613052       -16.6820
  32   0.0000      -0.262970        -7.1558
  33   0.0000      -0.235609        -6.4113
  34   0.0000      -0.175693        -4.7809
  35   0.0000      -0.063551        -1.7293
  36   0.0000      -0.042456        -1.1553

MULLIKEN ATOMIC CHARGES
-----------------------
   0 C :   -0.387535
   1 C :   -0.009710
   2 C :   -0.354316
   3 C :    0.152612
   4 C :   -0.219448
   5 C :   -0.177598
   6 C :   -0.159659
   7 C :   -0.166185
   8 C :   -0.231882
   9 H :    0.145607
  10 H :    0.140160
  11 H :    0.143149
  12 H :    0.157224
  13 H :    0.155957
  14 H :    0.166845
  15 H :    0.159633
  16 H :    0.161321
  17 H :    0.159753
  18 H :    0.164072
Sum of atomic charges:    0.0000000

LOEWDIN ATOMIC CHARGES
----------------------
   0 C :   -0.253207
   1 C :   -0.193612
   2 C :   -0.189196
   3 C :   -0.117881
   4 C :   -0.108766
   5 C :   -0.148347
   6 C :   -0.149901
   7 C :   -0.148188
   8 C :   -0.106499
   9 H :    0.132852
  10 H :    0.130198
  11 H :    0.131647
  12 H :    0.128104
  13 H :    0.127654
  14 H :    0.156221
  15 H :    0.151491
  16 H :    0.150368
  17 H :    0.151547
  18 H :    0.155514

  Mayer bond orders larger than 0.100000
B(  0-C ,  1-C ) :   0.9760 B(  0-C ,  9-H ) :   0.9624 B(  0-C , 10-H ) :   0.9748
B(  0-C , 11-H ) :   0.9726 B(  1-C ,  2-C ) :   1.8753 B(  1-C ,  3-C ) :   0.9257
B(  2-C , 12-H ) :   0.9658 B(  2-C , 13-H ) :   0.9643 B(  3-C ,  4-C ) :   1.3416
B(  3-C ,  8-C ) :   1.3540 B(  4-C ,  5-C ) :   1.4326 B(  4-C , 14-H ) :   0.9701
B(  5-C ,  6-C ) :   1.4065 B(  5-C , 15-H ) :   0.9777 B(  6-C ,  7-C ) :   1.3904
B(  6-C , 16-H ) :   0.9746 B(  7-C ,  8-C ) :   1.4526 B(  7-C , 17-H ) :   0.9766
B(  8-C , 18-H ) :   0.9665

FINAL SINGLE POINT ENERGY      -348.974467080521

DIPOLE MOMENT
-------------

Method             : SCF
Type of density    : Electron Density
Multiplicity       :   1
Irrep              :   0
Energy             :  -348.9848218026207292 Eh
Relativity type    :
Basis              : AO
                                X                 Y                 Z
Electronic contribution:      4.637013324       0.345235249       1.121196204
Nuclear contribution   :     -4.624393838      -0.406194415      -1.316693768
                        -----------------------------------------
Total Dipole Moment    :      0.012619486      -0.060959165      -0.195497564
                        -----------------------------------------
Magnitude (a.u.)       :      0.205169610
Magnitude (Debye)      :      0.521499705

Rotational constants in cm-1:             0.119531             0.040178             0.031114
Rotational constants in MHz :          3583.446985          1204.514617           932.771533

                             ****ORCA TERMINATED NORMALLY****
TOTAL RUN TIME: 0 days 0 hours 3 minutes 6 seconds 923 msec
