                         Program Version 6.0.0  -   RELEASE  -
|  1> ! r2scan-3c def2/J RI DEFGRID2 scfconv6 printgap
|  2> %output
|  3>     printlevel normal
|  4> end
|  5> * xyz 0 1
|  6> C 2.502683086 0.0637414563 -0.0622833285
|  7> C 0.9982787115 0.0668809352 -0.0059804896
|  8> C 0.3076785451 1.1944614633 0.0966669076
|  9> C -1.1886958395 1.2725370028 0.1263061749
| 10> C -1.8224714711 -0.0262766214 -0.3631044418
| 11> C -1.1438559467 -1.2092688262 0.3171534635
| 12> C 0.323621393 -1.2740922743 -0.0974651664
| 13> H 2.9208370043 0.5403266607 0.8226159608
| 14> H 2.8536591909 0.616005655 -0.9325988128
| 15> H 2.8859781179 -0.951211217 -0.1222499622
| 16> H 0.8301254835 2.1397118627 0.1728187986
| 17> H -1.5143223496 1.4797302819 1.1518078284
| 18> H -1.5212735668 2.1116771905 -0.4901382199
| 19> H -2.8929629739 -0.0247002799 -0.1499352686
| 20> H -1.6921296593 -0.1102814064 -1.4440677454
| 21> H -1.2101177065 -1.0843123778 1.4000046008
| 22> H -1.6459591868 -2.1418634779 0.0530619962
| 23> H 0.8560476241 -1.9904514665 0.5334376482
| 24> H 0.4013638165 -1.633113858 -1.1293353128
| 25> *
| 26>
| 27>                          ****END OF INPUT****

CARTESIAN COORDINATES (ANGSTROEM)
---------------------------------
  C      2.502683    0.063741   -0.062283
  C      0.998279    0.066881   -0.005980
  C      0.307679    1.194461    0.096667
  C     -1.188696    1.272537    0.126306
  C     -1.822471   -0.026277   -0.363104
  C     -1.143856   -1.209269    0.317153
  C      0.323621   -1.274092   -0.097465
  H      2.920837    0.540327    0.822616
  H      2.853659    0.616006   -0.932599
  H      2.885978   -0.951211   -0.122250
  H      0.830125    2.139712    0.172819
  H     -1.514322    1.479730    1.151808
  H     -1.521274    2.111677   -0.490138
  H     -2.892963   -0.024700   -0.149935
  H     -1.692130   -0.110281   -1.444068
  H     -1.210118   -1.084312    1.400005
  H     -1.645959   -2.141863    0.053062
  H      0.856048   -1.990451    0.533438
  H      0.401364   -1.633114   -1.129335

 Total Charge           Charge          ....    0
 Multiplicity           Mult            ....    1
 Number of Electrons    NEL             ....   54
 Basis Dimension        Dim             ....  193

ORBITAL ENERGIES
----------------

  NO   OCC          E(Eh)            E(eV)
   0   2.0000     -10.026821      -272.8437
   1   2.0000     -10.025365      -272.8040
   2   2.0000     -10.022621      -272.7294
   3   2.0000     -10.021235      -272.6917
   4   2.0000     -10.020471      -272.6709
   5   2.0000     -10.017868      -272.6000
   6   2.0000     -10.009829      -272.3813
   7   2.0000      -0.802107       -21.8264
   8   2.0000      -0.729809       -19.8591
   9   2.0000      -0.703972       -19.1561
  10   2.0000      -0.642668       -17.4879
  11   2.0000      -0.581157       -15.8141
  12   2.0000      -0.551210       -14.9992
  13   2.0000      -0.472026       -12.8445
  14   2.0000      -0.442192       -12.0326
  15   2.0000      -0.410054       -11.1581
  16   2.0000      -0.396113       -10.7788
  17   2.0000      -0.394282       -10.7290
  18   2.0000      -0.376434       -10.2433
  19   2.0000      -0.356939        -9.7128
  20   2.0000      -0.339567        -9.2401
  21   2.0000      -0.338856        -9.2207
  22   2.0000      -0.327337        -8.9073
  23   2.0000      -0.295869        -8.0510
  24   2.0000      -0.280624        -7.6362
  25   2.0000      -0.266543        -7.2530
  26   2.0000      -0.202777        -5.5178
  27   0.0000       0.001986         0.0541
  28   0.0000       0.086577         2.3559
  29   0.0000       0.111464         3.0331
  30   0.0000       0.121873         3.3163
  31   0.0000       0.124697         3.3932

MULLIKEN ATOMIC CHARGES
-----------------------
   0 C :   -0.532698
   1 C :    0.111762
   2 C :   -0.202848
   3 C :   -0.292151
   4 C :   -0.296430
   5 C :   -0.289789
   6 C :   -0.337253
   7 H :    0.162301
   8 H :    0.164209
   9 H :    0.147348
  10 H :    0.149486
  11 H :    0.150624
  12 H :    0.145582
  13 H :    0.151151
  14 H :    0.152230
  15 H :    0.153653
  16 H :    0.151293
  17 H :    0.150522
  18 H :    0.161008
Sum of atomic charges:   -0.0000000

LOEWDIN ATOMIC CHARGES
----------------------
   0 C :   -0.401361
   1 C :   -0.134995
   2 C :   -0.207784
   3 C :   -0.292546
   4 C :   -0.298085
   5 C :   -0.296389
   6 C :   -0.285790
   7 H :    0.165157
   8 H :    0.164354
   9 H :    0.156003
  10 H :    0.162482
  11 H :    0.160634
  12 H :    0.158356
  13 H :    0.154027
  14 H :    0.157223
  15 H :    0.158063
  16 H :    0.153951
  17 H :    0.161326
  18 H :    0.165376

  Mayer bond orders larger than 0.100000
B(  0-C ,  1-C ) :   0.7985 B(  0-C ,  7-H ) :   0.9843 B(  0-C ,  8-H ) :   0.9863
B(  0-C ,  9-H ) :   0.9881 B(  1-C ,  2-C ) :   1.8869 B(  1-C ,  6-C ) :   0.8973
B(  2-C ,  3-C ) :   0.9435 B(  2-C , 10-H ) :   0.9459 B(  3-C ,  4-C ) :   0.9241
B(  3-C , 11-H ) :   0.9675 B(  3-C , 12-H ) :   0.9701 B(  4-C ,  5-C ) :   0.8611
B(  4-C , 13-H ) :   0.9691 B(  4-C , 14-H ) :   0.9958 B(  5-C ,  6-C ) :   0.9193
B(  5-C , 15-H ) :   0.9934 B(  5-C , 16-H ) :   0.9707 B(  6-C , 17-H ) :   0.9733
B(  6-C , 18-H ) :   0.9793

Dispersion correction           -0.005433952
FINAL SINGLE POINT ENERGY      -273.867065840742

DIPOLE MOMENT
-------------

Method             : SCF
Type of density    : Electron Density
Multiplicity       :   1
Irrep              :   0
Energy             :  -273.8690476324403562 Eh
Relativity type    :
Basis              : AO
                                X                 Y                 Z
Electronic contribution:     -0.255215529       0.894200140       0.113665804
Nuclear contribution   :      0.254473232      -0.983649218      -0.126256789
                        -----------------------------------------
Total Dipole Moment    :     -0.000742297      -0.089449078      -0.012590985
                        -----------------------------------------
Magnitude (a.u.)       :      0.090333944
Magnitude (Debye)      :      0.229610637

Rotational constants in cm-1:             0.151493             0.076187             0.054675
Rotational constants in MHz :          4541.641335          2284.039357          1639.125866

                             ****ORCA TERMINATED NORMALLY****
TOTAL RUN TIME: 0 days 0 hours 0 minutes 16 seconds 267 msec
