                         Program Version 6.0.0  -   RELEASE  -
|  1> ! r2scan-3c def2/J RI DEFGRID2 scfconv6 printgap
|  2> %output
|  3>     printlevel normal
|  4> end
|  5> %cpcm
|  6>     smd true
|  7>     smdsolvent "water"
|  8> end
|  9> * xyz 0 1
| 10> C 2.502683086 0.0637414563 -0.0622833285
| 11> C 0.9982787115 0.0668809352 -0.0059804896
| 12> C 0.3076785451 1.1944614633 0.0966669076
| 13> C -1.1886958395 1.2725370028 0.1263061749
| 14> C -1.8224714711 -0.0262766214 -0.3631044418
| 15> C -1.1438559467 -1.2092688262 0.3171534635
| 16> C 0.323621393 -1.2740922743 -0.0974651664
| 17> H 2.9208370043 0.5403266607 0.8226159608
| 18> H 2.8536591909 0.616005655 -0.9325988128
| 19> H 2.8859781179 -0.951211217 -0.1222499622
| 20> H 0.8301254835 2.1397118627 0.1728187986
| 21> H -1.5143223496 1.4797302819 1.1518078284
| 22> H -1.5212735668 2.1116771905 -0.4901382199
| 23> H -2.8929629739 -0.0247002799 -0.1499352686
| 24> H -1.6921296593 -0.1102814064 -1.4440677454
| 25> H -1.2101177065 -1.0843123778 1.4000046008
| 26> H -1.6459591868 -2.1418634779 0.0530619962
| 27> H 0.8560476241 -1.9904514665 0.5334376482
| 28> H 0.4013638165 -1.633113858 -1.1293353128
| 29> *
| 30>
| 31>                          ****END OF INPUT****

CARTESIAN COORDINATES (ANGSTROEM)
---------------------------------
  C      2.502683    0.063741   -0.062283
  C      0.998279    0.066881   -0.005980
  C      0.307679    1.194461    0.096667
  C     -1.188696    1.272537    0.126306
  C     -1.822471   -0.026277   -0.363104
  C     -1.143856   -1.209269    0.317153
  C      0.323621   -1.274092   -0.097465
  H      2.920837    0.540327    0.822616
  H      2.853659    0.616006   -0.932599
  H      2.885978   -0.951211   -0.122250
  H      0.830125    2.139712    0.172819
  H     -1.514322    1.479730    1.151808
  H     -1.521274    2.111677   -0.490138
  H     -2.892963   -0.024700   -0.149935
  H     -1.692130   -0.110281   -1.444068
  H     -1.210118   -1.084312    1.400005
  H     -1.645959   -2.141863    0.053062
  H      0.856048   -1.990451    0.533438
  H      0.401364   -1.633114   -1.129335

 Total Charge           Charge          ....    0
 Multiplicity           Mult            ....    1
 Number of Electrons    NEL             ....   54
 Basis Dimension        Dim             ....  193

ORBITAL ENERGIES
----------------

  NO   OCC          E(Eh)            E(eV)
   0   2.0000     -10.025601      -272.8105
   1   2.0000     -10.018876      -272.6275
   2   2.0000     -10.017763      -272.5972
   3   2.0000     -10.014799      -272.5165
   4   2.0000     -10.014555      -272.5099
   5   2.0000     -10.012025      -272.4411
   6   2.0000     -10.007613      -272.3210
   7   2.0000      -0.798560       -21.7299
   8   2.0000      -0.725637       -19.7456
   9   2.0000      -0.699519       -19.0349
  10   2.0000      -0.638041       -17.3620
  11   2.0000      -0.576737       -15.6938
  12   2.0000      -0.546373       -14.8676
  13   2.0000      -0.467515       -12.7217
  14   2.0000      -0.437486       -11.9046
  15   2.0000      -0.405030       -11.0214
  16   2.0000      -0.391085       -10.6420
  17   2.0000      -0.389107       -10.5881
  18   2.0000      -0.371686       -10.1141
  19   2.0000      -0.352377        -9.5887
  20   2.0000      -0.334549        -9.1035
  21   2.0000      -0.333444        -9.0735
  22   2.0000      -0.322046        -8.7633
  23   2.0000      -0.289906        -7.8887
  24   2.0000      -0.275085        -7.4855
  25   2.0000      -0.261633        -7.1194
  26   2.0000      -0.202741        -5.5169
  27   0.0000       0.002830         0.0770
  28   0.0000       0.091483         2.4894
  29   0.0000       0.118256         3.2179
  30   0.0000       0.127590         3.4719
  31   0.0000       0.129898         3.5347

MULLIKEN ATOMIC CHARGES
-----------------------
   0 C :   -0.551571
   1 C :    0.075521
   2 C :   -0.256022
   3 C :   -0.305251
   4 C :   -0.310324
   5 C :   -0.304309
   6 C :   -0.340475
   7 H :    0.173464
   8 H :    0.175078
   9 H :    0.163980
  10 H :    0.169512
  11 H :    0.163030
  12 H :    0.159822
  13 H :    0.160781
  14 H :    0.161061
  15 H :    0.161810
  16 H :    0.161205
  17 H :    0.167223
  18 H :    0.175465
Sum of atomic charges:   -0.0000000

LOEWDIN ATOMIC CHARGES
----------------------
   0 C :   -0.407653
   1 C :   -0.141006
   2 C :   -0.225766
   3 C :   -0.297151
   4 C :   -0.301449
   5 C :   -0.299597
   6 C :   -0.288352
   7 H :    0.168779
   8 H :    0.167774
   9 H :    0.161252
  10 H :    0.167609
  11 H :    0.164035
  12 H :    0.162054
  13 H :    0.156954
  14 H :    0.158808
  15 H :    0.159474
  16 H :    0.157160
  17 H :    0.166718
  18 H :    0.170357

  Mayer bond orders larger than 0.100000
B(  0-C ,  1-C ) :   0.8083 B(  0-C ,  7-H ) :   0.9778 B(  0-C ,  8-H ) :   0.9810
B(  0-C ,  9-H ) :   0.9841 B(  1-C ,  2-C ) :   1.8694 B(  1-C ,  6-C ) :   0.8877
B(  2-C ,  3-C ) :   0.9280 B(  2-C , 10-H ) :   0.9522 B(  3-C ,  4-C ) :   0.9130
B(  3-C , 11-H ) :   0.9647 B(  3-C , 12-H ) :   0.9701 B(  4-C ,  5-C ) :   0.8472
B(  4-C , 13-H ) :   0.9664 B(  4-C , 14-H ) :   0.9971 B(  5-C ,  6-C ) :   0.9067
B(  5-C , 15-H ) :   0.9951 B(  5-C , 16-H ) :   0.9678 B(  6-C , 17-H ) :   0.9720
B(  6-C , 18-H ) :   0.9755

Dispersion correction           -0.005433952
FINAL SINGLE POINT ENERGY      -273.866201127400

DIPOLE MOMENT
-------------

Method             : SCF
Type of density    : Electron Density
Multiplicity       :   1
Irrep              :   0
Energy             :  -273.8681829190987287 Eh
Relativity type    :
Basis              : AO
                                X                 Y                 Z
Electronic contribution:     -0.251875435       0.824299303       0.105252579
Nuclear contribution   :      0.254473232      -0.983649218      -0.126256789
                        -----------------------------------------
Total Dipole Moment    :      0.002597797      -0.159349915      -0.021004211
                        -----------------------------------------
Magnitude (a.u.)       :      0.160749248
Magnitude (Debye)      :      0.408592117

Rotational constants in cm-1:             0.151493             0.076187             0.054675
Rotational constants in MHz :          4541.641335          2284.039357          1639.125866

                             ****ORCA TERMINATED NORMALLY****
TOTAL RUN TIME: 0 days 0 hours 0 minutes 19 seconds 543 msec
