                         Program Version 6.0.0  -   RELEASE  -
|  1> ! pbe def2-sv(p) def2/J RI DEFGRID1 loosescf d4 GCP(DFT/SV(P)) printgap
|  2> %output
|  3>     printlevel normal
|  4> end
|  5> * xyz 0 1
|  6> C 0.6690067056 1.0047e-05 0.0009018726
|  7> C -0.6689927739 2.02905e-05 0.0006720158
|  8> Cl -1.5769474851 1.4518270827 -4.89021e-05
|  9> Cl -1.5769187987 -1.4517990324 -0.0002011825
| 10> Cl 1.5768795904 -1.4518461435 -6.54157e-05
| 11> Cl 1.5769819737 1.4518078154 -0.0002177012
| 12> *
| 13>
| 14>                          ****END OF INPUT****

CARTESIAN COORDINATES (ANGSTROEM)
---------------------------------
  C      0.669007    0.000010    0.000902
  C     -0.668993    0.000020    0.000672
  Cl    -1.576947    1.451827   -0.000049
  Cl    -1.576919   -1.451799   -0.000201
  Cl     1.576880   -1.451846   -0.000065
  Cl     1.576982    1.451808   -0.000218

 Total Charge           Charge          ....    0
 Multiplicity           Mult            ....    1
 Number of Electrons    NEL             ....   80
 Basis Dimension        Dim             ....  100

ORBITAL ENERGIES
----------------

  NO   OCC          E(Eh)            E(eV)
   0   2.0000    -100.669337     -2739.3519
   1   2.0000    -100.669325     -2739.3516
   2   2.0000    -100.669292     -2739.3507
   3   2.0000    -100.669235     -2739.3491
   4   2.0000     -10.013326      -272.4765
   5   2.0000     -10.012815      -272.4626
   6   2.0000      -9.205387      -250.4913
   7   2.0000      -9.205374      -250.4910
   8   2.0000      -9.205345      -250.4902
   9   2.0000      -9.205306      -250.4891
  10   2.0000      -7.037226      -191.4927
  11   2.0000      -7.037218      -191.4924
  12   2.0000      -7.037213      -191.4923
  13   2.0000      -7.037192      -191.4917
  14   2.0000      -7.025065      -191.1617
  15   2.0000      -7.025063      -191.1617
  16   2.0000      -7.025056      -191.1615
  17   2.0000      -7.025052      -191.1614
  18   2.0000      -7.024497      -191.1463
  19   2.0000      -7.024481      -191.1458
  20   2.0000      -7.024464      -191.1454
  21   2.0000      -7.024452      -191.1451
  22   2.0000      -0.881355       -23.9829
  23   2.0000      -0.831285       -22.6204
  24   2.0000      -0.792572       -21.5670
  25   2.0000      -0.767958       -20.8972
  26   2.0000      -0.658296       -17.9132
  27   2.0000      -0.512082       -13.9345
  28   2.0000      -0.467056       -12.7092
  29   2.0000      -0.465141       -12.6571
  30   2.0000      -0.405683       -11.0392
  31   2.0000      -0.401935       -10.9372
  32   2.0000      -0.339866        -9.2482
  33   2.0000      -0.319160        -8.6848
  34   2.0000      -0.306552        -8.3417
  35   2.0000      -0.304828        -8.2948
  36   2.0000      -0.301360        -8.2004
  37   2.0000      -0.294181        -8.0051
  38   2.0000      -0.265709        -7.2303
  39   2.0000      -0.216734        -5.8976
  40   0.0000      -0.057723        -1.5707
  41   0.0000      -0.034644        -0.9427
  42   0.0000      -0.016873        -0.4592
  43   0.0000      -0.011531        -0.3138
  44   0.0000       0.133162         3.6235

MULLIKEN ATOMIC CHARGES
-----------------------
   0 C :    0.006615
   1 C :    0.006615
   2 Cl:   -0.003307
   3 Cl:   -0.003306
   4 Cl:   -0.003310
   5 Cl:   -0.003306
Sum of atomic charges:    0.0000000

LOEWDIN ATOMIC CHARGES
----------------------
   0 C :   -0.340902
   1 C :   -0.340903
   2 Cl:    0.170451
   3 Cl:    0.170452
   4 Cl:    0.170451
   5 Cl:    0.170451

  Mayer bond orders larger than 0.100000
B(  0-C ,  1-C ) :   1.6466 B(  0-C ,  4-Cl) :   1.1175 B(  0-C ,  5-Cl) :   1.1175
B(  1-C ,  2-Cl) :   1.1175 B(  1-C ,  3-Cl) :   1.1175

Dispersion correction           -0.010229331
FINAL SINGLE POINT ENERGY     -1915.492071666466

DIPOLE MOMENT
-------------

Method             : SCF
Type of density    : Electron Density
Multiplicity       :   1
Irrep              :   0
Energy             : -1915.4954675160920488 Eh
Relativity type    :
Basis              : AO
                                X                 Y                 Z
Electronic contribution:     -0.000006236      -0.000006023      -0.000964810
Nuclear contribution   :      0.000006335       0.000013795       0.000715679
                        -----------------------------------------
Total Dipole Moment    :      0.000000099       0.000007772      -0.000249130
                        -----------------------------------------
Magnitude (a.u.)       :      0.000249251
Magnitude (Debye)      :      0.000633547

Rotational constants in cm-1:             0.056397             0.046389             0.025453
Rotational constants in MHz :          1690.748591          1390.707989           763.060469

                             ****ORCA TERMINATED NORMALLY****
TOTAL RUN TIME: 0 days 0 hours 0 minutes 4 seconds 597 msec
