                         Program Version 6.0.0  -   RELEASE  -
|  1> ! r2scan-3c def2/J RI DEFGRID2 scfconv6 printgap
|  2> %output
|  3>     printlevel normal
|  4> end
|  5> * xyz 0 1
|  6> C 0.1685017746 -0.6520164869 0.5215953466
|  7> H 0.202894333 -0.747949804 1.6139617804
|  8> C 1.3303129026 0.2128223935 0.0190737919
|  9> F 1.285080442 1.4288741773 0.5637153834
| 10> F 1.3282979623 0.3584557868 -1.3025592315
| 11> F 2.5067608199 -0.3277123535 0.3590146615
| 12> F 0.2574720104 -1.8782618298 -0.0311201649
| 13> Br -1.5064716457 0.1749923363 -0.00392011
| 14> *
| 15>
| 16>                          ****END OF INPUT****

CARTESIAN COORDINATES (ANGSTROEM)
---------------------------------
  C      0.168502   -0.652016    0.521595
  H      0.202894   -0.747950    1.613962
  C      1.330313    0.212822    0.019074
  F      1.285080    1.428874    0.563715
  F      1.328298    0.358456   -1.302559
  F      2.506761   -0.327712    0.359015
  F      0.257472   -1.878262   -0.031120
  Br    -1.506472    0.174992   -0.003920

 Total Charge           Charge          ....    0
 Multiplicity           Mult            ....    1
 Number of Electrons    NEL             ....   84
 Basis Dimension        Dim             ....  175

ORBITAL ENERGIES
----------------

  NO   OCC          E(Eh)            E(eV)
   0   2.0000    -482.253634    -13122.7885
   1   2.0000     -62.325289     -1695.9573
   2   2.0000     -56.105863     -1526.7181
   3   2.0000     -56.103014     -1526.6406
   4   2.0000     -56.102948     -1526.6388
   5   2.0000     -24.542348      -667.8312
   6   2.0000     -24.541944      -667.8203
   7   2.0000     -24.540450      -667.7796
   8   2.0000     -24.536023      -667.6591
   9   2.0000     -10.310064      -280.5511
  10   2.0000     -10.214469      -277.9498
  11   2.0000      -8.657006      -235.5691
  12   2.0000      -6.465347      -175.9310
  13   2.0000      -6.450561      -175.5287
  14   2.0000      -6.450109      -175.5164
  15   2.0000      -2.562708       -69.7348
  16   2.0000      -2.559128       -69.6374
  17   2.0000      -2.558783       -69.6280
  18   2.0000      -2.547781       -69.3286
  19   2.0000      -2.547768       -69.3283
  20   2.0000      -1.304609       -35.5002
  21   2.0000      -1.230095       -33.4726
  22   2.0000      -1.212666       -32.9983
  23   2.0000      -1.211441       -32.9650
  24   2.0000      -0.817564       -22.2470
  25   2.0000      -0.730320       -19.8730
  26   2.0000      -0.651821       -17.7370
  27   2.0000      -0.586557       -15.9610
  28   2.0000      -0.582869       -15.8607
  29   2.0000      -0.571414       -15.5490
  30   2.0000      -0.523567       -14.2470
  31   2.0000      -0.483490       -13.1564
  32   2.0000      -0.450621       -12.2620
  33   2.0000      -0.448282       -12.1984
  34   2.0000      -0.436637       -11.8815
  35   2.0000      -0.411391       -11.1945
  36   2.0000      -0.410046       -11.1579
  37   2.0000      -0.389387       -10.5958
  38   2.0000      -0.365954        -9.9581
  39   2.0000      -0.357418        -9.7258
  40   2.0000      -0.293698        -7.9919
  41   2.0000      -0.287448        -7.8219
  42   0.0000      -0.063976        -1.7409
  43   0.0000       0.016450         0.4476
  44   0.0000       0.073633         2.0037
  45   0.0000       0.118598         3.2272
  46   0.0000       0.121414         3.3039

MULLIKEN ATOMIC CHARGES
-----------------------
   0 C :    0.105333
   1 H :    0.181789
   2 C :    0.536282
   3 F :   -0.194268
   4 F :   -0.188059
   5 F :   -0.193070
   6 F :   -0.177214
   7 Br:   -0.070792
Sum of atomic charges:    0.0000000

LOEWDIN ATOMIC CHARGES
----------------------
   0 C :    0.010405
   1 H :    0.187143
   2 C :    0.471429
   3 F :   -0.199021
   4 F :   -0.188201
   5 F :   -0.193670
   6 F :   -0.300819
   7 Br:    0.212733

  Mayer bond orders larger than 0.100000
B(  0-C ,  1-H ) :   0.9280 B(  0-C ,  2-C ) :   0.9647 B(  0-C ,  6-F ) :   0.9199
B(  0-C ,  7-Br) :   1.0694 B(  2-C ,  3-F ) :   1.0259 B(  2-C ,  4-F ) :   1.0467
B(  2-C ,  5-F ) :   1.0241

Dispersion correction           -0.001902960
FINAL SINGLE POINT ENERGY     -3050.310539244073

DIPOLE MOMENT
-------------

Method             : SCF
Type of density    : Electron Density
Multiplicity       :   1
Irrep              :   0
Energy             : -3050.3194527583841591 Eh
Relativity type    :
Basis              : AO
                                X                 Y                 Z
Electronic contribution:     -9.334669996       1.854206954      -1.405292771
Nuclear contribution   :      9.195644866      -1.938666031       1.931365415
                        -----------------------------------------
Total Dipole Moment    :     -0.139025130      -0.084459077       0.526072644
                        -----------------------------------------
Magnitude (a.u.)       :      0.550648480
Magnitude (Debye)      :      1.399637206

Rotational constants in cm-1:             0.101804             0.038741             0.033220
Rotational constants in MHz :          3052.013954          1161.422804           995.911209

                             ****ORCA TERMINATED NORMALLY****
TOTAL RUN TIME: 0 days 0 hours 0 minutes 15 seconds 576 msec
