                         Program Version 6.0.0  -   RELEASE  -
|  1> ! pbe def2-sv(p) def2/J RI DEFGRID1 loosescf d4 GCP(DFT/SV(P)) printgap
|  2> %output
|  3>     printlevel normal
|  4> end
|  5> * xyz 0 1
|  6> C -1.6653380075 -1.3694030768 -0.5627114322
|  7> C -1.1293576759 -0.4976240551 0.5833711555
|  8> H -1.891676107 -0.4801241537 1.369661587
|  9> C -0.8732350449 0.9628278244 0.1295120514
| 10> H -1.2175025022 1.0738394207 -0.9047190934
| 11> C 0.6273740888 1.2702168662 0.2075892004
| 12> H 0.9278903255 1.3684509325 1.2585444471
| 13> C 1.4268769492 0.1071785951 -0.4024852463
| 14> H 1.0928112202 -0.0791099045 -1.4355629259
| 15> C 1.1787068615 -1.1624006836 0.4271071968
| 16> H 1.9917606661 -1.2492014268 1.1618536925
| 17> O 0.008941246 -1.0755903646 1.2095582002
| 18> O 1.1575361823 -2.2565064384 -0.4320741411
| 19> O 2.8026629231 0.3830613428 -0.3916757806
| 20> O 0.982339952 2.4868749255 -0.3977568104
| 21> O -1.6372108314 1.8946180948 0.8494574458
| 22> O -2.872459851 -0.8019437233 -1.0144883294
| 23> H -1.8245716432 -2.3812285221 -0.171534396
| 24> H -0.9263300313 -1.417450366 -1.3718834963
| 25> H 1.2324591863 -3.0822507277 0.0698342525
| 26> H 2.9182339165 1.3285698121 -0.5901765395
| 27> H 0.4957834784 2.600748257 -1.2271404178
| 28> H -1.3644197278 1.9017270671 1.7783412268
| 29> H -3.2642137632 -1.3795924458 -1.6846504836
| 30> *
| 31>
| 32>                          ****END OF INPUT****

CARTESIAN COORDINATES (ANGSTROEM)
---------------------------------
  C     -1.665338   -1.369403   -0.562711
  C     -1.129358   -0.497624    0.583371
  H     -1.891676   -0.480124    1.369662
  C     -0.873235    0.962828    0.129512
  H     -1.217503    1.073839   -0.904719
  C      0.627374    1.270217    0.207589
  H      0.927890    1.368451    1.258544
  C      1.426877    0.107179   -0.402485
  H      1.092811   -0.079110   -1.435563
  C      1.178707   -1.162401    0.427107
  H      1.991761   -1.249201    1.161854
  O      0.008941   -1.075590    1.209558
  O      1.157536   -2.256506   -0.432074
  O      2.802663    0.383061   -0.391676
  O      0.982340    2.486875   -0.397757
  O     -1.637211    1.894618    0.849457
  O     -2.872460   -0.801944   -1.014488
  H     -1.824572   -2.381229   -0.171534
  H     -0.926330   -1.417450   -1.371883
  H      1.232459   -3.082251    0.069834
  H      2.918234    1.328570   -0.590177
  H      0.495783    2.600748   -1.227140
  H     -1.364420    1.901727    1.778341
  H     -3.264214   -1.379592   -1.684650

 Total Charge           Charge          ....    0
 Multiplicity           Mult            ....    1
 Number of Electrons    NEL             ....   96
 Basis Dimension        Dim             ....  192

ORBITAL ENERGIES
----------------

  NO   OCC          E(Eh)            E(eV)
   0   2.0000     -18.768900      -510.7277
   1   2.0000     -18.763509      -510.5810
   2   2.0000     -18.763242      -510.5738
   3   2.0000     -18.753343      -510.3044
   4   2.0000     -18.746189      -510.1097
   5   2.0000     -18.743782      -510.0442
   6   2.0000      -9.984539      -271.6931
   7   2.0000      -9.944120      -270.5933
   8   2.0000      -9.943073      -270.5648
   9   2.0000      -9.942623      -270.5525
  10   2.0000      -9.938941      -270.4523
  11   2.0000      -9.931219      -270.2422
  12   2.0000      -0.979942       -26.6656
  13   2.0000      -0.948940       -25.8220
  14   2.0000      -0.930708       -25.3259
  15   2.0000      -0.924368       -25.1533
  16   2.0000      -0.913275       -24.8515
  17   2.0000      -0.912510       -24.8307
  18   2.0000      -0.702137       -19.1061
  19   2.0000      -0.690748       -18.7962
  20   2.0000      -0.622857       -16.9488
  21   2.0000      -0.584603       -15.9079
  22   2.0000      -0.569013       -15.4836
  23   2.0000      -0.520333       -14.1590
  24   2.0000      -0.506619       -13.7858
  25   2.0000      -0.492778       -13.4092
  26   2.0000      -0.472584       -12.8597
  27   2.0000      -0.452950       -12.3254
  28   2.0000      -0.438946       -11.9443
  29   2.0000      -0.434066       -11.8115
  30   2.0000      -0.409547       -11.1443
  31   2.0000      -0.404449       -11.0056
  32   2.0000      -0.395610       -10.7651
  33   2.0000      -0.372272       -10.1300
  34   2.0000      -0.358757        -9.7623
  35   2.0000      -0.352108        -9.5813
  36   2.0000      -0.324994        -8.8435
  37   2.0000      -0.309287        -8.4161
  38   2.0000      -0.302081        -8.2200
  39   2.0000      -0.290753        -7.9118
  40   2.0000      -0.285042        -7.7564
  41   2.0000      -0.263895        -7.1810
  42   2.0000      -0.256362        -6.9760
  43   2.0000      -0.241564        -6.5733
  44   2.0000      -0.234469        -6.3802
  45   2.0000      -0.219758        -5.9799
  46   2.0000      -0.217225        -5.9110
  47   2.0000      -0.200506        -5.4560
  48   0.0000       0.018369         0.4998
  49   0.0000       0.022594         0.6148
  50   0.0000       0.026914         0.7324
  51   0.0000       0.035209         0.9581
  52   0.0000       0.050396         1.3714

MULLIKEN ATOMIC CHARGES
-----------------------
   0 C :   -0.005247
   1 C :    0.037677
   2 H :    0.072270
   3 C :    0.057352
   4 H :    0.062907
   5 C :    0.053561
   6 H :    0.054308
   7 C :    0.008510
   8 H :    0.054022
   9 C :    0.215803
  10 H :    0.070762
  11 O :   -0.310643
  12 O :   -0.385145
  13 O :   -0.414885
  14 O :   -0.412574
  15 O :   -0.407928
  16 O :   -0.429902
  17 H :    0.069973
  18 H :    0.096451
  19 H :    0.303548
  20 H :    0.301381
  21 H :    0.303266
  22 H :    0.299009
  23 H :    0.305523
Sum of atomic charges:    0.0000000

LOEWDIN ATOMIC CHARGES
----------------------
   0 C :   -0.145094
   1 C :   -0.063193
   2 H :    0.120299
   3 C :   -0.077387
   4 H :    0.115205
   5 C :   -0.085582
   6 H :    0.114748
   7 C :   -0.087308
   8 H :    0.100370
   9 C :   -0.000351
  10 H :    0.106208
  11 O :   -0.148382
  12 O :   -0.300136
  13 O :   -0.320146
  14 O :   -0.307070
  15 O :   -0.308750
  16 O :   -0.339898
  17 H :    0.098098
  18 H :    0.098949
  19 H :    0.287583
  20 H :    0.279689
  21 H :    0.288281
  22 H :    0.284169
  23 H :    0.289697

  Mayer bond orders larger than 0.100000
B(  0-C ,  1-C ) :   1.0533 B(  0-C , 16-O ) :   1.0693 B(  0-C , 17-H ) :   0.9086
B(  0-C , 18-H ) :   0.9039 B(  1-C ,  2-H ) :   0.8872 B(  1-C ,  3-C ) :   0.9687
B(  1-C , 11-O ) :   1.0372 B(  3-C ,  4-H ) :   0.8687 B(  3-C ,  5-C ) :   1.0147
B(  3-C , 15-O ) :   1.0522 B(  5-C ,  6-H ) :   0.8530 B(  5-C ,  7-C ) :   0.9943
B(  5-C , 14-O ) :   1.0501 B(  7-C ,  8-H ) :   0.8745 B(  7-C ,  9-C ) :   0.9800
B(  7-C , 13-O ) :   1.0976 B(  9-C , 10-H ) :   0.8856 B(  9-C , 11-O ) :   1.0474
B(  9-C , 12-O ) :   1.1378 B( 12-O , 19-H ) :   0.8412 B( 13-O , 20-H ) :   0.8245
B( 14-O , 21-H ) :   0.8449 B( 15-O , 22-H ) :   0.8506 B( 16-O , 23-H ) :   0.8496

Dispersion correction           -0.024570972
FINAL SINGLE POINT ENERGY      -685.687578385653

DIPOLE MOMENT
-------------

Method             : SCF
Type of density    : Electron Density
Multiplicity       :   1
Irrep              :   0
Energy             :  -685.8173311958254317 Eh
Relativity type    :
Basis              : AO
                                X                 Y                 Z
Electronic contribution:      1.466322314       0.988344137       1.368320012
Nuclear contribution   :     -1.710095026      -1.675258216      -1.642010483
                        -----------------------------------------
Total Dipole Moment    :     -0.243772712      -0.686914079      -0.273690471
                        -----------------------------------------
Magnitude (a.u.)       :      0.778577267
Magnitude (Debye)      :      1.978986140

Rotational constants in cm-1:             0.036624             0.029335             0.019628
Rotational constants in MHz :          1097.951866           879.440623           588.421954

                             ****ORCA TERMINATED NORMALLY****
TOTAL RUN TIME: 0 days 0 hours 0 minutes 12 seconds 133 msec
