                         Program Version 6.0.0  -   RELEASE  -
|  1> ! pbe def2-sv(p) def2/J RI DEFGRID1 loosescf d4 GCP(DFT/SV(P)) printgap
|  2> %output
|  3>     printlevel normal
|  4> end
|  5> * xyz 0 1
|  6> C -2.3265838982 -0.9895820647 -0.2924802015
|  7> C -0.9329171903 -0.5260405692 0.1449783379
|  8> H -0.8348742611 -0.7026563871 1.2289070773
|  9> C -0.7178376382 0.9792959707 -0.1249597766
| 10> H -1.2795100268 1.2695507269 -1.0205531895
| 11> C 0.7802887802 1.2675758667 -0.3842971345
| 12> H 0.9894686198 2.2842269758 -0.0163556718
| 13> C 1.6448691432 0.2941566851 0.4288926777
| 14> H 2.6947419773 0.461456833 0.1634396373
| 15> C 1.3141485947 -1.1676400503 0.0350920368
| 16> H 1.3364965489 -1.7827350126 0.9652721833
| 17> O 0.0356096296 -1.2967361093 -0.5402720254
| 18> O 2.2578354558 -1.6225784148 -0.8641959444
| 19> O 1.3902958637 0.5475551099 1.7880657007
| 20> O 1.1416808106 1.1376655575 -1.7315869438
| 21> O -1.2334984051 1.7667150803 0.9179063148
| 22> O -3.3361630497 -0.4623015862 0.5285650193
| 23> H -2.3885011351 -2.0760896441 -0.2025175172
| 24> H -2.4855836242 -0.7169133469 -1.3441646625
| 25> H 1.8550059736 -2.3021677754 -1.4264102568
| 26> H 2.1079705838 0.1987914267 2.3348772729
| 27> H 0.695683558 1.8160325892 -2.2589530192
| 28> H -0.6917788803 1.6308731044 1.7109063354
| 29> H -3.2224615002 0.4983610493 0.5995079443
| 30> *
| 31>
| 32>                          ****END OF INPUT****

CARTESIAN COORDINATES (ANGSTROEM)
---------------------------------
  C     -2.326584   -0.989582   -0.292480
  C     -0.932917   -0.526041    0.144978
  H     -0.834874   -0.702656    1.228907
  C     -0.717838    0.979296   -0.124960
  H     -1.279510    1.269551   -1.020553
  C      0.780289    1.267576   -0.384297
  H      0.989469    2.284227   -0.016356
  C      1.644869    0.294157    0.428893
  H      2.694742    0.461457    0.163440
  C      1.314149   -1.167640    0.035092
  H      1.336497   -1.782735    0.965272
  O      0.035610   -1.296736   -0.540272
  O      2.257835   -1.622578   -0.864196
  O      1.390296    0.547555    1.788066
  O      1.141681    1.137666   -1.731587
  O     -1.233498    1.766715    0.917906
  O     -3.336163   -0.462302    0.528565
  H     -2.388501   -2.076090   -0.202518
  H     -2.485584   -0.716913   -1.344165
  H      1.855006   -2.302168   -1.426410
  H      2.107971    0.198791    2.334877
  H      0.695684    1.816033   -2.258953
  H     -0.691779    1.630873    1.710906
  H     -3.222462    0.498361    0.599508

 Total Charge           Charge          ....    0
 Multiplicity           Mult            ....    1
 Number of Electrons    NEL             ....   96
 Basis Dimension        Dim             ....  192

ORBITAL ENERGIES
----------------

  NO   OCC          E(Eh)            E(eV)
   0   2.0000     -18.778118      -510.9786
   1   2.0000     -18.769380      -510.7408
   2   2.0000     -18.757625      -510.4209
   3   2.0000     -18.756292      -510.3847
   4   2.0000     -18.755345      -510.3589
   5   2.0000     -18.737415      -509.8710
   6   2.0000      -9.986708      -271.7521
   7   2.0000      -9.949022      -270.7267
   8   2.0000      -9.947298      -270.6798
   9   2.0000      -9.943865      -270.5863
  10   2.0000      -9.939337      -270.4631
  11   2.0000      -9.926328      -270.1091
  12   2.0000      -0.984872       -26.7997
  13   2.0000      -0.952031       -25.9061
  14   2.0000      -0.939408       -25.5626
  15   2.0000      -0.930400       -25.3175
  16   2.0000      -0.916408       -24.9367
  17   2.0000      -0.910059       -24.7640
  18   2.0000      -0.700350       -19.0575
  19   2.0000      -0.688072       -18.7234
  20   2.0000      -0.617309       -16.7978
  21   2.0000      -0.591564       -16.0973
  22   2.0000      -0.561033       -15.2665
  23   2.0000      -0.527662       -14.3584
  24   2.0000      -0.511311       -13.9135
  25   2.0000      -0.486096       -13.2273
  26   2.0000      -0.476159       -12.9569
  27   2.0000      -0.461109       -12.5474
  28   2.0000      -0.455235       -12.3876
  29   2.0000      -0.439995       -11.9729
  30   2.0000      -0.417160       -11.3515
  31   2.0000      -0.395310       -10.7569
  32   2.0000      -0.382450       -10.4070
  33   2.0000      -0.367663       -10.0046
  34   2.0000      -0.362565        -9.8659
  35   2.0000      -0.346980        -9.4418
  36   2.0000      -0.333002        -9.0614
  37   2.0000      -0.314297        -8.5525
  38   2.0000      -0.312064        -8.4917
  39   2.0000      -0.305365        -8.3094
  40   2.0000      -0.278248        -7.5715
  41   2.0000      -0.275290        -7.4910
  42   2.0000      -0.252648        -6.8749
  43   2.0000      -0.244084        -6.6419
  44   2.0000      -0.238017        -6.4768
  45   2.0000      -0.218864        -5.9556
  46   2.0000      -0.212598        -5.7851
  47   2.0000      -0.194406        -5.2901
  48   0.0000       0.002618         0.0713
  49   0.0000       0.023237         0.6323
  50   0.0000       0.038084         1.0363
  51   0.0000       0.046955         1.2777
  52   0.0000       0.057092         1.5536

MULLIKEN ATOMIC CHARGES
-----------------------
   0 C :    0.090708
   1 C :   -0.001810
   2 H :    0.058514
   3 C :    0.039303
   4 H :    0.047921
   5 C :    0.051774
   6 H :    0.068637
   7 C :   -0.015596
   8 H :    0.091421
   9 C :    0.242971
  10 H :    0.032076
  11 O :   -0.314397
  12 O :   -0.386561
  13 O :   -0.424921
  14 O :   -0.401829
  15 O :   -0.428418
  16 O :   -0.444087
  17 H :    0.085496
  18 H :    0.069447
  19 H :    0.306977
  20 H :    0.316927
  21 H :    0.303636
  22 H :    0.311113
  23 H :    0.300698
Sum of atomic charges:   -0.0000000

LOEWDIN ATOMIC CHARGES
----------------------
   0 C :   -0.116770
   1 C :   -0.079424
   2 H :    0.103522
   3 C :   -0.082199
   4 H :    0.108494
   5 C :   -0.070882
   6 H :    0.103564
   7 C :   -0.084031
   8 H :    0.119826
   9 C :    0.008091
  10 H :    0.071217
  11 O :   -0.152752
  12 O :   -0.298928
  13 O :   -0.314759
  14 O :   -0.309373
  15 O :   -0.312730
  16 O :   -0.337244
  17 H :    0.113475
  18 H :    0.094257
  19 H :    0.291207
  20 H :    0.296919
  21 H :    0.288241
  22 H :    0.282932
  23 H :    0.277347

  Mayer bond orders larger than 0.100000
B(  0-C ,  1-C ) :   1.0426 B(  0-C , 16-O ) :   1.0828 B(  0-C , 17-H ) :   0.9192
B(  0-C , 18-H ) :   0.9089 B(  1-C ,  2-H ) :   0.8659 B(  1-C ,  3-C ) :   0.9780
B(  1-C , 11-O ) :   1.0182 B(  3-C ,  4-H ) :   0.8828 B(  3-C ,  5-C ) :   0.9678
B(  3-C , 15-O ) :   1.0216 B(  5-C ,  6-H ) :   0.8949 B(  5-C ,  7-C ) :   1.0383
B(  5-C , 14-O ) :   1.0850 B(  7-C ,  8-H ) :   0.8926 B(  7-C ,  9-C ) :   0.9068
B(  7-C , 13-O ) :   1.0495 B(  9-C , 10-H ) :   0.9098 B(  9-C , 11-O ) :   1.0269
B(  9-C , 12-O ) :   1.1741 B( 12-O , 19-H ) :   0.8370 B( 13-O , 20-H ) :   0.8414
B( 14-O , 21-H ) :   0.8462 B( 15-O , 22-H ) :   0.8278 B( 16-O , 23-H ) :   0.8320

Dispersion correction           -0.024839487
FINAL SINGLE POINT ENERGY      -685.686978812473

DIPOLE MOMENT
-------------

Method             : SCF
Type of density    : Electron Density
Multiplicity       :   1
Irrep              :   0
Energy             :  -685.8173231933868692 Eh
Relativity type    :
Basis              : AO
                                X                 Y                 Z
Electronic contribution:      1.942178018      -0.229816843      -0.528154798
Nuclear contribution   :     -1.143914105       0.543989448       0.690034675
                        -----------------------------------------
Total Dipole Moment    :      0.798263912       0.314172605       0.161879877
                        -----------------------------------------
Magnitude (a.u.)       :      0.873003318
Magnitude (Debye)      :      2.218998089

Rotational constants in cm-1:             0.043167             0.025123             0.021607
Rotational constants in MHz :          1294.107822           753.165855           647.750253

                             ****ORCA TERMINATED NORMALLY****
TOTAL RUN TIME: 0 days 0 hours 0 minutes 12 seconds 92 msec
