                         Program Version 6.0.0  -   RELEASE  -
|  1> ! wb97x-v def2-tzvp def2/J RIJCOSX DEFGRID2 scfconv7 GCP(DFT/TZ) printgap
|  2> %output
|  3>     printlevel normal
|  4> end
|  5> * xyz 0 1
|  6> C -4.2697626341252235 -0.2573463570901575 -0.014809505075969563
|  7> C -2.780378776499724 -0.07504910105098452 -0.041899271070868715
|  8> C -1.9364473137456837 -0.8980307996670027 0.7090221566878903
|  9> C -0.5566740636187845 -0.722851929270882 0.6880863230481479
| 10> C 0.011499645714754108 0.2989735728584381 -0.07637249276986342
| 11> C -0.8269678230579212 1.1418041093164493 -0.8128917818459991
| 12> C -2.2009703247106316 0.9450807004416979 -0.8066772809119842
| 13> C 1.4746520188063774 0.5937246029432578 -0.048687073035485334
| 14> O 1.857133490862255 1.7703422584350827 0.1366327280089678
| 15> N 2.3525135542927806 -0.4231392011228796 -0.18490566661518476
| 16> C 3.7803418712450263 -0.1361949590143948 -0.05384261339757333
| 17> C 2.02885003230153 -1.7331316718732315 -0.7498481917305654
| 18> H -4.7416874280641075 0.5122956201261369 0.6073561813037723
| 19> H -4.695935515274738 -0.16526297308323867 -1.0183621210095166
| 20> H -4.543256941814158 -1.232703503904749 0.3949708553247795
| 21> H -2.365347994595808 -1.6886150838034026 1.3184553298648576
| 22> H 0.07600731099296291 -1.3771191836004522 1.279793034124987
| 23> H -0.3933611925554176 1.9450666350151262 -1.4007782167813838
| 24> H -2.838727449798949 1.5942104943146065 -1.4005927480548004
| 25> H 4.193316248134206 0.271696260521926 -0.9852087704797083
| 26> H 4.30098326541168 -1.0671781322751654 0.18323804524044374
| 27> H 3.9497952464190136 0.5814435571341687 0.750370359763333
| 28> H 0.9943581813641353 -1.7657482904403679 -1.0876948335309977
| 29> H 2.194991556835677 -2.5304341350845516 -0.017062600412511234
| 30> H 2.6784318644251104 -1.915657976064488 -1.6135877752231553
| 31> *
| 32>
| 33>                          ****END OF INPUT****

CARTESIAN COORDINATES (ANGSTROEM)
---------------------------------
  C     -4.269763   -0.257346   -0.014810
  C     -2.780379   -0.075049   -0.041899
  C     -1.936447   -0.898031    0.709022
  C     -0.556674   -0.722852    0.688086
  C      0.011500    0.298974   -0.076372
  C     -0.826968    1.141804   -0.812892
  C     -2.200970    0.945081   -0.806677
  C      1.474652    0.593725   -0.048687
  O      1.857133    1.770342    0.136633
  N      2.352514   -0.423139   -0.184906
  C      3.780342   -0.136195   -0.053843
  C      2.028850   -1.733132   -0.749848
  H     -4.741687    0.512296    0.607356
  H     -4.695936   -0.165263   -1.018362
  H     -4.543257   -1.232704    0.394971
  H     -2.365348   -1.688615    1.318455
  H      0.076007   -1.377119    1.279793
  H     -0.393361    1.945067   -1.400778
  H     -2.838727    1.594210   -1.400593
  H      4.193316    0.271696   -0.985209
  H      4.300983   -1.067178    0.183238
  H      3.949795    0.581444    0.750370
  H      0.994358   -1.765748   -1.087695
  H      2.194992   -2.530434   -0.017063
  H      2.678432   -1.915658   -1.613588

 Total Charge           Charge          ....    0
 Multiplicity           Mult            ....    1
 Number of Electrons    NEL             ....   88
 Basis Dimension        Dim             ....  450

ORBITAL ENERGIES
----------------

  NO   OCC          E(Eh)            E(eV)
   0   2.0000     -21.622458      -588.3770
   1   2.0000     -16.559956      -450.6193
   2   2.0000     -12.143521      -330.4420
   3   2.0000     -12.087233      -328.9103
   4   2.0000     -12.075586      -328.5934
   5   2.0000     -12.067245      -328.3664
   6   2.0000     -12.062278      -328.2313
   7   2.0000     -12.060125      -328.1727
   8   2.0000     -12.055987      -328.0601
   9   2.0000     -12.053912      -328.0036
  10   2.0000     -12.051850      -327.9475
  11   2.0000     -12.048547      -327.8576
  12   2.0000      -1.668559       -45.4038
  13   2.0000      -1.527591       -41.5679
  14   2.0000      -1.393116       -37.9086
  15   2.0000      -1.312528       -35.7157
  16   2.0000      -1.278480       -34.7892
  17   2.0000      -1.243692       -33.8426
  18   2.0000      -1.238937       -33.7132
  19   2.0000      -1.198807       -32.6212
  20   2.0000      -1.116493       -30.3813
  21   2.0000      -1.109027       -30.1782
  22   2.0000      -1.058454       -28.8020
  23   2.0000      -1.016030       -27.6476
  24   2.0000      -1.005544       -27.3622
  25   2.0000      -0.963984       -26.2313
  26   2.0000      -0.945239       -25.7213
  27   2.0000      -0.929902       -25.3039
  28   2.0000      -0.922662       -25.1069
  29   2.0000      -0.897690       -24.4274
  30   2.0000      -0.878366       -23.9016
  31   2.0000      -0.865783       -23.5592
  32   2.0000      -0.855274       -23.2732
  33   2.0000      -0.846918       -23.0458
  34   2.0000      -0.843620       -22.9561
  35   2.0000      -0.838324       -22.8120
  36   2.0000      -0.832308       -22.6483
  37   2.0000      -0.826797       -22.4983
  38   2.0000      -0.814194       -22.1554
  39   2.0000      -0.801471       -21.8091
  40   2.0000      -0.769703       -20.9447
  41   2.0000      -0.736294       -20.0356
  42   2.0000      -0.645939       -17.5769
  43   2.0000      -0.643502       -17.5106
  44   0.0000      -0.305512        -8.3134
  45   0.0000      -0.241080        -6.5601
  46   0.0000      -0.227023        -6.1776
  47   0.0000      -0.126660        -3.4466
  48   0.0000      -0.097160        -2.6439

MULLIKEN ATOMIC CHARGES
-----------------------
   0 C :   -0.366421
   1 C :    0.153283
   2 C :   -0.171592
   3 C :   -0.204603
   4 C :    0.121840
   5 C :   -0.189782
   6 C :   -0.181993
   7 C :    0.227122
   8 O :   -0.406829
   9 N :   -0.072230
  10 C :   -0.285039
  11 C :   -0.318298
  12 H :    0.130056
  13 H :    0.123594
  14 H :    0.117775
  15 H :    0.114887
  16 H :    0.130970
  17 H :    0.134494
  18 H :    0.118232
  19 H :    0.126670
  20 H :    0.119920
  21 H :    0.153116
  22 H :    0.162700
  23 H :    0.130312
  24 H :    0.131815
Sum of atomic charges:   -0.0000000

LOEWDIN ATOMIC CHARGES
----------------------
   0 C :   -0.250398
   1 C :   -0.161781
   2 C :   -0.117942
   3 C :   -0.104093
   4 C :   -0.122307
   5 C :   -0.081820
   6 C :   -0.109519
   7 C :   -0.376102
   8 O :    0.029293
   9 N :    0.157409
  10 C :   -0.272251
  11 C :   -0.279696
  12 H :    0.130351
  13 H :    0.127240
  14 H :    0.124606
  15 H :    0.143796
  16 H :    0.148639
  17 H :    0.154029
  18 H :    0.145394
  19 H :    0.115258
  20 H :    0.115050
  21 H :    0.126834
  22 H :    0.129351
  23 H :    0.111740
  24 H :    0.116922

  Mayer bond orders larger than 0.100000
B(  0-C ,  1-C ) :   0.9204 B(  0-C , 12-H ) :   0.9654 B(  0-C , 13-H ) :   0.9855
B(  0-C , 14-H ) :   0.9946 B(  1-C ,  2-C ) :   1.4005 B(  1-C ,  6-C ) :   1.3573
B(  2-C ,  3-C ) :   1.4408 B(  2-C , 15-H ) :   0.9719 B(  3-C ,  4-C ) :   1.3562
B(  3-C , 16-H ) :   0.9742 B(  4-C ,  5-C ) :   1.4040 B(  4-C ,  7-C ) :   0.8778
B(  5-C ,  6-C ) :   1.4543 B(  5-C , 17-H ) :   0.9709 B(  6-C , 18-H ) :   0.9810
B(  7-C ,  8-O ) :   2.0220 B(  7-C ,  9-N ) :   1.2821 B(  9-N , 10-C ) :   0.9312
B(  9-N , 11-C ) :   0.9217 B( 10-C , 19-H ) :   0.9782 B( 10-C , 20-H ) :   0.9696
B( 10-C , 21-H ) :   0.9697 B( 11-C , 22-H ) :   0.9699 B( 11-C , 23-H ) :   0.9793
B( 11-C , 24-H ) :   0.9699

FINAL SINGLE POINT ENERGY      -518.905845979267

DIPOLE MOMENT
-------------

Method             : SCF
Type of density    : Electron Density
Multiplicity       :   1
Irrep              :   0
Energy             :  -518.9210929037668620 Eh
Relativity type    :
Basis              : AO
                                X                 Y                 Z
Electronic contribution:      0.586871795       5.277297736       1.114134375
Nuclear contribution   :     -0.933880756      -6.793974895      -1.461639960
                        -----------------------------------------
Total Dipole Moment    :     -0.347008961      -1.516677159      -0.347505586
                        -----------------------------------------
Magnitude (a.u.)       :      1.594203549
Magnitude (Debye)      :      4.052143393

Rotational constants in cm-1:             0.079407             0.016913             0.015056
Rotational constants in MHz :          2380.576245           507.025812           451.381239

                             ****ORCA TERMINATED NORMALLY****
TOTAL RUN TIME: 0 days 0 hours 5 minutes 54 seconds 379 msec
