                         Program Version 6.0.0  -   RELEASE  -
|  1> ! wb97x-v def2-tzvp def2/J RIJCOSX DEFGRID2 scfconv7 GCP(DFT/TZ) printgap
|  2> %output
|  3>     printlevel normal
|  4> end
|  5> %cpcm
|  6>     smd true
|  7>     smdsolvent "water"
|  8> end
|  9> * xyz 0 1
| 10> C -4.2697626341252235 -0.2573463570901575 -0.014809505075969563
| 11> C -2.780378776499724 -0.07504910105098452 -0.041899271070868715
| 12> C -1.9364473137456837 -0.8980307996670027 0.7090221566878903
| 13> C -0.5566740636187845 -0.722851929270882 0.6880863230481479
| 14> C 0.011499645714754108 0.2989735728584381 -0.07637249276986342
| 15> C -0.8269678230579212 1.1418041093164493 -0.8128917818459991
| 16> C -2.2009703247106316 0.9450807004416979 -0.8066772809119842
| 17> C 1.4746520188063774 0.5937246029432578 -0.048687073035485334
| 18> O 1.857133490862255 1.7703422584350827 0.1366327280089678
| 19> N 2.3525135542927806 -0.4231392011228796 -0.18490566661518476
| 20> C 3.7803418712450263 -0.1361949590143948 -0.05384261339757333
| 21> C 2.02885003230153 -1.7331316718732315 -0.7498481917305654
| 22> H -4.7416874280641075 0.5122956201261369 0.6073561813037723
| 23> H -4.695935515274738 -0.16526297308323867 -1.0183621210095166
| 24> H -4.543256941814158 -1.232703503904749 0.3949708553247795
| 25> H -2.365347994595808 -1.6886150838034026 1.3184553298648576
| 26> H 0.07600731099296291 -1.3771191836004522 1.279793034124987
| 27> H -0.3933611925554176 1.9450666350151262 -1.4007782167813838
| 28> H -2.838727449798949 1.5942104943146065 -1.4005927480548004
| 29> H 4.193316248134206 0.271696260521926 -0.9852087704797083
| 30> H 4.30098326541168 -1.0671781322751654 0.18323804524044374
| 31> H 3.9497952464190136 0.5814435571341687 0.750370359763333
| 32> H 0.9943581813641353 -1.7657482904403679 -1.0876948335309977
| 33> H 2.194991556835677 -2.5304341350845516 -0.017062600412511234
| 34> H 2.6784318644251104 -1.915657976064488 -1.6135877752231553
| 35> *
| 36>
| 37>                          ****END OF INPUT****

CARTESIAN COORDINATES (ANGSTROEM)
---------------------------------
  C     -4.269763   -0.257346   -0.014810
  C     -2.780379   -0.075049   -0.041899
  C     -1.936447   -0.898031    0.709022
  C     -0.556674   -0.722852    0.688086
  C      0.011500    0.298974   -0.076372
  C     -0.826968    1.141804   -0.812892
  C     -2.200970    0.945081   -0.806677
  C      1.474652    0.593725   -0.048687
  O      1.857133    1.770342    0.136633
  N      2.352514   -0.423139   -0.184906
  C      3.780342   -0.136195   -0.053843
  C      2.028850   -1.733132   -0.749848
  H     -4.741687    0.512296    0.607356
  H     -4.695936   -0.165263   -1.018362
  H     -4.543257   -1.232704    0.394971
  H     -2.365348   -1.688615    1.318455
  H      0.076007   -1.377119    1.279793
  H     -0.393361    1.945067   -1.400778
  H     -2.838727    1.594210   -1.400593
  H      4.193316    0.271696   -0.985209
  H      4.300983   -1.067178    0.183238
  H      3.949795    0.581444    0.750370
  H      0.994358   -1.765748   -1.087695
  H      2.194992   -2.530434   -0.017063
  H      2.678432   -1.915658   -1.613588

 Total Charge           Charge          ....    0
 Multiplicity           Mult            ....    1
 Number of Electrons    NEL             ....   88
 Basis Dimension        Dim             ....  450

ORBITAL ENERGIES
----------------

  NO   OCC          E(Eh)            E(eV)
   0   2.0000     -21.643301      -588.9442
   1   2.0000     -16.563587      -450.7181
   2   2.0000     -12.157166      -330.8133
   3   2.0000     -12.070542      -328.4561
   4   2.0000     -12.067433      -328.3715
   5   2.0000     -12.064311      -328.2866
   6   2.0000     -12.062872      -328.2474
   7   2.0000     -12.057285      -328.0954
   8   2.0000     -12.055943      -328.0589
   9   2.0000     -12.048879      -327.8667
  10   2.0000     -12.048402      -327.8537
  11   2.0000     -12.035145      -327.4930
  12   2.0000      -1.691959       -46.0405
  13   2.0000      -1.528949       -41.6048
  14   2.0000      -1.392202       -37.8837
  15   2.0000      -1.310932       -35.6723
  16   2.0000      -1.276493       -34.7352
  17   2.0000      -1.241071       -33.7713
  18   2.0000      -1.230553       -33.4851
  19   2.0000      -1.192546       -32.4508
  20   2.0000      -1.115375       -30.3509
  21   2.0000      -1.107351       -30.1326
  22   2.0000      -1.066048       -29.0086
  23   2.0000      -1.018792       -27.7227
  24   2.0000      -1.012073       -27.5399
  25   2.0000      -0.962906       -26.2020
  26   2.0000      -0.940308       -25.5871
  27   2.0000      -0.930545       -25.3214
  28   2.0000      -0.919630       -25.0244
  29   2.0000      -0.896365       -24.3913
  30   2.0000      -0.881656       -23.9911
  31   2.0000      -0.874277       -23.7903
  32   2.0000      -0.858789       -23.3688
  33   2.0000      -0.839951       -22.8562
  34   2.0000      -0.832679       -22.6584
  35   2.0000      -0.826086       -22.4789
  36   2.0000      -0.821956       -22.3666
  37   2.0000      -0.819984       -22.3129
  38   2.0000      -0.815417       -22.1886
  39   2.0000      -0.794231       -21.6121
  40   2.0000      -0.769509       -20.9394
  41   2.0000      -0.734225       -19.9793
  42   2.0000      -0.644822       -17.5465
  43   2.0000      -0.643195       -17.5022
  44   0.0000      -0.310962        -8.4617
  45   0.0000      -0.239685        -6.5222
  46   0.0000      -0.229152        -6.2355
  47   0.0000      -0.120421        -3.2768
  48   0.0000      -0.094257        -2.5649

MULLIKEN ATOMIC CHARGES
-----------------------
   0 C :   -0.397253
   1 C :    0.133764
   2 C :   -0.216202
   3 C :   -0.221410
   4 C :    0.108416
   5 C :   -0.238554
   6 C :   -0.231388
   7 C :    0.310199
   8 O :   -0.567892
   9 N :   -0.054584
  10 C :   -0.326128
  11 C :   -0.327751
  12 H :    0.145035
  13 H :    0.144371
  14 H :    0.143276
  15 H :    0.160417
  16 H :    0.175343
  17 H :    0.161796
  18 H :    0.159511
  19 H :    0.150611
  20 H :    0.156857
  21 H :    0.148247
  22 H :    0.171887
  23 H :    0.154655
  24 H :    0.156776
Sum of atomic charges:   -0.0000000

LOEWDIN ATOMIC CHARGES
----------------------
   0 C :   -0.250175
   1 C :   -0.163630
   2 C :   -0.118243
   3 C :   -0.100225
   4 C :   -0.135603
   5 C :   -0.099681
   6 C :   -0.114449
   7 C :   -0.369134
   8 O :   -0.065667
   9 N :    0.173721
  10 C :   -0.270398
  11 C :   -0.265910
  12 H :    0.135007
  13 H :    0.132790
  14 H :    0.130674
  15 H :    0.155226
  16 H :    0.160498
  17 H :    0.157275
  18 H :    0.155600
  19 H :    0.121144
  20 H :    0.127885
  21 H :    0.123077
  22 H :    0.132291
  23 H :    0.121797
  24 H :    0.126129

  Mayer bond orders larger than 0.100000
B(  0-C ,  1-C ) :   0.9348 B(  0-C , 12-H ) :   0.9592 B(  0-C , 13-H ) :   0.9786
B(  0-C , 14-H ) :   0.9890 B(  1-C ,  2-C ) :   1.3773 B(  1-C ,  6-C ) :   1.3424
B(  2-C ,  3-C ) :   1.4309 B(  2-C , 15-H ) :   0.9777 B(  3-C ,  4-C ) :   1.3447
B(  3-C , 16-H ) :   0.9754 B(  4-C ,  5-C ) :   1.3470 B(  4-C ,  7-C ) :   0.9012
B(  5-C ,  6-C ) :   1.4610 B(  5-C , 17-H ) :   0.9764 B(  6-C , 18-H ) :   0.9856
B(  7-C ,  8-O ) :   1.8373 B(  7-C ,  9-N ) :   1.3570 B(  9-N , 10-C ) :   0.9177
B(  9-N , 11-C ) :   0.9092 B( 10-C , 19-H ) :   0.9721 B( 10-C , 20-H ) :   0.9650
B( 10-C , 21-H ) :   0.9674 B( 11-C , 22-H ) :   0.9641 B( 11-C , 23-H ) :   0.9731
B( 11-C , 24-H ) :   0.9643

FINAL SINGLE POINT ENERGY      -518.919838067919

DIPOLE MOMENT
-------------

Method             : SCF
Type of density    : Electron Density
Multiplicity       :   1
Irrep              :   0
Energy             :  -518.9350849924195472 Eh
Relativity type    :
Basis              : AO
                                X                 Y                 Z
Electronic contribution:      0.426505791       4.384112364       0.971910129
Nuclear contribution   :     -0.933880756      -6.793974895      -1.461639960
                        -----------------------------------------
Total Dipole Moment    :     -0.507374965      -2.409862531      -0.489729832
                        -----------------------------------------
Magnitude (a.u.)       :      2.510916582
Magnitude (Debye)      :      6.382242747

Rotational constants in cm-1:             0.079407             0.016913             0.015056
Rotational constants in MHz :          2380.576245           507.025812           451.381239

                             ****ORCA TERMINATED NORMALLY****
TOTAL RUN TIME: 0 days 0 hours 5 minutes 54 seconds 933 msec
