                         Program Version 6.0.0  -   RELEASE  -
|  1> ! pbe def2-sv(p) def2/J RI DEFGRID1 loosescf d4 GCP(DFT/SV(P)) printgap
|  2> %output
|  3>     printlevel normal
|  4> end
|  5> * xyz 0 1
|  6> C -2.6746983198 0.5755300235 -0.0043496616
|  7> O -1.8191473168 -0.5528135491 0.0039614262
|  8> C -0.4571858235 -0.4080401756 0.0015213976
|  9> C 0.2426352387 -1.6130281465 0.0017275346
| 10> C 1.6224592747 -1.6528858278 0.000590661
| 11> C 2.3379543256 -0.4694641169 -0.0010610235
| 12> C 1.6592969703 0.7343912064 -0.0014485476
| 13> C 0.2702370957 0.7912579149 -2.29041e-05
| 14> O -0.3685409681 2.0030132026 -0.0003311777
| 15> H -2.5247451678 1.1838524481 -0.8980229482
| 16> H -2.530370683 1.1924499991 0.8843455331
| 17> H -3.6806350006 0.1599652454 -0.0054662512
| 18> H -0.342987569 -2.5186110058 0.00294708
| 19> H 2.1313574053 -2.6033696273 0.0007580215
| 20> H 3.4161467752 -0.4774765779 -0.0019395933
| 21> H 2.2138778351 1.6619937847 -0.0027009426
| 22> H 0.2858127185 2.7178042834 -0.0012898909
| 23> *
| 24>
| 25>                          ****END OF INPUT****

CARTESIAN COORDINATES (ANGSTROEM)
---------------------------------
  C     -2.674698    0.575530   -0.004350
  O     -1.819147   -0.552814    0.003961
  C     -0.457186   -0.408040    0.001521
  C      0.242635   -1.613028    0.001728
  C      1.622459   -1.652886    0.000591
  C      2.337954   -0.469464   -0.001061
  C      1.659297    0.734391   -0.001449
  C      0.270237    0.791258   -0.000023
  O     -0.368541    2.003013   -0.000331
  H     -2.524745    1.183852   -0.898023
  H     -2.530371    1.192450    0.884346
  H     -3.680635    0.159965   -0.005466
  H     -0.342988   -2.518611    0.002947
  H      2.131357   -2.603370    0.000758
  H      3.416147   -0.477477   -0.001940
  H      2.213878    1.661994   -0.002701
  H      0.285813    2.717804   -0.001290

 Total Charge           Charge          ....    0
 Multiplicity           Mult            ....    1
 Number of Electrons    NEL             ....   66
 Basis Dimension        Dim             ....  142

ORBITAL ENERGIES
----------------

  NO   OCC          E(Eh)            E(eV)
   0   2.0000     -18.784235      -511.1450
   1   2.0000     -18.776480      -510.9340
   2   2.0000      -9.952204      -270.8132
   3   2.0000      -9.946222      -270.6505
   4   2.0000      -9.925792      -270.0945
   5   2.0000      -9.890911      -269.1454
   6   2.0000      -9.884831      -268.9799
   7   2.0000      -9.882768      -268.9238
   8   2.0000      -9.882185      -268.9079
   9   2.0000      -0.969449       -26.3800
  10   2.0000      -0.949677       -25.8420
  11   2.0000      -0.767646       -20.8887
  12   2.0000      -0.679903       -18.5011
  13   2.0000      -0.661852       -18.0099
  14   2.0000      -0.617490       -16.8028
  15   2.0000      -0.565689       -15.3932
  16   2.0000      -0.528216       -14.3735
  17   2.0000      -0.497927       -13.5493
  18   2.0000      -0.459896       -12.5144
  19   2.0000      -0.433826       -11.8050
  20   2.0000      -0.418288       -11.3822
  21   2.0000      -0.410170       -11.1613
  22   2.0000      -0.380879       -10.3642
  23   2.0000      -0.372198       -10.1280
  24   2.0000      -0.358659        -9.7596
  25   2.0000      -0.347908        -9.4671
  26   2.0000      -0.316728        -8.6186
  27   2.0000      -0.307506        -8.3677
  28   2.0000      -0.305770        -8.3204
  29   2.0000      -0.273471        -7.4415
  30   2.0000      -0.269735        -7.3399
  31   2.0000      -0.208365        -5.6699
  32   2.0000      -0.174514        -4.7488
  33   0.0000      -0.025519        -0.6944
  34   0.0000      -0.011185        -0.3044
  35   0.0000       0.017520         0.4767
  36   0.0000       0.043877         1.1939
  37   0.0000       0.071739         1.9521

MULLIKEN ATOMIC CHARGES
-----------------------
   0 C :   -0.095733
   1 O :   -0.274963
   2 C :    0.172681
   3 C :   -0.142796
   4 C :   -0.043404
   5 C :   -0.050963
   6 C :   -0.171822
   7 C :    0.151204
   8 O :   -0.353066
   9 H :    0.108382
  10 H :    0.108560
  11 H :    0.112907
  12 H :    0.045128
  13 H :    0.048070
  14 H :    0.046051
  15 H :    0.021547
  16 H :    0.318215
Sum of atomic charges:   -0.0000000

LOEWDIN ATOMIC CHARGES
----------------------
   0 C :   -0.203659
   1 O :   -0.098236
   2 C :    0.014081
   3 C :   -0.137105
   4 C :   -0.139522
   5 C :   -0.140855
   6 C :   -0.170882
   7 C :   -0.008393
   8 O :   -0.242778
   9 H :    0.109478
  10 H :    0.109491
  11 H :    0.114290
  12 H :    0.131026
  13 H :    0.123334
  14 H :    0.122439
  15 H :    0.119382
  16 H :    0.297908

  Mayer bond orders larger than 0.100000
B(  0-C ,  1-O ) :   0.9681 B(  0-C ,  9-H ) :   0.9503 B(  0-C , 10-H ) :   0.9503
B(  0-C , 11-H ) :   0.9575 B(  1-O ,  2-C ) :   1.1518 B(  2-C ,  3-C ) :   1.3883
B(  2-C ,  7-C ) :   1.3083 B(  3-C ,  4-C ) :   1.3554 B(  3-C , 12-H ) :   0.9615
B(  4-C ,  5-C ) :   1.3487 B(  4-C , 13-H ) :   0.9713 B(  5-C ,  6-C ) :   1.3561
B(  5-C , 14-H ) :   0.9671 B(  6-C ,  7-C ) :   1.3286 B(  6-C , 15-H ) :   0.9536
B(  7-C ,  8-O ) :   1.1513 B(  8-O , 16-H ) :   0.8373

Dispersion correction           -0.016897069
FINAL SINGLE POINT ENERGY      -421.082925564662

DIPOLE MOMENT
-------------

Method             : SCF
Type of density    : Electron Density
Multiplicity       :   1
Irrep              :   0
Energy             :  -421.1424875712324933 Eh
Relativity type    :
Basis              : AO
                                X                 Y                 Z
Electronic contribution:      1.153277910      -0.444553449       0.015989021
Nuclear contribution   :     -1.000171187       1.256685744      -0.019993977
                        -----------------------------------------
Total Dipole Moment    :      0.153106723       0.812132295      -0.004004956
                        -----------------------------------------
Magnitude (a.u.)       :      0.826448167
Magnitude (Debye)      :      2.100664299

Rotational constants in cm-1:             0.101544             0.049146             0.033327
Rotational constants in MHz :          3044.201863          1473.356841           999.123885

                             ****ORCA TERMINATED NORMALLY****
TOTAL RUN TIME: 0 days 0 hours 0 minutes 9 seconds 86 msec
