                         Program Version 6.0.0  -   RELEASE  -
|  1> ! r2scan-3c def2/J RI DEFGRID2 scfconv6 printgap
|  2> %output
|  3>     printlevel normal
|  4> end
|  5> * xyz 0 1
|  6> C -1.6553116112 1.2398455223 -0.0112629908
|  7> C -0.9507902485 -0.0224145859 0.4734616694
|  8> H -0.9392927483 -0.0768724805 1.5678419371
|  9> C 0.5227381726 0.0093896517 0.031293448
| 10> F 1.1818776551 1.0794350789 0.510690382
| 11> F 1.2107607092 -1.0700758048 0.4407486675
| 12> F 0.6586907261 0.052566821 -1.307209153
| 13> O -1.5438733077 -1.2087733679 0.034399581
| 14> H -2.6957459882 1.2023047577 0.295975508
| 15> H -1.6026432133 1.3089518668 -1.0958619146
| 16> H -1.1870877425 2.1186809646 0.4219338252
| 17> H -1.7568570635 -1.1519330821 -0.910619537
| 18> *
| 19>
| 20>                          ****END OF INPUT****

CARTESIAN COORDINATES (ANGSTROEM)
---------------------------------
  C     -1.655312    1.239846   -0.011263
  C     -0.950790   -0.022415    0.473462
  H     -0.939293   -0.076872    1.567842
  C      0.522738    0.009390    0.031293
  F      1.181878    1.079435    0.510690
  F      1.210761   -1.070076    0.440749
  F      0.658691    0.052567   -1.307209
  O     -1.543873   -1.208773    0.034400
  H     -2.695746    1.202305    0.295976
  H     -1.602643    1.308952   -1.095862
  H     -1.187088    2.118681    0.421934
  H     -1.756857   -1.151933   -0.910620

 Total Charge           Charge          ....    0
 Multiplicity           Mult            ....    1
 Number of Electrons    NEL             ....   58
 Basis Dimension        Dim             ....  178

ORBITAL ENERGIES
----------------

  NO   OCC          E(Eh)            E(eV)
   0   2.0000     -24.519747      -667.2162
   1   2.0000     -24.518794      -667.1903
   2   2.0000     -24.512406      -667.0165
   3   2.0000     -18.977563      -516.4057
   4   2.0000     -10.275273      -279.6044
   5   2.0000     -10.122047      -275.4349
   6   2.0000     -10.047250      -273.3996
   7   2.0000      -1.274721       -34.6869
   8   2.0000      -1.186878       -32.2966
   9   2.0000      -1.182036       -32.1648
  10   2.0000      -1.020452       -27.7679
  11   2.0000      -0.764171       -20.7941
  12   2.0000      -0.678670       -18.4675
  13   2.0000      -0.618823       -16.8390
  14   2.0000      -0.557162       -15.1612
  15   2.0000      -0.554302       -15.0833
  16   2.0000      -0.541253       -14.7282
  17   2.0000      -0.464559       -12.6413
  18   2.0000      -0.450834       -12.2678
  19   2.0000      -0.426742       -11.6122
  20   2.0000      -0.423606       -11.5269
  21   2.0000      -0.403227       -10.9724
  22   2.0000      -0.389561       -10.6005
  23   2.0000      -0.385191       -10.4816
  24   2.0000      -0.370785       -10.0896
  25   2.0000      -0.364245        -9.9116
  26   2.0000      -0.357921        -9.7395
  27   2.0000      -0.321628        -8.7519
  28   2.0000      -0.269210        -7.3256
  29   0.0000       0.043053         1.1715
  30   0.0000       0.081880         2.2281
  31   0.0000       0.093511         2.5446
  32   0.0000       0.108135         2.9425
  33   0.0000       0.131195         3.5700

MULLIKEN ATOMIC CHARGES
-----------------------
   0 C :   -0.488759
   1 C :   -0.028688
   2 H :    0.164203
   3 C :    0.566952
   4 F :   -0.215734
   5 F :   -0.199848
   6 F :   -0.225064
   7 O :   -0.386663
   8 H :    0.170565
   9 H :    0.161861
  10 H :    0.168538
  11 H :    0.312638
Sum of atomic charges:   -0.0000000

LOEWDIN ATOMIC CHARGES
----------------------
   0 C :   -0.381874
   1 C :    0.071299
   2 H :    0.201338
   3 C :    0.514486
   4 F :   -0.215873
   5 F :   -0.200383
   6 F :   -0.215921
   7 O :   -0.556127
   8 H :    0.166506
   9 H :    0.165670
  10 H :    0.172268
  11 H :    0.278611

  Mayer bond orders larger than 0.100000
B(  0-C ,  1-C ) :   0.9538 B(  0-C ,  8-H ) :   0.9685 B(  0-C ,  9-H ) :   0.9593
B(  0-C , 10-H ) :   0.9604 B(  1-C ,  2-H ) :   0.9332 B(  1-C ,  3-C ) :   0.9610
B(  1-C ,  7-O ) :   0.9771 B(  3-C ,  4-F ) :   1.0048 B(  3-C ,  5-F ) :   1.0324
B(  3-C ,  6-F ) :   1.0145 B(  7-O , 11-H ) :   0.8828

Dispersion correction           -0.002560336
FINAL SINGLE POINT ENERGY      -492.057162330013

DIPOLE MOMENT
-------------

Method             : SCF
Type of density    : Electron Density
Multiplicity       :   1
Irrep              :   0
Energy             :  -492.0664565932588630 Eh
Relativity type    :
Basis              : AO
                                X                 Y                 Z
Electronic contribution:      9.704910834      -2.606262265      -0.743989472
Nuclear contribution   :    -10.525773848       3.115591611       0.592141454
                        -----------------------------------------
Total Dipole Moment    :     -0.820863015       0.509329346      -0.151848018
                        -----------------------------------------
Magnitude (a.u.)       :      0.977900962
Magnitude (Debye)      :      2.485626710

Rotational constants in cm-1:             0.117501             0.079601             0.065342
Rotational constants in MHz :          3522.599328          2386.389518          1958.893546

                             ****ORCA TERMINATED NORMALLY****
TOTAL RUN TIME: 0 days 0 hours 0 minutes 21 seconds 445 msec
