                         Program Version 6.0.0  -   RELEASE  -
|  1> ! r2scan-3c def2/J RI DEFGRID2 scfconv6 printgap
|  2> %output
|  3>     printlevel normal
|  4> end
|  5> %cpcm
|  6>     smd true
|  7>     smdsolvent "water"
|  8> end
|  9> * xyz 0 1
| 10> C -1.6553116112 1.2398455223 -0.0112629908
| 11> C -0.9507902485 -0.0224145859 0.4734616694
| 12> H -0.9392927483 -0.0768724805 1.5678419371
| 13> C 0.5227381726 0.0093896517 0.031293448
| 14> F 1.1818776551 1.0794350789 0.510690382
| 15> F 1.2107607092 -1.0700758048 0.4407486675
| 16> F 0.6586907261 0.052566821 -1.307209153
| 17> O -1.5438733077 -1.2087733679 0.034399581
| 18> H -2.6957459882 1.2023047577 0.295975508
| 19> H -1.6026432133 1.3089518668 -1.0958619146
| 20> H -1.1870877425 2.1186809646 0.4219338252
| 21> H -1.7568570635 -1.1519330821 -0.910619537
| 22> *
| 23>
| 24>                          ****END OF INPUT****

CARTESIAN COORDINATES (ANGSTROEM)
---------------------------------
  C     -1.655312    1.239846   -0.011263
  C     -0.950790   -0.022415    0.473462
  H     -0.939293   -0.076872    1.567842
  C      0.522738    0.009390    0.031293
  F      1.181878    1.079435    0.510690
  F      1.210761   -1.070076    0.440749
  F      0.658691    0.052567   -1.307209
  O     -1.543873   -1.208773    0.034400
  H     -2.695746    1.202305    0.295976
  H     -1.602643    1.308952   -1.095862
  H     -1.187088    2.118681    0.421934
  H     -1.756857   -1.151933   -0.910620

 Total Charge           Charge          ....    0
 Multiplicity           Mult            ....    1
 Number of Electrons    NEL             ....   58
 Basis Dimension        Dim             ....  178

ORBITAL ENERGIES
----------------

  NO   OCC          E(Eh)            E(eV)
   0   2.0000     -24.519542      -667.2107
   1   2.0000     -24.518978      -667.1953
   2   2.0000     -24.517540      -667.1562
   3   2.0000     -18.968492      -516.1589
   4   2.0000     -10.274916      -279.5947
   5   2.0000     -10.108887      -275.0768
   6   2.0000     -10.025307      -272.8025
   7   2.0000      -1.276946       -34.7475
   8   2.0000      -1.187595       -32.3161
   9   2.0000      -1.186488       -32.2860
  10   2.0000      -1.010939       -27.5090
  11   2.0000      -0.751191       -20.4409
  12   2.0000      -0.670623       -18.2486
  13   2.0000      -0.610334       -16.6080
  14   2.0000      -0.558111       -15.1870
  15   2.0000      -0.556148       -15.1336
  16   2.0000      -0.535568       -14.5736
  17   2.0000      -0.450732       -12.2650
  18   2.0000      -0.442863       -12.0509
  19   2.0000      -0.428204       -11.6520
  20   2.0000      -0.424216       -11.5435
  21   2.0000      -0.393778       -10.7152
  22   2.0000      -0.389441       -10.5972
  23   2.0000      -0.384595       -10.4654
  24   2.0000      -0.370135       -10.0719
  25   2.0000      -0.349412        -9.5080
  26   2.0000      -0.347940        -9.4679
  27   2.0000      -0.311516        -8.4768
  28   2.0000      -0.263753        -7.1771
  29   0.0000       0.060381         1.6430
  30   0.0000       0.093602         2.5471
  31   0.0000       0.108642         2.9563
  32   0.0000       0.126014         3.4290
  33   0.0000       0.143572         3.9068

MULLIKEN ATOMIC CHARGES
-----------------------
   0 C :   -0.522589
   1 C :   -0.006584
   2 H :    0.194082
   3 C :    0.546192
   4 F :   -0.220361
   5 F :   -0.214437
   6 F :   -0.225684
   7 O :   -0.458154
   8 H :    0.181929
   9 H :    0.180704
  10 H :    0.180689
  11 H :    0.364214
Sum of atomic charges:   -0.0000000

LOEWDIN ATOMIC CHARGES
----------------------
   0 C :   -0.381039
   1 C :    0.073863
   2 H :    0.211530
   3 C :    0.512603
   4 F :   -0.219285
   5 F :   -0.212956
   6 F :   -0.218349
   7 O :   -0.583354
   8 H :    0.172239
   9 H :    0.172078
  10 H :    0.175773
  11 H :    0.296897

  Mayer bond orders larger than 0.100000
B(  0-C ,  1-C ) :   0.9378 B(  0-C ,  8-H ) :   0.9609 B(  0-C ,  9-H ) :   0.9582
B(  0-C , 10-H ) :   0.9578 B(  1-C ,  2-H ) :   0.9244 B(  1-C ,  3-C ) :   0.9667
B(  1-C ,  7-O ) :   0.9645 B(  3-C ,  4-F ) :   1.0085 B(  3-C ,  5-F ) :   1.0196
B(  3-C ,  6-F ) :   1.0200 B(  7-O , 11-H ) :   0.8559

Dispersion correction           -0.002560336
FINAL SINGLE POINT ENERGY      -492.063890767345

DIPOLE MOMENT
-------------

Method             : SCF
Type of density    : Electron Density
Multiplicity       :   1
Irrep              :   0
Energy             :  -492.0731850305914463 Eh
Relativity type    :
Basis              : AO
                                X                 Y                 Z
Electronic contribution:      9.520276685      -2.426351924      -0.822201402
Nuclear contribution   :    -10.525773848       3.115591611       0.592141454
                        -----------------------------------------
Total Dipole Moment    :     -1.005497163       0.689239687      -0.230059948
                        -----------------------------------------
Magnitude (a.u.)       :      1.240565786
Magnitude (Debye)      :      3.153267635

Rotational constants in cm-1:             0.117501             0.079601             0.065342
Rotational constants in MHz :          3522.599328          2386.389518          1958.893546

                             ****ORCA TERMINATED NORMALLY****
TOTAL RUN TIME: 0 days 0 hours 0 minutes 24 seconds 680 msec
