                         Program Version 6.0.0  -   RELEASE  -
|  1> ! r2scan-3c def2/J RI DEFGRID2 scfconv6 printgap
|  2> %output
|  3>     printlevel normal
|  4> end
|  5> * xyz 0 1
|  6> C 1.9386562464 -0.1337487722 -1.67108e-05
|  7> C 0.560954359 0.5180786336 3.18013e-05
|  8> C -0.5609547099 -0.5180830027 2.36322e-05
|  9> C -1.9386512516 0.1337543685 -2.35376e-05
| 10> H 2.0641605656 -0.7583267309 -0.8817410809
| 11> H 2.7200487004 0.6222539577 -8.00587e-05
| 12> H 2.0641279456 -0.7583745255 0.8817113734
| 13> H 0.460802487 1.155431679 0.8816617792
| 14> H 0.4608926061 1.1554058536 -0.8816125387
| 15> H -0.4607935349 -1.1554341804 -0.8815899726
| 16> H -0.4609135747 -1.1554453123 0.8816466944
| 17> H -2.0642492034 0.7584021692 0.8816490193
| 18> H -2.7200216036 -0.6222476349 -6.34148e-05
| 19> H -2.0641097253 0.7583201014 -0.8817627472
| 20> *
| 21>
| 22>                          ****END OF INPUT****

CARTESIAN COORDINATES (ANGSTROEM)
---------------------------------
  C      1.938656   -0.133749   -0.000017
  C      0.560954    0.518079    0.000032
  C     -0.560955   -0.518083    0.000024
  C     -1.938651    0.133754   -0.000024
  H      2.064161   -0.758327   -0.881741
  H      2.720049    0.622254   -0.000080
  H      2.064128   -0.758375    0.881711
  H      0.460802    1.155432    0.881662
  H      0.460893    1.155406   -0.881613
  H     -0.460794   -1.155434   -0.881590
  H     -0.460914   -1.155445    0.881647
  H     -2.064249    0.758402    0.881649
  H     -2.720022   -0.622248   -0.000063
  H     -2.064110    0.758320   -0.881763

 Total Charge           Charge          ....    0
 Multiplicity           Mult            ....    1
 Number of Electrons    NEL             ....   34
 Basis Dimension        Dim             ....  126

ORBITAL ENERGIES
----------------

  NO   OCC          E(Eh)            E(eV)
   0   2.0000     -10.020755      -272.6786
   1   2.0000     -10.020624      -272.6751
   2   2.0000     -10.012984      -272.4671
   3   2.0000     -10.012980      -272.4670
   4   2.0000      -0.759821       -20.6758
   5   2.0000      -0.689284       -18.7564
   6   2.0000      -0.594077       -16.1656
   7   2.0000      -0.540379       -14.7044
   8   2.0000      -0.437541       -11.9061
   9   2.0000      -0.394420       -10.7327
  10   2.0000      -0.385526       -10.4907
  11   2.0000      -0.379254       -10.3200
  12   2.0000      -0.335590        -9.1319
  13   2.0000      -0.317730        -8.6459
  14   2.0000      -0.300318        -8.1721
  15   2.0000      -0.290783        -7.9126
  16   2.0000      -0.287807        -7.8316
  17   0.0000       0.103885         2.8269
  18   0.0000       0.109278         2.9736
  19   0.0000       0.138076         3.7572
  20   0.0000       0.147272         4.0075
  21   0.0000       0.149808         4.0765

MULLIKEN ATOMIC CHARGES
-----------------------
   0 C :   -0.457385
   1 C :   -0.227501
   2 C :   -0.227500
   3 C :   -0.457389
   4 H :    0.139274
   5 H :    0.144315
   6 H :    0.139268
   7 H :    0.131015
   8 H :    0.131014
   9 H :    0.131013
  10 H :    0.131016
  11 H :    0.139272
  12 H :    0.144315
  13 H :    0.139272
Sum of atomic charges:    0.0000000

LOEWDIN ATOMIC CHARGES
----------------------
   0 C :   -0.426819
   1 C :   -0.320524
   2 C :   -0.320523
   3 C :   -0.426817
   4 H :    0.149123
   5 H :    0.149532
   6 H :    0.149128
   7 H :    0.149783
   8 H :    0.149780
   9 H :    0.149781
  10 H :    0.149780
  11 H :    0.149125
  12 H :    0.149530
  13 H :    0.149123

  Mayer bond orders larger than 0.100000
B(  0-C ,  1-C ) :   0.9085 B(  0-C ,  4-H ) :   0.9822 B(  0-C ,  5-H ) :   0.9752
B(  0-C ,  6-H ) :   0.9822 B(  1-C ,  2-C ) :   0.9331 B(  1-C ,  7-H ) :   0.9699
B(  1-C ,  8-H ) :   0.9699 B(  2-C ,  3-C ) :   0.9085 B(  2-C ,  9-H ) :   0.9699
B(  2-C , 10-H ) :   0.9699 B(  3-C , 11-H ) :   0.9821 B(  3-C , 12-H ) :   0.9752
B(  3-C , 13-H ) :   0.9822

Dispersion correction           -0.002617121
FINAL SINGLE POINT ENERGY      -158.388973209712

DIPOLE MOMENT
-------------

Method             : SCF
Type of density    : Electron Density
Multiplicity       :   1
Irrep              :   0
Energy             :  -158.3929143752637572 Eh
Relativity type    :
Basis              : AO
                                X                 Y                 Z
Electronic contribution:      0.000038642       0.000010868       0.000136219
Nuclear contribution   :     -0.000051916      -0.000013719      -0.000169759
                        -----------------------------------------
Total Dipole Moment    :     -0.000013274      -0.000002851      -0.000033540
                        -----------------------------------------
Magnitude (a.u.)       :      0.000036184
Magnitude (Debye)      :      0.000091971

Rotational constants in cm-1:             0.779431             0.122992             0.115342
Rotational constants in MHz :         23366.759281          3687.217286          3457.863476

                             ****ORCA TERMINATED NORMALLY****
TOTAL RUN TIME: 0 days 0 hours 0 minutes 10 seconds 377 msec
