                         Program Version 6.0.0  -   RELEASE  -
|  1> ! r2scan-3c def2/J RI DEFGRID2 scfconv6 printgap
|  2> %output
|  3>     printlevel normal
|  4> end
|  5> %cpcm
|  6>     smd true
|  7>     smdsolvent "water"
|  8> end
|  9> * xyz 0 1
| 10> C 1.9386562464 -0.1337487722 -1.67108e-05
| 11> C 0.560954359 0.5180786336 3.18013e-05
| 12> C -0.5609547099 -0.5180830027 2.36322e-05
| 13> C -1.9386512516 0.1337543685 -2.35376e-05
| 14> H 2.0641605656 -0.7583267309 -0.8817410809
| 15> H 2.7200487004 0.6222539577 -8.00587e-05
| 16> H 2.0641279456 -0.7583745255 0.8817113734
| 17> H 0.460802487 1.155431679 0.8816617792
| 18> H 0.4608926061 1.1554058536 -0.8816125387
| 19> H -0.4607935349 -1.1554341804 -0.8815899726
| 20> H -0.4609135747 -1.1554453123 0.8816466944
| 21> H -2.0642492034 0.7584021692 0.8816490193
| 22> H -2.7200216036 -0.6222476349 -6.34148e-05
| 23> H -2.0641097253 0.7583201014 -0.8817627472
| 24> *
| 25>
| 26>                          ****END OF INPUT****

CARTESIAN COORDINATES (ANGSTROEM)
---------------------------------
  C      1.938656   -0.133749   -0.000017
  C      0.560954    0.518079    0.000032
  C     -0.560955   -0.518083    0.000024
  C     -1.938651    0.133754   -0.000024
  H      2.064161   -0.758327   -0.881741
  H      2.720049    0.622254   -0.000080
  H      2.064128   -0.758375    0.881711
  H      0.460802    1.155432    0.881662
  H      0.460893    1.155406   -0.881613
  H     -0.460794   -1.155434   -0.881590
  H     -0.460914   -1.155445    0.881647
  H     -2.064249    0.758402    0.881649
  H     -2.720022   -0.622248   -0.000063
  H     -2.064110    0.758320   -0.881763

 Total Charge           Charge          ....    0
 Multiplicity           Mult            ....    1
 Number of Electrons    NEL             ....   34
 Basis Dimension        Dim             ....  126

ORBITAL ENERGIES
----------------

  NO   OCC          E(Eh)            E(eV)
   0   2.0000     -10.013980      -272.4943
   1   2.0000     -10.013850      -272.4907
   2   2.0000     -10.006577      -272.2928
   3   2.0000     -10.006574      -272.2927
   4   2.0000      -0.753419       -20.5016
   5   2.0000      -0.683360       -18.5952
   6   2.0000      -0.588231       -16.0066
   7   2.0000      -0.534173       -14.5356
   8   2.0000      -0.430676       -11.7193
   9   2.0000      -0.388332       -10.5671
  10   2.0000      -0.379608       -10.3297
  11   2.0000      -0.372918       -10.1476
  12   2.0000      -0.329522        -8.9667
  13   2.0000      -0.311187        -8.4678
  14   2.0000      -0.294204        -8.0057
  15   2.0000      -0.283569        -7.7163
  16   2.0000      -0.281539        -7.6611
  17   0.0000       0.110920         3.0183
  18   0.0000       0.114780         3.1233
  19   0.0000       0.142447         3.8762
  20   0.0000       0.151983         4.1357
  21   0.0000       0.157953         4.2981

MULLIKEN ATOMIC CHARGES
-----------------------
   0 C :   -0.499095
   1 C :   -0.236247
   2 C :   -0.236247
   3 C :   -0.499095
   4 H :    0.150690
   5 H :    0.153881
   6 H :    0.150681
   7 H :    0.140045
   8 H :    0.140045
   9 H :    0.140045
  10 H :    0.140047
  11 H :    0.150687
  12 H :    0.153880
  13 H :    0.150685
Sum of atomic charges:    0.0000000

LOEWDIN ATOMIC CHARGES
----------------------
   0 C :   -0.435655
   1 C :   -0.322974
   2 C :   -0.322972
   3 C :   -0.435651
   4 H :    0.151594
   5 H :    0.151733
   6 H :    0.151597
   7 H :    0.151853
   8 H :    0.151852
   9 H :    0.151852
  10 H :    0.151851
  11 H :    0.151595
  12 H :    0.151731
  13 H :    0.151593

  Mayer bond orders larger than 0.100000
B(  0-C ,  1-C ) :   0.9000 B(  0-C ,  4-H ) :   0.9800 B(  0-C ,  5-H ) :   0.9725
B(  0-C ,  6-H ) :   0.9800 B(  1-C ,  2-C ) :   0.9260 B(  1-C ,  7-H ) :   0.9696
B(  1-C ,  8-H ) :   0.9696 B(  2-C ,  3-C ) :   0.9000 B(  2-C ,  9-H ) :   0.9696
B(  2-C , 10-H ) :   0.9696 B(  3-C , 11-H ) :   0.9800 B(  3-C , 12-H ) :   0.9725
B(  3-C , 13-H ) :   0.9800

Dispersion correction           -0.002617121
FINAL SINGLE POINT ENERGY      -158.386177382447

DIPOLE MOMENT
-------------

Method             : SCF
Type of density    : Electron Density
Multiplicity       :   1
Irrep              :   0
Energy             :  -158.3901185479985543 Eh
Relativity type    :
Basis              : AO
                                X                 Y                 Z
Electronic contribution:      0.000035137       0.000006653       0.000119596
Nuclear contribution   :     -0.000051916      -0.000013719      -0.000169759
                        -----------------------------------------
Total Dipole Moment    :     -0.000016779      -0.000007066      -0.000050163
                        -----------------------------------------
Magnitude (a.u.)       :      0.000053364
Magnitude (Debye)      :      0.000135642

Rotational constants in cm-1:             0.779431             0.122992             0.115342
Rotational constants in MHz :         23366.759281          3687.217286          3457.863476

                             ****ORCA TERMINATED NORMALLY****
TOTAL RUN TIME: 0 days 0 hours 0 minutes 10 seconds 997 msec
