                         Program Version 6.0.0  -   RELEASE  -
|  1> ! wb97x-v def2-tzvp def2/J RIJCOSX DEFGRID2 scfconv7 GCP(DFT/TZ) printgap
|  2> %output
|  3>     printlevel normal
|  4> end
|  5> * xyz 0 1
|  6> C -2.6757285378052527 -1.4399072552395709 -0.0740916699884163
|  7> C -1.9633410007163006 -0.0957013551119717 0.01138219650923168
|  8> C -0.4533599976036787 -0.14018686794320975 -0.006135899966473085
|  9> C 0.2503992605607599 -1.343494326963221 -0.09824105934690534
| 10> C 1.6448326587325026 -1.371214960008916 -0.11290889741228884
| 11> C 2.3594400965281266 -0.18175782690116865 -0.034173659962400287
| 12> C 1.6697149364145916 1.0256769742467609 0.057828015740389205
| 13> C 0.2739561450858416 1.0677599325242961 0.07271555707850987
| 14> C -0.43745455025203767 2.3870822532588454 0.17099976462041105
| 15> H -3.7588163235357284 -1.2874475367593652 -0.05163728715515271
| 16> H -2.4141574840391544 -2.091689923472517 0.7659568400863502
| 17> H -2.4340636378286495 -1.9694346523948052 -1.0015748596348484
| 18> H -2.2838840028245064 0.4262077071837805 0.9232760664549463
| 19> H -2.301493941724048 0.5453660293045723 -0.8141829907558135
| 20> H -0.2925528875456231 -2.2807462195423476 -0.159884640818251
| 21> H 2.165648460752896 -2.3213779494701 -0.18518045214219028
| 22> H 3.445193278079353 -0.18910399433896957 -0.04409150607405804
| 23> H 2.2240871666346522 1.9587619177933275 0.11907901896083077
| 24> H 0.27833354254475423 3.2109082451027904 0.22189547810836874
| 25> H -1.0916517467308606 2.5548286862330154 -0.6926856127904402
| 26> H -1.0764010475723318 2.4333076321307847 1.0607361440124796
| 27> *
| 28>
| 29>                          ****END OF INPUT****

CARTESIAN COORDINATES (ANGSTROEM)
---------------------------------
  C     -2.675729   -1.439907   -0.074092
  C     -1.963341   -0.095701    0.011382
  C     -0.453360   -0.140187   -0.006136
  C      0.250399   -1.343494   -0.098241
  C      1.644833   -1.371215   -0.112909
  C      2.359440   -0.181758   -0.034174
  C      1.669715    1.025677    0.057828
  C      0.273956    1.067760    0.072716
  C     -0.437455    2.387082    0.171000
  H     -3.758816   -1.287448   -0.051637
  H     -2.414157   -2.091690    0.765957
  H     -2.434064   -1.969435   -1.001575
  H     -2.283884    0.426208    0.923276
  H     -2.301494    0.545366   -0.814183
  H     -0.292553   -2.280746   -0.159885
  H      2.165648   -2.321378   -0.185180
  H      3.445193   -0.189104   -0.044092
  H      2.224087    1.958762    0.119079
  H      0.278334    3.210908    0.221895
  H     -1.091652    2.554829   -0.692686
  H     -1.076401    2.433308    1.060736

 Total Charge           Charge          ....    0
 Multiplicity           Mult            ....    1
 Number of Electrons    NEL             ....   66
 Basis Dimension        Dim             ....  351

ORBITAL ENERGIES
----------------

  NO   OCC          E(Eh)            E(eV)
   0   2.0000     -12.054645      -328.0236
   1   2.0000     -12.052695      -327.9705
   2   2.0000     -12.049313      -327.8785
   3   2.0000     -12.044607      -327.7504
   4   2.0000     -12.043716      -327.7262
   5   2.0000     -12.042296      -327.6875
   6   2.0000     -12.041989      -327.6792
   7   2.0000     -12.041225      -327.6584
   8   2.0000     -12.038156      -327.5749
   9   2.0000      -1.381765       -37.5997
  10   2.0000      -1.302132       -35.4328
  11   2.0000      -1.285152       -34.9708
  12   2.0000      -1.239422       -33.7264
  13   2.0000      -1.188574       -32.3427
  14   2.0000      -1.132667       -30.8214
  15   2.0000      -1.080081       -29.3905
  16   2.0000      -1.062402       -28.9094
  17   2.0000      -0.954465       -25.9723
  18   2.0000      -0.946664       -25.7600
  19   2.0000      -0.904266       -24.6063
  20   2.0000      -0.877628       -23.8815
  21   2.0000      -0.874378       -23.7930
  22   2.0000      -0.864440       -23.5226
  23   2.0000      -0.834973       -22.7208
  24   2.0000      -0.833866       -22.6906
  25   2.0000      -0.826165       -22.4811
  26   2.0000      -0.814907       -22.1747
  27   2.0000      -0.793450       -21.5909
  28   2.0000      -0.783082       -21.3088
  29   2.0000      -0.780658       -21.2428
  30   2.0000      -0.748222       -20.3602
  31   2.0000      -0.629306       -17.1243
  32   2.0000      -0.623154       -16.9569
  33   0.0000      -0.234398        -6.3783
  34   0.0000      -0.229668        -6.2496
  35   0.0000      -0.065953        -1.7947
  36   0.0000      -0.054390        -1.4800
  37   0.0000      -0.029941        -0.8147

MULLIKEN ATOMIC CHARGES
-----------------------
   0 C :   -0.367963
   1 C :   -0.137799
   2 C :    0.074399
   3 C :   -0.195033
   4 C :   -0.143068
   5 C :   -0.127287
   6 C :   -0.169380
   7 C :    0.051981
   8 C :   -0.353080
   9 H :    0.120614
  10 H :    0.118625
  11 H :    0.118439
  12 H :    0.098328
  13 H :    0.098430
  14 H :    0.124604
  15 H :    0.112331
  16 H :    0.112845
  17 H :    0.105678
  18 H :    0.117320
  19 H :    0.119974
  20 H :    0.120043
Sum of atomic charges:    0.0000000

LOEWDIN ATOMIC CHARGES
----------------------
   0 C :   -0.302573
   1 C :   -0.240825
   2 C :   -0.116231
   3 C :   -0.118384
   4 C :   -0.146573
   5 C :   -0.147104
   6 C :   -0.120412
   7 C :   -0.140847
   8 C :   -0.250528
   9 H :    0.118466
  10 H :    0.118793
  11 H :    0.118749
  12 H :    0.142497
  13 H :    0.142484
  14 H :    0.145291
  15 H :    0.139846
  16 H :    0.139859
  17 H :    0.141840
  18 H :    0.124250
  19 H :    0.125734
  20 H :    0.125667

  Mayer bond orders larger than 0.100000
B(  0-C ,  1-C ) :   0.9986 B(  0-C ,  9-H ) :   0.9817 B(  0-C , 10-H ) :   0.9809
B(  0-C , 11-H ) :   0.9808 B(  1-C ,  2-C ) :   0.9559 B(  1-C , 12-H ) :   0.9662
B(  1-C , 13-H ) :   0.9658 B(  2-C ,  3-C ) :   1.3926 B(  2-C ,  7-C ) :   1.3358
B(  3-C ,  4-C ) :   1.4336 B(  3-C , 14-H ) :   0.9679 B(  4-C ,  5-C ) :   1.4379
B(  4-C , 15-H ) :   0.9772 B(  5-C ,  6-C ) :   1.4120 B(  5-C , 16-H ) :   0.9783
B(  6-C ,  7-C ) :   1.4498 B(  6-C , 17-H ) :   0.9723 B(  7-C ,  8-C ) :   0.9409
B(  8-C , 18-H ) :   0.9885 B(  8-C , 19-H ) :   0.9789 B(  8-C , 20-H ) :   0.9790

FINAL SINGLE POINT ENERGY      -350.203730765636

DIPOLE MOMENT
-------------

Method             : SCF
Type of density    : Electron Density
Multiplicity       :   1
Irrep              :   0
Energy             :  -350.2165242915361318 Eh
Relativity type    :
Basis              : AO
                                X                 Y                 Z
Electronic contribution:      6.851240487      -0.812408148      -0.122725815
Nuclear contribution   :     -7.113786011       0.938182399       0.133770312
                        -----------------------------------------
Total Dipole Moment    :     -0.262545524       0.125774251       0.011044497
                        -----------------------------------------
Magnitude (a.u.)       :      0.291326785
Magnitude (Debye)      :      0.740493839

Rotational constants in cm-1:             0.080134             0.048847             0.030867
Rotational constants in MHz :          2402.358442          1464.402102           925.364236

                             ****ORCA TERMINATED NORMALLY****
TOTAL RUN TIME: 0 days 0 hours 3 minutes 53 seconds 633 msec
