                         Program Version 6.0.0  -   RELEASE  -
|  1> ! wb97x-v def2-tzvp def2/J RIJCOSX DEFGRID2 scfconv7 GCP(DFT/TZ) printgap
|  2> %output
|  3>     printlevel normal
|  4> end
|  5> %cpcm
|  6>     smd true
|  7>     smdsolvent "water"
|  8> end
|  9> * xyz 0 1
| 10> C -2.6757285378052527 -1.4399072552395709 -0.0740916699884163
| 11> C -1.9633410007163006 -0.0957013551119717 0.01138219650923168
| 12> C -0.4533599976036787 -0.14018686794320975 -0.006135899966473085
| 13> C 0.2503992605607599 -1.343494326963221 -0.09824105934690534
| 14> C 1.6448326587325026 -1.371214960008916 -0.11290889741228884
| 15> C 2.3594400965281266 -0.18175782690116865 -0.034173659962400287
| 16> C 1.6697149364145916 1.0256769742467609 0.057828015740389205
| 17> C 0.2739561450858416 1.0677599325242961 0.07271555707850987
| 18> C -0.43745455025203767 2.3870822532588454 0.17099976462041105
| 19> H -3.7588163235357284 -1.2874475367593652 -0.05163728715515271
| 20> H -2.4141574840391544 -2.091689923472517 0.7659568400863502
| 21> H -2.4340636378286495 -1.9694346523948052 -1.0015748596348484
| 22> H -2.2838840028245064 0.4262077071837805 0.9232760664549463
| 23> H -2.301493941724048 0.5453660293045723 -0.8141829907558135
| 24> H -0.2925528875456231 -2.2807462195423476 -0.159884640818251
| 25> H 2.165648460752896 -2.3213779494701 -0.18518045214219028
| 26> H 3.445193278079353 -0.18910399433896957 -0.04409150607405804
| 27> H 2.2240871666346522 1.9587619177933275 0.11907901896083077
| 28> H 0.27833354254475423 3.2109082451027904 0.22189547810836874
| 29> H -1.0916517467308606 2.5548286862330154 -0.6926856127904402
| 30> H -1.0764010475723318 2.4333076321307847 1.0607361440124796
| 31> *
| 32>
| 33>                          ****END OF INPUT****

CARTESIAN COORDINATES (ANGSTROEM)
---------------------------------
  C     -2.675729   -1.439907   -0.074092
  C     -1.963341   -0.095701    0.011382
  C     -0.453360   -0.140187   -0.006136
  C      0.250399   -1.343494   -0.098241
  C      1.644833   -1.371215   -0.112909
  C      2.359440   -0.181758   -0.034174
  C      1.669715    1.025677    0.057828
  C      0.273956    1.067760    0.072716
  C     -0.437455    2.387082    0.171000
  H     -3.758816   -1.287448   -0.051637
  H     -2.414157   -2.091690    0.765957
  H     -2.434064   -1.969435   -1.001575
  H     -2.283884    0.426208    0.923276
  H     -2.301494    0.545366   -0.814183
  H     -0.292553   -2.280746   -0.159885
  H      2.165648   -2.321378   -0.185180
  H      3.445193   -0.189104   -0.044092
  H      2.224087    1.958762    0.119079
  H      0.278334    3.210908    0.221895
  H     -1.091652    2.554829   -0.692686
  H     -1.076401    2.433308    1.060736

 Total Charge           Charge          ....    0
 Multiplicity           Mult            ....    1
 Number of Electrons    NEL             ....   66
 Basis Dimension        Dim             ....  351

ORBITAL ENERGIES
----------------

  NO   OCC          E(Eh)            E(eV)
   0   2.0000     -12.053961      -328.0050
   1   2.0000     -12.051893      -327.9487
   2   2.0000     -12.044140      -327.7377
   3   2.0000     -12.042968      -327.7058
   4   2.0000     -12.041353      -327.6619
   5   2.0000     -12.040699      -327.6441
   6   2.0000     -12.039623      -327.6148
   7   2.0000     -12.032054      -327.4088
   8   2.0000     -12.027277      -327.2788
   9   2.0000      -1.382146       -37.6101
  10   2.0000      -1.299211       -35.3533
  11   2.0000      -1.283114       -34.9153
  12   2.0000      -1.234593       -33.5950
  13   2.0000      -1.183380       -32.2014
  14   2.0000      -1.127457       -30.6797
  15   2.0000      -1.077834       -29.3294
  16   2.0000      -1.058374       -28.7998
  17   2.0000      -0.953240       -25.9390
  18   2.0000      -0.944203       -25.6931
  19   2.0000      -0.899823       -24.4854
  20   2.0000      -0.873609       -23.7721
  21   2.0000      -0.865093       -23.5404
  22   2.0000      -0.861468       -23.4417
  23   2.0000      -0.826760       -22.4973
  24   2.0000      -0.826494       -22.4901
  25   2.0000      -0.819137       -22.2898
  26   2.0000      -0.807868       -21.9832
  27   2.0000      -0.788988       -21.4694
  28   2.0000      -0.774660       -21.0796
  29   2.0000      -0.772370       -21.0173
  30   2.0000      -0.747715       -20.3463
  31   2.0000      -0.631300       -17.1786
  32   2.0000      -0.624017       -16.9804
  33   0.0000      -0.235485        -6.4079
  34   0.0000      -0.231231        -6.2921
  35   0.0000      -0.066311        -1.8044
  36   0.0000      -0.048261        -1.3133
  37   0.0000      -0.022526        -0.6130

MULLIKEN ATOMIC CHARGES
-----------------------
   0 C :   -0.401155
   1 C :   -0.150541
   2 C :    0.045429
   3 C :   -0.233386
   4 C :   -0.194939
   5 C :   -0.177411
   6 C :   -0.216438
   7 C :    0.034822
   8 C :   -0.397917
   9 H :    0.137609
  10 H :    0.128805
  11 H :    0.128691
  12 H :    0.120606
  13 H :    0.120663
  14 H :    0.163394
  15 H :    0.156133
  16 H :    0.157061
  17 H :    0.151979
  18 H :    0.142303
  19 H :    0.142098
  20 H :    0.142194
Sum of atomic charges:    0.0000000

LOEWDIN ATOMIC CHARGES
----------------------
   0 C :   -0.306462
   1 C :   -0.240238
   2 C :   -0.122204
   3 C :   -0.129210
   4 C :   -0.162064
   5 C :   -0.162658
   6 C :   -0.131679
   7 C :   -0.147375
   8 C :   -0.252751
   9 H :    0.121371
  10 H :    0.120808
  11 H :    0.120783
  12 H :    0.148529
  13 H :    0.148521
  14 H :    0.153755
  15 H :    0.148443
  16 H :    0.148479
  17 H :    0.151565
  18 H :    0.129161
  19 H :    0.131627
  20 H :    0.131598

  Mayer bond orders larger than 0.100000
B(  0-C ,  1-C ) :   0.9925 B(  0-C ,  9-H ) :   0.9789 B(  0-C , 10-H ) :   0.9775
B(  0-C , 11-H ) :   0.9775 B(  1-C ,  2-C ) :   0.9679 B(  1-C , 12-H ) :   0.9642
B(  1-C , 13-H ) :   0.9638 B(  2-C ,  3-C ) :   1.3722 B(  2-C ,  7-C ) :   1.3099
B(  3-C ,  4-C ) :   1.4089 B(  3-C , 14-H ) :   0.9751 B(  4-C ,  5-C ) :   1.4161
B(  4-C , 15-H ) :   0.9827 B(  5-C ,  6-C ) :   1.3879 B(  5-C , 16-H ) :   0.9818
B(  6-C ,  7-C ) :   1.4316 B(  6-C , 17-H ) :   0.9795 B(  7-C ,  8-C ) :   0.9518
B(  8-C , 18-H ) :   0.9832 B(  8-C , 19-H ) :   0.9732 B(  8-C , 20-H ) :   0.9733

FINAL SINGLE POINT ENERGY      -350.205015675647

DIPOLE MOMENT
-------------

Method             : SCF
Type of density    : Electron Density
Multiplicity       :   1
Irrep              :   0
Energy             :  -350.2178092015469701 Eh
Relativity type    :
Basis              : AO
                                X                 Y                 Z
Electronic contribution:      6.705382508      -0.716402920      -0.114452137
Nuclear contribution   :     -7.113786011       0.938182399       0.133770312
                        -----------------------------------------
Total Dipole Moment    :     -0.408403504       0.221779479       0.019318176
                        -----------------------------------------
Magnitude (a.u.)       :      0.465137347
Magnitude (Debye)      :      1.182285177

Rotational constants in cm-1:             0.080134             0.048847             0.030867
Rotational constants in MHz :          2402.358442          1464.402102           925.364236

                             ****ORCA TERMINATED NORMALLY****
TOTAL RUN TIME: 0 days 0 hours 3 minutes 40 seconds 905 msec
