                         Program Version 6.0.0  -   RELEASE  -
|  1> ! r2scan-3c def2/J RI DEFGRID2 scfconv6 printgap
|  2> %output
|  3>     printlevel normal
|  4> end
|  5> * xyz 0 1
|  6> C -3.3921115635 0.5286079836 -0.0081294449
|  7> C -1.9084247989 0.518965469 0.3430474615
|  8> H -1.7782739582 0.8508182261 1.3786777023
|  9> C -1.1020463869 1.4580211332 -0.5696447559
| 10> C 0.3817487978 1.4271066983 -0.2234043795
| 11> C 0.9288079909 0.0068640153 -0.3730034873
| 12> H 0.7431618658 -0.3293502582 -1.3995437073
| 13> C 0.1504932832 -0.9346210886 0.5695521796
| 14> C -1.3155128195 -0.8678638685 0.2391197712
| 15> O -1.9522931169 -1.841674201 -0.1123948851
| 16> C 2.4130745637 -0.0943372886 -0.112171818
| 17> C 3.2082143254 -0.7213924022 -0.9657296187
| 18> C 2.940604815 0.534094644 1.1411732384
| 19> H -3.7990329506 1.5310186898 0.0904914459
| 20> H -3.5380757163 0.1867740957 -1.0304584938
| 21> H -3.9391629318 -0.1430324996 0.6491933265
| 22> H -1.2470344766 1.1505929746 -1.6079587332
| 23> H -1.4915261393 2.4714319163 -0.4636495938
| 24> H 0.9273302695 2.0964599853 -0.8906463477
| 25> H 0.5207761812 1.774185676 0.8008263089
| 26> H 0.5037704365 -1.9611626476 0.4599697538
| 27> H 0.2938574849 -0.6159018594 1.6024951595
| 28> H 4.2669658551 -0.8154737928 -0.7938364027
| 29> H 2.8350082568 -1.1673404323 -1.8725014937
| 30> H 3.9757518481 0.2468572279 1.301597383
| 31> H 2.89385335 1.619125314 1.0668473534
| 32> H 2.3567765505 0.2286493025 2.0063354778
| 33> *
| 34>
| 35>                          ****END OF INPUT****

CARTESIAN COORDINATES (ANGSTROEM)
---------------------------------
  C     -3.392112    0.528608   -0.008129
  C     -1.908425    0.518965    0.343047
  H     -1.778274    0.850818    1.378678
  C     -1.102046    1.458021   -0.569645
  C      0.381749    1.427107   -0.223404
  C      0.928808    0.006864   -0.373003
  H      0.743162   -0.329350   -1.399544
  C      0.150493   -0.934621    0.569552
  C     -1.315513   -0.867864    0.239120
  O     -1.952293   -1.841674   -0.112395
  C      2.413075   -0.094337   -0.112172
  C      3.208214   -0.721392   -0.965730
  C      2.940605    0.534095    1.141173
  H     -3.799033    1.531019    0.090491
  H     -3.538076    0.186774   -1.030458
  H     -3.939163   -0.143032    0.649193
  H     -1.247034    1.150593   -1.607959
  H     -1.491526    2.471432   -0.463650
  H      0.927330    2.096460   -0.890646
  H      0.520776    1.774186    0.800826
  H      0.503770   -1.961163    0.459970
  H      0.293857   -0.615902    1.602495
  H      4.266966   -0.815474   -0.793836
  H      2.835008   -1.167340   -1.872501
  H      3.975752    0.246857    1.301597
  H      2.893853    1.619125    1.066847
  H      2.356777    0.228649    2.006335

 Total Charge           Charge          ....    0
 Multiplicity           Mult            ....    1
 Number of Electrons    NEL             ....   84
 Basis Dimension        Dim             ....  294

ORBITAL ENERGIES
----------------

  NO   OCC          E(Eh)            E(eV)
   0   2.0000     -18.937241      -515.3085
   1   2.0000     -10.112571      -275.1770
   2   2.0000     -10.052865      -273.5524
   3   2.0000     -10.046866      -273.3891
   4   2.0000     -10.045390      -273.3490
   5   2.0000     -10.042262      -273.2639
   6   2.0000     -10.039092      -273.1776
   7   2.0000     -10.037723      -273.1403
   8   2.0000     -10.032218      -272.9905
   9   2.0000     -10.017957      -272.6025
  10   2.0000     -10.017884      -272.6005
  11   2.0000      -1.002099       -27.2685
  12   2.0000      -0.824076       -22.4242
  13   2.0000      -0.779295       -21.2057
  14   2.0000      -0.730355       -19.8740
  15   2.0000      -0.707170       -19.2431
  16   2.0000      -0.663503       -18.0548
  17   2.0000      -0.644177       -17.5289
  18   2.0000      -0.582419       -15.8484
  19   2.0000      -0.569969       -15.5096
  20   2.0000      -0.512792       -13.9538
  21   2.0000      -0.490236       -13.3400
  22   2.0000      -0.454873       -12.3777
  23   2.0000      -0.445117       -12.1122
  24   2.0000      -0.428243       -11.6531
  25   2.0000      -0.416088       -11.3223
  26   2.0000      -0.414057       -11.2671
  27   2.0000      -0.405302       -11.0288
  28   2.0000      -0.388962       -10.5842
  29   2.0000      -0.381855       -10.3908
  30   2.0000      -0.371456       -10.1078
  31   2.0000      -0.354274        -9.6403
  32   2.0000      -0.346816        -9.4373
  33   2.0000      -0.344996        -9.3878
  34   2.0000      -0.332627        -9.0512
  35   2.0000      -0.325486        -8.8569
  36   2.0000      -0.317315        -8.6346
  37   2.0000      -0.307284        -8.3616
  38   2.0000      -0.297473        -8.0947
  39   2.0000      -0.289480        -7.8772
  40   2.0000      -0.233585        -6.3562
  41   2.0000      -0.207890        -5.6570
  42   0.0000      -0.048365        -1.3161
  43   0.0000      -0.011629        -0.3165
  44   0.0000       0.075062         2.0425
  45   0.0000       0.081203         2.2096
  46   0.0000       0.090934         2.4744

MULLIKEN ATOMIC CHARGES
-----------------------
   0 C :   -0.509489
   1 C :    0.001299
   2 H :    0.161187
   3 C :   -0.332567
   4 C :   -0.370543
   5 C :   -0.010214
   6 H :    0.168584
   7 C :   -0.367058
   8 C :    0.178599
   9 O :   -0.337715
  10 C :    0.086400
  11 C :   -0.365327
  12 C :   -0.535223
  13 H :    0.142656
  14 H :    0.163428
  15 H :    0.161576
  16 H :    0.166557
  17 H :    0.152679
  18 H :    0.163842
  19 H :    0.161119
  20 H :    0.178142
  21 H :    0.175029
  22 H :    0.138823
  23 H :    0.144014
  24 H :    0.153962
  25 H :    0.169019
  26 H :    0.161222
Sum of atomic charges:   -0.0000000

LOEWDIN ATOMIC CHARGES
----------------------
   0 C :   -0.394800
   1 C :   -0.207215
   2 H :    0.174993
   3 C :   -0.272128
   4 C :   -0.282380
   5 C :   -0.188583
   6 H :    0.173313
   7 C :   -0.246288
   8 C :    0.231441
   9 O :   -0.455414
  10 C :   -0.122962
  11 C :   -0.313400
  12 C :   -0.393214
  13 H :    0.151749
  14 H :    0.164921
  15 H :    0.164998
  16 H :    0.164701
  17 H :    0.161653
  18 H :    0.166446
  19 H :    0.161801
  20 H :    0.184113
  21 H :    0.174257
  22 H :    0.156663
  23 H :    0.159187
  24 H :    0.162219
  25 H :    0.164756
  26 H :    0.159176

  Mayer bond orders larger than 0.100000
B(  0-C ,  1-C ) :   0.8884 B(  0-C , 13-H ) :   0.9772 B(  0-C , 14-H ) :   0.9888
B(  0-C , 15-H ) :   0.9711 B(  1-C ,  2-H ) :   0.9248 B(  1-C ,  3-C ) :   0.8650
B(  1-C ,  8-C ) :   0.8867 B(  1-C ,  9-O ) :  -0.1140 B(  3-C ,  4-C ) :   0.8876
B(  3-C , 16-H ) :   1.0007 B(  3-C , 17-H ) :   0.9450 B(  4-C ,  5-C ) :   0.8935
B(  4-C , 18-H ) :   0.9488 B(  4-C , 19-H ) :   0.9925 B(  5-C ,  6-H ) :   0.9856
B(  5-C ,  7-C ) :   0.9013 B(  5-C , 10-C ) :   0.8731 B(  7-C ,  8-C ) :   0.9090
B(  7-C , 20-H ) :   0.9407 B(  7-C , 21-H ) :   0.9958 B(  8-C ,  9-O ) :   1.9976
B( 10-C , 11-C ) :   1.8768 B( 10-C , 12-C ) :   0.8636 B( 11-C , 22-H ) :   0.9688
B( 11-C , 23-H ) :   0.9878 B( 12-C , 24-H ) :   0.9771 B( 12-C , 25-H ) :   0.9674
B( 12-C , 26-H ) :   0.9801

Dispersion correction           -0.009579347
FINAL SINGLE POINT ENERGY      -465.783399456504

DIPOLE MOMENT
-------------

Method             : SCF
Type of density    : Electron Density
Multiplicity       :   1
Irrep              :   0
Energy             :  -465.7848258494732363 Eh
Relativity type    :
Basis              : AO
                                X                 Y                 Z
Electronic contribution:     -2.688666491      -5.547423407      -0.836201931
Nuclear contribution   :      3.277285692       6.655862141       1.215922584
                        -----------------------------------------
Total Dipole Moment    :      0.588619202       1.108438734       0.379720653
                        -----------------------------------------
Magnitude (a.u.)       :      1.311219572
Magnitude (Debye)      :      3.332855286

Rotational constants in cm-1:             0.073137             0.022202             0.019512
Rotational constants in MHz :          2192.588037           665.593467           584.951225

                             ****ORCA TERMINATED NORMALLY****
TOTAL RUN TIME: 0 days 0 hours 0 minutes 50 seconds 934 msec
