                         Program Version 6.0.0  -   RELEASE  -
|  1> ! r2scan-3c def2/J RI DEFGRID2 scfconv6 printgap
|  2> %output
|  3>     printlevel normal
|  4> end
|  5> %cpcm
|  6>     smd true
|  7>     smdsolvent "water"
|  8> end
|  9> * xyz 0 1
| 10> C -3.3921115635 0.5286079836 -0.0081294449
| 11> C -1.9084247989 0.518965469 0.3430474615
| 12> H -1.7782739582 0.8508182261 1.3786777023
| 13> C -1.1020463869 1.4580211332 -0.5696447559
| 14> C 0.3817487978 1.4271066983 -0.2234043795
| 15> C 0.9288079909 0.0068640153 -0.3730034873
| 16> H 0.7431618658 -0.3293502582 -1.3995437073
| 17> C 0.1504932832 -0.9346210886 0.5695521796
| 18> C -1.3155128195 -0.8678638685 0.2391197712
| 19> O -1.9522931169 -1.841674201 -0.1123948851
| 20> C 2.4130745637 -0.0943372886 -0.112171818
| 21> C 3.2082143254 -0.7213924022 -0.9657296187
| 22> C 2.940604815 0.534094644 1.1411732384
| 23> H -3.7990329506 1.5310186898 0.0904914459
| 24> H -3.5380757163 0.1867740957 -1.0304584938
| 25> H -3.9391629318 -0.1430324996 0.6491933265
| 26> H -1.2470344766 1.1505929746 -1.6079587332
| 27> H -1.4915261393 2.4714319163 -0.4636495938
| 28> H 0.9273302695 2.0964599853 -0.8906463477
| 29> H 0.5207761812 1.774185676 0.8008263089
| 30> H 0.5037704365 -1.9611626476 0.4599697538
| 31> H 0.2938574849 -0.6159018594 1.6024951595
| 32> H 4.2669658551 -0.8154737928 -0.7938364027
| 33> H 2.8350082568 -1.1673404323 -1.8725014937
| 34> H 3.9757518481 0.2468572279 1.301597383
| 35> H 2.89385335 1.619125314 1.0668473534
| 36> H 2.3567765505 0.2286493025 2.0063354778
| 37> *
| 38>
| 39>                          ****END OF INPUT****

CARTESIAN COORDINATES (ANGSTROEM)
---------------------------------
  C     -3.392112    0.528608   -0.008129
  C     -1.908425    0.518965    0.343047
  H     -1.778274    0.850818    1.378678
  C     -1.102046    1.458021   -0.569645
  C      0.381749    1.427107   -0.223404
  C      0.928808    0.006864   -0.373003
  H      0.743162   -0.329350   -1.399544
  C      0.150493   -0.934621    0.569552
  C     -1.315513   -0.867864    0.239120
  O     -1.952293   -1.841674   -0.112395
  C      2.413075   -0.094337   -0.112172
  C      3.208214   -0.721392   -0.965730
  C      2.940605    0.534095    1.141173
  H     -3.799033    1.531019    0.090491
  H     -3.538076    0.186774   -1.030458
  H     -3.939163   -0.143032    0.649193
  H     -1.247034    1.150593   -1.607959
  H     -1.491526    2.471432   -0.463650
  H      0.927330    2.096460   -0.890646
  H      0.520776    1.774186    0.800826
  H      0.503770   -1.961163    0.459970
  H      0.293857   -0.615902    1.602495
  H      4.266966   -0.815474   -0.793836
  H      2.835008   -1.167340   -1.872501
  H      3.975752    0.246857    1.301597
  H      2.893853    1.619125    1.066847
  H      2.356777    0.228649    2.006335

 Total Charge           Charge          ....    0
 Multiplicity           Mult            ....    1
 Number of Electrons    NEL             ....   84
 Basis Dimension        Dim             ....  294

ORBITAL ENERGIES
----------------

  NO   OCC          E(Eh)            E(eV)
   0   2.0000     -18.947831      -515.5967
   1   2.0000     -10.119671      -275.3703
   2   2.0000     -10.041242      -273.2361
   3   2.0000     -10.040257      -273.2093
   4   2.0000     -10.036508      -273.1073
   5   2.0000     -10.029721      -272.9226
   6   2.0000     -10.027458      -272.8610
   7   2.0000     -10.022380      -272.7228
   8   2.0000     -10.016235      -272.5556
   9   2.0000     -10.011615      -272.4299
  10   2.0000     -10.008201      -272.3370
  11   2.0000      -1.015027       -27.6203
  12   2.0000      -0.813243       -22.1295
  13   2.0000      -0.769885       -20.9496
  14   2.0000      -0.721472       -19.6323
  15   2.0000      -0.696635       -18.9564
  16   2.0000      -0.651212       -17.7204
  17   2.0000      -0.636374       -17.3166
  18   2.0000      -0.574199       -15.6248
  19   2.0000      -0.557703       -15.1759
  20   2.0000      -0.501698       -13.6519
  21   2.0000      -0.484694       -13.1892
  22   2.0000      -0.447294       -12.1715
  23   2.0000      -0.438267       -11.9258
  24   2.0000      -0.421407       -11.4671
  25   2.0000      -0.410497       -11.1702
  26   2.0000      -0.404402       -11.0043
  27   2.0000      -0.402089       -10.9414
  28   2.0000      -0.376391       -10.2421
  29   2.0000      -0.374789       -10.1985
  30   2.0000      -0.361360        -9.8331
  31   2.0000      -0.350796        -9.5456
  32   2.0000      -0.339274        -9.2321
  33   2.0000      -0.331435        -9.0188
  34   2.0000      -0.330583        -8.9956
  35   2.0000      -0.316224        -8.6049
  36   2.0000      -0.307076        -8.3560
  37   2.0000      -0.292884        -7.9698
  38   2.0000      -0.287661        -7.8277
  39   2.0000      -0.280770        -7.6401
  40   2.0000      -0.228800        -6.2260
  41   2.0000      -0.216826        -5.9001
  42   0.0000      -0.050842        -1.3835
  43   0.0000      -0.006102        -0.1660
  44   0.0000       0.085958         2.3390
  45   0.0000       0.090995         2.4761
  46   0.0000       0.106160         2.8888

MULLIKEN ATOMIC CHARGES
-----------------------
   0 C :   -0.577688
   1 C :    0.036672
   2 H :    0.191692
   3 C :   -0.350904
   4 C :   -0.377944
   5 C :    0.019095
   6 H :    0.183534
   7 C :   -0.394309
   8 C :    0.214392
   9 O :   -0.444451
  10 C :    0.049967
  11 C :   -0.446639
  12 C :   -0.558263
  13 H :    0.164505
  14 H :    0.171485
  15 H :    0.166959
  16 H :    0.178332
  17 H :    0.167359
  18 H :    0.170393
  19 H :    0.179763
  20 H :    0.174886
  21 H :    0.214581
  22 H :    0.164020
  23 H :    0.166445
  24 H :    0.167552
  25 H :    0.185161
  26 H :    0.183406
Sum of atomic charges:   -0.0000000

LOEWDIN ATOMIC CHARGES
----------------------
   0 C :   -0.405184
   1 C :   -0.200282
   2 H :    0.189701
   3 C :   -0.268827
   4 C :   -0.279891
   5 C :   -0.185913
   6 H :    0.177998
   7 C :   -0.244619
   8 C :    0.248584
   9 O :   -0.532169
  10 C :   -0.121597
  11 C :   -0.343090
  12 C :   -0.399171
  13 H :    0.160211
  14 H :    0.162996
  15 H :    0.162565
  16 H :    0.168040
  17 H :    0.167790
  18 H :    0.169427
  19 H :    0.169049
  20 H :    0.181719
  21 H :    0.191066
  22 H :    0.162392
  23 H :    0.164213
  24 H :    0.165022
  25 H :    0.171595
  26 H :    0.168376

  Mayer bond orders larger than 0.100000
B(  0-C ,  1-C ) :   0.8427 B(  0-C , 13-H ) :   0.9706 B(  0-C , 14-H ) :   0.9923
B(  0-C , 15-H ) :   0.9754 B(  1-C ,  2-H ) :   0.9067 B(  1-C ,  3-C ) :   0.8582
B(  1-C ,  8-C ) :   0.9150 B(  1-C ,  9-O ) :  -0.1067 B(  3-C ,  4-C ) :   0.8906
B(  3-C , 16-H ) :   0.9998 B(  3-C , 17-H ) :   0.9400 B(  4-C ,  5-C ) :   0.8966
B(  4-C , 18-H ) :   0.9474 B(  4-C , 19-H ) :   0.9857 B(  5-C ,  6-H ) :   0.9850
B(  5-C ,  7-C ) :   0.8909 B(  5-C , 10-C ) :   0.8520 B(  7-C ,  8-C ) :   0.9305
B(  7-C , 20-H ) :   0.9484 B(  7-C , 21-H ) :   0.9733 B(  8-C ,  9-O ) :   1.9212
B( 10-C , 11-C ) :   1.8581 B( 10-C , 12-C ) :   0.8752 B( 11-C , 22-H ) :   0.9702
B( 11-C , 23-H ) :   0.9844 B( 12-C , 24-H ) :   0.9748 B( 12-C , 25-H ) :   0.9592
B( 12-C , 26-H ) :   0.9705

Dispersion correction           -0.009579347
FINAL SINGLE POINT ENERGY      -465.790639530954

DIPOLE MOMENT
-------------

Method             : SCF
Type of density    : Electron Density
Multiplicity       :   1
Irrep              :   0
Energy             :  -465.7920659239239285 Eh
Relativity type    :
Basis              : AO
                                X                 Y                 Z
Electronic contribution:     -2.469561196      -4.952428782      -0.555581078
Nuclear contribution   :      3.277285692       6.655862141       1.215922584
                        -----------------------------------------
Total Dipole Moment    :      0.807724497       1.703433360       0.660341506
                        -----------------------------------------
Magnitude (a.u.)       :      1.997537228
Magnitude (Debye)      :      5.077336132

Rotational constants in cm-1:             0.073137             0.022202             0.019512
Rotational constants in MHz :          2192.588037           665.593467           584.951225

                             ****ORCA TERMINATED NORMALLY****
TOTAL RUN TIME: 0 days 0 hours 1 minutes 3 seconds 869 msec
