                         Program Version 6.0.0  -   RELEASE  -
|  1> ! pbe def2-sv(p) def2/J RI DEFGRID1 loosescf d4 GCP(DFT/SV(P)) printgap
|  2> %output
|  3>     printlevel normal
|  4> end
|  5> * xyz 0 1
|  6> C -2.8267743432 1.2891298955 0.7362566748
|  7> C -1.6964950321 0.579836573 0.0616180903
|  8> C -0.8819400096 1.1275235817 -0.8314436718
|  9> C 0.2245416192 0.3218550374 -1.4300155681
| 10> C 0.9883572068 -0.5124056537 -0.3770936353
| 11> H 1.3835017815 -1.3916502834 -0.892694013
| 12> C 0.0712974526 -0.9969802098 0.7678499975
| 13> C -1.4217504387 -0.8546112206 0.4501465533
| 14> H -1.9963920904 -1.1167524795 1.3538126496
| 15> O -1.7463423671 -1.780304031 -0.5801799758
| 16> C 2.1554664896 0.2496952473 0.2116561116
| 17> C 2.0723080487 1.5251761627 0.5545162813
| 18> C 3.4029376699 -0.5547521849 0.4148906402
| 19> H -2.9242408037 2.3021665262 0.3555593111
| 20> H -2.6496767743 1.3327144042 1.8107622246
| 21> H -3.7660031856 0.761133573 0.5772582434
| 22> H -1.0110991061 2.1488172591 -1.1605892298
| 23> H -0.2096128591 -0.3735666997 -2.1530861772
| 24> H 0.9281442013 0.9636633511 -1.9606954762
| 25> H 0.2769000375 -2.0441008032 0.9912527406
| 26> H 0.2665679193 -0.4085052076 1.6659925445
| 27> H -2.6742513824 -1.6691043745 -0.8229314501
| 28> H 2.9048146876 2.050576902 0.9915623927
| 29> H 1.1685667179 2.0932745171 0.4150375955
| 30> H 3.1848257666 -1.4311556811 1.023424585
| 31> H 3.783810553 -0.9030670002 -0.5443849157
| 32> H 4.1737900106 0.0332794125 0.9053411834
| 33> *
| 34>
| 35>                          ****END OF INPUT****

CARTESIAN COORDINATES (ANGSTROEM)
---------------------------------
  C     -2.826774    1.289130    0.736257
  C     -1.696495    0.579837    0.061618
  C     -0.881940    1.127524   -0.831444
  C      0.224542    0.321855   -1.430016
  C      0.988357   -0.512406   -0.377094
  H      1.383502   -1.391650   -0.892694
  C      0.071297   -0.996980    0.767850
  C     -1.421750   -0.854611    0.450147
  H     -1.996392   -1.116752    1.353813
  O     -1.746342   -1.780304   -0.580180
  C      2.155466    0.249695    0.211656
  C      2.072308    1.525176    0.554516
  C      3.402938   -0.554752    0.414891
  H     -2.924241    2.302167    0.355559
  H     -2.649677    1.332714    1.810762
  H     -3.766003    0.761134    0.577258
  H     -1.011099    2.148817   -1.160589
  H     -0.209613   -0.373567   -2.153086
  H      0.928144    0.963663   -1.960695
  H      0.276900   -2.044101    0.991253
  H      0.266568   -0.408505    1.665993
  H     -2.674251   -1.669104   -0.822931
  H      2.904815    2.050577    0.991562
  H      1.168567    2.093275    0.415038
  H      3.184826   -1.431156    1.023425
  H      3.783811   -0.903067   -0.544385
  H      4.173790    0.033279    0.905341

 Total Charge           Charge          ....    0
 Multiplicity           Mult            ....    1
 Number of Electrons    NEL             ....   84
 Basis Dimension        Dim             ....  186

ORBITAL ENERGIES
----------------

  NO   OCC          E(Eh)            E(eV)
   0   2.0000     -18.741910      -509.9933
   1   2.0000      -9.936646      -270.3899
   2   2.0000      -9.892884      -269.1991
   3   2.0000      -9.891583      -269.1637
   4   2.0000      -9.885930      -269.0098
   5   2.0000      -9.883435      -268.9419
   6   2.0000      -9.882761      -268.9236
   7   2.0000      -9.879154      -268.8255
   8   2.0000      -9.878000      -268.7941
   9   2.0000      -9.876385      -268.7501
  10   2.0000      -9.860774      -268.3253
  11   2.0000      -0.918674       -24.9984
  12   2.0000      -0.759867       -20.6770
  13   2.0000      -0.718742       -19.5580
  14   2.0000      -0.671979       -18.2855
  15   2.0000      -0.659075       -17.9343
  16   2.0000      -0.610185       -16.6040
  17   2.0000      -0.605332       -16.4719
  18   2.0000      -0.549720       -14.9586
  19   2.0000      -0.527542       -14.3552
  20   2.0000      -0.480237       -13.0679
  21   2.0000      -0.468558       -12.7501
  22   2.0000      -0.438221       -11.9246
  23   2.0000      -0.422636       -11.5005
  24   2.0000      -0.398820       -10.8524
  25   2.0000      -0.392920       -10.6919
  26   2.0000      -0.377572       -10.2743
  27   2.0000      -0.372442       -10.1347
  28   2.0000      -0.368224       -10.0199
  29   2.0000      -0.356517        -9.7013
  30   2.0000      -0.346312        -9.4236
  31   2.0000      -0.342804        -9.3282
  32   2.0000      -0.337140        -9.1740
  33   2.0000      -0.327789        -8.9196
  34   2.0000      -0.315285        -8.5793
  35   2.0000      -0.293593        -7.9891
  36   2.0000      -0.288814        -7.8590
  37   2.0000      -0.275873        -7.5069
  38   2.0000      -0.254380        -6.9220
  39   2.0000      -0.216646        -5.8952
  40   2.0000      -0.211689        -5.7604
  41   2.0000      -0.198644        -5.4054
  42   0.0000      -0.020501        -0.5579
  43   0.0000      -0.004714        -0.1283
  44   0.0000       0.026343         0.7168
  45   0.0000       0.047389         1.2895
  46   0.0000       0.059965         1.6317

MULLIKEN ATOMIC CHARGES
-----------------------
   0 C :   -0.200522
   1 C :   -0.064264
   2 C :   -0.259392
   3 C :    0.042825
   4 C :   -0.148026
   5 H :    0.056885
   6 C :   -0.040623
   7 C :    0.059109
   8 H :    0.042100
   9 O :   -0.426292
  10 C :   -0.085338
  11 C :   -0.232456
  12 C :   -0.206559
  13 H :    0.098137
  14 H :    0.110188
  15 H :    0.096283
  16 H :    0.043292
  17 H :    0.087346
  18 H :    0.082300
  19 H :    0.078422
  20 H :    0.089239
  21 H :    0.296518
  22 H :    0.076862
  23 H :    0.094900
  24 H :    0.105443
  25 H :    0.108796
  26 H :    0.094828
Sum of atomic charges:    0.0000000

LOEWDIN ATOMIC CHARGES
----------------------
   0 C :   -0.322813
   1 C :   -0.094686
   2 C :   -0.139809
   3 C :   -0.213599
   4 C :   -0.122662
   5 H :    0.121589
   6 C :   -0.203804
   7 C :   -0.038236
   8 H :    0.096615
   9 O :   -0.329653
  10 C :   -0.047801
  11 C :   -0.274646
  12 C :   -0.321626
  13 H :    0.124153
  14 H :    0.128264
  15 H :    0.121198
  16 H :    0.115640
  17 H :    0.132618
  18 H :    0.121576
  19 H :    0.123324
  20 H :    0.127368
  21 H :    0.283915
  22 H :    0.115867
  23 H :    0.120093
  24 H :    0.127044
  25 H :    0.128438
  26 H :    0.121634

  Mayer bond orders larger than 0.100000
B(  0-C ,  1-C ) :   1.1394 B(  0-C , 13-H ) :   0.9422 B(  0-C , 14-H ) :   0.9268
B(  0-C , 15-H ) :   0.9308 B(  1-C ,  2-C ) :   1.8631 B(  1-C ,  7-C ) :   1.0011
B(  2-C ,  3-C ) :   1.0911 B(  2-C , 16-H ) :   0.9389 B(  3-C ,  4-C ) :   1.1058
B(  3-C , 17-H ) :   0.8557 B(  3-C , 18-H ) :   0.9101 B(  4-C ,  5-H ) :   0.8743
B(  4-C ,  6-C ) :   1.0758 B(  4-C , 10-C ) :   1.0024 B(  6-C ,  7-C ) :   1.1011
B(  6-C , 19-H ) :   0.8878 B(  6-C , 20-H ) :   0.9081 B(  7-C ,  8-H ) :   0.8975
B(  7-C ,  9-O ) :   1.0241 B(  9-O , 21-H ) :   0.8531 B( 10-C , 11-C ) :   2.0515
B( 10-C , 12-C ) :   1.1318 B( 11-C , 22-H ) :   0.9024 B( 11-C , 23-H ) :   0.8945
B( 12-C , 24-H ) :   0.9311 B( 12-C , 25-H ) :   0.9276 B( 12-C , 26-H ) :   0.9416

Dispersion correction           -0.029247437
FINAL SINGLE POINT ENERGY      -464.783896651330

DIPOLE MOMENT
-------------

Method             : SCF
Type of density    : Electron Density
Multiplicity       :   1
Irrep              :   0
Energy             :  -464.8724251230063373 Eh
Relativity type    :
Basis              : AO
                                X                 Y                 Z
Electronic contribution:     -3.089568234      -2.110887589      -2.265234142
Nuclear contribution   :      2.638164265       2.176155837       2.388995901
                        -----------------------------------------
Total Dipole Moment    :     -0.451403969       0.065268248       0.123761759
                        -----------------------------------------
Magnitude (a.u.)       :      0.472591219
Magnitude (Debye)      :      1.201231415

Rotational constants in cm-1:             0.062766             0.025739             0.022373
Rotational constants in MHz :          1881.691462           771.649616           670.725488

                             ****ORCA TERMINATED NORMALLY****
TOTAL RUN TIME: 0 days 0 hours 0 minutes 12 seconds 591 msec
