                         Program Version 6.0.0  -   RELEASE  -
|  1> ! r2scan-3c def2/J RI DEFGRID2 scfconv6 printgap
|  2> %output
|  3>     printlevel normal
|  4> end
|  5> * xyz 0 1
|  6> C -0.4110365961 -1.0471969444 8.28986e-05
|  7> C 0.9534389581 -1.1987540759 3.75375e-05
|  8> C 1.7837411306 -0.0718988034 -3.70047e-05
|  9> C 1.2158413519 1.204928161 -9.8078e-06
| 10> C -0.1526491429 1.3519818807 2.7151e-06
| 11> C -0.9879508181 0.2303815449 -1.98908e-05
| 12> C -2.4279927706 0.386099294 1.31746e-05
| 13> O -3.2444917404 -0.5183883753 -2.99977e-05
| 14> O 3.1111635012 -0.2712747658 -6.7054e-06
| 15> H -1.0667882231 -1.9046675493 0.0001346497
| 16> H 1.4118172583 -2.174462912 -0.0001532791
| 17> H 1.8529963399 2.0766468574 -0.0002737545
| 18> H -0.5905300646 2.3386312598 0.0001058145
| 19> H -2.7756390662 1.4366550564 -0.0001515253
| 20> H 3.6015732903 0.5670795252 9.10685e-05
| 21> *
| 22>
| 23>                          ****END OF INPUT****

CARTESIAN COORDINATES (ANGSTROEM)
---------------------------------
  C     -0.411037   -1.047197    0.000083
  C      0.953439   -1.198754    0.000038
  C      1.783741   -0.071899   -0.000037
  C      1.215841    1.204928   -0.000010
  C     -0.152649    1.351982    0.000003
  C     -0.987951    0.230382   -0.000020
  C     -2.427993    0.386099    0.000013
  O     -3.244492   -0.518388   -0.000030
  O      3.111164   -0.271275   -0.000007
  H     -1.066788   -1.904668    0.000135
  H      1.411817   -2.174463   -0.000153
  H      1.852996    2.076647   -0.000274
  H     -0.590530    2.338631    0.000106
  H     -2.775639    1.436655   -0.000152
  H      3.601573    0.567080    0.000091

 Total Charge           Charge          ....    0
 Multiplicity           Mult            ....    1
 Number of Electrons    NEL             ....   64
 Basis Dimension        Dim             ....  211

ORBITAL ENERGIES
----------------

  NO   OCC          E(Eh)            E(eV)
   0   2.0000     -19.013144      -517.3739
   1   2.0000     -18.936698      -515.2938
   2   2.0000     -10.125870      -275.5389
   3   2.0000     -10.110254      -275.1140
   4   2.0000     -10.063563      -273.8435
   5   2.0000     -10.056993      -273.6647
   6   2.0000     -10.055823      -273.6329
   7   2.0000     -10.051022      -273.5022
   8   2.0000     -10.049155      -273.4514
   9   2.0000      -1.060690       -28.8629
  10   2.0000      -0.997940       -27.1553
  11   2.0000      -0.844954       -22.9924
  12   2.0000      -0.745965       -20.2987
  13   2.0000      -0.739880       -20.1332
  14   2.0000      -0.638909       -17.3856
  15   2.0000      -0.604656       -16.4535
  16   2.0000      -0.561164       -15.2701
  17   2.0000      -0.539666       -14.6851
  18   2.0000      -0.472885       -12.8679
  19   2.0000      -0.462538       -12.5863
  20   2.0000      -0.430157       -11.7052
  21   2.0000      -0.414553       -11.2806
  22   2.0000      -0.410626       -11.1737
  23   2.0000      -0.396256       -10.7827
  24   2.0000      -0.380076       -10.3424
  25   2.0000      -0.372552       -10.1376
  26   2.0000      -0.360867        -9.8197
  27   2.0000      -0.325156        -8.8479
  28   2.0000      -0.321632        -8.7521
  29   2.0000      -0.260914        -7.0998
  30   2.0000      -0.228607        -6.2207
  31   2.0000      -0.218456        -5.9445
  32   0.0000      -0.088051        -2.3960
  33   0.0000      -0.052127        -1.4184
  34   0.0000       0.012675         0.3449
  35   0.0000       0.037579         1.0226
  36   0.0000       0.071163         1.9365

MULLIKEN ATOMIC CHARGES
-----------------------
   0 C :   -0.134849
   1 C :   -0.294593
   2 C :    0.451805
   3 C :   -0.331607
   4 C :   -0.195403
   5 C :    0.197064
   6 C :    0.000074
   7 O :   -0.355906
   8 O :   -0.396509
   9 H :    0.182948
  10 H :    0.160127
  11 H :    0.140203
  12 H :    0.155690
  13 H :    0.099755
  14 H :    0.321200
Sum of atomic charges:    0.0000000

LOEWDIN ATOMIC CHARGES
----------------------
   0 C :   -0.088006
   1 C :   -0.131484
   2 C :    0.203142
   3 C :   -0.169581
   4 C :   -0.118455
   5 C :   -0.120470
   6 C :    0.204452
   7 O :   -0.472659
   8 O :   -0.472293
   9 H :    0.189865
  10 H :    0.183487
  11 H :    0.171254
  12 H :    0.175072
  13 H :    0.154632
  14 H :    0.291044

  Mayer bond orders larger than 0.100000
B(  0-C ,  1-C ) :   1.4191 B(  0-C ,  5-C ) :   1.3451 B(  0-C ,  9-H ) :   0.9588
B(  1-C ,  2-C ) :   1.3578 B(  1-C , 10-H ) :   0.9609 B(  2-C ,  3-C ) :   1.3135
B(  2-C ,  8-O ) :   0.9465 B(  3-C ,  4-C ) :   1.4429 B(  3-C , 11-H ) :   0.9378
B(  4-C ,  5-C ) :   1.3678 B(  4-C , 12-H ) :   0.9181 B(  5-C ,  6-C ) :   0.8625
B(  5-C ,  7-O ) :  -0.1178 B(  5-C , 13-H ) :  -0.1333 B(  6-C ,  7-O ) :   1.9418
B(  6-C , 13-H ) :   1.0553 B(  8-O , 14-H ) :   0.8762

Dispersion correction           -0.004925093
FINAL SINGLE POINT ENERGY      -420.713483689390

DIPOLE MOMENT
-------------

Method             : SCF
Type of density    : Electron Density
Multiplicity       :   1
Irrep              :   0
Energy             :  -420.7134949601035032 Eh
Relativity type    :
Basis              : AO
                                X                 Y                 Z
Electronic contribution:     -0.608013003      -1.157454874       0.000201702
Nuclear contribution   :      2.281005513       2.183512060      -0.000232298
                        -----------------------------------------
Total Dipole Moment    :      1.672992509       1.026057186      -0.000030596
                        -----------------------------------------
Magnitude (a.u.)       :      1.962574148
Magnitude (Debye)      :      4.988467043

Rotational constants in cm-1:             0.171247             0.033524             0.028036
Rotational constants in MHz :          5133.859469          1005.023520           840.486702

                             ****ORCA TERMINATED NORMALLY****
TOTAL RUN TIME: 0 days 0 hours 0 minutes 24 seconds 723 msec
