                         Program Version 6.0.0  -   RELEASE  -
|  1> ! r2scan-3c def2/J RI DEFGRID2 scfconv6 printgap
|  2> %output
|  3>     printlevel normal
|  4> end
|  5> %cpcm
|  6>     smd true
|  7>     smdsolvent "water"
|  8> end
|  9> * xyz 0 1
| 10> C -0.4110365961 -1.0471969444 8.28986e-05
| 11> C 0.9534389581 -1.1987540759 3.75375e-05
| 12> C 1.7837411306 -0.0718988034 -3.70047e-05
| 13> C 1.2158413519 1.204928161 -9.8078e-06
| 14> C -0.1526491429 1.3519818807 2.7151e-06
| 15> C -0.9879508181 0.2303815449 -1.98908e-05
| 16> C -2.4279927706 0.386099294 1.31746e-05
| 17> O -3.2444917404 -0.5183883753 -2.99977e-05
| 18> O 3.1111635012 -0.2712747658 -6.7054e-06
| 19> H -1.0667882231 -1.9046675493 0.0001346497
| 20> H 1.4118172583 -2.174462912 -0.0001532791
| 21> H 1.8529963399 2.0766468574 -0.0002737545
| 22> H -0.5905300646 2.3386312598 0.0001058145
| 23> H -2.7756390662 1.4366550564 -0.0001515253
| 24> H 3.6015732903 0.5670795252 9.10685e-05
| 25> *
| 26>
| 27>                          ****END OF INPUT****

CARTESIAN COORDINATES (ANGSTROEM)
---------------------------------
  C     -0.411037   -1.047197    0.000083
  C      0.953439   -1.198754    0.000038
  C      1.783741   -0.071899   -0.000037
  C      1.215841    1.204928   -0.000010
  C     -0.152649    1.351982    0.000003
  C     -0.987951    0.230382   -0.000020
  C     -2.427993    0.386099    0.000013
  O     -3.244492   -0.518388   -0.000030
  O      3.111164   -0.271275   -0.000007
  H     -1.066788   -1.904668    0.000135
  H      1.411817   -2.174463   -0.000153
  H      1.852996    2.076647   -0.000274
  H     -0.590530    2.338631    0.000106
  H     -2.775639    1.436655   -0.000152
  H      3.601573    0.567080    0.000091

 Total Charge           Charge          ....    0
 Multiplicity           Mult            ....    1
 Number of Electrons    NEL             ....   64
 Basis Dimension        Dim             ....  211

ORBITAL ENERGIES
----------------

  NO   OCC          E(Eh)            E(eV)
   0   2.0000     -18.997393      -516.9454
   1   2.0000     -18.947840      -515.5969
   2   2.0000     -10.117149      -275.3016
   3   2.0000     -10.116507      -275.2841
   4   2.0000     -10.052894      -273.5531
   5   2.0000     -10.049595      -273.4634
   6   2.0000     -10.043154      -273.2881
   7   2.0000     -10.042967      -273.2830
   8   2.0000     -10.041930      -273.2548
   9   2.0000      -1.044485       -28.4219
  10   2.0000      -1.012196       -27.5432
  11   2.0000      -0.837248       -22.7827
  12   2.0000      -0.737846       -20.0778
  13   2.0000      -0.730730       -19.8842
  14   2.0000      -0.629946       -17.1417
  15   2.0000      -0.594301       -16.1718
  16   2.0000      -0.553572       -15.0635
  17   2.0000      -0.526337       -14.3223
  18   2.0000      -0.468275       -12.7424
  19   2.0000      -0.458191       -12.4680
  20   2.0000      -0.417522       -11.3613
  21   2.0000      -0.407992       -11.1020
  22   2.0000      -0.402003       -10.9391
  23   2.0000      -0.400853       -10.9078
  24   2.0000      -0.378488       -10.2992
  25   2.0000      -0.374079       -10.1792
  26   2.0000      -0.353730        -9.6255
  27   2.0000      -0.320105        -8.7105
  28   2.0000      -0.313220        -8.5231
  29   2.0000      -0.253458        -6.8970
  30   2.0000      -0.231757        -6.3064
  31   2.0000      -0.223549        -6.0831
  32   0.0000      -0.089356        -2.4315
  33   0.0000      -0.043561        -1.1854
  34   0.0000       0.015604         0.4246
  35   0.0000       0.078557         2.1377
  36   0.0000       0.092013         2.5038

MULLIKEN ATOMIC CHARGES
-----------------------
   0 C :   -0.167270
   1 C :   -0.336037
   2 C :    0.419721
   3 C :   -0.330024
   4 C :   -0.193432
   5 C :    0.161652
   6 C :    0.043941
   7 O :   -0.462882
   8 O :   -0.424062
   9 H :    0.196491
  10 H :    0.190501
  11 H :    0.190936
  12 H :    0.193566
  13 H :    0.136746
  14 H :    0.380154
Sum of atomic charges:    0.0000000

LOEWDIN ATOMIC CHARGES
----------------------
   0 C :   -0.101268
   1 C :   -0.138779
   2 C :    0.204627
   3 C :   -0.156575
   4 C :   -0.111508
   5 C :   -0.135474
   6 C :    0.216080
   7 O :   -0.557697
   8 O :   -0.472970
   9 H :    0.191797
  10 H :    0.192716
  11 H :    0.191517
  12 H :    0.189607
  13 H :    0.173550
  14 H :    0.314376

  Mayer bond orders larger than 0.100000
B(  0-C ,  1-C ) :   1.4529 B(  0-C ,  5-C ) :   1.2608 B(  0-C ,  9-H ) :   0.9583
B(  1-C ,  2-C ) :   1.3100 B(  1-C , 10-H ) :   0.9591 B(  2-C ,  3-C ) :   1.3042
B(  2-C ,  8-O ) :   0.9702 B(  3-C ,  4-C ) :   1.4157 B(  3-C , 11-H ) :   0.9533
B(  4-C ,  5-C ) :   1.3427 B(  4-C , 12-H ) :   0.9277 B(  5-C ,  6-C ) :   0.9380
B(  5-C ,  7-O ) :  -0.1112 B(  5-C , 13-H ) :  -0.1011 B(  6-C ,  7-O ) :   1.8542
B(  6-C , 13-H ) :   1.0227 B(  8-O , 14-H ) :   0.8435

Dispersion correction           -0.004925093
FINAL SINGLE POINT ENERGY      -420.728631745989

DIPOLE MOMENT
-------------

Method             : SCF
Type of density    : Electron Density
Multiplicity       :   1
Irrep              :   0
Energy             :  -420.7286430167026765 Eh
Relativity type    :
Basis              : AO
                                X                 Y                 Z
Electronic contribution:      0.172498601      -0.564391065       0.000182920
Nuclear contribution   :      2.281005513       2.183512060      -0.000232298
                        -----------------------------------------
Total Dipole Moment    :      2.453504113       1.619120995      -0.000049378
                        -----------------------------------------
Magnitude (a.u.)       :      2.939597801
Magnitude (Debye)      :      7.471863811

Rotational constants in cm-1:             0.171247             0.033524             0.028036
Rotational constants in MHz :          5133.859469          1005.023520           840.486702

                             ****ORCA TERMINATED NORMALLY****
TOTAL RUN TIME: 0 days 0 hours 0 minutes 26 seconds 785 msec
