                         Program Version 6.0.0  -   RELEASE  -
|  1> ! wb97x-v def2-tzvp def2/J RIJCOSX DEFGRID2 scfconv7 GCP(DFT/TZ) printgap
|  2> %output
|  3>     printlevel normal
|  4> end
|  5> * xyz 0 1
|  6> C 4.827812382649031 0.11876834756613448 0.0003541152631934303
|  7> C 4.538210313963124 1.4798959867670676 0.000720196697317858
|  8> C 3.214455778029291 1.9149791035695178 0.0005037791889601757
|  9> C 2.1943872955869135 0.9794340218402958 -9.301035054347743e-05
| 10> C 2.483236647755242 -0.3788667362654597 -0.0003736269150742376
| 11> C 3.7960606070470906 -0.8177089074666467 -0.00017569108000746068
| 12> O 1.4770457228662788 -1.338551562425938 -0.0009021235096366054
| 13> C 0.18924960070738092 -0.8670174844676739 -0.00040916739812372105
| 14> C -0.8582711571024766 -1.7816468179289058 -0.00010502840115094193
| 15> C -2.182903982594602 -1.3649154383539273 0.00019781299144045839
| 16> C -2.4598762897212736 -0.007002191370235832 0.0002508124104413125
| 17> C -1.426867242891935 0.9343089845389141 3.2425352486014215e-05
| 18> C -0.10254979253175103 0.4981752497466485 -0.00025607307320406683
| 19> O 0.884264220012066 1.4488640463142028 -0.0004629853717390039
| 20> Cl -1.7446824917625592 2.638862069799482 0.00010627501887414733
| 21> Cl -4.122442134784029 0.5120541420295902 0.0005979831865669035
| 22> Cl -0.4933580144374343 -3.4862305483712808 -0.00018087249336577355
| 23> H 5.856836601034039 -0.222838521811968 0.00047633662117145135
| 24> H 5.339125538638393 2.2107219393637365 0.0011719675204011058
| 25> H 2.961930526196702 2.9697865321920225 0.0007635017929068676
| 26> H 3.9950292706250345 -1.8839919379000833 -0.0004675892298551593
| 27> H -2.9859348470112064 -2.090959796084091 0.0004286627232524216
| 28> *
| 29>
| 30>                          ****END OF INPUT****

CARTESIAN COORDINATES (ANGSTROEM)
---------------------------------
  C      4.827812    0.118768    0.000354
  C      4.538210    1.479896    0.000720
  C      3.214456    1.914979    0.000504
  C      2.194387    0.979434   -0.000093
  C      2.483237   -0.378867   -0.000374
  C      3.796061   -0.817709   -0.000176
  O      1.477046   -1.338552   -0.000902
  C      0.189250   -0.867017   -0.000409
  C     -0.858271   -1.781647   -0.000105
  C     -2.182904   -1.364915    0.000198
  C     -2.459876   -0.007002    0.000251
  C     -1.426867    0.934309    0.000032
  C     -0.102550    0.498175   -0.000256
  O      0.884264    1.448864   -0.000463
  Cl    -1.744682    2.638862    0.000106
  Cl    -4.122442    0.512054    0.000598
  Cl    -0.493358   -3.486231   -0.000181
  H      5.856837   -0.222839    0.000476
  H      5.339126    2.210722    0.001172
  H      2.961931    2.969787    0.000764
  H      3.995029   -1.883992   -0.000468
  H     -2.985935   -2.090960    0.000429

 Total Charge           Charge          ....    0
 Multiplicity           Mult            ....    1
 Number of Electrons    NEL             ....  144
 Basis Dimension        Dim             ....  575

ORBITAL ENERGIES
----------------

  NO   OCC          E(Eh)            E(eV)
   0   2.0000    -107.160450     -2915.9841
   1   2.0000    -107.159977     -2915.9712
   2   2.0000    -107.158812     -2915.9395
   3   2.0000     -21.750013      -591.8479
   4   2.0000     -21.749224      -591.8265
   5   2.0000     -12.157297      -330.8169
   6   2.0000     -12.152977      -330.6993
   7   2.0000     -12.142426      -330.4122
   8   2.0000     -12.140280      -330.3538
   9   2.0000     -12.139788      -330.3404
  10   2.0000     -12.139590      -330.3350
  11   2.0000     -12.137574      -330.2802
  12   2.0000     -12.087890      -328.9282
  13   2.0000     -12.074012      -328.5506
  14   2.0000     -12.073822      -328.5454
  15   2.0000     -12.070876      -328.4652
  16   2.0000     -12.068846      -328.4100
  17   2.0000     -11.313277      -307.8499
  18   2.0000     -11.312873      -307.8389
  19   2.0000     -11.311803      -307.8098
  20   2.0000      -9.105117      -247.7628
  21   2.0000      -9.104564      -247.7478
  22   2.0000      -9.103324      -247.7140
  23   2.0000      -9.102198      -247.6834
  24   2.0000      -9.102134      -247.6816
  25   2.0000      -9.101689      -247.6695
  26   2.0000      -9.101668      -247.6690
  27   2.0000      -9.100620      -247.6405
  28   2.0000      -9.100500      -247.6372
  29   2.0000      -1.782956       -48.5167
  30   2.0000      -1.765983       -48.0548
  31   2.0000      -1.479041       -40.2468
  32   2.0000      -1.447606       -39.3914
  33   2.0000      -1.431517       -38.9536
  34   2.0000      -1.420609       -38.6567
  35   2.0000      -1.387315       -37.7508
  36   2.0000      -1.336867       -36.3780
  37   2.0000      -1.332322       -36.2543
  38   2.0000      -1.295962       -35.2649
  39   2.0000      -1.287296       -35.0291
  40   2.0000      -1.232739       -33.5445
  41   2.0000      -1.178930       -32.0803
  42   2.0000      -1.171979       -31.8912
  43   2.0000      -1.128751       -30.7149
  44   2.0000      -1.117884       -30.4192
  45   2.0000      -1.062823       -28.9209
  46   2.0000      -1.057920       -28.7875
  47   2.0000      -1.044826       -28.4311
  48   2.0000      -1.027319       -27.9548
  49   2.0000      -1.004212       -27.3260
  50   2.0000      -0.999218       -27.1901
  51   2.0000      -0.983621       -26.7657
  52   2.0000      -0.960450       -26.1352
  53   2.0000      -0.959390       -26.1063
  54   2.0000      -0.944274       -25.6950
  55   2.0000      -0.918850       -25.0032
  56   2.0000      -0.914214       -24.8770
  57   2.0000      -0.897529       -24.4230
  58   2.0000      -0.866950       -23.5909
  59   2.0000      -0.861876       -23.4528
  60   2.0000      -0.845060       -22.9952
  61   2.0000      -0.834896       -22.7187
  62   2.0000      -0.820272       -22.3207
  63   2.0000      -0.812812       -22.1177
  64   2.0000      -0.807300       -21.9677
  65   2.0000      -0.802756       -21.8441
  66   2.0000      -0.801991       -21.8233
  67   2.0000      -0.774639       -21.0790
  68   2.0000      -0.690601       -18.7922
  69   2.0000      -0.684527       -18.6269
  70   2.0000      -0.664020       -18.0689
  71   2.0000      -0.660370       -17.9696
  72   0.0000      -0.333785        -9.0828
  73   0.0000      -0.309733        -8.4283
  74   0.0000      -0.298251        -8.1158
  75   0.0000      -0.279160        -7.5963
  76   0.0000      -0.266630        -7.2554

MULLIKEN ATOMIC CHARGES
-----------------------
   0 C :   -0.092904
   1 C :   -0.096159
   2 C :   -0.247327
   3 C :    0.208849
   4 C :    0.218944
   5 C :   -0.253147
   6 O :   -0.224368
   7 C :    0.212773
   8 C :   -0.024434
   9 C :   -0.262881
  10 C :    0.131374
  11 C :   -0.107650
  12 C :    0.240553
  13 O :   -0.222996
  14 Cl:   -0.033920
  15 Cl:   -0.057700
  16 Cl:   -0.058777
  17 H :    0.126262
  18 H :    0.125841
  19 H :    0.135556
  20 H :    0.135186
  21 H :    0.146923
Sum of atomic charges:   -0.0000000

LOEWDIN ATOMIC CHARGES
----------------------
   0 C :   -0.136320
   1 C :   -0.136579
   2 C :   -0.101186
   3 C :   -0.189168
   4 C :   -0.190059
   5 C :   -0.101500
   6 O :    0.323310
   7 C :   -0.211306
   8 C :   -0.394137
   9 C :   -0.148027
  10 C :   -0.431703
  11 C :   -0.412199
  12 C :   -0.206868
  13 O :    0.324241
  14 Cl:    0.432797
  15 Cl:    0.409800
  16 Cl:    0.414339
  17 H :    0.145521
  18 H :    0.145497
  19 H :    0.153843
  20 H :    0.153769
  21 H :    0.155933

  Mayer bond orders larger than 0.100000
B(  0-C ,  1-C ) :   1.4286 B(  0-C ,  5-C ) :   1.4100 B(  0-C , 17-H ) :   0.9751
B(  1-C ,  2-C ) :   1.4101 B(  1-C , 18-H ) :   0.9759 B(  2-C ,  3-C ) :   1.4126
B(  2-C , 19-H ) :   0.9695 B(  3-C ,  4-C ) :   1.3669 B(  3-C , 13-O ) :   1.0099
B(  4-C ,  5-C ) :   1.4102 B(  4-C ,  6-O ) :   1.0067 B(  5-C , 20-H ) :   0.9702
B(  6-O ,  7-C ) :   1.1002 B(  7-C ,  8-C ) :   1.2972 B(  7-C , 12-C ) :   1.3751
B(  8-C ,  9-C ) :   1.3653 B(  8-C , 16-Cl) :   1.0870 B(  9-C , 10-C ) :   1.3843
B(  9-C , 21-H ) :   0.9610 B( 10-C , 11-C ) :   1.3077 B( 10-C , 15-Cl) :   1.0497
B( 11-C , 12-C ) :   1.2712 B( 11-C , 14-Cl) :   1.2141 B( 12-C , 13-O ) :   1.0916

FINAL SINGLE POINT ENERGY     -1991.195098087570

DIPOLE MOMENT
-------------

Method             : SCF
Type of density    : Electron Density
Multiplicity       :   1
Irrep              :   0
Energy             : -1991.2068963246701969 Eh
Relativity type    :
Basis              : AO
                                X                 Y                 Z
Electronic contribution:    -21.842490104      -1.379753448      -0.001210067
Nuclear contribution   :     22.805468453       1.375161165       0.001486914
                        -----------------------------------------
Total Dipole Moment    :      0.962978350      -0.004592283       0.000276846
                        -----------------------------------------
Magnitude (a.u.)       :      0.962989339
Magnitude (Debye)      :      2.447724376

Rotational constants in cm-1:             0.017821             0.008497             0.005754
Rotational constants in MHz :           534.260066           254.742558           172.494711

                             ****ORCA TERMINATED NORMALLY****
TOTAL RUN TIME: 0 days 0 hours 9 minutes 17 seconds 204 msec
