                         Program Version 6.0.0  -   RELEASE  -
|  1> ! wb97x-v def2-tzvp def2/J RIJCOSX DEFGRID2 scfconv7 GCP(DFT/TZ) printgap
|  2> %output
|  3>     printlevel normal
|  4> end
|  5> %cpcm
|  6>     smd true
|  7>     smdsolvent "water"
|  8> end
|  9> * xyz 0 1
| 10> C 4.827812382649031 0.11876834756613448 0.0003541152631934303
| 11> C 4.538210313963124 1.4798959867670676 0.000720196697317858
| 12> C 3.214455778029291 1.9149791035695178 0.0005037791889601757
| 13> C 2.1943872955869135 0.9794340218402958 -9.301035054347743e-05
| 14> C 2.483236647755242 -0.3788667362654597 -0.0003736269150742376
| 15> C 3.7960606070470906 -0.8177089074666467 -0.00017569108000746068
| 16> O 1.4770457228662788 -1.338551562425938 -0.0009021235096366054
| 17> C 0.18924960070738092 -0.8670174844676739 -0.00040916739812372105
| 18> C -0.8582711571024766 -1.7816468179289058 -0.00010502840115094193
| 19> C -2.182903982594602 -1.3649154383539273 0.00019781299144045839
| 20> C -2.4598762897212736 -0.007002191370235832 0.0002508124104413125
| 21> C -1.426867242891935 0.9343089845389141 3.2425352486014215e-05
| 22> C -0.10254979253175103 0.4981752497466485 -0.00025607307320406683
| 23> O 0.884264220012066 1.4488640463142028 -0.0004629853717390039
| 24> Cl -1.7446824917625592 2.638862069799482 0.00010627501887414733
| 25> Cl -4.122442134784029 0.5120541420295902 0.0005979831865669035
| 26> Cl -0.4933580144374343 -3.4862305483712808 -0.00018087249336577355
| 27> H 5.856836601034039 -0.222838521811968 0.00047633662117145135
| 28> H 5.339125538638393 2.2107219393637365 0.0011719675204011058
| 29> H 2.961930526196702 2.9697865321920225 0.0007635017929068676
| 30> H 3.9950292706250345 -1.8839919379000833 -0.0004675892298551593
| 31> H -2.9859348470112064 -2.090959796084091 0.0004286627232524216
| 32> *
| 33>
| 34>                          ****END OF INPUT****

CARTESIAN COORDINATES (ANGSTROEM)
---------------------------------
  C      4.827812    0.118768    0.000354
  C      4.538210    1.479896    0.000720
  C      3.214456    1.914979    0.000504
  C      2.194387    0.979434   -0.000093
  C      2.483237   -0.378867   -0.000374
  C      3.796061   -0.817709   -0.000176
  O      1.477046   -1.338552   -0.000902
  C      0.189250   -0.867017   -0.000409
  C     -0.858271   -1.781647   -0.000105
  C     -2.182904   -1.364915    0.000198
  C     -2.459876   -0.007002    0.000251
  C     -1.426867    0.934309    0.000032
  C     -0.102550    0.498175   -0.000256
  O      0.884264    1.448864   -0.000463
  Cl    -1.744682    2.638862    0.000106
  Cl    -4.122442    0.512054    0.000598
  Cl    -0.493358   -3.486231   -0.000181
  H      5.856837   -0.222839    0.000476
  H      5.339126    2.210722    0.001172
  H      2.961931    2.969787    0.000764
  H      3.995029   -1.883992   -0.000468
  H     -2.985935   -2.090960    0.000429

 Total Charge           Charge          ....    0
 Multiplicity           Mult            ....    1
 Number of Electrons    NEL             ....  144
 Basis Dimension        Dim             ....  575

ORBITAL ENERGIES
----------------

  NO   OCC          E(Eh)            E(eV)
   0   2.0000    -107.163883     -2916.0775
   1   2.0000    -107.160714     -2915.9913
   2   2.0000    -107.160231     -2915.9781
   3   2.0000     -21.746032      -591.7396
   4   2.0000     -21.745489      -591.7248
   5   2.0000     -12.153555      -330.7150
   6   2.0000     -12.149446      -330.6032
   7   2.0000     -12.140126      -330.3496
   8   2.0000     -12.137734      -330.2845
   9   2.0000     -12.136059      -330.2389
  10   2.0000     -12.131631      -330.1185
  11   2.0000     -12.129451      -330.0591
  12   2.0000     -12.082083      -328.7702
  13   2.0000     -12.062517      -328.2378
  14   2.0000     -12.062307      -328.2321
  15   2.0000     -12.058347      -328.1243
  16   2.0000     -12.056308      -328.0688
  17   2.0000     -11.316764      -307.9448
  18   2.0000     -11.313658      -307.8603
  19   2.0000     -11.313274      -307.8498
  20   2.0000      -9.108541      -247.8560
  21   2.0000      -9.105651      -247.7774
  22   2.0000      -9.105597      -247.7759
  23   2.0000      -9.105392      -247.7703
  24   2.0000      -9.104772      -247.7534
  25   2.0000      -9.102548      -247.6929
  26   2.0000      -9.102509      -247.6919
  27   2.0000      -9.102122      -247.6813
  28   2.0000      -9.102076      -247.6801
  29   2.0000      -1.778656       -48.3997
  30   2.0000      -1.761940       -47.9448
  31   2.0000      -1.477631       -40.2084
  32   2.0000      -1.447605       -39.3913
  33   2.0000      -1.431308       -38.9479
  34   2.0000      -1.415568       -38.5196
  35   2.0000      -1.384215       -37.6664
  36   2.0000      -1.331166       -36.2229
  37   2.0000      -1.326399       -36.0932
  38   2.0000      -1.288714       -35.0677
  39   2.0000      -1.281876       -34.8816
  40   2.0000      -1.226917       -33.3861
  41   2.0000      -1.174321       -31.9549
  42   2.0000      -1.164951       -31.6999
  43   2.0000      -1.122247       -30.5379
  44   2.0000      -1.112083       -30.2613
  45   2.0000      -1.055590       -28.7241
  46   2.0000      -1.053142       -28.6574
  47   2.0000      -1.041452       -28.3393
  48   2.0000      -1.023229       -27.8435
  49   2.0000      -0.998748       -27.1773
  50   2.0000      -0.995744       -27.0956
  51   2.0000      -0.979823       -26.6623
  52   2.0000      -0.960339       -26.1322
  53   2.0000      -0.952708       -25.9245
  54   2.0000      -0.933127       -25.3917
  55   2.0000      -0.916402       -24.9366
  56   2.0000      -0.901353       -24.5271
  57   2.0000      -0.891857       -24.2687
  58   2.0000      -0.865904       -23.5625
  59   2.0000      -0.847936       -23.0735
  60   2.0000      -0.835771       -22.7425
  61   2.0000      -0.831869       -22.6363
  62   2.0000      -0.822567       -22.3832
  63   2.0000      -0.815312       -22.1858
  64   2.0000      -0.809306       -22.0223
  65   2.0000      -0.804731       -21.8978
  66   2.0000      -0.795473       -21.6459
  67   2.0000      -0.772224       -21.0133
  68   2.0000      -0.684938       -18.6381
  69   2.0000      -0.681828       -18.5535
  70   2.0000      -0.655350       -17.8330
  71   2.0000      -0.652404       -17.7528
  72   0.0000      -0.332086        -9.0365
  73   0.0000      -0.306756        -8.3473
  74   0.0000      -0.292785        -7.9671
  75   0.0000      -0.278686        -7.5834
  76   0.0000      -0.258840        -7.0434

MULLIKEN ATOMIC CHARGES
-----------------------
   0 C :   -0.135227
   1 C :   -0.138264
   2 C :   -0.285461
   3 C :    0.232911
   4 C :    0.243319
   5 C :   -0.291691
   6 O :   -0.252692
   7 C :    0.236785
   8 C :   -0.026112
   9 C :   -0.270469
  10 C :    0.127866
  11 C :   -0.101745
  12 C :    0.263801
  13 O :   -0.250463
  14 Cl:   -0.052807
  15 Cl:   -0.073259
  16 Cl:   -0.074577
  17 H :    0.167385
  18 H :    0.166849
  19 H :    0.166739
  20 H :    0.166708
  21 H :    0.180403
Sum of atomic charges:   -0.0000000

LOEWDIN ATOMIC CHARGES
----------------------
   0 C :   -0.140530
   1 C :   -0.140792
   2 C :   -0.104679
   3 C :   -0.190519
   4 C :   -0.191608
   5 C :   -0.104973
   6 O :    0.313706
   7 C :   -0.202519
   8 C :   -0.393620
   9 C :   -0.139220
  10 C :   -0.433051
  11 C :   -0.412049
  12 C :   -0.198963
  13 O :    0.314766
  14 Cl:    0.419402
  15 Cl:    0.398194
  16 Cl:    0.403328
  17 H :    0.155406
  18 H :    0.155342
  19 H :    0.162722
  20 H :    0.162705
  21 H :    0.166952

  Mayer bond orders larger than 0.100000
B(  0-C ,  1-C ) :   1.4067 B(  0-C ,  5-C ) :   1.3939 B(  0-C , 17-H ) :   0.9775
B(  1-C ,  2-C ) :   1.3937 B(  1-C , 18-H ) :   0.9784 B(  2-C ,  3-C ) :   1.3606
B(  2-C , 19-H ) :   0.9846 B(  3-C ,  4-C ) :   1.3652 B(  3-C , 13-O ) :   0.9944
B(  4-C ,  5-C ) :   1.3578 B(  4-C ,  6-O ) :   0.9898 B(  5-C , 20-H ) :   0.9851
B(  6-O ,  7-C ) :   1.0855 B(  7-C ,  8-C ) :   1.2852 B(  7-C , 12-C ) :   1.3861
B(  8-C ,  9-C ) :   1.3578 B(  8-C , 16-Cl) :   1.0661 B(  9-C , 10-C ) :   1.3768
B(  9-C , 21-H ) :   0.9584 B( 10-C , 11-C ) :   1.2994 B( 10-C , 15-Cl) :   1.0434
B( 11-C , 12-C ) :   1.2680 B( 11-C , 14-Cl) :   1.1837 B( 12-C , 13-O ) :   1.0793

FINAL SINGLE POINT ENERGY     -1991.197487638414

DIPOLE MOMENT
-------------

Method             : SCF
Type of density    : Electron Density
Multiplicity       :   1
Irrep              :   0
Energy             : -1991.2092858755140696 Eh
Relativity type    :
Basis              : AO
                                X                 Y                 Z
Electronic contribution:    -21.613413799      -1.463980993      -0.001091363
Nuclear contribution   :     22.805468453       1.375161165       0.001486914
                        -----------------------------------------
Total Dipole Moment    :      1.192054655      -0.088819829       0.000395551
                        -----------------------------------------
Magnitude (a.u.)       :      1.195359117
Magnitude (Debye)      :      3.038361413

Rotational constants in cm-1:             0.017821             0.008497             0.005754
Rotational constants in MHz :           534.260066           254.742558           172.494711

                             ****ORCA TERMINATED NORMALLY****
TOTAL RUN TIME: 0 days 0 hours 9 minutes 1 seconds 814 msec
