                         Program Version 6.0.0  -   RELEASE  -
|  1> ! r2scan-3c def2/J RI DEFGRID2 scfconv6 printgap
|  2> %output
|  3>     printlevel normal
|  4> end
|  5> * xyz 0 1
|  6> C -3.6064999304 -1.030772396 0.0330608713
|  7> C -2.1112762939 -1.3243235123 -0.0078023659
|  8> C -1.2075283237 -0.1177236925 0.0211098748
|  9> C -1.6995612422 1.1607514252 0.0816221859
| 10> C -0.8509467918 2.2779244057 0.1076074101
| 11> C 0.502908819 2.1177861535 0.0724573382
| 12> C 1.0619972685 0.8241351453 0.009944782
| 13> C 0.2048832465 -0.3093587973 -0.015900749
| 14> C 0.8039856455 -1.5870591412 -0.0778632338
| 15> C 2.1632895187 -1.7347366264 -0.1124473357
| 16> C 3.0031969189 -0.6126992915 -0.0873267376
| 17> C 2.4599556168 0.6390840007 -0.0273009003
| 18> H -3.8764051557 -0.5043283703 0.9454189571
| 19> H -4.1584027189 -1.9676238574 0.0069716534
| 20> H -3.9107917826 -0.4348818237 -0.8240256375
| 21> H -1.8940706934 -1.8933744158 -0.9165226824
| 22> H -1.859106329 -1.96184834 0.8446335823
| 23> H -2.7628297542 1.3352076359 0.1106410197
| 24> H -1.2851200798 3.2658138048 0.1555354911
| 25> H 1.1652392506 2.9711669301 0.0917346236
| 26> H 0.1809455587 -2.466894482 -0.0982926585
| 27> H 2.5989476904 -2.7219384034 -0.1595307996
| 28> H 4.0744425978 -0.7459440885 -0.1155410211
| 29> H 3.0945272757 1.5137463476 -0.0071922379
| 30> *
| 31>
| 32>                          ****END OF INPUT****

CARTESIAN COORDINATES (ANGSTROEM)
---------------------------------
  C     -3.606500   -1.030772    0.033061
  C     -2.111276   -1.324324   -0.007802
  C     -1.207528   -0.117724    0.021110
  C     -1.699561    1.160751    0.081622
  C     -0.850947    2.277924    0.107607
  C      0.502909    2.117786    0.072457
  C      1.061997    0.824135    0.009945
  C      0.204883   -0.309359   -0.015901
  C      0.803986   -1.587059   -0.077863
  C      2.163290   -1.734737   -0.112447
  C      3.003197   -0.612699   -0.087327
  C      2.459956    0.639084   -0.027301
  H     -3.876405   -0.504328    0.945419
  H     -4.158403   -1.967624    0.006972
  H     -3.910792   -0.434882   -0.824026
  H     -1.894071   -1.893374   -0.916523
  H     -1.859106   -1.961848    0.844634
  H     -2.762830    1.335208    0.110641
  H     -1.285120    3.265814    0.155535
  H      1.165239    2.971167    0.091735
  H      0.180946   -2.466894   -0.098293
  H      2.598948   -2.721938   -0.159531
  H      4.074443   -0.745944   -0.115541
  H      3.094527    1.513746   -0.007192

 Total Charge           Charge          ....    0
 Multiplicity           Mult            ....    1
 Number of Electrons    NEL             ....   84
 Basis Dimension        Dim             ....  288

ORBITAL ENERGIES
----------------

  NO   OCC          E(Eh)            E(eV)
   0   2.0000     -10.044702      -273.3302
   1   2.0000     -10.043542      -273.2987
   2   2.0000     -10.043140      -273.2877
   3   2.0000     -10.037579      -273.1364
   4   2.0000     -10.034867      -273.0626
   5   2.0000     -10.034673      -273.0573
   6   2.0000     -10.034131      -273.0426
   7   2.0000     -10.033723      -273.0315
   8   2.0000     -10.032284      -272.9923
   9   2.0000     -10.031156      -272.9616
  10   2.0000     -10.029581      -272.9188
  11   2.0000     -10.023664      -272.7578
  12   2.0000      -0.846466       -23.0335
  13   2.0000      -0.795218       -21.6390
  14   2.0000      -0.764321       -20.7982
  15   2.0000      -0.721257       -19.6264
  16   2.0000      -0.710594       -19.3362
  17   2.0000      -0.679435       -18.4884
  18   2.0000      -0.612695       -16.6723
  19   2.0000      -0.589191       -16.0327
  20   2.0000      -0.579386       -15.7659
  21   2.0000      -0.537804       -14.6344
  22   2.0000      -0.484802       -13.1921
  23   2.0000      -0.473825       -12.8934
  24   2.0000      -0.463339       -12.6081
  25   2.0000      -0.427725       -11.6390
  26   2.0000      -0.419443       -11.4136
  27   2.0000      -0.407066       -11.0768
  28   2.0000      -0.394017       -10.7217
  29   2.0000      -0.386660       -10.5215
  30   2.0000      -0.371195       -10.1007
  31   2.0000      -0.366940        -9.9849
  32   2.0000      -0.346252        -9.4220
  33   2.0000      -0.336111        -9.1461
  34   2.0000      -0.330105        -8.9826
  35   2.0000      -0.328636        -8.9426
  36   2.0000      -0.305136        -8.3032
  37   2.0000      -0.300163        -8.1679
  38   2.0000      -0.290371        -7.9014
  39   2.0000      -0.258445        -7.0327
  40   2.0000      -0.230330        -6.2676
  41   2.0000      -0.199513        -5.4290
  42   0.0000      -0.064954        -1.7675
  43   0.0000      -0.034349        -0.9347
  44   0.0000       0.003083         0.0839
  45   0.0000       0.066305         1.8043
  46   0.0000       0.082060         2.2330

MULLIKEN ATOMIC CHARGES
-----------------------
   0 C :   -0.518787
   1 C :   -0.363575
   2 C :    0.114684
   3 C :   -0.157047
   4 C :   -0.194196
   5 C :   -0.254248
   6 C :    0.169087
   7 C :    0.186451
   8 C :   -0.258558
   9 C :   -0.151577
  10 C :   -0.157159
  11 C :   -0.219220
  12 H :    0.158799
  13 H :    0.150487
  14 H :    0.158904
  15 H :    0.166461
  16 H :    0.166468
  17 H :    0.143966
  18 H :    0.142671
  19 H :    0.142147
  20 H :    0.141649
  21 H :    0.144591
  22 H :    0.144937
  23 H :    0.143066
Sum of atomic charges:    0.0000000

LOEWDIN ATOMIC CHARGES
----------------------
   0 C :   -0.418888
   1 C :   -0.287626
   2 C :   -0.068067
   3 C :   -0.164966
   4 C :   -0.161127
   5 C :   -0.150885
   6 C :   -0.055482
   7 C :   -0.050433
   8 C :   -0.149503
   9 C :   -0.162953
  10 C :   -0.166214
  11 C :   -0.143173
  12 H :    0.154069
  13 H :    0.153496
  14 H :    0.154092
  15 H :    0.166745
  16 H :    0.166742
  17 H :    0.171197
  18 H :    0.167060
  19 H :    0.169762
  20 H :    0.171614
  21 H :    0.167001
  22 H :    0.167353
  23 H :    0.170183

  Mayer bond orders larger than 0.100000
B(  0-C ,  1-C ) :   0.8528 B(  0-C , 12-H ) :   0.9843 B(  0-C , 13-H ) :   0.9691
B(  0-C , 14-H ) :   0.9844 B(  1-C ,  2-C ) :   0.8183 B(  1-C , 15-H ) :   0.9794
B(  1-C , 16-H ) :   0.9790 B(  2-C ,  3-C ) :   1.5144 B(  2-C ,  7-C ) :   1.2467
B(  3-C ,  4-C ) :   1.2659 B(  3-C , 17-H ) :   0.9405 B(  4-C ,  5-C ) :   1.5031
B(  4-C , 18-H ) :   0.9531 B(  5-C ,  6-C ) :   1.1649 B(  5-C , 19-H ) :   0.9524
B(  6-C ,  7-C ) :   1.4623 B(  6-C , 11-C ) :   1.1686 B(  7-C ,  8-C ) :   1.2863
B(  8-C ,  9-C ) :   1.5001 B(  8-C , 20-H ) :   0.9435 B(  9-C , 10-C ) :   1.2708
B(  9-C , 21-H ) :   0.9485 B( 10-C , 11-C ) :   1.5032 B( 10-C , 22-H ) :   0.9495
B( 11-C , 23-H ) :   0.9472

Dispersion correction           -0.009575255
FINAL SINGLE POINT ENERGY      -464.383630495511

DIPOLE MOMENT
-------------

Method             : SCF
Type of density    : Electron Density
Multiplicity       :   1
Irrep              :   0
Energy             :  -464.3808813087401859 Eh
Relativity type    :
Basis              : AO
                                X                 Y                 Z
Electronic contribution:      7.945547609       3.232955707      -0.034758532
Nuclear contribution   :     -8.098862171      -3.387634321       0.031738536
                        -----------------------------------------
Total Dipole Moment    :     -0.153314562      -0.154678614      -0.003019995
                        -----------------------------------------
Magnitude (a.u.)       :      0.217807137
Magnitude (Debye)      :      0.553621745

Rotational constants in cm-1:             0.055297             0.026539             0.018053
Rotational constants in MHz :          1657.763601           795.607105           541.222568

                             ****ORCA TERMINATED NORMALLY****
TOTAL RUN TIME: 0 days 0 hours 0 minutes 29 seconds 744 msec
