                         Program Version 6.0.0  -   RELEASE  -
|  1> ! r2scan-3c def2/J RI DEFGRID2 scfconv6 printgap
|  2> %output
|  3>     printlevel normal
|  4> end
|  5> %cpcm
|  6>     smd true
|  7>     smdsolvent "water"
|  8> end
|  9> * xyz 0 1
| 10> C -3.6064999304 -1.030772396 0.0330608713
| 11> C -2.1112762939 -1.3243235123 -0.0078023659
| 12> C -1.2075283237 -0.1177236925 0.0211098748
| 13> C -1.6995612422 1.1607514252 0.0816221859
| 14> C -0.8509467918 2.2779244057 0.1076074101
| 15> C 0.502908819 2.1177861535 0.0724573382
| 16> C 1.0619972685 0.8241351453 0.009944782
| 17> C 0.2048832465 -0.3093587973 -0.015900749
| 18> C 0.8039856455 -1.5870591412 -0.0778632338
| 19> C 2.1632895187 -1.7347366264 -0.1124473357
| 20> C 3.0031969189 -0.6126992915 -0.0873267376
| 21> C 2.4599556168 0.6390840007 -0.0273009003
| 22> H -3.8764051557 -0.5043283703 0.9454189571
| 23> H -4.1584027189 -1.9676238574 0.0069716534
| 24> H -3.9107917826 -0.4348818237 -0.8240256375
| 25> H -1.8940706934 -1.8933744158 -0.9165226824
| 26> H -1.859106329 -1.96184834 0.8446335823
| 27> H -2.7628297542 1.3352076359 0.1106410197
| 28> H -1.2851200798 3.2658138048 0.1555354911
| 29> H 1.1652392506 2.9711669301 0.0917346236
| 30> H 0.1809455587 -2.466894482 -0.0982926585
| 31> H 2.5989476904 -2.7219384034 -0.1595307996
| 32> H 4.0744425978 -0.7459440885 -0.1155410211
| 33> H 3.0945272757 1.5137463476 -0.0071922379
| 34> *
| 35>
| 36>                          ****END OF INPUT****

CARTESIAN COORDINATES (ANGSTROEM)
---------------------------------
  C     -3.606500   -1.030772    0.033061
  C     -2.111276   -1.324324   -0.007802
  C     -1.207528   -0.117724    0.021110
  C     -1.699561    1.160751    0.081622
  C     -0.850947    2.277924    0.107607
  C      0.502909    2.117786    0.072457
  C      1.061997    0.824135    0.009945
  C      0.204883   -0.309359   -0.015901
  C      0.803986   -1.587059   -0.077863
  C      2.163290   -1.734737   -0.112447
  C      3.003197   -0.612699   -0.087327
  C      2.459956    0.639084   -0.027301
  H     -3.876405   -0.504328    0.945419
  H     -4.158403   -1.967624    0.006972
  H     -3.910792   -0.434882   -0.824026
  H     -1.894071   -1.893374   -0.916523
  H     -1.859106   -1.961848    0.844634
  H     -2.762830    1.335208    0.110641
  H     -1.285120    3.265814    0.155535
  H      1.165239    2.971167    0.091735
  H      0.180946   -2.466894   -0.098293
  H      2.598948   -2.721938   -0.159531
  H      4.074443   -0.745944   -0.115541
  H      3.094527    1.513746   -0.007192

 Total Charge           Charge          ....    0
 Multiplicity           Mult            ....    1
 Number of Electrons    NEL             ....   84
 Basis Dimension        Dim             ....  288

ORBITAL ENERGIES
----------------

  NO   OCC          E(Eh)            E(eV)
   0   2.0000     -10.044551      -273.3261
   1   2.0000     -10.044038      -273.3122
   2   2.0000     -10.043683      -273.3025
   3   2.0000     -10.034009      -273.0393
   4   2.0000     -10.033647      -273.0294
   5   2.0000     -10.033150      -273.0159
   6   2.0000     -10.032910      -273.0094
   7   2.0000     -10.031782      -272.9787
   8   2.0000     -10.030163      -272.9346
   9   2.0000     -10.028288      -272.8836
  10   2.0000     -10.028157      -272.8800
  11   2.0000     -10.012172      -272.4451
  12   2.0000      -0.847879       -23.0719
  13   2.0000      -0.795398       -21.6439
  14   2.0000      -0.761680       -20.7264
  15   2.0000      -0.717585       -19.5265
  16   2.0000      -0.710929       -19.3454
  17   2.0000      -0.676932       -18.4202
  18   2.0000      -0.607368       -16.5273
  19   2.0000      -0.587266       -15.9803
  20   2.0000      -0.577948       -15.7268
  21   2.0000      -0.533885       -14.5277
  22   2.0000      -0.481789       -13.1101
  23   2.0000      -0.470927       -12.8146
  24   2.0000      -0.461188       -12.5496
  25   2.0000      -0.419027       -11.4023
  26   2.0000      -0.416252       -11.3268
  27   2.0000      -0.402322       -10.9477
  28   2.0000      -0.389609       -10.6018
  29   2.0000      -0.385230       -10.4826
  30   2.0000      -0.369463       -10.0536
  31   2.0000      -0.367146        -9.9906
  32   2.0000      -0.339560        -9.2399
  33   2.0000      -0.331260        -9.0141
  34   2.0000      -0.322564        -8.7774
  35   2.0000      -0.320843        -8.7306
  36   2.0000      -0.307472        -8.3667
  37   2.0000      -0.297042        -8.0829
  38   2.0000      -0.286004        -7.7826
  39   2.0000      -0.260367        -7.0849
  40   2.0000      -0.234017        -6.3679
  41   2.0000      -0.201905        -5.4941
  42   0.0000      -0.066940        -1.8215
  43   0.0000      -0.037238        -1.0133
  44   0.0000       0.000945         0.0257
  45   0.0000       0.065498         1.7823
  46   0.0000       0.091255         2.4832

MULLIKEN ATOMIC CHARGES
-----------------------
   0 C :   -0.539741
   1 C :   -0.356989
   2 C :    0.076516
   3 C :   -0.170072
   4 C :   -0.238516
   5 C :   -0.268714
   6 C :    0.116631
   7 C :    0.174997
   8 C :   -0.271045
   9 C :   -0.193484
  10 C :   -0.187059
  11 C :   -0.236529
  12 H :    0.166869
  13 H :    0.163638
  14 H :    0.166950
  15 H :    0.183541
  16 H :    0.183528
  17 H :    0.173806
  18 H :    0.173904
  19 H :    0.175648
  20 H :    0.173434
  21 H :    0.177319
  22 H :    0.177712
  23 H :    0.177656
Sum of atomic charges:    0.0000000

LOEWDIN ATOMIC CHARGES
----------------------
   0 C :   -0.423536
   1 C :   -0.287280
   2 C :   -0.072687
   3 C :   -0.174360
   4 C :   -0.170717
   5 C :   -0.162586
   6 C :   -0.071313
   7 C :   -0.064530
   8 C :   -0.155257
   9 C :   -0.171981
  10 C :   -0.174627
  11 C :   -0.152190
  12 H :    0.156713
  13 H :    0.157222
  14 H :    0.156726
  15 H :    0.173510
  16 H :    0.173506
  17 H :    0.181601
  18 H :    0.177944
  19 H :    0.181493
  20 H :    0.183330
  21 H :    0.178230
  22 H :    0.178518
  23 H :    0.182271

  Mayer bond orders larger than 0.100000
B(  0-C ,  1-C ) :   0.8424 B(  0-C , 12-H ) :   0.9803 B(  0-C , 13-H ) :   0.9670
B(  0-C , 14-H ) :   0.9805 B(  1-C ,  2-C ) :   0.8477 B(  1-C ,  7-C ) :  -0.1106
B(  1-C , 15-H ) :   0.9744 B(  1-C , 16-H ) :   0.9739 B(  2-C ,  3-C ) :   1.4860
B(  2-C ,  7-C ) :   1.2056 B(  3-C ,  4-C ) :   1.2302 B(  3-C , 17-H ) :   0.9534
B(  4-C ,  5-C ) :   1.4636 B(  4-C , 18-H ) :   0.9731 B(  5-C ,  6-C ) :   1.1621
B(  5-C , 19-H ) :   0.9671 B(  6-C ,  7-C ) :   1.3731 B(  6-C , 11-C ) :   1.1731
B(  7-C ,  8-C ) :   1.2649 B(  8-C ,  9-C ) :   1.4661 B(  8-C , 20-H ) :   0.9577
B(  9-C , 10-C ) :   1.2341 B(  9-C , 21-H ) :   0.9626 B( 10-C , 11-C ) :   1.4664
B( 10-C , 22-H ) :   0.9618 B( 11-C , 23-H ) :   0.9566

Dispersion correction           -0.009575255
FINAL SINGLE POINT ENERGY      -464.386852422914

DIPOLE MOMENT
-------------

Method             : SCF
Type of density    : Electron Density
Multiplicity       :   1
Irrep              :   0
Energy             :  -464.3841032361436305 Eh
Relativity type    :
Basis              : AO
                                X                 Y                 Z
Electronic contribution:      7.899086941       3.142515576      -0.037412473
Nuclear contribution   :     -8.098862171      -3.387634321       0.031738536
                        -----------------------------------------
Total Dipole Moment    :     -0.199775230      -0.245118745      -0.005673937
                        -----------------------------------------
Magnitude (a.u.)       :      0.316268139
Magnitude (Debye)      :      0.803889722

Rotational constants in cm-1:             0.055297             0.026539             0.018053
Rotational constants in MHz :          1657.763601           795.607105           541.222568

                             ****ORCA TERMINATED NORMALLY****
TOTAL RUN TIME: 0 days 0 hours 0 minutes 37 seconds 16 msec
