                         Program Version 6.0.0  -   RELEASE  -
|  1> ! pbe def2-sv(p) def2/J RI DEFGRID1 loosescf d4 GCP(DFT/SV(P)) printgap
|  2> %output
|  3>     printlevel normal
|  4> end
|  5> * xyz 0 1
|  6> C -2.17742622 -1.0166949701 -0.4458414684
|  7> C -1.166100653 -0.2361413498 0.4023615283
|  8> H -1.6948125535 0.1392434118 1.2866943217
|  9> C -0.5957320442 0.9433406125 -0.4073512765
| 10> H -0.4403318291 0.6262045523 -1.4466465829
| 11> C 0.7627592935 1.3226850351 0.1982148985
| 12> H 0.669160977 1.4365771869 1.2851763455
| 13> C 1.7320133919 0.1637138045 -0.0862865304
| 14> H 1.9995662665 0.1727427468 -1.1549515854
| 15> C 1.0423876703 -1.1872286985 0.1985607912
| 16> H 1.7070764459 -1.762552587 0.8579290864
| 17> O -0.1378337427 -1.0594536494 0.9474664798
| 18> O 0.8357798143 -1.8347301822 -1.0187151618
| 19> O 2.8891866566 0.239399532 0.7049875181
| 20> O 1.2609233898 2.5479378392 -0.2711566172
| 21> O -1.4912517171 2.0169332503 -0.4836770305
| 22> O -2.9060783751 -1.8896666926 0.3864106678
| 23> H -1.6423761663 -1.5671220546 -1.2279099587
| 24> H -2.8417669093 -0.277299861 -0.9129364425
| 25> H 0.6253963497 -2.768394212 -0.8632504359
| 26> H 3.2595731863 1.1329925194 0.6280386664
| 27> H 1.1318725983 2.6125409531 -1.2286823713
| 28> H -1.588938042 2.4316021034 0.3862683292
| 29> H -3.5474922098 -2.3776349968 -0.1489158587
| 30> *
| 31>
| 32>                          ****END OF INPUT****

CARTESIAN COORDINATES (ANGSTROEM)
---------------------------------
  C     -2.177426   -1.016695   -0.445841
  C     -1.166101   -0.236141    0.402362
  H     -1.694813    0.139243    1.286694
  C     -0.595732    0.943341   -0.407351
  H     -0.440332    0.626205   -1.446647
  C      0.762759    1.322685    0.198215
  H      0.669161    1.436577    1.285176
  C      1.732013    0.163714   -0.086287
  H      1.999566    0.172743   -1.154952
  C      1.042388   -1.187229    0.198561
  H      1.707076   -1.762553    0.857929
  O     -0.137834   -1.059454    0.947466
  O      0.835780   -1.834730   -1.018715
  O      2.889187    0.239400    0.704988
  O      1.260923    2.547938   -0.271157
  O     -1.491252    2.016933   -0.483677
  O     -2.906078   -1.889667    0.386411
  H     -1.642376   -1.567122   -1.227910
  H     -2.841767   -0.277300   -0.912936
  H      0.625396   -2.768394   -0.863250
  H      3.259573    1.132993    0.628039
  H      1.131873    2.612541   -1.228682
  H     -1.588938    2.431602    0.386268
  H     -3.547492   -2.377635   -0.148916

 Total Charge           Charge          ....    0
 Multiplicity           Mult            ....    1
 Number of Electrons    NEL             ....   96
 Basis Dimension        Dim             ....  192

ORBITAL ENERGIES
----------------

  NO   OCC          E(Eh)            E(eV)
   0   2.0000     -18.766518      -510.6629
   1   2.0000     -18.760222      -510.4916
   2   2.0000     -18.759067      -510.4602
   3   2.0000     -18.758808      -510.4531
   4   2.0000     -18.748850      -510.1821
   5   2.0000     -18.744167      -510.0547
   6   2.0000      -9.983139      -271.6550
   7   2.0000      -9.947057      -270.6732
   8   2.0000      -9.942504      -270.5493
   9   2.0000      -9.941961      -270.5345
  10   2.0000      -9.938404      -270.4377
  11   2.0000      -9.926551      -270.1152
  12   2.0000      -0.978332       -26.6218
  13   2.0000      -0.949530       -25.8380
  14   2.0000      -0.932368       -25.3710
  15   2.0000      -0.920711       -25.0538
  16   2.0000      -0.917822       -24.9752
  17   2.0000      -0.908319       -24.7166
  18   2.0000      -0.705813       -19.2061
  19   2.0000      -0.691537       -18.8177
  20   2.0000      -0.619983       -16.8706
  21   2.0000      -0.586193       -15.9511
  22   2.0000      -0.563678       -15.3385
  23   2.0000      -0.523737       -14.2516
  24   2.0000      -0.510082       -13.8800
  25   2.0000      -0.492420       -13.3994
  26   2.0000      -0.472230       -12.8500
  27   2.0000      -0.455335       -12.3903
  28   2.0000      -0.431914       -11.7530
  29   2.0000      -0.426562       -11.6074
  30   2.0000      -0.409949       -11.1553
  31   2.0000      -0.403096       -10.9688
  32   2.0000      -0.392396       -10.6776
  33   2.0000      -0.372625       -10.1396
  34   2.0000      -0.359654        -9.7867
  35   2.0000      -0.350500        -9.5376
  36   2.0000      -0.329357        -8.9623
  37   2.0000      -0.314334        -8.5535
  38   2.0000      -0.306698        -8.3457
  39   2.0000      -0.288497        -7.8504
  40   2.0000      -0.280151        -7.6233
  41   2.0000      -0.268454        -7.3050
  42   2.0000      -0.256983        -6.9929
  43   2.0000      -0.239282        -6.5112
  44   2.0000      -0.233618        -6.3571
  45   2.0000      -0.217852        -5.9280
  46   2.0000      -0.212103        -5.7716
  47   2.0000      -0.201251        -5.4763
  48   0.0000       0.016409         0.4465
  49   0.0000       0.025881         0.7042
  50   0.0000       0.028512         0.7758
  51   0.0000       0.035368         0.9624
  52   0.0000       0.055122         1.5000

MULLIKEN ATOMIC CHARGES
-----------------------
   0 C :    0.033385
   1 C :    0.095539
   2 H :    0.060522
   3 C :   -0.033073
   4 H :    0.067774
   5 C :    0.044777
   6 H :    0.058881
   7 C :    0.073462
   8 H :    0.052914
   9 C :    0.181342
  10 H :    0.076938
  11 O :   -0.311681
  12 O :   -0.399855
  13 O :   -0.414482
  14 O :   -0.412122
  15 O :   -0.402714
  16 O :   -0.429695
  17 H :    0.063720
  18 H :    0.075415
  19 H :    0.310112
  20 H :    0.304520
  21 H :    0.302521
  22 H :    0.303091
  23 H :    0.298709
Sum of atomic charges:    0.0000000

LOEWDIN ATOMIC CHARGES
----------------------
   0 C :   -0.140646
   1 C :   -0.059378
   2 H :    0.116108
   3 C :   -0.086481
   4 H :    0.114613
   5 C :   -0.090024
   6 H :    0.116232
   7 C :   -0.081845
   8 H :    0.101858
   9 C :    0.000732
  10 H :    0.107833
  11 O :   -0.141820
  12 O :   -0.309353
  13 O :   -0.318044
  14 O :   -0.312814
  15 O :   -0.306072
  16 O :   -0.345035
  17 H :    0.095818
  18 H :    0.101120
  19 H :    0.290088
  20 H :    0.286299
  21 H :    0.287405
  22 H :    0.287995
  23 H :    0.285412

  Mayer bond orders larger than 0.100000
B(  0-C ,  1-C ) :   1.0736 B(  0-C , 16-O ) :   1.1065 B(  0-C , 17-H ) :   0.8948
B(  0-C , 18-H ) :   0.9086 B(  1-C ,  2-H ) :   0.8834 B(  1-C ,  3-C ) :   0.9586
B(  1-C , 11-O ) :   0.9780 B(  3-C ,  4-H ) :   0.8739 B(  3-C ,  5-C ) :   1.0109
B(  3-C , 15-O ) :   1.0438 B(  5-C ,  6-H ) :   0.8498 B(  5-C ,  7-C ) :   1.0228
B(  5-C , 14-O ) :   1.0696 B(  7-C ,  8-H ) :   0.8796 B(  7-C ,  9-C ) :   0.9691
B(  7-C , 13-O ) :   1.0893 B(  9-C , 10-H ) :   0.8930 B(  9-C , 11-O ) :   1.0887
B(  9-C , 12-O ) :   1.0972 B( 12-O , 19-H ) :   0.8360 B( 13-O , 20-H ) :   0.8389
B( 14-O , 21-H ) :   0.8459 B( 15-O , 22-H ) :   0.8462 B( 16-O , 23-H ) :   0.8526

Dispersion correction           -0.024298501
FINAL SINGLE POINT ENERGY      -685.688435640393

DIPOLE MOMENT
-------------

Method             : SCF
Type of density    : Electron Density
Multiplicity       :   1
Irrep              :   0
Energy             :  -685.8174924943300539 Eh
Relativity type    :
Basis              : AO
                                X                 Y                 Z
Electronic contribution:      1.883601960       0.094213875       1.667641592
Nuclear contribution   :     -2.210286154      -0.188363720      -2.378258366
                        -----------------------------------------
Total Dipole Moment    :     -0.326684194      -0.094149845      -0.710616773
                        -----------------------------------------
Magnitude (a.u.)       :      0.787758183
Magnitude (Debye)      :      2.002322173

Rotational constants in cm-1:             0.042633             0.025742             0.018262
Rotational constants in MHz :          1278.099964           771.716555           547.471802

                             ****ORCA TERMINATED NORMALLY****
TOTAL RUN TIME: 0 days 0 hours 0 minutes 11 seconds 730 msec
