                         Program Version 6.0.0  -   RELEASE  -
|  1> ! r2scan-3c def2/J RI DEFGRID2 scfconv6 printgap
|  2> %output
|  3>     printlevel normal
|  4> end
|  5> * xyz 0 1
|  6> C 3.7295685995 -0.2510933836 -0.1508789708
|  7> C 2.2453234851 -0.1779748001 -0.0664360867
|  8> C 1.5548002314 0.9093872563 -0.4398773543
|  9> C 0.10623337 1.0097367684 -0.381481135
| 10> O -0.4626501453 2.0791079227 -0.5807958228
| 11> C -0.6408730125 -0.2802357343 -0.0773939489
| 12> H -0.6141877724 -0.8722943899 -1.0022765132
| 13> C 0.1494673589 -1.043321919 0.990169076
| 14> C 1.5413444346 -1.3831088453 0.4655966481
| 15> C -2.1164358478 -0.0025837537 0.2729830505
| 16> C -2.8937180805 0.339482025 -0.9996653529
| 17> C -2.79734472 -1.1758558928 0.9759994216
| 18> H 4.1519818868 -0.3039914444 0.8516089988
| 19> H 4.140947828 0.615374407 -0.6598657482
| 20> H 4.0275689349 -1.1553980808 -0.6778387958
| 21> H 2.0615017119 1.7983988341 -0.790420405
| 22> H 0.2307908918 -0.4257702099 1.8878089702
| 23> H -0.3665641659 -1.9648620351 1.2525218922
| 24> H 2.1409909753 -1.8457485501 1.2508809325
| 25> H 1.4521216067 -2.1110563403 -0.3476482358
| 26> H -2.1446372549 0.8708570518 0.935243183
| 27> H -2.913594368 -0.5152895026 -1.673089107
| 28> H -2.4339402949 1.1802853784 -1.5124502191
| 29> H -3.918241889 0.6101491231 -0.7557310827
| 30> H -3.8586200528 -0.9639310211 1.0820180655
| 31> H -2.3892905618 -1.3385211562 1.9691936411
| 32> H -2.6900808889 -2.0860388519 0.3903830944
| 33> *
| 34>
| 35>                          ****END OF INPUT****

CARTESIAN COORDINATES (ANGSTROEM)
---------------------------------
  C      3.729569   -0.251093   -0.150879
  C      2.245323   -0.177975   -0.066436
  C      1.554800    0.909387   -0.439877
  C      0.106233    1.009737   -0.381481
  O     -0.462650    2.079108   -0.580796
  C     -0.640873   -0.280236   -0.077394
  H     -0.614188   -0.872294   -1.002277
  C      0.149467   -1.043322    0.990169
  C      1.541344   -1.383109    0.465597
  C     -2.116436   -0.002584    0.272983
  C     -2.893718    0.339482   -0.999665
  C     -2.797345   -1.175856    0.975999
  H      4.151982   -0.303991    0.851609
  H      4.140948    0.615374   -0.659866
  H      4.027569   -1.155398   -0.677839
  H      2.061502    1.798399   -0.790420
  H      0.230791   -0.425770    1.887809
  H     -0.366564   -1.964862    1.252522
  H      2.140991   -1.845749    1.250881
  H      1.452122   -2.111056   -0.347648
  H     -2.144637    0.870857    0.935243
  H     -2.913594   -0.515290   -1.673089
  H     -2.433940    1.180285   -1.512450
  H     -3.918242    0.610149   -0.755731
  H     -3.858620   -0.963931    1.082018
  H     -2.389291   -1.338521    1.969194
  H     -2.690081   -2.086039    0.390383

 Total Charge           Charge          ....    0
 Multiplicity           Mult            ....    1
 Number of Electrons    NEL             ....   84
 Basis Dimension        Dim             ....  294

ORBITAL ENERGIES
----------------

  NO   OCC          E(Eh)            E(eV)
   0   2.0000     -18.923954      -514.9470
   1   2.0000     -10.105230      -274.9773
   2   2.0000     -10.068767      -273.9851
   3   2.0000     -10.049062      -273.4489
   4   2.0000     -10.042472      -273.2696
   5   2.0000     -10.040401      -273.2132
   6   2.0000     -10.039222      -273.1811
   7   2.0000     -10.030662      -272.9482
   8   2.0000     -10.029983      -272.9297
   9   2.0000     -10.014490      -272.5081
  10   2.0000     -10.002544      -272.1831
  11   2.0000      -0.987684       -26.8762
  12   2.0000      -0.825742       -22.4696
  13   2.0000      -0.777501       -21.1569
  14   2.0000      -0.729142       -19.8410
  15   2.0000      -0.701346       -19.0846
  16   2.0000      -0.663118       -18.0444
  17   2.0000      -0.644753       -17.5446
  18   2.0000      -0.589033       -16.0284
  19   2.0000      -0.554124       -15.0785
  20   2.0000      -0.523280       -14.2392
  21   2.0000      -0.494969       -13.4688
  22   2.0000      -0.447184       -12.1685
  23   2.0000      -0.440186       -11.9781
  24   2.0000      -0.426196       -11.5974
  25   2.0000      -0.408592       -11.1183
  26   2.0000      -0.401286       -10.9195
  27   2.0000      -0.395257       -10.7555
  28   2.0000      -0.393290       -10.7020
  29   2.0000      -0.371174       -10.1002
  30   2.0000      -0.369371       -10.0511
  31   2.0000      -0.358539        -9.7563
  32   2.0000      -0.350834        -9.5467
  33   2.0000      -0.344413        -9.3720
  34   2.0000      -0.334579        -9.1044
  35   2.0000      -0.317303        -8.6343
  36   2.0000      -0.311857        -8.4861
  37   2.0000      -0.294020        -8.0007
  38   2.0000      -0.286886        -7.8066
  39   2.0000      -0.280939        -7.6447
  40   2.0000      -0.241886        -6.5821
  41   2.0000      -0.203145        -5.5279
  42   0.0000      -0.075887        -2.0650
  43   0.0000       0.028644         0.7795
  44   0.0000       0.075152         2.0450
  45   0.0000       0.088458         2.4071
  46   0.0000       0.102492         2.7890

MULLIKEN ATOMIC CHARGES
-----------------------
   0 C :   -0.512361
   1 C :    0.198893
   2 C :   -0.296630
   3 C :    0.168952
   4 O :   -0.365531
   5 C :   -0.081394
   6 H :    0.175899
   7 C :   -0.338990
   8 C :   -0.340832
   9 C :    0.057922
  10 C :   -0.591453
  11 C :   -0.513976
  12 H :    0.168112
  13 H :    0.160690
  14 H :    0.157684
  15 H :    0.164751
  16 H :    0.172798
  17 H :    0.163533
  18 H :    0.160720
  19 H :    0.184152
  20 H :    0.167854
  21 H :    0.141775
  22 H :    0.190186
  23 H :    0.146484
  24 H :    0.149718
  25 H :    0.152708
  26 H :    0.158338
Sum of atomic charges:    0.0000000

LOEWDIN ATOMIC CHARGES
----------------------
   0 C :   -0.385397
   1 C :   -0.065569
   2 C :   -0.165296
   3 C :    0.233693
   4 O :   -0.492813
   5 C :   -0.187764
   6 H :    0.184523
   7 C :   -0.267570
   8 C :   -0.277112
   9 C :   -0.220468
  10 C :   -0.408373
  11 C :   -0.416965
  12 H :    0.169303
  13 H :    0.163661
  14 H :    0.167506
  15 H :    0.182974
  16 H :    0.167502
  17 H :    0.163920
  18 H :    0.166821
  19 H :    0.176241
  20 H :    0.172484
  21 H :    0.148323
  22 H :    0.176867
  23 H :    0.152045
  24 H :    0.156572
  25 H :    0.151620
  26 H :    0.153274

  Mayer bond orders larger than 0.100000
B(  0-C ,  1-C ) :   0.8387 B(  0-C , 12-H ) :   0.9656 B(  0-C , 13-H ) :   0.9931
B(  0-C , 14-H ) :   0.9634 B(  1-C ,  2-C ) :   1.6857 B(  1-C ,  8-C ) :   0.8506
B(  2-C ,  3-C ) :   1.1215 B(  2-C , 15-H ) :   0.9516 B(  3-C ,  4-O ) :   1.9082
B(  3-C ,  5-C ) :   0.9307 B(  5-C ,  6-H ) :   0.9351 B(  5-C ,  7-C ) :   0.7963
B(  5-C ,  9-C ) :   0.8698 B(  7-C ,  8-C ) :   0.9223 B(  7-C , 16-H ) :   0.9933
B(  7-C , 17-H ) :   0.9632 B(  8-C , 18-H ) :   0.9724 B(  8-C , 19-H ) :   0.9891
B(  9-C , 10-C ) :   0.8865 B(  9-C , 11-C ) :   0.8229 B(  9-C , 20-H ) :   0.9698
B( 10-C , 21-H ) :   0.9896 B( 10-C , 22-H ) :   0.9665 B( 10-C , 23-H ) :   0.9766
B( 11-C , 24-H ) :   0.9734 B( 11-C , 25-H ) :   0.9748 B( 11-C , 26-H ) :   0.9950

Dispersion correction           -0.009436547
FINAL SINGLE POINT ENERGY      -465.792692913665

DIPOLE MOMENT
-------------

Method             : SCF
Type of density    : Electron Density
Multiplicity       :   1
Irrep              :   0
Energy             :  -465.7948277705629607 Eh
Relativity type    :
Basis              : AO
                                X                 Y                 Z
Electronic contribution:      3.896639710       6.639153945      -1.722244079
Nuclear contribution   :     -2.936992404      -7.950937228       2.055671640
                        -----------------------------------------
Total Dipole Moment    :      0.959647306      -1.311783283       0.333427561
                        -----------------------------------------
Magnitude (a.u.)       :      1.659178192
Magnitude (Debye)      :      4.217295809

Rotational constants in cm-1:             0.068650             0.024150             0.019085
Rotational constants in MHz :          2058.087328           724.006156           572.157569

                             ****ORCA TERMINATED NORMALLY****
TOTAL RUN TIME: 0 days 0 hours 0 minutes 39 seconds 526 msec
