                         Program Version 6.0.0  -   RELEASE  -
|  1> ! r2scan-3c def2/J RI DEFGRID2 scfconv6 printgap
|  2> %output
|  3>     printlevel normal
|  4> end
|  5> %cpcm
|  6>     smd true
|  7>     smdsolvent "water"
|  8> end
|  9> * xyz 0 1
| 10> C 3.7295685995 -0.2510933836 -0.1508789708
| 11> C 2.2453234851 -0.1779748001 -0.0664360867
| 12> C 1.5548002314 0.9093872563 -0.4398773543
| 13> C 0.10623337 1.0097367684 -0.381481135
| 14> O -0.4626501453 2.0791079227 -0.5807958228
| 15> C -0.6408730125 -0.2802357343 -0.0773939489
| 16> H -0.6141877724 -0.8722943899 -1.0022765132
| 17> C 0.1494673589 -1.043321919 0.990169076
| 18> C 1.5413444346 -1.3831088453 0.4655966481
| 19> C -2.1164358478 -0.0025837537 0.2729830505
| 20> C -2.8937180805 0.339482025 -0.9996653529
| 21> C -2.79734472 -1.1758558928 0.9759994216
| 22> H 4.1519818868 -0.3039914444 0.8516089988
| 23> H 4.140947828 0.615374407 -0.6598657482
| 24> H 4.0275689349 -1.1553980808 -0.6778387958
| 25> H 2.0615017119 1.7983988341 -0.790420405
| 26> H 0.2307908918 -0.4257702099 1.8878089702
| 27> H -0.3665641659 -1.9648620351 1.2525218922
| 28> H 2.1409909753 -1.8457485501 1.2508809325
| 29> H 1.4521216067 -2.1110563403 -0.3476482358
| 30> H -2.1446372549 0.8708570518 0.935243183
| 31> H -2.913594368 -0.5152895026 -1.673089107
| 32> H -2.4339402949 1.1802853784 -1.5124502191
| 33> H -3.918241889 0.6101491231 -0.7557310827
| 34> H -3.8586200528 -0.9639310211 1.0820180655
| 35> H -2.3892905618 -1.3385211562 1.9691936411
| 36> H -2.6900808889 -2.0860388519 0.3903830944
| 37> *
| 38>
| 39>                          ****END OF INPUT****

CARTESIAN COORDINATES (ANGSTROEM)
---------------------------------
  C      3.729569   -0.251093   -0.150879
  C      2.245323   -0.177975   -0.066436
  C      1.554800    0.909387   -0.439877
  C      0.106233    1.009737   -0.381481
  O     -0.462650    2.079108   -0.580796
  C     -0.640873   -0.280236   -0.077394
  H     -0.614188   -0.872294   -1.002277
  C      0.149467   -1.043322    0.990169
  C      1.541344   -1.383109    0.465597
  C     -2.116436   -0.002584    0.272983
  C     -2.893718    0.339482   -0.999665
  C     -2.797345   -1.175856    0.975999
  H      4.151982   -0.303991    0.851609
  H      4.140948    0.615374   -0.659866
  H      4.027569   -1.155398   -0.677839
  H      2.061502    1.798399   -0.790420
  H      0.230791   -0.425770    1.887809
  H     -0.366564   -1.964862    1.252522
  H      2.140991   -1.845749    1.250881
  H      1.452122   -2.111056   -0.347648
  H     -2.144637    0.870857    0.935243
  H     -2.913594   -0.515290   -1.673089
  H     -2.433940    1.180285   -1.512450
  H     -3.918242    0.610149   -0.755731
  H     -3.858620   -0.963931    1.082018
  H     -2.389291   -1.338521    1.969194
  H     -2.690081   -2.086039    0.390383

 Total Charge           Charge          ....    0
 Multiplicity           Mult            ....    1
 Number of Electrons    NEL             ....   84
 Basis Dimension        Dim             ....  294

ORBITAL ENERGIES
----------------

  NO   OCC          E(Eh)            E(eV)
   0   2.0000     -18.936634      -515.2920
   1   2.0000     -10.113048      -275.1900
   2   2.0000     -10.063720      -273.8477
   3   2.0000     -10.032815      -273.0068
   4   2.0000     -10.031109      -272.9604
   5   2.0000     -10.028182      -272.8807
   6   2.0000     -10.026184      -272.8263
   7   2.0000     -10.023552      -272.7547
   8   2.0000     -10.023302      -272.7479
   9   2.0000     -10.006957      -272.3031
  10   2.0000     -10.003702      -272.2146
  11   2.0000      -1.002479       -27.2788
  12   2.0000      -0.816254       -22.2114
  13   2.0000      -0.771394       -20.9907
  14   2.0000      -0.718885       -19.5619
  15   2.0000      -0.693890       -18.8817
  16   2.0000      -0.651663       -17.7327
  17   2.0000      -0.641682       -17.4610
  18   2.0000      -0.578963       -15.7544
  19   2.0000      -0.550015       -14.9667
  20   2.0000      -0.518875       -14.1193
  21   2.0000      -0.486408       -13.2358
  22   2.0000      -0.440183       -11.9780
  23   2.0000      -0.433954       -11.8085
  24   2.0000      -0.415907       -11.3174
  25   2.0000      -0.411030       -11.1847
  26   2.0000      -0.392812       -10.6890
  27   2.0000      -0.390588       -10.6284
  28   2.0000      -0.383700       -10.4410
  29   2.0000      -0.365848        -9.9552
  30   2.0000      -0.360256        -9.8031
  31   2.0000      -0.349891        -9.5210
  32   2.0000      -0.346206        -9.4207
  33   2.0000      -0.342592        -9.3224
  34   2.0000      -0.324836        -8.8392
  35   2.0000      -0.312916        -8.5149
  36   2.0000      -0.301961        -8.2168
  37   2.0000      -0.292731        -7.9656
  38   2.0000      -0.283408        -7.7119
  39   2.0000      -0.274733        -7.4759
  40   2.0000      -0.238516        -6.4904
  41   2.0000      -0.215560        -5.8657
  42   0.0000      -0.076102        -2.0709
  43   0.0000       0.032085         0.8731
  44   0.0000       0.088271         2.4020
  45   0.0000       0.094481         2.5709
  46   0.0000       0.116740         3.1767

MULLIKEN ATOMIC CHARGES
-----------------------
   0 C :   -0.547696
   1 C :    0.217608
   2 C :   -0.376288
   3 C :    0.211527
   4 O :   -0.471238
   5 C :   -0.047273
   6 H :    0.203420
   7 C :   -0.351901
   8 C :   -0.350122
   9 C :    0.042911
  10 C :   -0.621992
  11 C :   -0.556029
  12 H :    0.191340
  13 H :    0.175195
  14 H :    0.181776
  15 H :    0.183204
  16 H :    0.183714
  17 H :    0.175760
  18 H :    0.182894
  19 H :    0.209255
  20 H :    0.166570
  21 H :    0.162609
  22 H :    0.173403
  23 H :    0.161747
  24 H :    0.159025
  25 H :    0.166151
  26 H :    0.174429
Sum of atomic charges:    0.0000000

LOEWDIN ATOMIC CHARGES
----------------------
   0 C :   -0.387437
   1 C :   -0.034181
   2 C :   -0.192755
   3 C :    0.240215
   4 O :   -0.579639
   5 C :   -0.183523
   6 H :    0.196124
   7 C :   -0.264099
   8 C :   -0.272946
   9 C :   -0.220448
  10 C :   -0.418341
  11 C :   -0.421444
  12 H :    0.180345
  13 H :    0.167600
  14 H :    0.178374
  15 H :    0.186931
  16 H :    0.170349
  17 H :    0.169813
  18 H :    0.176985
  19 H :    0.188092
  20 H :    0.168412
  21 H :    0.155663
  22 H :    0.167726
  23 H :    0.154735
  24 H :    0.157749
  25 H :    0.156771
  26 H :    0.158930

  Mayer bond orders larger than 0.100000
B(  0-C ,  1-C ) :   0.8436 B(  0-C , 12-H ) :   0.9529 B(  0-C , 13-H ) :   0.9899
B(  0-C , 14-H ) :   0.9538 B(  1-C ,  2-C ) :   1.6691 B(  1-C ,  8-C ) :   0.8611
B(  2-C ,  3-C ) :   1.1002 B(  2-C , 15-H ) :   0.9553 B(  3-C ,  4-O ) :   1.8325
B(  3-C ,  5-C ) :   0.9338 B(  5-C ,  6-H ) :   0.9145 B(  5-C ,  7-C ) :   0.7907
B(  5-C ,  9-C ) :   0.8454 B(  7-C ,  8-C ) :   0.9073 B(  7-C , 16-H ) :   0.9952
B(  7-C , 17-H ) :   0.9548 B(  8-C , 18-H ) :   0.9675 B(  8-C , 19-H ) :   0.9809
B(  9-C , 10-C ) :   0.8751 B(  9-C , 11-C ) :   0.8333 B(  9-C , 20-H ) :   0.9834
B( 10-C , 21-H ) :   0.9838 B( 10-C , 22-H ) :   0.9726 B( 10-C , 23-H ) :   0.9761
B( 11-C , 24-H ) :   0.9725 B( 11-C , 25-H ) :   0.9706 B( 11-C , 26-H ) :   0.9903

Dispersion correction           -0.009436547
FINAL SINGLE POINT ENERGY      -465.800347530619

DIPOLE MOMENT
-------------

Method             : SCF
Type of density    : Electron Density
Multiplicity       :   1
Irrep              :   0
Energy             :  -465.8024823875162497 Eh
Relativity type    :
Basis              : AO
                                X                 Y                 Z
Electronic contribution:      4.387542919       5.767664047      -1.540577542
Nuclear contribution   :     -2.936992404      -7.950937228       2.055671640
                        -----------------------------------------
Total Dipole Moment    :      1.450550514      -2.183273182       0.515094098
                        -----------------------------------------
Magnitude (a.u.)       :      2.671348070
Magnitude (Debye)      :      6.790027182

Rotational constants in cm-1:             0.068650             0.024150             0.019085
Rotational constants in MHz :          2058.087328           724.006156           572.157569

                             ****ORCA TERMINATED NORMALLY****
TOTAL RUN TIME: 0 days 0 hours 0 minutes 50 seconds 533 msec
