                         Program Version 6.0.0  -   RELEASE  -
|  1> ! wb97x-v def2-tzvp def2/J RIJCOSX DEFGRID2 scfconv7 GCP(DFT/TZ) printgap
|  2> %output
|  3>     printlevel normal
|  4> end
|  5> * xyz 0 1
|  6> C -1.4935758554699765 0.17490370989695353 -1.2499611000604294
|  7> C -0.6441768583289538 0.4253623225784832 -0.00025766349528666985
|  8> C -1.4929853212668047 0.17619950218836122 1.2501176735107058
|  9> C 0.6441831092030147 -0.42536752785646903 -0.00019623359409827638
| 10> C 1.4935900318144475 -0.17503940194491519 -1.2499363259334015
| 11> C 1.492963402451363 -0.1760404730163868 1.2501546677303803
| 12> H -2.437649184226511 0.7271251054363508 -1.1912031963544525
| 13> H -0.9871755367634626 0.4870058721638539 -2.167490164169711
| 14> H -1.7361182706535248 -0.891456468184942 -1.3429347623874157
| 15> H -0.33530133712978094 1.4822902733703678 -0.0008628738429622716
| 16> H -0.986803702646474 0.4908547004320813 2.1669012315727665
| 17> H -2.437823965966235 0.727014342469162 1.1904492422755117
| 18> H -1.7340518120942643 -0.8902988217365657 1.3453314153539364
| 19> H 0.33532219935106206 -1.482299616117622 -0.0006585436279283593
| 20> H 1.7350846651224814 0.8914897228156122 -1.3437099395251213
| 21> H 2.438207007865587 -0.7262661921526564 -1.190573970726812
| 22> H 0.9876820213064639 -0.488359453657548 -2.1673261566201645
| 23> H 0.986400027892279 -0.4897617699424795 2.1670446010380555
| 24> H 1.7347879875582581 0.8903420255385666 1.3447371416484553
| 25> H 2.4374071977625418 -0.7275831427872766 1.1909784266890242
| 26> *
| 27>
| 28>                          ****END OF INPUT****

CARTESIAN COORDINATES (ANGSTROEM)
---------------------------------
  C     -1.493576    0.174904   -1.249961
  C     -0.644177    0.425362   -0.000258
  C     -1.492985    0.176200    1.250118
  C      0.644183   -0.425368   -0.000196
  C      1.493590   -0.175039   -1.249936
  C      1.492963   -0.176040    1.250155
  H     -2.437649    0.727125   -1.191203
  H     -0.987176    0.487006   -2.167490
  H     -1.736118   -0.891456   -1.342935
  H     -0.335301    1.482290   -0.000863
  H     -0.986804    0.490855    2.166901
  H     -2.437824    0.727014    1.190449
  H     -1.734052   -0.890299    1.345331
  H      0.335322   -1.482300   -0.000659
  H      1.735085    0.891490   -1.343710
  H      2.438207   -0.726266   -1.190574
  H      0.987682   -0.488359   -2.167326
  H      0.986400   -0.489762    2.167045
  H      1.734788    0.890342    1.344737
  H      2.437407   -0.727583    1.190978

 Total Charge           Charge          ....    0
 Multiplicity           Mult            ....    1
 Number of Electrons    NEL             ....   50
 Basis Dimension        Dim             ....  270

ORBITAL ENERGIES
----------------

  NO   OCC          E(Eh)            E(eV)
   0   2.0000     -12.045536      -327.7757
   1   2.0000     -12.044451      -327.7462
   2   2.0000     -12.029736      -327.3458
   3   2.0000     -12.029391      -327.3364
   4   2.0000     -12.029254      -327.3327
   5   2.0000     -12.029210      -327.3314
   6   2.0000      -1.325798       -36.0768
   7   2.0000      -1.250194       -34.0195
   8   2.0000      -1.179492       -32.0956
   9   2.0000      -1.162284       -31.6274
  10   2.0000      -1.090663       -29.6784
  11   2.0000      -1.010368       -27.4935
  12   2.0000      -0.894826       -24.3495
  13   2.0000      -0.887018       -24.1370
  14   2.0000      -0.862022       -23.4568
  15   2.0000      -0.853860       -23.2347
  16   2.0000      -0.815385       -22.1877
  17   2.0000      -0.813998       -22.1500
  18   2.0000      -0.802780       -21.8448
  19   2.0000      -0.798759       -21.7353
  20   2.0000      -0.788179       -21.4474
  21   2.0000      -0.767856       -20.8944
  22   2.0000      -0.765232       -20.8230
  23   2.0000      -0.758795       -20.6479
  24   2.0000      -0.729787       -19.8585
  25   0.0000      -0.032259        -0.8778
  26   0.0000      -0.030490        -0.8297
  27   0.0000      -0.027933        -0.7601
  28   0.0000      -0.012967        -0.3529
  29   0.0000      -0.000322        -0.0088

MULLIKEN ATOMIC CHARGES
-----------------------
   0 C :   -0.364717
   1 C :   -0.003981
   2 C :   -0.364839
   3 C :   -0.003911
   4 C :   -0.364794
   5 C :   -0.364788
   6 H :    0.110668
   7 H :    0.119337
   8 H :    0.104697
   9 H :    0.063963
  10 H :    0.119424
  11 H :    0.110669
  12 H :    0.104761
  13 H :    0.063960
  14 H :    0.104726
  15 H :    0.110667
  16 H :    0.119344
  17 H :    0.119414
  18 H :    0.104734
  19 H :    0.110667
Sum of atomic charges:    0.0000000

LOEWDIN ATOMIC CHARGES
----------------------
   0 C :   -0.282084
   1 C :   -0.289630
   2 C :   -0.282097
   3 C :   -0.289625
   4 C :   -0.282092
   5 C :   -0.282092
   6 H :    0.117763
   7 H :    0.116306
   8 H :    0.119646
   9 H :    0.146360
  10 H :    0.116317
  11 H :    0.117768
  12 H :    0.119651
  13 H :    0.146360
  14 H :    0.119648
  15 H :    0.117765
  16 H :    0.116299
  17 H :    0.116323
  18 H :    0.119650
  19 H :    0.117764

  Mayer bond orders larger than 0.100000
B(  0-C ,  1-C ) :   0.9653 B(  0-C ,  6-H ) :   0.9851 B(  0-C ,  7-H ) :   0.9873
B(  0-C ,  8-H ) :   0.9731 B(  1-C ,  2-C ) :   0.9651 B(  1-C ,  3-C ) :   0.9812
B(  1-C ,  9-H ) :   0.9621 B(  2-C , 10-H ) :   0.9873 B(  2-C , 11-H ) :   0.9850
B(  2-C , 12-H ) :   0.9732 B(  3-C ,  4-C ) :   0.9653 B(  3-C ,  5-C ) :   0.9652
B(  3-C , 13-H ) :   0.9621 B(  4-C , 14-H ) :   0.9731 B(  4-C , 15-H ) :   0.9851
B(  4-C , 16-H ) :   0.9873 B(  5-C , 17-H ) :   0.9873 B(  5-C , 18-H ) :   0.9732
B(  5-C , 19-H ) :   0.9851

FINAL SINGLE POINT ENERGY      -237.084113265498

DIPOLE MOMENT
-------------

Method             : SCF
Type of density    : Electron Density
Multiplicity       :   1
Irrep              :   0
Energy             :  -237.0987445974984382 Eh
Relativity type    :
Basis              : AO
                                X                 Y                 Z
Electronic contribution:      0.000023359      -0.000043314      -0.000681099
Nuclear contribution   :     -0.000022926       0.000042577       0.000679999
                        -----------------------------------------
Total Dipole Moment    :      0.000000433      -0.000000737      -0.000001100
                        -----------------------------------------
Magnitude (a.u.)       :      0.000001393
Magnitude (Debye)      :      0.000003541

Rotational constants in cm-1:             0.140607             0.096936             0.062892
Rotational constants in MHz :          4215.298111          2906.053948          1885.456001

                             ****ORCA TERMINATED NORMALLY****
TOTAL RUN TIME: 0 days 0 hours 2 minutes 15 seconds 958 msec
