                         Program Version 6.0.0  -   RELEASE  -
|  1> ! wb97x-v def2-tzvp def2/J RIJCOSX DEFGRID2 scfconv7 GCP(DFT/TZ) printgap
|  2> %output
|  3>     printlevel normal
|  4> end
|  5> %cpcm
|  6>     smd true
|  7>     smdsolvent "water"
|  8> end
|  9> * xyz 0 1
| 10> C -1.4935758554699765 0.17490370989695353 -1.2499611000604294
| 11> C -0.6441768583289538 0.4253623225784832 -0.00025766349528666985
| 12> C -1.4929853212668047 0.17619950218836122 1.2501176735107058
| 13> C 0.6441831092030147 -0.42536752785646903 -0.00019623359409827638
| 14> C 1.4935900318144475 -0.17503940194491519 -1.2499363259334015
| 15> C 1.492963402451363 -0.1760404730163868 1.2501546677303803
| 16> H -2.437649184226511 0.7271251054363508 -1.1912031963544525
| 17> H -0.9871755367634626 0.4870058721638539 -2.167490164169711
| 18> H -1.7361182706535248 -0.891456468184942 -1.3429347623874157
| 19> H -0.33530133712978094 1.4822902733703678 -0.0008628738429622716
| 20> H -0.986803702646474 0.4908547004320813 2.1669012315727665
| 21> H -2.437823965966235 0.727014342469162 1.1904492422755117
| 22> H -1.7340518120942643 -0.8902988217365657 1.3453314153539364
| 23> H 0.33532219935106206 -1.482299616117622 -0.0006585436279283593
| 24> H 1.7350846651224814 0.8914897228156122 -1.3437099395251213
| 25> H 2.438207007865587 -0.7262661921526564 -1.190573970726812
| 26> H 0.9876820213064639 -0.488359453657548 -2.1673261566201645
| 27> H 0.986400027892279 -0.4897617699424795 2.1670446010380555
| 28> H 1.7347879875582581 0.8903420255385666 1.3447371416484553
| 29> H 2.4374071977625418 -0.7275831427872766 1.1909784266890242
| 30> *
| 31>
| 32>                          ****END OF INPUT****

CARTESIAN COORDINATES (ANGSTROEM)
---------------------------------
  C     -1.493576    0.174904   -1.249961
  C     -0.644177    0.425362   -0.000258
  C     -1.492985    0.176200    1.250118
  C      0.644183   -0.425368   -0.000196
  C      1.493590   -0.175039   -1.249936
  C      1.492963   -0.176040    1.250155
  H     -2.437649    0.727125   -1.191203
  H     -0.987176    0.487006   -2.167490
  H     -1.736118   -0.891456   -1.342935
  H     -0.335301    1.482290   -0.000863
  H     -0.986804    0.490855    2.166901
  H     -2.437824    0.727014    1.190449
  H     -1.734052   -0.890299    1.345331
  H      0.335322   -1.482300   -0.000659
  H      1.735085    0.891490   -1.343710
  H      2.438207   -0.726266   -1.190574
  H      0.987682   -0.488359   -2.167326
  H      0.986400   -0.489762    2.167045
  H      1.734788    0.890342    1.344737
  H      2.437407   -0.727583    1.190978

 Total Charge           Charge          ....    0
 Multiplicity           Mult            ....    1
 Number of Electrons    NEL             ....   50
 Basis Dimension        Dim             ....  270

ORBITAL ENERGIES
----------------

  NO   OCC          E(Eh)            E(eV)
   0   2.0000     -12.037054      -327.5449
   1   2.0000     -12.035967      -327.5153
   2   2.0000     -12.021089      -327.1105
   3   2.0000     -12.020743      -327.1010
   4   2.0000     -12.020608      -327.0974
   5   2.0000     -12.020563      -327.0961
   6   2.0000      -1.317347       -35.8468
   7   2.0000      -1.242005       -33.7967
   8   2.0000      -1.171504       -31.8783
   9   2.0000      -1.154398       -31.4128
  10   2.0000      -1.082635       -29.4600
  11   2.0000      -1.002103       -27.2686
  12   2.0000      -0.886483       -24.1224
  13   2.0000      -0.878624       -23.9086
  14   2.0000      -0.853942       -23.2369
  15   2.0000      -0.845551       -23.0086
  16   2.0000      -0.807108       -21.9625
  17   2.0000      -0.805905       -21.9298
  18   2.0000      -0.794644       -21.6234
  19   2.0000      -0.790579       -21.5127
  20   2.0000      -0.779850       -21.2208
  21   2.0000      -0.759516       -20.6675
  22   2.0000      -0.757011       -20.5993
  23   2.0000      -0.750511       -20.4224
  24   2.0000      -0.721170       -19.6240
  25   0.0000      -0.024415        -0.6644
  26   0.0000      -0.020747        -0.5645
  27   0.0000      -0.019320        -0.5257
  28   0.0000      -0.004284        -0.1166
  29   0.0000       0.007726         0.2102

MULLIKEN ATOMIC CHARGES
-----------------------
   0 C :   -0.417562
   1 C :    0.000601
   2 C :   -0.417643
   3 C :    0.000670
   4 C :   -0.417640
   5 C :   -0.417593
   6 H :    0.127329
   7 H :    0.134202
   8 H :    0.118124
   9 H :    0.075159
  10 H :    0.134253
  11 H :    0.127331
  12 H :    0.118189
  13 H :    0.075155
  14 H :    0.118155
  15 H :    0.127329
  16 H :    0.134211
  17 H :    0.134242
  18 H :    0.118158
  19 H :    0.127330
Sum of atomic charges:    0.0000000

LOEWDIN ATOMIC CHARGES
----------------------
   0 C :   -0.288958
   1 C :   -0.289493
   2 C :   -0.288965
   3 C :   -0.289488
   4 C :   -0.288965
   5 C :   -0.288961
   6 H :    0.119615
   7 H :    0.118395
   8 H :    0.121482
   9 H :    0.148414
  10 H :    0.118402
  11 H :    0.119618
  12 H :    0.121489
  13 H :    0.148413
  14 H :    0.121486
  15 H :    0.119616
  16 H :    0.118390
  17 H :    0.118406
  18 H :    0.121487
  19 H :    0.119615

  Mayer bond orders larger than 0.100000
B(  0-C ,  1-C ) :   0.9584 B(  0-C ,  6-H ) :   0.9830 B(  0-C ,  7-H ) :   0.9837
B(  0-C ,  8-H ) :   0.9723 B(  1-C ,  2-C ) :   0.9582 B(  1-C ,  3-C ) :   0.9791
B(  1-C ,  9-H ) :   0.9641 B(  2-C , 10-H ) :   0.9837 B(  2-C , 11-H ) :   0.9830
B(  2-C , 12-H ) :   0.9724 B(  3-C ,  4-C ) :   0.9583 B(  3-C ,  5-C ) :   0.9582
B(  3-C , 13-H ) :   0.9641 B(  4-C , 14-H ) :   0.9723 B(  4-C , 15-H ) :   0.9830
B(  4-C , 16-H ) :   0.9837 B(  5-C , 17-H ) :   0.9837 B(  5-C , 18-H ) :   0.9724
B(  5-C , 19-H ) :   0.9830

FINAL SINGLE POINT ENERGY      -237.080506041294

DIPOLE MOMENT
-------------

Method             : SCF
Type of density    : Electron Density
Multiplicity       :   1
Irrep              :   0
Energy             :  -237.0951373732940510 Eh
Relativity type    :
Basis              : AO
                                X                 Y                 Z
Electronic contribution:      0.000022708      -0.000042663      -0.000703221
Nuclear contribution   :     -0.000022926       0.000042577       0.000679999
                        -----------------------------------------
Total Dipole Moment    :     -0.000000218      -0.000000086      -0.000023222
                        -----------------------------------------
Magnitude (a.u.)       :      0.000023223
Magnitude (Debye)      :      0.000059029

Rotational constants in cm-1:             0.140607             0.096936             0.062892
Rotational constants in MHz :          4215.298111          2906.053948          1885.456001

                             ****ORCA TERMINATED NORMALLY****
TOTAL RUN TIME: 0 days 0 hours 2 minutes 22 seconds 526 msec
