                         Program Version 6.0.0  -   RELEASE  -
|  1> ! r2scan-3c def2/J RI DEFGRID2 scfconv6 printgap
|  2> %output
|  3>     printlevel normal
|  4> end
|  5> * xyz 0 1
|  6> C 1.884982572 0.9081200777 -0.2403572002
|  7> C 0.9510173463 -0.0853811007 0.4371051555
|  8> C -0.3841612355 -0.2627199042 -0.2927929606
|  9> H -0.1798773449 -0.4477193345 -1.3613051856
| 10> C -1.2893750554 0.9597300957 -0.1590132448
| 11> O -0.9957392658 -1.4190524064 0.2635868483
| 12> H 2.8396201608 0.9290746345 0.2782101865
| 13> H 1.4677887801 1.9112066055 -0.2252104046
| 14> H 2.0610964002 0.6213019953 -1.2745273653
| 15> H 0.7470713028 0.2254314111 1.4631640997
| 16> H 1.4263571683 -1.0675451192 0.4799965283
| 17> H -0.8030074911 1.8336534631 -0.5800464345
| 18> H -2.2263113312 0.8003404736 -0.6884524894
| 19> H -1.5066236555 1.1439573558 0.8905845103
| 20> H -1.8724355759 -1.5340767018 -0.1271190614
| 21> *
| 22>
| 23>                          ****END OF INPUT****

CARTESIAN COORDINATES (ANGSTROEM)
---------------------------------
  C      1.884983    0.908120   -0.240357
  C      0.951017   -0.085381    0.437105
  C     -0.384161   -0.262720   -0.292793
  H     -0.179877   -0.447719   -1.361305
  C     -1.289375    0.959730   -0.159013
  O     -0.995739   -1.419052    0.263587
  H      2.839620    0.929075    0.278210
  H      1.467789    1.911207   -0.225210
  H      2.061096    0.621302   -1.274527
  H      0.747071    0.225431    1.463164
  H      1.426357   -1.067545    0.479997
  H     -0.803007    1.833653   -0.580046
  H     -2.226311    0.800340   -0.688452
  H     -1.506624    1.143957    0.890585
  H     -1.872436   -1.534077   -0.127119

 Total Charge           Charge          ....    0
 Multiplicity           Mult            ....    1
 Number of Electrons    NEL             ....   42
 Basis Dimension        Dim             ....  150

ORBITAL ENERGIES
----------------

  NO   OCC          E(Eh)            E(eV)
   0   2.0000     -18.942901      -515.4625
   1   2.0000     -10.079588      -274.2795
   2   2.0000     -10.022174      -272.7172
   3   2.0000     -10.020400      -272.6690
   4   2.0000     -10.019381      -272.6412
   5   2.0000      -0.980466       -26.6798
   6   2.0000      -0.754338       -20.5266
   7   2.0000      -0.689010       -18.7489
   8   2.0000      -0.614048       -16.7091
   9   2.0000      -0.536984       -14.6121
  10   2.0000      -0.472212       -12.8496
  11   2.0000      -0.433749       -11.8029
  12   2.0000      -0.414874       -11.2893
  13   2.0000      -0.387516       -10.5448
  14   2.0000      -0.360135        -9.7998
  15   2.0000      -0.346441        -9.4271
  16   2.0000      -0.329904        -8.9772
  17   2.0000      -0.322773        -8.7831
  18   2.0000      -0.304377        -8.2825
  19   2.0000      -0.280920        -7.6442
  20   2.0000      -0.233470        -6.3530
  21   0.0000       0.065305         1.7770
  22   0.0000       0.094159         2.5622
  23   0.0000       0.127964         3.4821
  24   0.0000       0.133574         3.6347
  25   0.0000       0.137421         3.7394

MULLIKEN ATOMIC CHARGES
-----------------------
   0 C :   -0.499206
   1 C :   -0.213492
   2 C :    0.061731
   3 H :    0.119071
   4 C :   -0.501044
   5 O :   -0.422021
   6 H :    0.148276
   7 H :    0.143393
   8 H :    0.145244
   9 H :    0.135168
  10 H :    0.154353
  11 H :    0.148231
  12 H :    0.135100
  13 H :    0.162025
  14 H :    0.283172
Sum of atomic charges:   -0.0000000

LOEWDIN ATOMIC CHARGES
----------------------
   0 C :   -0.421057
   1 C :   -0.279761
   2 C :    0.046196
   3 H :    0.157627
   4 C :   -0.401534
   5 O :   -0.619783
   6 H :    0.153345
   7 H :    0.148523
   8 H :    0.151240
   9 H :    0.159140
  10 H :    0.167683
  11 H :    0.158121
  12 H :    0.151540
  13 H :    0.161377
  14 H :    0.267342

  Mayer bond orders larger than 0.100000
B(  0-C ,  1-C ) :   0.8860 B(  0-C ,  6-H ) :   0.9671 B(  0-C ,  7-H ) :   0.9822
B(  0-C ,  8-H ) :   0.9822 B(  1-C ,  2-C ) :   0.9288 B(  1-C ,  9-H ) :   0.9685
B(  1-C , 10-H ) :   0.9635 B(  2-C ,  3-H ) :   0.9539 B(  2-C ,  4-C ) :   0.9182
B(  2-C ,  5-O ) :   0.8848 B(  4-C , 11-H ) :   0.9711 B(  4-C , 12-H ) :   0.9651
B(  4-C , 13-H ) :   0.9830 B(  5-O , 14-H ) :   0.9021

Dispersion correction           -0.003177328
FINAL SINGLE POINT ENERGY      -233.603628223739

DIPOLE MOMENT
-------------

Method             : SCF
Type of density    : Electron Density
Multiplicity       :   1
Irrep              :   0
Energy             :  -233.6086790837950105 Eh
Relativity type    :
Basis              : AO
                                X                 Y                 Z
Electronic contribution:     -2.027764953      -3.748872033       0.693227698
Nuclear contribution   :      1.818064022       4.121491357      -1.070006880
                        -----------------------------------------
Total Dipole Moment    :     -0.209700931       0.372619324      -0.376779183
                        -----------------------------------------
Magnitude (a.u.)       :      0.569896652
Magnitude (Debye)      :      1.448562170

Rotational constants in cm-1:             0.256000             0.115554             0.088506
Rotational constants in MHz :          7674.681303          3464.218894          2653.339778

                             ****ORCA TERMINATED NORMALLY****
TOTAL RUN TIME: 0 days 0 hours 0 minutes 14 seconds 646 msec
