                         Program Version 6.0.0  -   RELEASE  -
|  1> ! r2scan-3c def2/J RI DEFGRID2 scfconv6 printgap
|  2> %output
|  3>     printlevel normal
|  4> end
|  5> %cpcm
|  6>     smd true
|  7>     smdsolvent "water"
|  8> end
|  9> * xyz 0 1
| 10> C 1.884982572 0.9081200777 -0.2403572002
| 11> C 0.9510173463 -0.0853811007 0.4371051555
| 12> C -0.3841612355 -0.2627199042 -0.2927929606
| 13> H -0.1798773449 -0.4477193345 -1.3613051856
| 14> C -1.2893750554 0.9597300957 -0.1590132448
| 15> O -0.9957392658 -1.4190524064 0.2635868483
| 16> H 2.8396201608 0.9290746345 0.2782101865
| 17> H 1.4677887801 1.9112066055 -0.2252104046
| 18> H 2.0610964002 0.6213019953 -1.2745273653
| 19> H 0.7470713028 0.2254314111 1.4631640997
| 20> H 1.4263571683 -1.0675451192 0.4799965283
| 21> H -0.8030074911 1.8336534631 -0.5800464345
| 22> H -2.2263113312 0.8003404736 -0.6884524894
| 23> H -1.5066236555 1.1439573558 0.8905845103
| 24> H -1.8724355759 -1.5340767018 -0.1271190614
| 25> *
| 26>
| 27>                          ****END OF INPUT****

CARTESIAN COORDINATES (ANGSTROEM)
---------------------------------
  C      1.884983    0.908120   -0.240357
  C      0.951017   -0.085381    0.437105
  C     -0.384161   -0.262720   -0.292793
  H     -0.179877   -0.447719   -1.361305
  C     -1.289375    0.959730   -0.159013
  O     -0.995739   -1.419052    0.263587
  H      2.839620    0.929075    0.278210
  H      1.467789    1.911207   -0.225210
  H      2.061096    0.621302   -1.274527
  H      0.747071    0.225431    1.463164
  H      1.426357   -1.067545    0.479997
  H     -0.803007    1.833653   -0.580046
  H     -2.226311    0.800340   -0.688452
  H     -1.506624    1.143957    0.890585
  H     -1.872436   -1.534077   -0.127119

 Total Charge           Charge          ....    0
 Multiplicity           Mult            ....    1
 Number of Electrons    NEL             ....   42
 Basis Dimension        Dim             ....  150

ORBITAL ENERGIES
----------------

  NO   OCC          E(Eh)            E(eV)
   0   2.0000     -18.947597      -515.5903
   1   2.0000     -10.074818      -274.1497
   2   2.0000     -10.017956      -272.6024
   3   2.0000     -10.010810      -272.4080
   4   2.0000     -10.009561      -272.3740
   5   2.0000      -0.983911       -26.7736
   6   2.0000      -0.748752       -20.3746
   7   2.0000      -0.680791       -18.5253
   8   2.0000      -0.608167       -16.5491
   9   2.0000      -0.532535       -14.4910
  10   2.0000      -0.469566       -12.7775
  11   2.0000      -0.427684       -11.6379
  12   2.0000      -0.410526       -11.1710
  13   2.0000      -0.380427       -10.3519
  14   2.0000      -0.350055        -9.5255
  15   2.0000      -0.340604        -9.2683
  16   2.0000      -0.324846        -8.8395
  17   2.0000      -0.321989        -8.7618
  18   2.0000      -0.299434        -8.1480
  19   2.0000      -0.278413        -7.5760
  20   2.0000      -0.238584        -6.4922
  21   0.0000       0.081039         2.2052
  22   0.0000       0.102887         2.7997
  23   0.0000       0.136295         3.7088
  24   0.0000       0.140180         3.8145
  25   0.0000       0.145242         3.9522

MULLIKEN ATOMIC CHARGES
-----------------------
   0 C :   -0.537795
   1 C :   -0.223688
   2 C :    0.079285
   3 H :    0.132992
   4 C :   -0.541701
   5 O :   -0.513364
   6 H :    0.158719
   7 H :    0.160139
   8 H :    0.157883
   9 H :    0.145325
  10 H :    0.151747
  11 H :    0.165541
  12 H :    0.160426
  13 H :    0.164731
  14 H :    0.339758
Sum of atomic charges:   -0.0000000

LOEWDIN ATOMIC CHARGES
----------------------
   0 C :   -0.426019
   1 C :   -0.285916
   2 C :    0.047553
   3 H :    0.165018
   4 C :   -0.405227
   5 O :   -0.657927
   6 H :    0.155832
   7 H :    0.154096
   8 H :    0.155065
   9 H :    0.160533
  10 H :    0.164980
  11 H :    0.164541
  12 H :    0.159968
  13 H :    0.161460
  14 H :    0.286043

  Mayer bond orders larger than 0.100000
B(  0-C ,  1-C ) :   0.8928 B(  0-C ,  6-H ) :   0.9640 B(  0-C ,  7-H ) :   0.9783
B(  0-C ,  8-H ) :   0.9798 B(  1-C ,  2-C ) :   0.9186 B(  1-C ,  9-H ) :   0.9652
B(  1-C , 10-H ) :   0.9619 B(  2-C ,  3-H ) :   0.9507 B(  2-C ,  4-C ) :   0.9261
B(  2-C ,  5-O ) :   0.8687 B(  4-C , 11-H ) :   0.9653 B(  4-C , 12-H ) :   0.9612
B(  4-C , 13-H ) :   0.9793 B(  5-O , 14-H ) :   0.8762

Dispersion correction           -0.003177328
FINAL SINGLE POINT ENERGY      -233.610301101469

DIPOLE MOMENT
-------------

Method             : SCF
Type of density    : Electron Density
Multiplicity       :   1
Irrep              :   0
Energy             :  -233.6153519615249365 Eh
Relativity type    :
Basis              : AO
                                X                 Y                 Z
Electronic contribution:     -2.134311510      -3.565336399       0.485759142
Nuclear contribution   :      1.818064022       4.121491357      -1.070006880
                        -----------------------------------------
Total Dipole Moment    :     -0.316247488       0.556154957      -0.584247739
                        -----------------------------------------
Magnitude (a.u.)       :      0.866409967
Magnitude (Debye)      :      2.202239121

Rotational constants in cm-1:             0.256000             0.115554             0.088506
Rotational constants in MHz :          7674.681303          3464.218894          2653.339778

                             ****ORCA TERMINATED NORMALLY****
TOTAL RUN TIME: 0 days 0 hours 0 minutes 17 seconds 28 msec
