                         Program Version 6.0.0  -   RELEASE  -
|  1> ! pbe def2-sv(p) def2/J RI DEFGRID1 loosescf d4 GCP(DFT/SV(P)) printgap
|  2> %output
|  3>     printlevel normal
|  4> end
|  5> * xyz 0 1
|  6> C -3.487649188 0.2857543545 -3.83216e-05
|  7> C -2.7566544562 1.4630871487 1.73457e-05
|  8> C -1.3749841175 1.4105748538 0.0001060769
|  9> C -0.7336747294 0.1858163963 8.26577e-05
| 10> C -1.4484767498 -1.0084266984 3.50916e-05
| 11> C -2.8424134407 -0.9333438931 -2.54998e-05
| 12> O -0.8921592016 -2.2372720387 -1.4273e-06
| 13> I 1.4038535427 0.1412901085 -1.84863e-05
| 14> H -4.5652565013 0.3161999684 0.0001058417
| 15> H -3.2537499859 2.4192301352 4.2336e-05
| 16> H -0.7953424244 2.3201540203 0.000114043
| 17> H -3.388221844 -1.8628642193 -2.56283e-05
| 18> H 0.0779602871 -2.1926003102 2.427e-07
| 19> *
| 20>
| 21>                          ****END OF INPUT****

CARTESIAN COORDINATES (ANGSTROEM)
---------------------------------
  C     -3.487649    0.285754   -0.000038
  C     -2.756654    1.463087    0.000017
  C     -1.374984    1.410575    0.000106
  C     -0.733675    0.185816    0.000083
  C     -1.448477   -1.008427    0.000035
  C     -2.842413   -0.933344   -0.000025
  O     -0.892159   -2.237272   -0.000001
  I      1.403854    0.141290   -0.000018
  H     -4.565257    0.316200    0.000106
  H     -3.253750    2.419230    0.000042
  H     -0.795342    2.320154    0.000114
  H     -3.388222   -1.862864   -0.000026
  H      0.077960   -2.192600    0.000000

 Total Charge           Charge          ....    0
 Multiplicity           Mult            ....    1
 Number of Electrons    NEL             ....   74
 Basis Dimension        Dim             ....  134

ORBITAL ENERGIES
----------------

  NO   OCC          E(Eh)            E(eV)
   0   2.0000     -18.793563      -511.3988
   1   2.0000      -9.970030      -271.2983
   2   2.0000      -9.943540      -270.5775
   3   2.0000      -9.907419      -269.5946
   4   2.0000      -9.899754      -269.3860
   5   2.0000      -9.896816      -269.3061
   6   2.0000      -9.895019      -269.2572
   7   2.0000      -6.620951      -180.1652
   8   2.0000      -4.692699      -127.6948
   9   2.0000      -4.676463      -127.2530
  10   2.0000      -4.675261      -127.2203
  11   2.0000      -1.828869       -49.7661
  12   2.0000      -1.824762       -49.6543
  13   2.0000      -1.823669       -49.6245
  14   2.0000      -1.810745       -49.2729
  15   2.0000      -1.810707       -49.2719
  16   2.0000      -0.976391       -26.5689
  17   2.0000      -0.786829       -21.4107
  18   2.0000      -0.700198       -19.0534
  19   2.0000      -0.678118       -18.4525
  20   2.0000      -0.637570       -17.3492
  21   2.0000      -0.565917       -15.3994
  22   2.0000      -0.554703       -15.0942
  23   2.0000      -0.499376       -13.5887
  24   2.0000      -0.454661       -12.3720
  25   2.0000      -0.424613       -11.5543
  26   2.0000      -0.396191       -10.7809
  27   2.0000      -0.380671       -10.3586
  28   2.0000      -0.371832       -10.1181
  29   2.0000      -0.346126        -9.4186
  30   2.0000      -0.325037        -8.8447
  31   2.0000      -0.310176        -8.4403
  32   2.0000      -0.303346        -8.2545
  33   2.0000      -0.268612        -7.3093
  34   2.0000      -0.247909        -6.7459
  35   2.0000      -0.223998        -6.0953
  36   2.0000      -0.203529        -5.5383
  37   0.0000      -0.070846        -1.9278
  38   0.0000      -0.046083        -1.2540
  39   0.0000      -0.029711        -0.8085
  40   0.0000       0.035608         0.9689
  41   0.0000       0.052058         1.4166

MULLIKEN ATOMIC CHARGES
-----------------------
   0 C :   -0.040511
   1 C :   -0.045495
   2 C :   -0.102715
   3 C :   -0.123314
   4 C :    0.166488
   5 C :   -0.119581
   6 O :   -0.313745
   7 I :    0.028252
   8 H :    0.060255
   9 H :    0.057924
  10 H :    0.062901
  11 H :    0.055750
  12 H :    0.313791
Sum of atomic charges:   -0.0000000

LOEWDIN ATOMIC CHARGES
----------------------
   0 C :   -0.112795
   1 C :   -0.141150
   2 C :   -0.128486
   3 C :   -0.203890
   4 C :    0.011183
   5 C :   -0.139090
   6 O :   -0.225601
   7 I :    0.138095
   8 H :    0.128543
   9 H :    0.127793
  10 H :    0.131352
  11 H :    0.136030
  12 H :    0.278016

  Mayer bond orders larger than 0.100000
B(  0-C ,  1-C ) :   1.3457 B(  0-C ,  5-C ) :   1.3839 B(  0-C ,  8-H ) :   0.9669
B(  1-C ,  2-C ) :   1.3949 B(  1-C ,  9-H ) :   0.9660 B(  2-C ,  3-C ) :   1.3981
B(  2-C , 10-H ) :   0.9584 B(  3-C ,  4-C ) :   1.3315 B(  3-C ,  7-I ) :   0.9735
B(  4-C ,  5-C ) :   1.3641 B(  4-C ,  6-O ) :   1.2702 B(  5-C , 11-H ) :   0.9591
B(  6-O , 12-H ) :   0.8020

Dispersion correction           -0.016135329
FINAL SINGLE POINT ENERGY      -603.904675572141

DIPOLE MOMENT
-------------

Method             : SCF
Type of density    : Electron Density
Multiplicity       :   1
Irrep              :   0
Energy             :  -603.9429507104086952 Eh
Relativity type    :
Basis              : AO
                                X                 Y                 Z
Electronic contribution:    113.041567678       9.552349785      -0.001529691
Nuclear contribution   :   -113.053453076      -9.345201850       0.001563399
                        -----------------------------------------
Total Dipole Moment    :     -0.011885398       0.207147935       0.000033709
                        -----------------------------------------
Magnitude (a.u.)       :      0.207488628
Magnitude (Debye)      :      0.527394180

Rotational constants in cm-1:             0.096018             0.024220             0.019342
Rotational constants in MHz :          2878.533413           726.110258           579.844454

                             ****ORCA TERMINATED NORMALLY****
TOTAL RUN TIME: 0 days 0 hours 0 minutes 13 seconds 696 msec
