                         Program Version 6.0.0  -   RELEASE  -
|  1> ! pbe def2-sv(p) def2/J RI DEFGRID1 loosescf d4 GCP(DFT/SV(P)) printgap
|  2> %output
|  3>     printlevel normal
|  4> end
|  5> * xyz 0 1
|  6> C -3.4642993622 -0.0100427742 -0.5980257528
|  7> C -1.9732551225 -0.3336221712 -0.5911230889
|  8> H -1.7468109578 -0.9258582249 -1.4831553973
|  9> C -1.5882928483 -1.163612496 0.6327123545
| 10> C -0.1081791709 -1.5241716943 0.559988838
| 11> C 0.7815534054 -0.2657914786 0.5692983204
| 12> H 1.3130128965 -0.1812632802 1.5232803971
| 13> C -0.0578311186 0.9829369804 0.435446584
| 14> O 0.139501323 1.9636196243 1.1302454589
| 15> C -1.1362723906 0.9622389401 -0.6116877749
| 16> C 1.8465585181 -0.3019641184 -0.5532557568
| 17> C 2.6049461016 1.0208551234 -0.6462946482
| 18> C 2.835498887 -1.4387385572 -0.3023105009
| 19> H -3.7337772397 0.5582645808 0.2897298561
| 20> H -3.7243907657 0.5750368763 -1.4765706976
| 21> H -4.0492107053 -0.9265349733 -0.6092007728
| 22> H -1.7911997219 -0.5919255976 1.5423358879
| 23> H -2.1865985383 -2.0752505645 0.6642877078
| 24> H 0.1591680279 -2.165329224 1.3998156201
| 25> H 0.0579539592 -2.0896596755 -0.3584016234
| 26> H -1.7686660181 1.838279705 -0.4553943069
| 27> H -0.6435604015 1.0815337357 -1.5787441428
| 28> H 1.3335590878 -0.4807741203 -1.5041599295
| 29> H 3.3852250275 0.9531101203 -1.4003762413
| 30> H 3.0675800684 1.260054809 0.3089887803
| 31> H 1.9435605201 1.843584119 -0.9099113779
| 32> H 3.5575891197 -1.4871613068 -1.1135512795
| 33> H 2.3304058779 -2.3975976575 -0.235793168
| 34> H 3.3750118804 -1.2683166734 0.6264324335
| 35> *
| 36>
| 37>                          ****END OF INPUT****

CARTESIAN COORDINATES (ANGSTROEM)
---------------------------------
  C     -3.464299   -0.010043   -0.598026
  C     -1.973255   -0.333622   -0.591123
  H     -1.746811   -0.925858   -1.483155
  C     -1.588293   -1.163612    0.632712
  C     -0.108179   -1.524172    0.559989
  C      0.781553   -0.265791    0.569298
  H      1.313013   -0.181263    1.523280
  C     -0.057831    0.982937    0.435447
  O      0.139501    1.963620    1.130245
  C     -1.136272    0.962239   -0.611688
  C      1.846559   -0.301964   -0.553256
  C      2.604946    1.020855   -0.646295
  C      2.835499   -1.438739   -0.302311
  H     -3.733777    0.558265    0.289730
  H     -3.724391    0.575037   -1.476571
  H     -4.049211   -0.926535   -0.609201
  H     -1.791200   -0.591926    1.542336
  H     -2.186599   -2.075251    0.664288
  H      0.159168   -2.165329    1.399816
  H      0.057954   -2.089660   -0.358402
  H     -1.768666    1.838280   -0.455394
  H     -0.643560    1.081534   -1.578744
  H      1.333559   -0.480774   -1.504160
  H      3.385225    0.953110   -1.400376
  H      3.067580    1.260055    0.308989
  H      1.943561    1.843584   -0.909911
  H      3.557589   -1.487161   -1.113551
  H      2.330406   -2.397598   -0.235793
  H      3.375012   -1.268317    0.626432

 Total Charge           Charge          ....    0
 Multiplicity           Mult            ....    1
 Number of Electrons    NEL             ....   86
 Basis Dimension        Dim             ....  190

ORBITAL ENERGIES
----------------

  NO   OCC          E(Eh)            E(eV)
   0   2.0000     -18.734142      -509.7819
   1   2.0000      -9.966463      -271.2012
   2   2.0000      -9.906395      -269.5667
   3   2.0000      -9.903781      -269.4956
   4   2.0000      -9.896179      -269.2887
   5   2.0000      -9.892625      -269.1920
   6   2.0000      -9.890369      -269.1306
   7   2.0000      -9.890005      -269.1207
   8   2.0000      -9.881027      -268.8764
   9   2.0000      -9.879966      -268.8475
  10   2.0000      -9.875130      -268.7159
  11   2.0000      -0.929404       -25.2904
  12   2.0000      -0.769159       -20.9299
  13   2.0000      -0.732398       -19.9296
  14   2.0000      -0.680550       -18.5187
  15   2.0000      -0.652915       -17.7667
  16   2.0000      -0.615414       -16.7463
  17   2.0000      -0.612887       -16.6775
  18   2.0000      -0.550085       -14.9686
  19   2.0000      -0.525011       -14.2863
  20   2.0000      -0.510335       -13.8869
  21   2.0000      -0.468800       -12.7567
  22   2.0000      -0.444632       -12.0990
  23   2.0000      -0.418855       -11.3976
  24   2.0000      -0.408504       -11.1159
  25   2.0000      -0.398683       -10.8487
  26   2.0000      -0.391484       -10.6528
  27   2.0000      -0.374084       -10.1793
  28   2.0000      -0.370444       -10.0803
  29   2.0000      -0.356496        -9.7008
  30   2.0000      -0.347426        -9.4539
  31   2.0000      -0.343787        -9.3549
  32   2.0000      -0.341804        -9.3010
  33   2.0000      -0.336171        -9.1477
  34   2.0000      -0.318135        -8.6569
  35   2.0000      -0.316588        -8.6148
  36   2.0000      -0.301469        -8.2034
  37   2.0000      -0.298067        -8.1108
  38   2.0000      -0.292670        -7.9640
  39   2.0000      -0.284745        -7.7483
  40   2.0000      -0.276513        -7.5243
  41   2.0000      -0.268879        -7.3166
  42   2.0000      -0.185696        -5.0530
  43   0.0000      -0.048439        -1.3181
  44   0.0000       0.023318         0.6345
  45   0.0000       0.044124         1.2007
  46   0.0000       0.048248         1.3129
  47   0.0000       0.058237         1.5847

MULLIKEN ATOMIC CHARGES
-----------------------
   0 C :   -0.220148
   1 C :   -0.213782
   2 H :    0.063319
   3 C :   -0.123929
   4 C :   -0.075836
   5 C :   -0.069759
   6 H :    0.059884
   7 C :   -0.054561
   8 O :   -0.162421
   9 C :   -0.044109
  10 C :   -0.237740
  11 C :   -0.219825
  12 C :   -0.224959
  13 H :    0.102135
  14 H :    0.104416
  15 H :    0.097959
  16 H :    0.091259
  17 H :    0.083783
  18 H :    0.089349
  19 H :    0.074143
  20 H :    0.083461
  21 H :    0.103446
  22 H :    0.074117
  23 H :    0.097683
  24 H :    0.101222
  25 H :    0.117693
  26 H :    0.103018
  27 H :    0.104492
  28 H :    0.095691
Sum of atomic charges:    0.0000000

LOEWDIN ATOMIC CHARGES
----------------------
   0 C :   -0.327185
   1 C :   -0.147957
   2 H :    0.114525
   3 C :   -0.219800
   4 C :   -0.214043
   5 C :   -0.154370
   6 H :    0.127271
   7 C :    0.048447
   8 O :   -0.134225
   9 C :   -0.237268
  10 C :   -0.141702
  11 C :   -0.330254
  12 C :   -0.326766
  13 H :    0.120134
  14 H :    0.119469
  15 H :    0.118436
  16 H :    0.121476
  17 H :    0.118229
  18 H :    0.123203
  19 H :    0.116219
  20 H :    0.132229
  21 H :    0.141929
  22 H :    0.111493
  23 H :    0.118047
  24 H :    0.123796
  25 H :    0.120742
  26 H :    0.120216
  27 H :    0.117903
  28 H :    0.119803

  Mayer bond orders larger than 0.100000
B(  0-C ,  1-C ) :   1.1185 B(  0-C , 13-H ) :   0.9447 B(  0-C , 14-H ) :   0.9491
B(  0-C , 15-H ) :   0.9477 B(  1-C ,  2-H ) :   0.8841 B(  1-C ,  3-C ) :   1.1538
B(  1-C ,  9-C ) :   1.0369 B(  3-C ,  4-C ) :   1.1799 B(  3-C , 16-H ) :   0.8814
B(  3-C , 17-H ) :   0.9171 B(  4-C ,  5-C ) :   1.0436 B(  4-C , 18-H ) :   0.9068
B(  4-C , 19-H ) :   0.8914 B(  5-C ,  6-H ) :   0.8514 B(  5-C ,  7-C ) :   0.9972
B(  5-C , 10-C ) :   1.0172 B(  7-C ,  8-O ) :   2.1709 B(  7-C ,  9-C ) :   1.0538
B(  9-C , 20-H ) :   0.8840 B(  9-C , 21-H ) :   0.8693 B( 10-C , 11-C ) :   1.1198
B( 10-C , 12-C ) :   1.1160 B( 10-C , 22-H ) :   0.8919 B( 11-C , 23-H ) :   0.9474
B( 11-C , 24-H ) :   0.9441 B( 11-C , 25-H ) :   0.9307 B( 12-C , 26-H ) :   0.9497
B( 12-C , 27-H ) :   0.9427 B( 12-C , 28-H ) :   0.9466

Dispersion correction           -0.030261937
FINAL SINGLE POINT ENERGY      -466.027702467446

DIPOLE MOMENT
-------------

Method             : SCF
Type of density    : Electron Density
Multiplicity       :   1
Irrep              :   0
Energy             :  -466.1238502170715492 Eh
Relativity type    :
Basis              : AO
                                X                 Y                 Z
Electronic contribution:     -0.963194504       5.144551809       3.831586459
Nuclear contribution   :      0.826577941      -6.050004819      -4.458648412
                        -----------------------------------------
Total Dipole Moment    :     -0.136616563      -0.905453011      -0.627061953
                        -----------------------------------------
Magnitude (a.u.)       :      1.109826983
Magnitude (Debye)      :      2.820956006

Rotational constants in cm-1:             0.059046             0.025529             0.021412
Rotational constants in MHz :          1770.141081           765.351001           641.902856

                             ****ORCA TERMINATED NORMALLY****
TOTAL RUN TIME: 0 days 0 hours 0 minutes 15 seconds 901 msec
