                         Program Version 6.0.0  -   RELEASE  -
|  1> ! wb97x-v def2-tzvp def2/J RIJCOSX DEFGRID2 scfconv7 GCP(DFT/TZ) printgap
|  2> %output
|  3>     printlevel normal
|  4> end
|  5> * xyz 0 1
|  6> C 1.8101296012388313 -0.5031284848953145 0.5118394170440045
|  7> C 0.8356652297741023 -0.32897978874256917 -0.6628632002155881
|  8> C -0.4779428452297204 0.21970094026631223 -0.18562351688459952
|  9> O -0.8392072359852184 1.3751467134088486 -0.3146491729011127
| 10> O -1.2970906211613575 -0.6395760716662495 0.4727913600206605
| 11> H 1.4334126000880119 -1.2309417964349358 1.236035717143868
| 12> H 2.7722567950672286 -0.860877305157289 0.13747114312932082
| 13> H 1.9725687374469951 0.44816630356374354 1.0261406828165027
| 14> H 1.2405878581123464 0.37234351443242636 -1.3948777171435442
| 15> H 0.6683964022957873 -1.2931861893064442 -1.155516244057356
| 16> H -0.9055191983269574 -1.5271303463411328 0.5009349992158455
| 17> *
| 18>
| 19>                          ****END OF INPUT****

CARTESIAN COORDINATES (ANGSTROEM)
---------------------------------
  C      1.810130   -0.503128    0.511839
  C      0.835665   -0.328980   -0.662863
  C     -0.477943    0.219701   -0.185624
  O     -0.839207    1.375147   -0.314649
  O     -1.297091   -0.639576    0.472791
  H      1.433413   -1.230942    1.236036
  H      2.772257   -0.860877    0.137471
  H      1.972569    0.448166    1.026141
  H      1.240588    0.372344   -1.394878
  H      0.668396   -1.293186   -1.155516
  H     -0.905519   -1.527130    0.500935

 Total Charge           Charge          ....    0
 Multiplicity           Mult            ....    1
 Number of Electrons    NEL             ....   40
 Basis Dimension        Dim             ....  191

ORBITAL ENERGIES
----------------

  NO   OCC          E(Eh)            E(eV)
   0   2.0000     -21.725822      -591.1897
   1   2.0000     -21.655616      -589.2793
   2   2.0000     -12.183549      -331.5312
   3   2.0000     -12.078731      -328.6790
   4   2.0000     -12.066787      -328.3540
   5   2.0000      -1.761836       -47.9420
   6   2.0000      -1.694765       -46.1169
   7   2.0000      -1.317611       -35.8540
   8   2.0000      -1.211156       -32.9572
   9   2.0000      -1.157884       -31.5076
  10   2.0000      -1.060847       -28.8671
  11   2.0000      -1.039633       -28.2898
  12   2.0000      -0.979918       -26.6649
  13   2.0000      -0.952742       -25.9254
  14   2.0000      -0.899458       -24.4755
  15   2.0000      -0.894051       -24.3284
  16   2.0000      -0.870771       -23.6949
  17   2.0000      -0.846679       -23.0393
  18   2.0000      -0.817056       -22.2332
  19   2.0000      -0.805430       -21.9169
  20   0.0000      -0.313533        -8.5317
  21   0.0000      -0.135218        -3.6795
  22   0.0000      -0.089938        -2.4473
  23   0.0000      -0.038153        -1.0382
  24   0.0000      -0.015851        -0.4313

MULLIKEN ATOMIC CHARGES
-----------------------
   0 C :   -0.337819
   1 C :   -0.225059
   2 C :    0.299837
   3 O :   -0.317894
   4 O :   -0.342980
   5 H :    0.100484
   6 H :    0.126791
   7 H :    0.137827
   8 H :    0.125236
   9 H :    0.117492
  10 H :    0.316085
Sum of atomic charges:    0.0000000

LOEWDIN ATOMIC CHARGES
----------------------
   0 C :   -0.289483
   1 C :   -0.259490
   2 C :   -0.488896
   3 O :    0.095930
   4 O :    0.097272
   5 H :    0.114886
   6 H :    0.122203
   7 H :    0.127449
   8 H :    0.151200
   9 H :    0.140033
  10 H :    0.188896

  Mayer bond orders larger than 0.100000
B(  0-C ,  1-C ) :   0.9678 B(  0-C ,  5-H ) :   0.9709 B(  0-C ,  6-H ) :   0.9767
B(  0-C ,  7-H ) :   0.9740 B(  1-C ,  2-C ) :   0.9862 B(  1-C ,  8-H ) :   0.9634
B(  1-C ,  9-H ) :   0.9603 B(  2-C ,  3-O ) :   2.1391 B(  2-C ,  4-O ) :   1.1756
B(  4-O , 10-H ) :   0.8824

FINAL SINGLE POINT ENERGY      -268.409958780966

DIPOLE MOMENT
-------------

Method             : SCF
Type of density    : Electron Density
Multiplicity       :   1
Irrep              :   0
Energy             :  -268.4171624213664131 Eh
Relativity type    :
Basis              : AO
                                X                 Y                 Z
Electronic contribution:     -5.669716303       2.369395840      -0.470945151
Nuclear contribution   :      6.774965214      -3.849819017       0.419513632
                        -----------------------------------------
Total Dipole Moment    :      1.105248911      -1.480423177      -0.051431519
                        -----------------------------------------
Magnitude (a.u.)       :      1.848208089
Magnitude (Debye)      :      4.697771625

Rotational constants in cm-1:             0.280752             0.132112             0.105443
Rotational constants in MHz :          8416.723777          3960.607381          3161.098124

                             ****ORCA TERMINATED NORMALLY****
TOTAL RUN TIME: 0 days 0 hours 0 minutes 55 seconds 478 msec
