                         Program Version 6.0.0  -   RELEASE  -
|  1> ! wb97x-v def2-tzvp def2/J RIJCOSX DEFGRID2 scfconv7 GCP(DFT/TZ) printgap
|  2> %output
|  3>     printlevel normal
|  4> end
|  5> %cpcm
|  6>     smd true
|  7>     smdsolvent "water"
|  8> end
|  9> * xyz 0 1
| 10> C 1.8101296012388313 -0.5031284848953145 0.5118394170440045
| 11> C 0.8356652297741023 -0.32897978874256917 -0.6628632002155881
| 12> C -0.4779428452297204 0.21970094026631223 -0.18562351688459952
| 13> O -0.8392072359852184 1.3751467134088486 -0.3146491729011127
| 14> O -1.2970906211613575 -0.6395760716662495 0.4727913600206605
| 15> H 1.4334126000880119 -1.2309417964349358 1.236035717143868
| 16> H 2.7722567950672286 -0.860877305157289 0.13747114312932082
| 17> H 1.9725687374469951 0.44816630356374354 1.0261406828165027
| 18> H 1.2405878581123464 0.37234351443242636 -1.3948777171435442
| 19> H 0.6683964022957873 -1.2931861893064442 -1.155516244057356
| 20> H -0.9055191983269574 -1.5271303463411328 0.5009349992158455
| 21> *
| 22>
| 23>                          ****END OF INPUT****

CARTESIAN COORDINATES (ANGSTROEM)
---------------------------------
  C      1.810130   -0.503128    0.511839
  C      0.835665   -0.328980   -0.662863
  C     -0.477943    0.219701   -0.185624
  O     -0.839207    1.375147   -0.314649
  O     -1.297091   -0.639576    0.472791
  H      1.433413   -1.230942    1.236036
  H      2.772257   -0.860877    0.137471
  H      1.972569    0.448166    1.026141
  H      1.240588    0.372344   -1.394878
  H      0.668396   -1.293186   -1.155516
  H     -0.905519   -1.527130    0.500935

 Total Charge           Charge          ....    0
 Multiplicity           Mult            ....    1
 Number of Electrons    NEL             ....   40
 Basis Dimension        Dim             ....  191

ORBITAL ENERGIES
----------------

  NO   OCC          E(Eh)            E(eV)
   0   2.0000     -21.721715      -591.0779
   1   2.0000     -21.669125      -589.6469
   2   2.0000     -12.190889      -331.7310
   3   2.0000     -12.057760      -328.1083
   4   2.0000     -12.040720      -327.6447
   5   2.0000      -1.764115       -48.0040
   6   2.0000      -1.704746       -46.3885
   7   2.0000      -1.299471       -35.3604
   8   2.0000      -1.206072       -32.8189
   9   2.0000      -1.142037       -31.0764
  10   2.0000      -1.076864       -29.3030
  11   2.0000      -1.033418       -28.1207
  12   2.0000      -0.980066       -26.6690
  13   2.0000      -0.953512       -25.9464
  14   2.0000      -0.908739       -24.7280
  15   2.0000      -0.875491       -23.8233
  16   2.0000      -0.868560       -23.6347
  17   2.0000      -0.829895       -22.5826
  18   2.0000      -0.795693       -21.6519
  19   2.0000      -0.780195       -21.2302
  20   0.0000      -0.313189        -8.5223
  21   0.0000      -0.127302        -3.4641
  22   0.0000      -0.048580        -1.3219
  23   0.0000      -0.021092        -0.5740
  24   0.0000       0.005964         0.1623

MULLIKEN ATOMIC CHARGES
-----------------------
   0 C :   -0.389082
   1 C :   -0.196900
   2 C :    0.358980
   3 O :   -0.455454
   4 O :   -0.406758
   5 H :    0.135922
   6 H :    0.143134
   7 H :    0.136417
   8 H :    0.131170
   9 H :    0.150179
  10 H :    0.392392
Sum of atomic charges:    0.0000000

LOEWDIN ATOMIC CHARGES
----------------------
   0 C :   -0.287969
   1 C :   -0.246624
   2 C :   -0.471142
   3 O :    0.011487
   4 O :    0.085038
   5 H :    0.124187
   6 H :    0.126772
   7 H :    0.125385
   8 H :    0.152508
   9 H :    0.156808
  10 H :    0.223550

  Mayer bond orders larger than 0.100000
B(  0-C ,  1-C ) :   0.9583 B(  0-C ,  5-H ) :   0.9702 B(  0-C ,  6-H ) :   0.9717
B(  0-C ,  7-H ) :   0.9726 B(  1-C ,  2-C ) :   0.9982 B(  1-C ,  8-H ) :   0.9610
B(  1-C ,  9-H ) :   0.9437 B(  2-C ,  3-O ) :   2.0097 B(  2-C ,  4-O ) :   1.2145
B(  4-O , 10-H ) :   0.8340

FINAL SINGLE POINT ENERGY      -268.427688737781

DIPOLE MOMENT
-------------

Method             : SCF
Type of density    : Electron Density
Multiplicity       :   1
Irrep              :   0
Energy             :  -268.4348923781811891 Eh
Relativity type    :
Basis              : AO
                                X                 Y                 Z
Electronic contribution:     -5.385318616       1.732689481      -0.470449319
Nuclear contribution   :      6.774965214      -3.849819017       0.419513632
                        -----------------------------------------
Total Dipole Moment    :      1.389646598      -2.117129537      -0.050935686
                        -----------------------------------------
Magnitude (a.u.)       :      2.532972481
Magnitude (Debye)      :      6.438304385

Rotational constants in cm-1:             0.280752             0.132112             0.105443
Rotational constants in MHz :          8416.723777          3960.607381          3161.098124

                             ****ORCA TERMINATED NORMALLY****
TOTAL RUN TIME: 0 days 0 hours 0 minutes 59 seconds 264 msec
