                         Program Version 6.0.0  -   RELEASE  -
|  1> ! r2scan-3c def2/J RI DEFGRID2 scfconv6 printgap
|  2> %output
|  3>     printlevel normal
|  4> end
|  5> * xyz 0 1
|  6> C 1.5710328513 -0.0342078185 0.5637419466
|  7> C 0.6723217115 0.3645108108 -0.6016233291
|  8> C -0.6722762456 -0.3644820258 -0.601619455
|  9> C -1.5710694991 0.0341811608 0.563734066
| 10> H 2.5387794829 0.4542140641 0.4771241373
| 11> H 1.1297326512 0.2555507851 1.5134785458
| 12> H 1.7288906956 -1.1105633486 0.5700520593
| 13> H 0.4958986992 1.4421606176 -0.5714355521
| 14> H 1.189428277 0.1406039187 -1.5377855701
| 15> H -1.1893526245 -0.140526338 -1.5377850602
| 16> H -0.4958898427 -1.4421368401 -0.5714969422
| 17> H -2.5387511817 -0.4544039471 0.4771661959
| 18> H -1.7291102671 1.110534373 0.5700286075
| 19> H -1.1297309682 -0.2554586325 1.5134989905
| 20> *
| 21>
| 22>                          ****END OF INPUT****

CARTESIAN COORDINATES (ANGSTROEM)
---------------------------------
  C      1.571033   -0.034208    0.563742
  C      0.672322    0.364511   -0.601623
  C     -0.672276   -0.364482   -0.601619
  C     -1.571069    0.034181    0.563734
  H      2.538779    0.454214    0.477124
  H      1.129733    0.255551    1.513479
  H      1.728891   -1.110563    0.570052
  H      0.495899    1.442161   -0.571436
  H      1.189428    0.140604   -1.537786
  H     -1.189353   -0.140526   -1.537785
  H     -0.495890   -1.442137   -0.571497
  H     -2.538751   -0.454404    0.477166
  H     -1.729110    1.110534    0.570029
  H     -1.129731   -0.255459    1.513499

 Total Charge           Charge          ....    0
 Multiplicity           Mult            ....    1
 Number of Electrons    NEL             ....   34
 Basis Dimension        Dim             ....  126

ORBITAL ENERGIES
----------------

  NO   OCC          E(Eh)            E(eV)
   0   2.0000     -10.021072      -272.6872
   1   2.0000     -10.020941      -272.6837
   2   2.0000     -10.013038      -272.4686
   3   2.0000     -10.013029      -272.4684
   4   2.0000      -0.760084       -20.6829
   5   2.0000      -0.685692       -18.6586
   6   2.0000      -0.604661       -16.4537
   7   2.0000      -0.531193       -14.4545
   8   2.0000      -0.424703       -11.5568
   9   2.0000      -0.422858       -11.5066
  10   2.0000      -0.385874       -10.5002
  11   2.0000      -0.350348        -9.5334
  12   2.0000      -0.349916        -9.5217
  13   2.0000      -0.327385        -8.9086
  14   2.0000      -0.293300        -7.9811
  15   2.0000      -0.288740        -7.8570
  16   2.0000      -0.288203        -7.8424
  17   0.0000       0.093131         2.5342
  18   0.0000       0.124250         3.3810
  19   0.0000       0.126969         3.4550
  20   0.0000       0.136629         3.7179
  21   0.0000       0.147342         4.0094

MULLIKEN ATOMIC CHARGES
-----------------------
   0 C :   -0.481755
   1 C :   -0.216745
   2 C :   -0.216770
   3 C :   -0.481758
   4 H :    0.144226
   5 H :    0.146653
   6 H :    0.140927
   7 H :    0.128785
   8 H :    0.137920
   9 H :    0.137919
  10 H :    0.128786
  11 H :    0.144228
  12 H :    0.140930
  13 H :    0.146653
Sum of atomic charges:   -0.0000000

LOEWDIN ATOMIC CHARGES
----------------------
   0 C :   -0.427963
   1 C :   -0.321717
   2 C :   -0.321719
   3 C :   -0.427967
   4 H :    0.150533
   5 H :    0.148671
   6 H :    0.149535
   7 H :    0.150046
   8 H :    0.150898
   9 H :    0.150897
  10 H :    0.150045
  11 H :    0.150535
  12 H :    0.149536
  13 H :    0.148670

  Mayer bond orders larger than 0.100000
B(  0-C ,  1-C ) :   0.9032 B(  0-C ,  4-H ) :   0.9693 B(  0-C ,  5-H ) :   0.9839
B(  0-C ,  6-H ) :   0.9802 B(  1-C ,  2-C ) :   0.9123 B(  1-C ,  7-H ) :   0.9759
B(  1-C ,  8-H ) :   0.9674 B(  2-C ,  3-C ) :   0.9032 B(  2-C ,  9-H ) :   0.9674
B(  2-C , 10-H ) :   0.9759 B(  3-C , 11-H ) :   0.9693 B(  3-C , 12-H ) :   0.9802
B(  3-C , 13-H ) :   0.9839

Dispersion correction           -0.002719671
FINAL SINGLE POINT ENERGY      -158.388021142733

DIPOLE MOMENT
-------------

Method             : SCF
Type of density    : Electron Density
Multiplicity       :   1
Irrep              :   0
Energy             :  -158.3919462516921897 Eh
Relativity type    :
Basis              : AO
                                X                 Y                 Z
Electronic contribution:      0.000098235       0.000024728      -0.886912412
Nuclear contribution   :     -0.000098581      -0.000023781       0.847022868
                        -----------------------------------------
Total Dipole Moment    :     -0.000000347       0.000000947      -0.039889544
                        -----------------------------------------
Magnitude (a.u.)       :      0.039889544
Magnitude (Debye)      :      0.101391163

Rotational constants in cm-1:             0.448003             0.159673             0.137142
Rotational constants in MHz :         13430.795282          4786.864163          4111.405485

                             ****ORCA TERMINATED NORMALLY****
TOTAL RUN TIME: 0 days 0 hours 0 minutes 10 seconds 466 msec
