                         Program Version 6.0.0  -   RELEASE  -
|  1> ! r2scan-3c def2/J RI DEFGRID2 scfconv6 printgap
|  2> %output
|  3>     printlevel normal
|  4> end
|  5> %cpcm
|  6>     smd true
|  7>     smdsolvent "water"
|  8> end
|  9> * xyz 0 1
| 10> C 1.5710328513 -0.0342078185 0.5637419466
| 11> C 0.6723217115 0.3645108108 -0.6016233291
| 12> C -0.6722762456 -0.3644820258 -0.601619455
| 13> C -1.5710694991 0.0341811608 0.563734066
| 14> H 2.5387794829 0.4542140641 0.4771241373
| 15> H 1.1297326512 0.2555507851 1.5134785458
| 16> H 1.7288906956 -1.1105633486 0.5700520593
| 17> H 0.4958986992 1.4421606176 -0.5714355521
| 18> H 1.189428277 0.1406039187 -1.5377855701
| 19> H -1.1893526245 -0.140526338 -1.5377850602
| 20> H -0.4958898427 -1.4421368401 -0.5714969422
| 21> H -2.5387511817 -0.4544039471 0.4771661959
| 22> H -1.7291102671 1.110534373 0.5700286075
| 23> H -1.1297309682 -0.2554586325 1.5134989905
| 24> *
| 25>
| 26>                          ****END OF INPUT****

CARTESIAN COORDINATES (ANGSTROEM)
---------------------------------
  C      1.571033   -0.034208    0.563742
  C      0.672322    0.364511   -0.601623
  C     -0.672276   -0.364482   -0.601619
  C     -1.571069    0.034181    0.563734
  H      2.538779    0.454214    0.477124
  H      1.129733    0.255551    1.513479
  H      1.728891   -1.110563    0.570052
  H      0.495899    1.442161   -0.571436
  H      1.189428    0.140604   -1.537786
  H     -1.189353   -0.140526   -1.537785
  H     -0.495890   -1.442137   -0.571497
  H     -2.538751   -0.454404    0.477166
  H     -1.729110    1.110534    0.570029
  H     -1.129731   -0.255459    1.513499

 Total Charge           Charge          ....    0
 Multiplicity           Mult            ....    1
 Number of Electrons    NEL             ....   34
 Basis Dimension        Dim             ....  126

ORBITAL ENERGIES
----------------

  NO   OCC          E(Eh)            E(eV)
   0   2.0000     -10.014294      -272.5028
   1   2.0000     -10.014163      -272.4992
   2   2.0000     -10.006144      -272.2810
   3   2.0000     -10.006136      -272.2808
   4   2.0000      -0.753519       -20.5043
   5   2.0000      -0.679396       -18.4873
   6   2.0000      -0.598435       -16.2842
   7   2.0000      -0.524855       -14.2820
   8   2.0000      -0.417934       -11.3726
   9   2.0000      -0.416266       -11.3272
  10   2.0000      -0.379311       -10.3216
  11   2.0000      -0.343766        -9.3544
  12   2.0000      -0.343420        -9.3449
  13   2.0000      -0.320842        -8.7306
  14   2.0000      -0.286207        -7.7881
  15   2.0000      -0.282164        -7.6781
  16   2.0000      -0.281583        -7.6623
  17   0.0000       0.100312         2.7296
  18   0.0000       0.129437         3.5221
  19   0.0000       0.132754         3.6124
  20   0.0000       0.141790         3.8583
  21   0.0000       0.154596         4.2068

MULLIKEN ATOMIC CHARGES
-----------------------
   0 C :   -0.517526
   1 C :   -0.227960
   2 C :   -0.227987
   3 C :   -0.517528
   4 H :    0.153466
   5 H :    0.157570
   6 H :    0.151633
   7 H :    0.137602
   8 H :    0.145228
   9 H :    0.145224
  10 H :    0.137605
  11 H :    0.153468
  12 H :    0.151635
  13 H :    0.157569
Sum of atomic charges:    0.0000000

LOEWDIN ATOMIC CHARGES
----------------------
   0 C :   -0.436195
   1 C :   -0.324363
   2 C :   -0.324365
   3 C :   -0.436199
   4 H :    0.152385
   5 H :    0.151412
   6 H :    0.152115
   7 H :    0.152131
   8 H :    0.152519
   9 H :    0.152516
  10 H :    0.152130
  11 H :    0.152388
  12 H :    0.152117
  13 H :    0.151411

  Mayer bond orders larger than 0.100000
B(  0-C ,  1-C ) :   0.8976 B(  0-C ,  4-H ) :   0.9672 B(  0-C ,  5-H ) :   0.9804
B(  0-C ,  6-H ) :   0.9778 B(  1-C ,  2-C ) :   0.9064 B(  1-C ,  7-H ) :   0.9761
B(  1-C ,  8-H ) :   0.9675 B(  2-C ,  3-C ) :   0.8976 B(  2-C ,  9-H ) :   0.9676
B(  2-C , 10-H ) :   0.9761 B(  3-C , 11-H ) :   0.9672 B(  3-C , 12-H ) :   0.9778
B(  3-C , 13-H ) :   0.9804

Dispersion correction           -0.002719671
FINAL SINGLE POINT ENERGY      -158.385278472485

DIPOLE MOMENT
-------------

Method             : SCF
Type of density    : Electron Density
Multiplicity       :   1
Irrep              :   0
Energy             :  -158.3892035814447183 Eh
Relativity type    :
Basis              : AO
                                X                 Y                 Z
Electronic contribution:      0.000099565       0.000022688      -0.890239224
Nuclear contribution   :     -0.000098581      -0.000023781       0.847022868
                        -----------------------------------------
Total Dipole Moment    :      0.000000984      -0.000001092      -0.043216356
                        -----------------------------------------
Magnitude (a.u.)       :      0.043216356
Magnitude (Debye)      :      0.109847247

Rotational constants in cm-1:             0.448003             0.159673             0.137142
Rotational constants in MHz :         13430.795282          4786.864163          4111.405485

                             ****ORCA TERMINATED NORMALLY****
TOTAL RUN TIME: 0 days 0 hours 0 minutes 11 seconds 103 msec
