                         Program Version 6.0.0  -   RELEASE  -
|  1> ! r2scan-3c def2/J RI DEFGRID2 scfconv6 printgap
|  2> %output
|  3>     printlevel normal
|  4> end
|  5> * xyz 0 1
|  6> C -3.476231123 0.3393338869 -9.143e-07
|  7> C -2.7417076115 1.5123053764 1.85896e-05
|  8> C -1.3573499104 1.4575496088 0.0001250694
|  9> C -0.7268318947 0.2313496258 4.57688e-05
| 10> C -1.4479138343 -0.9599731767 -0.000181307
| 11> C -2.837760558 -0.8875849399 -3.75862e-05
| 12> O -0.7665508252 -2.1221366534 0.0001123654
| 13> I 1.3939550643 0.103165227 -8.9323e-06
| 14> H -4.5540821392 0.3763162195 3.44578e-05
| 15> H -3.237124588 2.469574698 -0.0003541665
| 16> H -0.7733778279 2.3643320297 4.7983e-06
| 17> H -3.4152710286 -1.7997912103 -0.0002739886
| 18> H -1.3603072662 -2.8877276803 0.0002919068
| 19> *
| 20>
| 21>                          ****END OF INPUT****

CARTESIAN COORDINATES (ANGSTROEM)
---------------------------------
  C     -3.476231    0.339334   -0.000001
  C     -2.741708    1.512305    0.000019
  C     -1.357350    1.457550    0.000125
  C     -0.726832    0.231350    0.000046
  C     -1.447914   -0.959973   -0.000181
  C     -2.837761   -0.887585   -0.000038
  O     -0.766551   -2.122137    0.000112
  I      1.393955    0.103165   -0.000009
  H     -4.554082    0.376316    0.000034
  H     -3.237125    2.469575   -0.000354
  H     -0.773378    2.364332    0.000005
  H     -3.415271   -1.799791   -0.000274
  H     -1.360307   -2.887728    0.000292

 Total Charge           Charge          ....    0
 Multiplicity           Mult            ....    1
 Number of Electrons    NEL             ....   74
 Basis Dimension        Dim             ....  199

ORBITAL ENERGIES
----------------

  NO   OCC          E(Eh)            E(eV)
   0   2.0000     -19.001037      -517.0445
   1   2.0000     -10.116350      -275.2799
   2   2.0000     -10.086130      -274.4575
   3   2.0000     -10.051724      -273.5213
   4   2.0000     -10.050239      -273.4809
   5   2.0000     -10.048636      -273.4373
   6   2.0000     -10.041610      -273.2461
   7   2.0000      -6.809965      -185.3086
   8   2.0000      -4.829374      -131.4139
   9   2.0000      -4.812285      -130.9489
  10   2.0000      -4.811458      -130.9264
  11   2.0000      -1.864681       -50.7405
  12   2.0000      -1.860173       -50.6179
  13   2.0000      -1.859639       -50.6033
  14   2.0000      -1.845826       -50.2275
  15   2.0000      -1.845822       -50.2274
  16   2.0000      -1.049145       -28.5487
  17   2.0000      -0.840576       -22.8732
  18   2.0000      -0.743999       -20.2452
  19   2.0000      -0.726382       -19.7659
  20   2.0000      -0.653688       -17.7878
  21   2.0000      -0.613695       -16.6995
  22   2.0000      -0.572129       -15.5684
  23   2.0000      -0.532958       -14.5025
  24   2.0000      -0.469837       -12.7849
  25   2.0000      -0.454485       -12.3672
  26   2.0000      -0.422021       -11.4838
  27   2.0000      -0.402966       -10.9653
  28   2.0000      -0.390036       -10.6134
  29   2.0000      -0.362051        -9.8519
  30   2.0000      -0.346921        -9.4402
  31   2.0000      -0.329597        -8.9688
  32   2.0000      -0.312843        -8.5129
  33   2.0000      -0.274970        -7.4823
  34   2.0000      -0.234431        -6.3792
  35   2.0000      -0.232021        -6.3136
  36   2.0000      -0.211135        -5.7453
  37   0.0000      -0.053821        -1.4645
  38   0.0000      -0.047367        -1.2889
  39   0.0000      -0.029794        -0.8107
  40   0.0000       0.046971         1.2781
  41   0.0000       0.092792         2.5250

MULLIKEN ATOMIC CHARGES
-----------------------
   0 C :   -0.122038
   1 C :   -0.168226
   2 C :   -0.120536
   3 C :   -0.174689
   4 C :    0.452377
   5 C :   -0.310553
   6 O :   -0.404088
   7 I :   -0.069607
   8 H :    0.150049
   9 H :    0.150724
  10 H :    0.161304
  11 H :    0.140243
  12 H :    0.315038
Sum of atomic charges:   -0.0000000

LOEWDIN ATOMIC CHARGES
----------------------
   0 C :   -0.151229
   1 C :   -0.180172
   2 C :   -0.155798
   3 C :   -0.221931
   4 C :    0.172170
   5 C :   -0.164368
   6 O :   -0.502721
   7 I :    0.223678
   8 H :    0.170190
   9 H :    0.170425
  10 H :    0.178895
  11 H :    0.171319
  12 H :    0.289544

  Mayer bond orders larger than 0.100000
B(  0-C ,  1-C ) :   1.4312 B(  0-C ,  5-C ) :   1.4039 B(  0-C ,  8-H ) :   0.9399
B(  1-C ,  2-C ) :   1.3911 B(  1-C ,  9-H ) :   0.9454 B(  2-C ,  3-C ) :   1.3935
B(  2-C , 10-H ) :   0.9364 B(  3-C ,  4-C ) :   1.4166 B(  3-C ,  7-I ) :   1.1168
B(  4-C ,  5-C ) :   1.2925 B(  4-C ,  6-O ) :   0.9902 B(  5-C , 11-H ) :   0.9463
B(  6-O , 12-H ) :   0.8783

Dispersion correction           -0.004878332
FINAL SINGLE POINT ENERGY      -604.534985337058

DIPOLE MOMENT
-------------

Method             : SCF
Type of density    : Electron Density
Multiplicity       :   1
Irrep              :   0
Energy             :  -604.5340197789657850 Eh
Relativity type    :
Basis              : AO
                                X                 Y                 Z
Electronic contribution:    112.598342046       6.626509318      -0.000494228
Nuclear contribution   :   -113.661520425      -7.025379797       0.000371060
                        -----------------------------------------
Total Dipole Moment    :     -1.063178379      -0.398870479      -0.000123168
                        -----------------------------------------
Magnitude (a.u.)       :      1.135537732
Magnitude (Debye)      :      2.886307536

Rotational constants in cm-1:             0.097702             0.024521             0.019601
Rotational constants in MHz :          2929.036403           735.115592           587.634011

                             ****ORCA TERMINATED NORMALLY****
TOTAL RUN TIME: 0 days 0 hours 0 minutes 17 seconds 277 msec
