                         Program Version 6.0.0  -   RELEASE  -
|  1> ! r2scan-3c def2/J RI DEFGRID2 scfconv6 printgap
|  2> %output
|  3>     printlevel normal
|  4> end
|  5> %cpcm
|  6>     smd true
|  7>     smdsolvent "water"
|  8> end
|  9> * xyz 0 1
| 10> C -3.476231123 0.3393338869 -9.143e-07
| 11> C -2.7417076115 1.5123053764 1.85896e-05
| 12> C -1.3573499104 1.4575496088 0.0001250694
| 13> C -0.7268318947 0.2313496258 4.57688e-05
| 14> C -1.4479138343 -0.9599731767 -0.000181307
| 15> C -2.837760558 -0.8875849399 -3.75862e-05
| 16> O -0.7665508252 -2.1221366534 0.0001123654
| 17> I 1.3939550643 0.103165227 -8.9323e-06
| 18> H -4.5540821392 0.3763162195 3.44578e-05
| 19> H -3.237124588 2.469574698 -0.0003541665
| 20> H -0.7733778279 2.3643320297 4.7983e-06
| 21> H -3.4152710286 -1.7997912103 -0.0002739886
| 22> H -1.3603072662 -2.8877276803 0.0002919068
| 23> *
| 24>
| 25>                          ****END OF INPUT****

CARTESIAN COORDINATES (ANGSTROEM)
---------------------------------
  C     -3.476231    0.339334   -0.000001
  C     -2.741708    1.512305    0.000019
  C     -1.357350    1.457550    0.000125
  C     -0.726832    0.231350    0.000046
  C     -1.447914   -0.959973   -0.000181
  C     -2.837761   -0.887585   -0.000038
  O     -0.766551   -2.122137    0.000112
  I      1.393955    0.103165   -0.000009
  H     -4.554082    0.376316    0.000034
  H     -3.237125    2.469575   -0.000354
  H     -0.773378    2.364332    0.000005
  H     -3.415271   -1.799791   -0.000274
  H     -1.360307   -2.887728    0.000292

 Total Charge           Charge          ....    0
 Multiplicity           Mult            ....    1
 Number of Electrons    NEL             ....   74
 Basis Dimension        Dim             ....  199

ORBITAL ENERGIES
----------------

  NO   OCC          E(Eh)            E(eV)
   0   2.0000     -18.990100      -516.7469
   1   2.0000     -10.109913      -275.1047
   2   2.0000     -10.080714      -274.3102
   3   2.0000     -10.044947      -273.3369
   4   2.0000     -10.039901      -273.1996
   5   2.0000     -10.039425      -273.1866
   6   2.0000     -10.033653      -273.0296
   7   2.0000      -6.812461      -185.3765
   8   2.0000      -4.831406      -131.4692
   9   2.0000      -4.815029      -131.0236
  10   2.0000      -4.814226      -131.0018
  11   2.0000      -1.866772       -50.7975
  12   2.0000      -1.862478       -50.6806
  13   2.0000      -1.861967       -50.6667
  14   2.0000      -1.848837       -50.3094
  15   2.0000      -1.848830       -50.3092
  16   2.0000      -1.038500       -28.2590
  17   2.0000      -0.834647       -22.7119
  18   2.0000      -0.738234       -20.0884
  19   2.0000      -0.718565       -19.5532
  20   2.0000      -0.653262       -17.7762
  21   2.0000      -0.603234       -16.4148
  22   2.0000      -0.564131       -15.3508
  23   2.0000      -0.521918       -14.2021
  24   2.0000      -0.460218       -12.5232
  25   2.0000      -0.446049       -12.1376
  26   2.0000      -0.409676       -11.1479
  27   2.0000      -0.398264       -10.8373
  28   2.0000      -0.381635       -10.3848
  29   2.0000      -0.356743        -9.7075
  30   2.0000      -0.336256        -9.1500
  31   2.0000      -0.325254        -8.8506
  32   2.0000      -0.305701        -8.3185
  33   2.0000      -0.274506        -7.4697
  34   2.0000      -0.239261        -6.5106
  35   2.0000      -0.229664        -6.2495
  36   2.0000      -0.209850        -5.7103
  37   0.0000      -0.049365        -1.3433
  38   0.0000      -0.042211        -1.1486
  39   0.0000      -0.025122        -0.6836
  40   0.0000       0.079815         2.1719
  41   0.0000       0.110437         3.0051

MULLIKEN ATOMIC CHARGES
-----------------------
   0 C :   -0.150444
   1 C :   -0.209647
   2 C :   -0.157183
   3 C :   -0.154856
   4 C :    0.392436
   5 C :   -0.305230
   6 O :   -0.442387
   7 I :   -0.096537
   8 H :    0.185095
   9 H :    0.184180
  10 H :    0.190993
  11 H :    0.190340
  12 H :    0.373241
Sum of atomic charges:   -0.0000000

LOEWDIN ATOMIC CHARGES
----------------------
   0 C :   -0.158977
   1 C :   -0.191317
   2 C :   -0.166248
   3 C :   -0.235118
   4 C :    0.165104
   5 C :   -0.157256
   6 O :   -0.517309
   7 I :    0.208171
   8 H :    0.181678
   9 H :    0.180754
  10 H :    0.188259
  11 H :    0.190487
  12 H :    0.311773

  Mayer bond orders larger than 0.100000
B(  0-C ,  1-C ) :   1.3850 B(  0-C ,  5-C ) :   1.3604 B(  0-C ,  8-H ) :   0.9501
B(  1-C ,  2-C ) :   1.3740 B(  1-C ,  9-H ) :   0.9526 B(  2-C ,  3-C ) :   1.3580
B(  2-C , 10-H ) :   0.9449 B(  3-C ,  4-C ) :   1.3768 B(  3-C ,  7-I ) :   1.0481
B(  4-C ,  5-C ) :   1.2945 B(  4-C ,  6-O ) :   1.0117 B(  5-C , 11-H ) :   0.9550
B(  6-O , 12-H ) :   0.8471

Dispersion correction           -0.004878332
FINAL SINGLE POINT ENERGY      -604.546507368748

DIPOLE MOMENT
-------------

Method             : SCF
Type of density    : Electron Density
Multiplicity       :   1
Irrep              :   0
Energy             :  -604.5455418106554362 Eh
Relativity type    :
Basis              : AO
                                X                 Y                 Z
Electronic contribution:    112.274869976       6.501248419      -0.000565176
Nuclear contribution   :   -113.661520425      -7.025379797       0.000371060
                        -----------------------------------------
Total Dipole Moment    :     -1.386650449      -0.524131378      -0.000194116
                        -----------------------------------------
Magnitude (a.u.)       :      1.482401163
Magnitude (Debye)      :      3.767964310

Rotational constants in cm-1:             0.097702             0.024521             0.019601
Rotational constants in MHz :          2929.036403           735.115592           587.634011

                             ****ORCA TERMINATED NORMALLY****
TOTAL RUN TIME: 0 days 0 hours 0 minutes 21 seconds 954 msec
