                         Program Version 6.0.0  -   RELEASE  -
|  1> ! pbe def2-sv(p) def2/J RI DEFGRID1 loosescf d4 GCP(DFT/SV(P)) printgap
|  2> %output
|  3>     printlevel normal
|  4> end
|  5> * xyz 0 1
|  6> C -2.4000852764 -1.1430886241 -0.2999439016
|  7> C -1.0585670488 -0.6236106485 0.2440878458
|  8> H -1.0709652378 -0.6192424496 1.3465854353
|  9> C -0.7717201347 0.8073724715 -0.2399217302
| 10> H -0.818471348 0.8227452845 -1.341133264
| 11> C 0.6400171001 1.2528198526 0.1778664458
| 12> H 0.6631021475 1.3823803544 1.2708036385
| 13> C 1.6813756444 0.1979206057 -0.2020214155
| 14> H 1.7923663797 0.2076159838 -1.2969541739
| 15> C 1.2238287507 -1.2047065127 0.2579286869
| 16> H 1.2440663948 -1.2254460914 1.3615263643
| 17> O -0.062887548 -1.513222058 -0.2184498839
| 18> O 2.0938686824 -2.1886341424 -0.1725288812
| 19> O 2.8959330732 0.5257278272 0.4216086129
| 20> O 0.9827149013 2.4566948608 -0.4600107694
| 21> O -1.6729274838 1.7375827266 0.3059278408
| 22> O -3.4949207296 -0.3960371452 0.1672538749
| 23> H -2.4889603061 -2.2037617461 -0.0476616981
| 24> H -2.3980952285 -1.0478568412 -1.3882182693
| 25> H 1.8838117855 -2.4204869329 -1.0913408766
| 26> H 3.5416272436 -0.1745470657 0.2378146597
| 27> H 0.3173418129 3.1220428581 -0.2274068312
| 28> H -2.579906817 1.4235711 0.1382208054
| 29> H -3.696097424 -0.6422097597 1.0813642139
| 30> *
| 31>
| 32>                          ****END OF INPUT****

CARTESIAN COORDINATES (ANGSTROEM)
---------------------------------
  C     -2.400085   -1.143089   -0.299944
  C     -1.058567   -0.623611    0.244088
  H     -1.070965   -0.619242    1.346585
  C     -0.771720    0.807372   -0.239922
  H     -0.818471    0.822745   -1.341133
  C      0.640017    1.252820    0.177866
  H      0.663102    1.382380    1.270804
  C      1.681376    0.197921   -0.202021
  H      1.792366    0.207616   -1.296954
  C      1.223829   -1.204707    0.257929
  H      1.244066   -1.225446    1.361526
  O     -0.062888   -1.513222   -0.218450
  O      2.093869   -2.188634   -0.172529
  O      2.895933    0.525728    0.421609
  O      0.982715    2.456695   -0.460011
  O     -1.672927    1.737583    0.305928
  O     -3.494921   -0.396037    0.167254
  H     -2.488960   -2.203762   -0.047662
  H     -2.398095   -1.047857   -1.388218
  H      1.883812   -2.420487   -1.091341
  H      3.541627   -0.174547    0.237815
  H      0.317342    3.122043   -0.227407
  H     -2.579907    1.423571    0.138221
  H     -3.696097   -0.642210    1.081364

 Total Charge           Charge          ....    0
 Multiplicity           Mult            ....    1
 Number of Electrons    NEL             ....   96
 Basis Dimension        Dim             ....  192

ORBITAL ENERGIES
----------------

  NO   OCC          E(Eh)            E(eV)
   0   2.0000     -18.784984      -511.1654
   1   2.0000     -18.781730      -511.0768
   2   2.0000     -18.768231      -510.7095
   3   2.0000     -18.748933      -510.1844
   4   2.0000     -18.743770      -510.0439
   5   2.0000     -18.738044      -509.8881
   6   2.0000      -9.988707      -271.8065
   7   2.0000      -9.951912      -270.8053
   8   2.0000      -9.951333      -270.7896
   9   2.0000      -9.939671      -270.4722
  10   2.0000      -9.935989      -270.3720
  11   2.0000      -9.935535      -270.3597
  12   2.0000      -0.992392       -27.0043
  13   2.0000      -0.959443       -26.1078
  14   2.0000      -0.935235       -25.4490
  15   2.0000      -0.930132       -25.3102
  16   2.0000      -0.917747       -24.9732
  17   2.0000      -0.905718       -24.6458
  18   2.0000      -0.703957       -19.1557
  19   2.0000      -0.693245       -18.8642
  20   2.0000      -0.622676       -16.9439
  21   2.0000      -0.586538       -15.9605
  22   2.0000      -0.567242       -15.4354
  23   2.0000      -0.529650       -14.4125
  24   2.0000      -0.503354       -13.6970
  25   2.0000      -0.491218       -13.3667
  26   2.0000      -0.477599       -12.9961
  27   2.0000      -0.475469       -12.9382
  28   2.0000      -0.455143       -12.3851
  29   2.0000      -0.440087       -11.9754
  30   2.0000      -0.417587       -11.3631
  31   2.0000      -0.401196       -10.9171
  32   2.0000      -0.389110       -10.5882
  33   2.0000      -0.374680       -10.1956
  34   2.0000      -0.356426        -9.6988
  35   2.0000      -0.350957        -9.5500
  36   2.0000      -0.336874        -9.1668
  37   2.0000      -0.321452        -8.7472
  38   2.0000      -0.309500        -8.4219
  39   2.0000      -0.297953        -8.1077
  40   2.0000      -0.290791        -7.9128
  41   2.0000      -0.277977        -7.5641
  42   2.0000      -0.253523        -6.8987
  43   2.0000      -0.246532        -6.7085
  44   2.0000      -0.240575        -6.5464
  45   2.0000      -0.218499        -5.9456
  46   2.0000      -0.216072        -5.8796
  47   2.0000      -0.198654        -5.4057
  48   0.0000       0.001180         0.0321
  49   0.0000       0.023130         0.6294
  50   0.0000       0.035518         0.9665
  51   0.0000       0.046949         1.2775
  52   0.0000       0.061632         1.6771

MULLIKEN ATOMIC CHARGES
-----------------------
   0 C :    0.073563
   1 C :   -0.016013
   2 H :    0.047626
   3 C :    0.033338
   4 H :    0.049706
   5 C :    0.103140
   6 H :    0.055703
   7 C :    0.056512
   8 H :    0.042043
   9 C :    0.172377
  10 H :    0.054257
  11 O :   -0.308215
  12 O :   -0.387548
  13 O :   -0.405890
  14 O :   -0.409502
  15 O :   -0.436606
  16 O :   -0.435863
  17 H :    0.098425
  18 H :    0.090391
  19 H :    0.304426
  20 H :    0.299228
  21 H :    0.304710
  22 H :    0.302269
  23 H :    0.311922
Sum of atomic charges:   -0.0000000

LOEWDIN ATOMIC CHARGES
----------------------
   0 C :   -0.126262
   1 C :   -0.079940
   2 H :    0.098837
   3 C :   -0.079619
   4 H :    0.101084
   5 C :   -0.061679
   6 H :    0.107268
   7 C :   -0.085201
   8 H :    0.101430
   9 C :   -0.004981
  10 H :    0.097580
  11 O :   -0.151408
  12 O :   -0.294626
  13 O :   -0.312748
  14 O :   -0.315419
  15 O :   -0.332589
  16 O :   -0.317833
  17 H :    0.108785
  18 H :    0.119223
  19 H :    0.289676
  20 H :    0.283392
  21 H :    0.287314
  22 H :    0.273723
  23 H :    0.293990

  Mayer bond orders larger than 0.100000
B(  0-C ,  1-C ) :   1.0235 B(  0-C , 16-O ) :   1.0389 B(  0-C , 17-H ) :   0.9247
B(  0-C , 18-H ) :   0.9134 B(  1-C ,  2-H ) :   0.8756 B(  1-C ,  3-C ) :   0.9920
B(  1-C , 11-O ) :   0.9822 B(  3-C ,  4-H ) :   0.8700 B(  3-C ,  5-C ) :   1.0060
B(  3-C , 15-O ) :   1.0852 B(  5-C ,  6-H ) :   0.8756 B(  5-C ,  7-C ) :   1.0040
B(  5-C , 14-O ) :   1.1013 B(  7-C ,  8-H ) :   0.8619 B(  7-C ,  9-C ) :   0.9830
B(  7-C , 13-O ) :   1.0873 B(  9-C , 10-H ) :   0.8774 B(  9-C , 11-O ) :   1.0045
B(  9-C , 12-O ) :   1.1226 B( 12-O , 19-H ) :   0.8410 B( 13-O , 20-H ) :   0.8381
B( 14-O , 21-H ) :   0.8402 B( 15-O , 22-H ) :   0.8036 B( 16-O , 22-H ) :   0.1089
B( 16-O , 23-H ) :   0.8425

Dispersion correction           -0.023768020
FINAL SINGLE POINT ENERGY      -685.701014273494

DIPOLE MOMENT
-------------

Method             : SCF
Type of density    : Electron Density
Multiplicity       :   1
Irrep              :   0
Energy             :  -685.8318192284150427 Eh
Relativity type    :
Basis              : AO
                                X                 Y                 Z
Electronic contribution:      2.392936138       0.361602536      -0.034489509
Nuclear contribution   :     -3.375974450      -1.280950869       0.041553107
                        -----------------------------------------
Total Dipole Moment    :     -0.983038312      -0.919348333       0.007063598
                        -----------------------------------------
Magnitude (a.u.)       :      1.345962694
Magnitude (Debye)      :      3.421165284

Rotational constants in cm-1:             0.043717             0.024451             0.016503
Rotational constants in MHz :          1310.599920           733.031722           494.758992

                             ****ORCA TERMINATED NORMALLY****
TOTAL RUN TIME: 0 days 0 hours 0 minutes 11 seconds 957 msec
