                         Program Version 6.0.0  -   RELEASE  -
|  1> ! r2scan-3c def2/J RI DEFGRID2 scfconv6 printgap
|  2> %output
|  3>     printlevel normal
|  4> end
|  5> * xyz 0 1
|  6> C -2.1261586505 -0.900610873 -0.3028427577
|  7> C -1.1765951878 -0.3396291436 0.7735290131
|  8> H -1.7292124824 -0.3574428236 1.7207069475
|  9> C -0.7593678127 1.1239037625 0.5444171193
| 10> H -1.626022106 1.6571300075 0.130971996
| 11> C 0.4223400578 1.2889291052 -0.4338828639
| 12> H 0.8629330761 2.2830271111 -0.2689421145
| 13> C 1.5411221528 0.2820983863 -0.0826573631
| 14> H 2.2466506838 0.2334639783 -0.9183766718
| 15> C 1.040747089 -1.149004498 0.1909254695
| 16> H 1.8297509269 -1.6526621509 0.76639982
| 17> O -0.0734484947 -1.2020340166 1.0433152449
| 18> O 0.8147266959 -1.8213069857 -1.0187294795
| 19> O 2.2654447265 0.738855322 1.0343038194
| 20> O 0.0408583581 1.2812979119 -1.7790143326
| 21> O -0.4124588951 1.6413058673 1.8156330077
| 22> O -1.6425773131 -0.8546829078 -1.6240089736
| 23> H -3.0438616682 -0.3095708085 -0.2968259066
| 24> H -2.3680547319 -1.9329038312 -0.0240836406
| 25> H 0.87214798 -2.7797442776 -0.8849695053
| 26> H 1.6423189728 0.8721354676 1.7698231787
| 27> H -0.6094690581 0.5622238102 -1.9384808846
| 28> H -0.405220029 2.6083858277 1.7870735189
| 29> H -0.8206275667 -1.3891186285 -1.6704159623
| 30> *
| 31>
| 32>                          ****END OF INPUT****

CARTESIAN COORDINATES (ANGSTROEM)
---------------------------------
  C     -2.126159   -0.900611   -0.302843
  C     -1.176595   -0.339629    0.773529
  H     -1.729212   -0.357443    1.720707
  C     -0.759368    1.123904    0.544417
  H     -1.626022    1.657130    0.130972
  C      0.422340    1.288929   -0.433883
  H      0.862933    2.283027   -0.268942
  C      1.541122    0.282098   -0.082657
  H      2.246651    0.233464   -0.918377
  C      1.040747   -1.149004    0.190925
  H      1.829751   -1.652662    0.766400
  O     -0.073448   -1.202034    1.043315
  O      0.814727   -1.821307   -1.018729
  O      2.265445    0.738855    1.034304
  O      0.040858    1.281298   -1.779014
  O     -0.412459    1.641306    1.815633
  O     -1.642577   -0.854683   -1.624009
  H     -3.043862   -0.309571   -0.296826
  H     -2.368055   -1.932904   -0.024084
  H      0.872148   -2.779744   -0.884970
  H      1.642319    0.872135    1.769823
  H     -0.609469    0.562224   -1.938481
  H     -0.405220    2.608386    1.787074
  H     -0.820628   -1.389119   -1.670416

 Total Charge           Charge          ....    0
 Multiplicity           Mult            ....    1
 Number of Electrons    NEL             ....   96
 Basis Dimension        Dim             ....  318

ORBITAL ENERGIES
----------------

  NO   OCC          E(Eh)            E(eV)
   0   2.0000     -18.992286      -516.8064
   1   2.0000     -18.975940      -516.3616
   2   2.0000     -18.974661      -516.3268
   3   2.0000     -18.963870      -516.0331
   4   2.0000     -18.948809      -515.6233
   5   2.0000     -18.935270      -515.2549
   6   2.0000     -10.144744      -276.0525
   7   2.0000     -10.100738      -274.8551
   8   2.0000     -10.100420      -274.8464
   9   2.0000     -10.092633      -274.6345
  10   2.0000     -10.085901      -274.4513
  11   2.0000     -10.085726      -274.4466
  12   2.0000      -1.060538       -28.8587
  13   2.0000      -1.016958       -27.6728
  14   2.0000      -1.003448       -27.3052
  15   2.0000      -0.994439       -27.0601
  16   2.0000      -0.989348       -26.9215
  17   2.0000      -0.974336       -26.5130
  18   2.0000      -0.756959       -20.5979
  19   2.0000      -0.729799       -19.8588
  20   2.0000      -0.669312       -18.2129
  21   2.0000      -0.629105       -17.1188
  22   2.0000      -0.615295       -16.7430
  23   2.0000      -0.553568       -15.0633
  24   2.0000      -0.517273       -14.0757
  25   2.0000      -0.513763       -13.9802
  26   2.0000      -0.502055       -13.6616
  27   2.0000      -0.492557       -13.4032
  28   2.0000      -0.473127       -12.8744
  29   2.0000      -0.458201       -12.4683
  30   2.0000      -0.447054       -12.1650
  31   2.0000      -0.424349       -11.5471
  32   2.0000      -0.404917       -11.0183
  33   2.0000      -0.400083       -10.8868
  34   2.0000      -0.384465       -10.4618
  35   2.0000      -0.376397       -10.2423
  36   2.0000      -0.360491        -9.8095
  37   2.0000      -0.349186        -9.5018
  38   2.0000      -0.334405        -9.0996
  39   2.0000      -0.325552        -8.8587
  40   2.0000      -0.304737        -8.2923
  41   2.0000      -0.298885        -8.1331
  42   2.0000      -0.286205        -7.7880
  43   2.0000      -0.275828        -7.5057
  44   2.0000      -0.264654        -7.2016
  45   2.0000      -0.248281        -6.7561
  46   2.0000      -0.239406        -6.5146
  47   2.0000      -0.214867        -5.8468
  48   0.0000       0.022481         0.6117
  49   0.0000       0.035985         0.9792
  50   0.0000       0.059813         1.6276
  51   0.0000       0.073949         2.0123
  52   0.0000       0.083388         2.2691

MULLIKEN ATOMIC CHARGES
-----------------------
   0 C :   -0.246827
   1 C :    0.027621
   2 H :    0.165886
   3 C :   -0.111458
   4 H :    0.157910
   5 C :   -0.083224
   6 H :    0.165604
   7 C :    0.020921
   8 H :    0.159766
   9 C :   -0.094207
  10 H :    0.143203
  11 O :   -0.171394
  12 O :   -0.401852
  13 O :   -0.418892
  14 O :   -0.407884
  15 O :   -0.420462
  16 O :   -0.464469
  17 H :    0.148101
  18 H :    0.149588
  19 H :    0.317516
  20 H :    0.331394
  21 H :    0.362619
  22 H :    0.303649
  23 H :    0.366891
Sum of atomic charges:   -0.0000000

LOEWDIN ATOMIC CHARGES
----------------------
   0 C :    0.025750
   1 C :    0.106718
   2 H :    0.212783
   3 C :    0.111521
   4 H :    0.186274
   5 C :    0.106557
   6 H :    0.200748
   7 C :    0.124387
   8 H :    0.206718
   9 C :    0.291434
  10 H :    0.210173
  11 O :   -0.647884
  12 O :   -0.531526
  13 O :   -0.575489
  14 O :   -0.581710
  15 O :   -0.597003
  16 O :   -0.618514
  17 H :    0.185330
  18 H :    0.173992
  19 H :    0.279837
  20 H :    0.284009
  21 H :    0.285018
  22 H :    0.275290
  23 H :    0.285587

  Mayer bond orders larger than 0.100000
B(  0-C ,  1-C ) :   0.8909 B(  0-C , 16-O ) :   0.9926 B(  0-C , 17-H ) :   0.9774
B(  0-C , 18-H ) :   0.9799 B(  1-C ,  2-H ) :   0.9427 B(  1-C ,  3-C ) :   0.8699
B(  1-C , 11-O ) :   0.9241 B(  3-C ,  4-H ) :   0.9737 B(  3-C ,  5-C ) :   0.7925
B(  3-C , 15-O ) :   0.9248 B(  5-C ,  6-H ) :   1.0226 B(  5-C ,  7-C ) :   0.8356
B(  5-C , 14-O ) :   1.0260 B(  7-C ,  8-H ) :   0.9443 B(  7-C ,  9-C ) :   0.9385
B(  7-C , 13-O ) :   0.9783 B(  9-C , 10-H ) :   0.9671 B(  9-C , 11-O ) :   0.9850
B(  9-C , 12-O ) :   0.9376 B( 12-O , 19-H ) :   0.8864 B( 13-O , 20-H ) :   0.8425
B( 14-O , 21-H ) :   0.7844 B( 15-O , 22-H ) :   0.8959 B( 16-O , 23-H ) :   0.7980

Dispersion correction           -0.008832579
FINAL SINGLE POINT ENERGY      -687.075246320152

DIPOLE MOMENT
-------------

Method             : SCF
Type of density    : Electron Density
Multiplicity       :   1
Irrep              :   0
Energy             :  -687.0888820777111050 Eh
Relativity type    :
Basis              : AO
                                X                 Y                 Z
Electronic contribution:      2.336256933      -0.362518530       0.405341033
Nuclear contribution   :     -2.939280305      -0.195604771       0.154362109
                        -----------------------------------------
Total Dipole Moment    :     -0.603023372      -0.558123301       0.559703141
                        -----------------------------------------
Magnitude (a.u.)       :      0.994186306
Magnitude (Debye)      :      2.527020765

Rotational constants in cm-1:             0.039186             0.031418             0.027844
Rotational constants in MHz :          1174.766552           941.873858           834.743853

                             ****ORCA TERMINATED NORMALLY****
TOTAL RUN TIME: 0 days 0 hours 0 minutes 51 seconds 454 msec
