                         Program Version 6.0.0  -   RELEASE  -
|  1> ! r2scan-3c def2/J RI DEFGRID2 scfconv6 printgap
|  2> %output
|  3>     printlevel normal
|  4> end
|  5> %cpcm
|  6>     smd true
|  7>     smdsolvent "water"
|  8> end
|  9> * xyz 0 1
| 10> C -2.1261586505 -0.900610873 -0.3028427577
| 11> C -1.1765951878 -0.3396291436 0.7735290131
| 12> H -1.7292124824 -0.3574428236 1.7207069475
| 13> C -0.7593678127 1.1239037625 0.5444171193
| 14> H -1.626022106 1.6571300075 0.130971996
| 15> C 0.4223400578 1.2889291052 -0.4338828639
| 16> H 0.8629330761 2.2830271111 -0.2689421145
| 17> C 1.5411221528 0.2820983863 -0.0826573631
| 18> H 2.2466506838 0.2334639783 -0.9183766718
| 19> C 1.040747089 -1.149004498 0.1909254695
| 20> H 1.8297509269 -1.6526621509 0.76639982
| 21> O -0.0734484947 -1.2020340166 1.0433152449
| 22> O 0.8147266959 -1.8213069857 -1.0187294795
| 23> O 2.2654447265 0.738855322 1.0343038194
| 24> O 0.0408583581 1.2812979119 -1.7790143326
| 25> O -0.4124588951 1.6413058673 1.8156330077
| 26> O -1.6425773131 -0.8546829078 -1.6240089736
| 27> H -3.0438616682 -0.3095708085 -0.2968259066
| 28> H -2.3680547319 -1.9329038312 -0.0240836406
| 29> H 0.87214798 -2.7797442776 -0.8849695053
| 30> H 1.6423189728 0.8721354676 1.7698231787
| 31> H -0.6094690581 0.5622238102 -1.9384808846
| 32> H -0.405220029 2.6083858277 1.7870735189
| 33> H -0.8206275667 -1.3891186285 -1.6704159623
| 34> *
| 35>
| 36>                          ****END OF INPUT****

CARTESIAN COORDINATES (ANGSTROEM)
---------------------------------
  C     -2.126159   -0.900611   -0.302843
  C     -1.176595   -0.339629    0.773529
  H     -1.729212   -0.357443    1.720707
  C     -0.759368    1.123904    0.544417
  H     -1.626022    1.657130    0.130972
  C      0.422340    1.288929   -0.433883
  H      0.862933    2.283027   -0.268942
  C      1.541122    0.282098   -0.082657
  H      2.246651    0.233464   -0.918377
  C      1.040747   -1.149004    0.190925
  H      1.829751   -1.652662    0.766400
  O     -0.073448   -1.202034    1.043315
  O      0.814727   -1.821307   -1.018729
  O      2.265445    0.738855    1.034304
  O      0.040858    1.281298   -1.779014
  O     -0.412459    1.641306    1.815633
  O     -1.642577   -0.854683   -1.624009
  H     -3.043862   -0.309571   -0.296826
  H     -2.368055   -1.932904   -0.024084
  H      0.872148   -2.779744   -0.884970
  H      1.642319    0.872135    1.769823
  H     -0.609469    0.562224   -1.938481
  H     -0.405220    2.608386    1.787074
  H     -0.820628   -1.389119   -1.670416

 Total Charge           Charge          ....    0
 Multiplicity           Mult            ....    1
 Number of Electrons    NEL             ....   96
 Basis Dimension        Dim             ....  318

ORBITAL ENERGIES
----------------

  NO   OCC          E(Eh)            E(eV)
   0   2.0000     -18.974162      -516.3132
   1   2.0000     -18.971411      -516.2383
   2   2.0000     -18.962189      -515.9874
   3   2.0000     -18.958591      -515.8895
   4   2.0000     -18.957548      -515.8611
   5   2.0000     -18.947968      -515.6004
   6   2.0000     -10.134718      -275.7797
   7   2.0000     -10.089612      -274.5523
   8   2.0000     -10.088832      -274.5311
   9   2.0000     -10.085148      -274.4308
  10   2.0000     -10.083963      -274.3986
  11   2.0000     -10.077830      -274.2317
  12   2.0000      -1.049851       -28.5679
  13   2.0000      -1.006824       -27.3971
  14   2.0000      -0.998425       -27.1685
  15   2.0000      -0.993414       -27.0322
  16   2.0000      -0.984041       -26.7771
  17   2.0000      -0.980758       -26.6878
  18   2.0000      -0.746211       -20.3054
  19   2.0000      -0.726596       -19.7717
  20   2.0000      -0.658377       -17.9154
  21   2.0000      -0.622157       -16.9298
  22   2.0000      -0.609287       -16.5795
  23   2.0000      -0.543694       -14.7947
  24   2.0000      -0.511368       -13.9150
  25   2.0000      -0.504346       -13.7240
  26   2.0000      -0.493914       -13.4401
  27   2.0000      -0.482405       -13.1269
  28   2.0000      -0.466497       -12.6940
  29   2.0000      -0.453413       -12.3380
  30   2.0000      -0.439772       -11.9668
  31   2.0000      -0.419934       -11.4270
  32   2.0000      -0.403562       -10.9815
  33   2.0000      -0.391699       -10.6587
  34   2.0000      -0.378478       -10.2989
  35   2.0000      -0.375587       -10.2202
  36   2.0000      -0.355408        -9.6711
  37   2.0000      -0.344727        -9.3805
  38   2.0000      -0.332586        -9.0501
  39   2.0000      -0.318043        -8.6544
  40   2.0000      -0.305946        -8.3252
  41   2.0000      -0.294416        -8.0115
  42   2.0000      -0.283329        -7.7098
  43   2.0000      -0.272346        -7.4109
  44   2.0000      -0.266851        -7.2614
  45   2.0000      -0.247277        -6.7287
  46   2.0000      -0.233857        -6.3636
  47   2.0000      -0.220564        -6.0019
  48   0.0000       0.038212         1.0398
  49   0.0000       0.059061         1.6071
  50   0.0000       0.077007         2.0955
  51   0.0000       0.088108         2.3976
  52   0.0000       0.095091         2.5876

MULLIKEN ATOMIC CHARGES
-----------------------
   0 C :   -0.249972
   1 C :    0.036054
   2 H :    0.182004
   3 C :   -0.108464
   4 H :    0.186359
   5 C :   -0.060340
   6 H :    0.178347
   7 C :   -0.027986
   8 H :    0.177608
   9 C :   -0.066821
  10 H :    0.166491
  11 O :   -0.220836
  12 O :   -0.437098
  13 O :   -0.481872
  14 O :   -0.483901
  15 O :   -0.472146
  16 O :   -0.514855
  17 H :    0.170600
  18 H :    0.162664
  19 H :    0.364364
  20 H :    0.363073
  21 H :    0.391390
  22 H :    0.351132
  23 H :    0.394203
Sum of atomic charges:   -0.0000000

LOEWDIN ATOMIC CHARGES
----------------------
   0 C :    0.029187
   1 C :    0.108914
   2 H :    0.219251
   3 C :    0.118048
   4 H :    0.197180
   5 C :    0.106046
   6 H :    0.207837
   7 C :    0.119445
   8 H :    0.209240
   9 C :    0.294759
  10 H :    0.217339
  11 O :   -0.672076
  12 O :   -0.528031
  13 O :   -0.605922
  14 O :   -0.618867
  15 O :   -0.606872
  16 O :   -0.638708
  17 H :    0.194608
  18 H :    0.180923
  19 H :    0.300006
  20 H :    0.292542
  21 H :    0.289450
  22 H :    0.293559
  23 H :    0.292140

  Mayer bond orders larger than 0.100000
B(  0-C ,  1-C ) :   0.9075 B(  0-C , 16-O ) :   0.9803 B(  0-C , 17-H ) :   0.9681
B(  0-C , 18-H ) :   0.9685 B(  1-C ,  2-H ) :   0.9349 B(  1-C ,  3-C ) :   0.8604
B(  1-C , 11-O ) :   0.9079 B(  3-C ,  4-H ) :   0.9746 B(  3-C ,  5-C ) :   0.8032
B(  3-C , 15-O ) :   0.9221 B(  5-C ,  6-H ) :   1.0096 B(  5-C ,  7-C ) :   0.8307
B(  5-C , 14-O ) :   0.9987 B(  7-C ,  8-H ) :   0.9581 B(  7-C ,  9-C ) :   0.9254
B(  7-C , 13-O ) :   0.9500 B(  9-C , 10-H ) :   0.9705 B(  9-C , 11-O ) :   0.9758
B(  9-C , 12-O ) :   0.9433 B( 12-O , 19-H ) :   0.8602 B( 13-O , 20-H ) :   0.8263
B( 14-O , 21-H ) :   0.7686 B( 15-O , 22-H ) :   0.8708 B( 16-O , 23-H ) :   0.7815

Dispersion correction           -0.008832579
FINAL SINGLE POINT ENERGY      -687.106844462460

DIPOLE MOMENT
-------------

Method             : SCF
Type of density    : Electron Density
Multiplicity       :   1
Irrep              :   0
Energy             :  -687.1204802200188624 Eh
Relativity type    :
Basis              : AO
                                X                 Y                 Z
Electronic contribution:      2.061780108      -0.508202157       0.579402681
Nuclear contribution   :     -2.939280305      -0.195604771       0.154362109
                        -----------------------------------------
Total Dipole Moment    :     -0.877500197      -0.703806928       0.733764789
                        -----------------------------------------
Magnitude (a.u.)       :      1.343041903
Magnitude (Debye)      :      3.413741223

Rotational constants in cm-1:             0.039186             0.031418             0.027844
Rotational constants in MHz :          1174.766552           941.873858           834.743853

                             ****ORCA TERMINATED NORMALLY****
TOTAL RUN TIME: 0 days 0 hours 1 minutes 0 seconds 114 msec
