                         Program Version 6.0.0  -   RELEASE  -
|  1> ! pbe def2-sv(p) def2/J RI DEFGRID1 loosescf d4 GCP(DFT/SV(P)) printgap
|  2> %output
|  3>     printlevel normal
|  4> end
|  5> * xyz 0 1
|  6> C -2.5513025581 -0.6833607459 -0.3360273059
|  7> C -1.161272977 -0.3339364213 0.2150792621
|  8> H -1.1818162331 -0.330395267 1.3182030401
|  9> C -0.7081746193 1.0497411627 -0.2851494494
| 10> H -0.7489210909 1.0583796447 -1.3799416984
| 11> C 0.740100108 1.3439186096 0.1485128569
| 12> H 0.7772974867 1.4900729733 1.2416071549
| 13> C 1.666798619 0.1735853009 -0.1905076236
| 14> H 1.8019966286 0.1474795389 -1.2818922915
| 15> C 1.043944616 -1.1609518252 0.2818441269
| 16> H 1.0392927894 -1.1643480381 1.3869573242
| 17> O -0.2545413167 -1.3278860697 -0.2221919612
| 18> O 1.8113396454 -2.2409984906 -0.1161975277
| 19> O 2.8957403935 0.3779107721 0.4578871914
| 20> O 1.2224872652 2.4925769296 -0.5024135037
| 21> O -1.5689603896 2.0775148905 0.1317998455
| 22> O -3.1688400629 -1.7547500512 0.3247275729
| 23> H -2.436117074 -1.0005281919 -1.3738604849
| 24> H -3.1729001996 0.2192304147 -0.301409498
| 25> H 1.5326182419 -2.5157448 -1.0040061152
| 26> H 3.4664077358 -0.3891392836 0.2954620726
| 27> H 0.5560125724 3.1939986011 -0.4271489629
| 28> H -1.5824911803 2.1260698219 1.100021479
| 29> H -3.3706529323 -1.5079050572 1.2386527037
| 30> *
| 31>
| 32>                          ****END OF INPUT****

CARTESIAN COORDINATES (ANGSTROEM)
---------------------------------
  C     -2.551303   -0.683361   -0.336027
  C     -1.161273   -0.333936    0.215079
  H     -1.181816   -0.330395    1.318203
  C     -0.708175    1.049741   -0.285149
  H     -0.748921    1.058380   -1.379942
  C      0.740100    1.343919    0.148513
  H      0.777297    1.490073    1.241607
  C      1.666799    0.173585   -0.190508
  H      1.801997    0.147480   -1.281892
  C      1.043945   -1.160952    0.281844
  H      1.039293   -1.164348    1.386957
  O     -0.254541   -1.327886   -0.222192
  O      1.811340   -2.240998   -0.116198
  O      2.895740    0.377911    0.457887
  O      1.222487    2.492577   -0.502414
  O     -1.568960    2.077515    0.131800
  O     -3.168840   -1.754750    0.324728
  H     -2.436117   -1.000528   -1.373860
  H     -3.172900    0.219230   -0.301409
  H      1.532618   -2.515745   -1.004006
  H      3.466408   -0.389139    0.295462
  H      0.556013    3.193999   -0.427149
  H     -1.582491    2.126070    1.100021
  H     -3.370653   -1.507905    1.238653

 Total Charge           Charge          ....    0
 Multiplicity           Mult            ....    1
 Number of Electrons    NEL             ....   96
 Basis Dimension        Dim             ....  192

ORBITAL ENERGIES
----------------

  NO   OCC          E(Eh)            E(eV)
   0   2.0000     -18.779817      -511.0248
   1   2.0000     -18.776752      -510.9414
   2   2.0000     -18.767675      -510.6944
   3   2.0000     -18.751007      -510.2408
   4   2.0000     -18.747834      -510.1545
   5   2.0000     -18.747403      -510.1428
   6   2.0000      -9.989240      -271.8210
   7   2.0000      -9.955008      -270.8895
   8   2.0000      -9.952506      -270.8214
   9   2.0000      -9.946767      -270.6653
  10   2.0000      -9.939856      -270.4772
  11   2.0000      -9.936913      -270.3971
  12   2.0000      -0.992802       -27.0155
  13   2.0000      -0.958436       -26.0804
  14   2.0000      -0.935770       -25.4636
  15   2.0000      -0.928548       -25.2671
  16   2.0000      -0.920945       -25.0602
  17   2.0000      -0.913543       -24.8588
  18   2.0000      -0.709337       -19.3020
  19   2.0000      -0.694109       -18.8877
  20   2.0000      -0.618276       -16.8242
  21   2.0000      -0.596000       -16.2180
  22   2.0000      -0.566288       -15.4095
  23   2.0000      -0.542538       -14.7632
  24   2.0000      -0.506952       -13.7949
  25   2.0000      -0.496865       -13.5204
  26   2.0000      -0.484907       -13.1950
  27   2.0000      -0.461161       -12.5488
  28   2.0000      -0.446287       -12.1441
  29   2.0000      -0.445805       -12.1310
  30   2.0000      -0.419599       -11.4179
  31   2.0000      -0.398554       -10.8452
  32   2.0000      -0.390240       -10.6190
  33   2.0000      -0.384937       -10.4747
  34   2.0000      -0.361744        -9.8435
  35   2.0000      -0.357488        -9.7277
  36   2.0000      -0.328560        -8.9406
  37   2.0000      -0.320954        -8.7336
  38   2.0000      -0.308306        -8.3894
  39   2.0000      -0.300016        -8.1639
  40   2.0000      -0.283888        -7.7250
  41   2.0000      -0.278387        -7.5753
  42   2.0000      -0.266832        -7.2609
  43   2.0000      -0.245220        -6.6728
  44   2.0000      -0.237687        -6.4678
  45   2.0000      -0.227597        -6.1932
  46   2.0000      -0.217641        -5.9223
  47   2.0000      -0.198824        -5.4103
  48   0.0000       0.001084         0.0295
  49   0.0000       0.021336         0.5806
  50   0.0000       0.027629         0.7518
  51   0.0000       0.041503         1.1294
  52   0.0000       0.052826         1.4375

MULLIKEN ATOMIC CHARGES
-----------------------
   0 C :    0.096174
   1 C :   -0.002703
   2 H :    0.025547
   3 C :    0.007877
   4 H :    0.074025
   5 C :    0.088776
   6 H :    0.039509
   7 C :    0.062197
   8 H :    0.045540
   9 C :    0.174357
  10 H :    0.051184
  11 O :   -0.296466
  12 O :   -0.390197
  13 O :   -0.407378
  14 O :   -0.401745
  15 O :   -0.412654
  16 O :   -0.426085
  17 H :    0.089009
  18 H :    0.082409
  19 H :    0.307394
  20 H :    0.301541
  21 H :    0.298209
  22 H :    0.300060
  23 H :    0.293420
Sum of atomic charges:   -0.0000000

LOEWDIN ATOMIC CHARGES
----------------------
   0 C :   -0.129039
   1 C :   -0.077043
   2 H :    0.091286
   3 C :   -0.085623
   4 H :    0.122575
   5 C :   -0.071952
   6 H :    0.097950
   7 C :   -0.085986
   8 H :    0.103916
   9 C :   -0.004941
  10 H :    0.094493
  11 O :   -0.143986
  12 O :   -0.296957
  13 O :   -0.314312
  14 O :   -0.315154
  15 O :   -0.304348
  16 O :   -0.329681
  17 H :    0.122036
  18 H :    0.102373
  19 H :    0.291631
  20 H :    0.285096
  21 H :    0.281049
  22 H :    0.285040
  23 H :    0.281577

  Mayer bond orders larger than 0.100000
B(  0-C ,  1-C ) :   1.0228 B(  0-C , 16-O ) :   1.0920 B(  0-C , 17-H ) :   0.9049
B(  0-C , 18-H ) :   0.9158 B(  1-C ,  2-H ) :   0.8703 B(  1-C ,  3-C ) :   0.9671
B(  1-C , 11-O ) :   0.9926 B(  3-C ,  4-H ) :   0.8660 B(  3-C ,  5-C ) :   1.0076
B(  3-C , 15-O ) :   1.0015 B(  5-C ,  6-H ) :   0.8683 B(  5-C ,  7-C ) :   0.9979
B(  5-C , 14-O ) :   1.1060 B(  7-C ,  8-H ) :   0.8635 B(  7-C ,  9-C ) :   0.9728
B(  7-C , 13-O ) :   1.0864 B(  9-C , 10-H ) :   0.8775 B(  9-C , 11-O ) :   1.0139
B(  9-C , 12-O ) :   1.1229 B( 12-O , 19-H ) :   0.8397 B( 13-O , 20-H ) :   0.8373
B( 14-O , 21-H ) :   0.8360 B( 15-O , 22-H ) :   0.8446 B( 16-O , 23-H ) :   0.8538

Dispersion correction           -0.023495316
FINAL SINGLE POINT ENERGY      -685.692901832008

DIPOLE MOMENT
-------------

Method             : SCF
Type of density    : Electron Density
Multiplicity       :   1
Irrep              :   0
Energy             :  -685.8221228623229990 Eh
Relativity type    :
Basis              : AO
                                X                 Y                 Z
Electronic contribution:      2.526392939      -0.992947725      -0.303122884
Nuclear contribution   :     -3.100158462       1.239546773       0.763489515
                        -----------------------------------------
Total Dipole Moment    :     -0.573765523       0.246599048       0.460366631
                        -----------------------------------------
Magnitude (a.u.)       :      0.775857848
Magnitude (Debye)      :      1.972073926

Rotational constants in cm-1:             0.039277             0.025419             0.016301
Rotational constants in MHz :          1177.485358           762.032320           488.698615

                             ****ORCA TERMINATED NORMALLY****
TOTAL RUN TIME: 0 days 0 hours 0 minutes 11 seconds 667 msec
