                         Program Version 6.0.0  -   RELEASE  -
|  1> ! wb97x-v def2-tzvp def2/J RIJCOSX DEFGRID2 scfconv7 GCP(DFT/TZ) printgap
|  2> %output
|  3>     printlevel normal
|  4> end
|  5> * xyz 0 1
|  6> C -2.384518607235972 -6.838602248179797e-06 0.04821755678094075
|  7> N -0.9849156242051995 1.5755221139670077e-07 -0.38145951547586665
|  8> C -0.32170570134861953 1.2011836042497557 0.15519257639090345
|  9> C 1.1508832859544467 1.2518922006499584 -0.2307510639606232
| 10> C 1.878700048746285 1.2331359103348565e-05 0.25727353375817513
| 11> C 1.15089585361059 -1.2518718257921728 -0.2307522111433238
| 12> C -0.3216933869582185 -1.2011780323774892 0.15519277665175338
| 13> H -2.8963165655349052 -0.8868056628928996 -0.3400789252956125
| 14> H -2.8963278565511494 0.8867827033765732 -0.34008625871276926
| 15> H -2.4883619404289066 -2.8549121575450203e-06 1.1492244701828804
| 16> H -0.8466154324022247 2.084350895301379 -0.22716080600791788
| 17> H -0.40760485576665084 1.2267252760640173 1.2609067418472248
| 18> H 1.2421636217606151 1.334318338075144 -1.32142302540048
| 19> H 1.6003488881431616 2.153549528691643 0.20069740776287098
| 20> H 2.920141740649914 1.8894319541330173e-05 -0.08354008397108496
| 21> H 1.896012119378591 1.23029739478081e-05 1.3559571139545603
| 22> H 1.2421764882325192 -1.3342969206323647 -1.3214238442988688
| 23> H 1.6003686352430706 -2.15352650396783 0.20069419148996873
| 24> H -0.8465944957411197 -2.0843495682361675 -0.2271619030392771
| 25> H -0.4075908840183143 -1.2267178874731988 1.2609058821509873
| 26> *
| 27>
| 28>                          ****END OF INPUT****

CARTESIAN COORDINATES (ANGSTROEM)
---------------------------------
  C     -2.384519   -0.000007    0.048218
  N     -0.984916    0.000000   -0.381460
  C     -0.321706    1.201184    0.155193
  C      1.150883    1.251892   -0.230751
  C      1.878700    0.000012    0.257274
  C      1.150896   -1.251872   -0.230752
  C     -0.321693   -1.201178    0.155193
  H     -2.896317   -0.886806   -0.340079
  H     -2.896328    0.886783   -0.340086
  H     -2.488362   -0.000003    1.149224
  H     -0.846615    2.084351   -0.227161
  H     -0.407605    1.226725    1.260907
  H      1.242164    1.334318   -1.321423
  H      1.600349    2.153550    0.200697
  H      2.920142    0.000019   -0.083540
  H      1.896012    0.000012    1.355957
  H      1.242176   -1.334297   -1.321424
  H      1.600369   -2.153527    0.200694
  H     -0.846594   -2.084350   -0.227162
  H     -0.407591   -1.226718    1.260906

 Total Charge           Charge          ....    0
 Multiplicity           Mult            ....    1
 Number of Electrons    NEL             ....   56
 Basis Dimension        Dim             ....  295

ORBITAL ENERGIES
----------------

  NO   OCC          E(Eh)            E(eV)
   0   2.0000     -16.515342      -449.4053
   1   2.0000     -12.062173      -328.2284
   2   2.0000     -12.061938      -328.2220
   3   2.0000     -12.057628      -328.1047
   4   2.0000     -12.038464      -327.5832
   5   2.0000     -12.036988      -327.5431
   6   2.0000     -12.036409      -327.5273
   7   2.0000      -1.482943       -40.3529
   8   2.0000      -1.306753       -35.5586
   9   2.0000      -1.260636       -34.3036
  10   2.0000      -1.193367       -32.4732
  11   2.0000      -1.118102       -30.4251
  12   2.0000      -1.103884       -30.0382
  13   2.0000      -1.013262       -27.5723
  14   2.0000      -0.941026       -25.6066
  15   2.0000      -0.920564       -25.0498
  16   2.0000      -0.896100       -24.3841
  17   2.0000      -0.880655       -23.9638
  18   2.0000      -0.862618       -23.4730
  19   2.0000      -0.857434       -23.3320
  20   2.0000      -0.826868       -22.5002
  21   2.0000      -0.810898       -22.0656
  22   2.0000      -0.805331       -21.9142
  23   2.0000      -0.778043       -21.1716
  24   2.0000      -0.766800       -20.8657
  25   2.0000      -0.760621       -20.6976
  26   2.0000      -0.751698       -20.4548
  27   2.0000      -0.683074       -18.5874
  28   0.0000      -0.097217        -2.6454
  29   0.0000      -0.051247        -1.3945
  30   0.0000      -0.048797        -1.3278
  31   0.0000      -0.029541        -0.8038
  32   0.0000      -0.018764        -0.5106

MULLIKEN ATOMIC CHARGES
-----------------------
   0 C :   -0.274352
   1 N :   -0.132414
   2 C :   -0.173283
   3 C :   -0.153109
   4 C :   -0.179446
   5 C :   -0.153081
   6 C :   -0.173309
   7 H :    0.115018
   8 H :    0.115019
   9 H :    0.091082
  10 H :    0.101150
  11 H :    0.081262
  12 H :    0.087591
  13 H :    0.095672
  14 H :    0.099153
  15 H :    0.087369
  16 H :    0.087594
  17 H :    0.095667
  18 H :    0.101146
  19 H :    0.081269
Sum of atomic charges:    0.0000000

LOEWDIN ATOMIC CHARGES
----------------------
   0 C :   -0.322512
   1 N :    0.058301
   2 C :   -0.281765
   3 C :   -0.260547
   4 C :   -0.263427
   5 C :   -0.260548
   6 C :   -0.281763
   7 H :    0.111690
   8 H :    0.111690
   9 H :    0.098104
  10 H :    0.128132
  11 H :    0.117450
  12 H :    0.135292
  13 H :    0.132871
  14 H :    0.130536
  15 H :    0.132749
  16 H :    0.135292
  17 H :    0.132871
  18 H :    0.128132
  19 H :    0.117450

  Mayer bond orders larger than 0.100000
B(  0-C ,  1-N ) :   0.9820 B(  0-C ,  7-H ) :   0.9809 B(  0-C ,  8-H ) :   0.9809
B(  0-C ,  9-H ) :   0.9770 B(  1-N ,  2-C ) :   0.9866 B(  1-N ,  6-C ) :   0.9866
B(  2-C ,  3-C ) :   1.0088 B(  2-C , 10-H ) :   0.9683 B(  2-C , 11-H ) :   0.9737
B(  3-C ,  4-C ) :   0.9887 B(  3-C , 12-H ) :   0.9665 B(  3-C , 13-H ) :   0.9747
B(  4-C ,  5-C ) :   0.9887 B(  4-C , 14-H ) :   0.9769 B(  4-C , 15-H ) :   0.9775
B(  5-C ,  6-C ) :   1.0088 B(  5-C , 16-H ) :   0.9665 B(  5-C , 17-H ) :   0.9747
B(  6-C , 18-H ) :   0.9683 B(  6-C , 19-H ) :   0.9737

FINAL SINGLE POINT ENERGY      -291.227009047654

DIPOLE MOMENT
-------------

Method             : SCF
Type of density    : Electron Density
Multiplicity       :   1
Irrep              :   0
Energy             :  -291.2414017834540800 Eh
Relativity type    :
Basis              : AO
                                X                 Y                 Z
Electronic contribution:      0.301011822      -0.000001842      -1.441161179
Nuclear contribution   :     -0.245934327       0.000000932       1.703351331
                        -----------------------------------------
Total Dipole Moment    :      0.055077495      -0.000000909       0.262190152
                        -----------------------------------------
Magnitude (a.u.)       :      0.267912684
Magnitude (Debye)      :      0.680979925

Rotational constants in cm-1:             0.148341             0.076968             0.055704
Rotational constants in MHz :          4447.154672          2307.442514          1669.968527

                             ****ORCA TERMINATED NORMALLY****
TOTAL RUN TIME: 0 days 0 hours 2 minutes 36 seconds 19 msec
