                         Program Version 6.0.0  -   RELEASE  -
|  1> ! wb97x-v def2-tzvp def2/J RIJCOSX DEFGRID2 scfconv7 GCP(DFT/TZ) printgap
|  2> %output
|  3>     printlevel normal
|  4> end
|  5> %cpcm
|  6>     smd true
|  7>     smdsolvent "water"
|  8> end
|  9> * xyz 0 1
| 10> C -2.384518607235972 -6.838602248179797e-06 0.04821755678094075
| 11> N -0.9849156242051995 1.5755221139670077e-07 -0.38145951547586665
| 12> C -0.32170570134861953 1.2011836042497557 0.15519257639090345
| 13> C 1.1508832859544467 1.2518922006499584 -0.2307510639606232
| 14> C 1.878700048746285 1.2331359103348565e-05 0.25727353375817513
| 15> C 1.15089585361059 -1.2518718257921728 -0.2307522111433238
| 16> C -0.3216933869582185 -1.2011780323774892 0.15519277665175338
| 17> H -2.8963165655349052 -0.8868056628928996 -0.3400789252956125
| 18> H -2.8963278565511494 0.8867827033765732 -0.34008625871276926
| 19> H -2.4883619404289066 -2.8549121575450203e-06 1.1492244701828804
| 20> H -0.8466154324022247 2.084350895301379 -0.22716080600791788
| 21> H -0.40760485576665084 1.2267252760640173 1.2609067418472248
| 22> H 1.2421636217606151 1.334318338075144 -1.32142302540048
| 23> H 1.6003488881431616 2.153549528691643 0.20069740776287098
| 24> H 2.920141740649914 1.8894319541330173e-05 -0.08354008397108496
| 25> H 1.896012119378591 1.23029739478081e-05 1.3559571139545603
| 26> H 1.2421764882325192 -1.3342969206323647 -1.3214238442988688
| 27> H 1.6003686352430706 -2.15352650396783 0.20069419148996873
| 28> H -0.8465944957411197 -2.0843495682361675 -0.2271619030392771
| 29> H -0.4075908840183143 -1.2267178874731988 1.2609058821509873
| 30> *
| 31>
| 32>                          ****END OF INPUT****

CARTESIAN COORDINATES (ANGSTROEM)
---------------------------------
  C     -2.384519   -0.000007    0.048218
  N     -0.984916    0.000000   -0.381460
  C     -0.321706    1.201184    0.155193
  C      1.150883    1.251892   -0.230751
  C      1.878700    0.000012    0.257274
  C      1.150896   -1.251872   -0.230752
  C     -0.321693   -1.201178    0.155193
  H     -2.896317   -0.886806   -0.340079
  H     -2.896328    0.886783   -0.340086
  H     -2.488362   -0.000003    1.149224
  H     -0.846615    2.084351   -0.227161
  H     -0.407605    1.226725    1.260907
  H      1.242164    1.334318   -1.321423
  H      1.600349    2.153550    0.200697
  H      2.920142    0.000019   -0.083540
  H      1.896012    0.000012    1.355957
  H      1.242176   -1.334297   -1.321424
  H      1.600369   -2.153527    0.200694
  H     -0.846594   -2.084350   -0.227162
  H     -0.407591   -1.226718    1.260906

 Total Charge           Charge          ....    0
 Multiplicity           Mult            ....    1
 Number of Electrons    NEL             ....   56
 Basis Dimension        Dim             ....  295

ORBITAL ENERGIES
----------------

  NO   OCC          E(Eh)            E(eV)
   0   2.0000     -16.513504      -449.3553
   1   2.0000     -12.054764      -328.0268
   2   2.0000     -12.054533      -328.0205
   3   2.0000     -12.050217      -327.9031
   4   2.0000     -12.030400      -327.3638
   5   2.0000     -12.029681      -327.3443
   6   2.0000     -12.028771      -327.3195
   7   2.0000      -1.479381       -40.2560
   8   2.0000      -1.299797       -35.3693
   9   2.0000      -1.254135       -34.1268
  10   2.0000      -1.187211       -32.3056
  11   2.0000      -1.111816       -30.2540
  12   2.0000      -1.097014       -29.8513
  13   2.0000      -1.006524       -27.3889
  14   2.0000      -0.935279       -25.4502
  15   2.0000      -0.914929       -24.8965
  16   2.0000      -0.890480       -24.2312
  17   2.0000      -0.873764       -23.7763
  18   2.0000      -0.855700       -23.2848
  19   2.0000      -0.850465       -23.1423
  20   2.0000      -0.819800       -22.3079
  21   2.0000      -0.803679       -21.8692
  22   2.0000      -0.798120       -21.7180
  23   2.0000      -0.771015       -20.9804
  24   2.0000      -0.759470       -20.6662
  25   2.0000      -0.753253       -20.4971
  26   2.0000      -0.744668       -20.2635
  27   2.0000      -0.680645       -18.5213
  28   0.0000      -0.091485        -2.4894
  29   0.0000      -0.045812        -1.2466
  30   0.0000      -0.042993        -1.1699
  31   0.0000      -0.019932        -0.5424
  32   0.0000      -0.011640        -0.3168

MULLIKEN ATOMIC CHARGES
-----------------------
   0 C :   -0.314448
   1 N :   -0.186559
   2 C :   -0.193122
   3 C :   -0.182919
   4 C :   -0.187837
   5 C :   -0.182890
   6 C :   -0.193150
   7 H :    0.135268
   8 H :    0.135269
   9 H :    0.107197
  10 H :    0.122633
  11 H :    0.096669
  12 H :    0.093912
  13 H :    0.112772
  14 H :    0.111958
  15 H :    0.099261
  16 H :    0.093914
  17 H :    0.112767
  18 H :    0.122629
  19 H :    0.096677
Sum of atomic charges:    0.0000000

LOEWDIN ATOMIC CHARGES
----------------------
   0 C :   -0.327924
   1 N :    0.039111
   2 C :   -0.283940
   3 C :   -0.264545
   4 C :   -0.265430
   5 C :   -0.264546
   6 C :   -0.283939
   7 H :    0.115096
   8 H :    0.115097
   9 H :    0.102857
  10 H :    0.131627
  11 H :    0.122341
  12 H :    0.134198
  13 H :    0.136719
  14 H :    0.132590
  15 H :    0.135804
  16 H :    0.134198
  17 H :    0.136719
  18 H :    0.131627
  19 H :    0.122341

  Mayer bond orders larger than 0.100000
B(  0-C ,  1-N ) :   0.9767 B(  0-C ,  7-H ) :   0.9758 B(  0-C ,  8-H ) :   0.9758
B(  0-C ,  9-H ) :   0.9788 B(  1-N ,  2-C ) :   0.9812 B(  1-N ,  6-C ) :   0.9812
B(  2-C ,  3-C ) :   1.0040 B(  2-C , 10-H ) :   0.9680 B(  2-C , 11-H ) :   0.9766
B(  3-C ,  4-C ) :   0.9831 B(  3-C , 12-H ) :   0.9692 B(  3-C , 13-H ) :   0.9727
B(  4-C ,  5-C ) :   0.9831 B(  4-C , 14-H ) :   0.9747 B(  4-C , 15-H ) :   0.9736
B(  5-C ,  6-C ) :   1.0040 B(  5-C , 16-H ) :   0.9692 B(  5-C , 17-H ) :   0.9727
B(  6-C , 18-H ) :   0.9680 B(  6-C , 19-H ) :   0.9766

FINAL SINGLE POINT ENERGY      -291.233131447782

DIPOLE MOMENT
-------------

Method             : SCF
Type of density    : Electron Density
Multiplicity       :   1
Irrep              :   0
Energy             :  -291.2475241835823567 Eh
Relativity type    :
Basis              : AO
                                X                 Y                 Z
Electronic contribution:      0.303988763      -0.000002213      -1.227207008
Nuclear contribution   :     -0.245934327       0.000000932       1.703351331
                        -----------------------------------------
Total Dipole Moment    :      0.058054436      -0.000001281       0.476144323
                        -----------------------------------------
Magnitude (a.u.)       :      0.479670442
Magnitude (Debye)      :      1.219225371

Rotational constants in cm-1:             0.148341             0.076968             0.055704
Rotational constants in MHz :          4447.154672          2307.442514          1669.968527

                             ****ORCA TERMINATED NORMALLY****
TOTAL RUN TIME: 0 days 0 hours 2 minutes 27 seconds 602 msec
