                         Program Version 6.0.0  -   RELEASE  -
|  1> ! pbe def2-sv(p) def2/J RI DEFGRID1 loosescf d4 GCP(DFT/SV(P)) printgap
|  2> %output
|  3>     printlevel normal
|  4> end
|  5> * xyz 0 1
|  6> C -2.3435774438 -0.7793057028 0.7314158698
|  7> C -0.8781293803 -0.3226023208 0.7443034071
|  8> H -0.6213696513 0.0068584918 1.761422611
|  9> C -0.6277065942 0.8375096181 -0.2228518405
| 10> H -0.7594777146 0.4767082511 -1.2520780419
| 11> C 0.8236514074 1.3242330707 -0.0616588006
| 12> H 0.8263075339 2.0387928573 0.7778513042
| 13> C 1.7701364981 0.1590294434 0.3127709796
| 14> H 2.712928928 0.2787692962 -0.2392966897
| 15> C 1.1905897802 -1.1889250902 -0.1339941453
| 16> H 1.8322825143 -1.992120437 0.2630978064
| 17> O -0.0826192676 -1.4530169171 0.3975920774
| 18> O 1.1862020827 -1.1961547876 -1.5268844671
| 19> O 1.9958181932 0.0736176618 1.6967356151
| 20> O 1.1823931885 1.9647217668 -1.2594508715
| 21> O -1.5364093534 1.8678430581 0.0718889339
| 22> O -2.7259026028 -1.3386726017 -0.4973659821
| 23> H -2.979219328 0.0916737712 0.8935181498
| 24> H -2.4886709105 -1.5003367755 1.5448660546
| 25> H 0.9444945411 -2.0743484966 -1.8573025632
| 26> H 2.5529297903 0.8099521901 1.9904054672
| 27> H 2.064813174 2.3555053051 -1.1863944745
| 28> H -1.4703814882 2.5454346011 -0.6162163383
| 29> H -2.1488768713 -2.0973686984 -0.6668470594
| 30> *
| 31>
| 32>                          ****END OF INPUT****

CARTESIAN COORDINATES (ANGSTROEM)
---------------------------------
  C     -2.343577   -0.779306    0.731416
  C     -0.878129   -0.322602    0.744303
  H     -0.621370    0.006858    1.761423
  C     -0.627707    0.837510   -0.222852
  H     -0.759478    0.476708   -1.252078
  C      0.823651    1.324233   -0.061659
  H      0.826308    2.038793    0.777851
  C      1.770136    0.159029    0.312771
  H      2.712929    0.278769   -0.239297
  C      1.190590   -1.188925   -0.133994
  H      1.832283   -1.992120    0.263098
  O     -0.082619   -1.453017    0.397592
  O      1.186202   -1.196155   -1.526884
  O      1.995818    0.073618    1.696736
  O      1.182393    1.964722   -1.259451
  O     -1.536409    1.867843    0.071889
  O     -2.725903   -1.338673   -0.497366
  H     -2.979219    0.091674    0.893518
  H     -2.488671   -1.500337    1.544866
  H      0.944495   -2.074348   -1.857303
  H      2.552930    0.809952    1.990405
  H      2.064813    2.355505   -1.186394
  H     -1.470381    2.545435   -0.616216
  H     -2.148877   -2.097369   -0.666847

 Total Charge           Charge          ....    0
 Multiplicity           Mult            ....    1
 Number of Electrons    NEL             ....   96
 Basis Dimension        Dim             ....  192

ORBITAL ENERGIES
----------------

  NO   OCC          E(Eh)            E(eV)
   0   2.0000     -18.766599      -510.6651
   1   2.0000     -18.763973      -510.5937
   2   2.0000     -18.760576      -510.5012
   3   2.0000     -18.754418      -510.3337
   4   2.0000     -18.745662      -510.0954
   5   2.0000     -18.733514      -509.7648
   6   2.0000      -9.986514      -271.7469
   7   2.0000      -9.947953      -270.6976
   8   2.0000      -9.938947      -270.4525
   9   2.0000      -9.932297      -270.2715
  10   2.0000      -9.931337      -270.2454
  11   2.0000      -9.916242      -269.8347
  12   2.0000      -0.978965       -26.6390
  13   2.0000      -0.942169       -25.6377
  14   2.0000      -0.933817       -25.4104
  15   2.0000      -0.922367       -25.0989
  16   2.0000      -0.914023       -24.8718
  17   2.0000      -0.902254       -24.5516
  18   2.0000      -0.699541       -19.0355
  19   2.0000      -0.687225       -18.7003
  20   2.0000      -0.618264       -16.8238
  21   2.0000      -0.575677       -15.6650
  22   2.0000      -0.560093       -15.2409
  23   2.0000      -0.523417       -14.2429
  24   2.0000      -0.493391       -13.4258
  25   2.0000      -0.489800       -13.3281
  26   2.0000      -0.474303       -12.9064
  27   2.0000      -0.449755       -12.2385
  28   2.0000      -0.435479       -11.8500
  29   2.0000      -0.431089       -11.7305
  30   2.0000      -0.424421       -11.5491
  31   2.0000      -0.386415       -10.5149
  32   2.0000      -0.371674       -10.1138
  33   2.0000      -0.366119        -9.9626
  34   2.0000      -0.353306        -9.6139
  35   2.0000      -0.350834        -9.5467
  36   2.0000      -0.329954        -8.9785
  37   2.0000      -0.324254        -8.8234
  38   2.0000      -0.293936        -7.9984
  39   2.0000      -0.282750        -7.6940
  40   2.0000      -0.270160        -7.3514
  41   2.0000      -0.265634        -7.2283
  42   2.0000      -0.248218        -6.7544
  43   2.0000      -0.243487        -6.6256
  44   2.0000      -0.223740        -6.0883
  45   2.0000      -0.217830        -5.9274
  46   2.0000      -0.206566        -5.6209
  47   2.0000      -0.203677        -5.5423
  48   0.0000       0.007932         0.2158
  49   0.0000       0.019776         0.5381
  50   0.0000       0.030574         0.8320
  51   0.0000       0.049290         1.3413
  52   0.0000       0.060579         1.6484

MULLIKEN ATOMIC CHARGES
-----------------------
   0 C :    0.086600
   1 C :    0.008125
   2 H :    0.060529
   3 C :    0.058383
   4 H :    0.064890
   5 C :    0.096506
   6 H :    0.034428
   7 C :   -0.001122
   8 H :    0.056591
   9 C :    0.183549
  10 H :    0.063408
  11 O :   -0.328134
  12 O :   -0.382564
  13 O :   -0.409380
  14 O :   -0.409581
  15 O :   -0.414255
  16 O :   -0.441360
  17 H :    0.097919
  18 H :    0.074794
  19 H :    0.303096
  20 H :    0.304700
  21 H :    0.296495
  22 H :    0.308262
  23 H :    0.288120
Sum of atomic charges:   -0.0000000

LOEWDIN ATOMIC CHARGES
----------------------
   0 C :   -0.126212
   1 C :   -0.065491
   2 H :    0.110078
   3 C :   -0.071468
   4 H :    0.113549
   5 C :   -0.081974
   6 H :    0.096319
   7 C :   -0.089407
   8 H :    0.105214
   9 C :    0.001608
  10 H :    0.098020
  11 O :   -0.150106
  12 O :   -0.306900
  13 O :   -0.310155
  14 O :   -0.317448
  15 O :   -0.315370
  16 O :   -0.334878
  17 H :    0.123406
  18 H :    0.098089
  19 H :    0.286391
  20 H :    0.288680
  21 H :    0.282034
  22 H :    0.292152
  23 H :    0.273869

  Mayer bond orders larger than 0.100000
B(  0-C ,  1-C ) :   1.0427 B(  0-C , 16-O ) :   1.0643 B(  0-C , 17-H ) :   0.9099
B(  0-C , 18-H ) :   0.9204 B(  1-C ,  2-H ) :   0.8651 B(  1-C ,  3-C ) :   1.0649
B(  1-C , 11-O ) :   0.9789 B(  3-C ,  4-H ) :   0.8331 B(  3-C ,  5-C ) :   1.0809
B(  3-C , 15-O ) :   1.0637 B(  5-C ,  6-H ) :   0.8618 B(  5-C ,  7-C ) :   0.9642
B(  5-C , 14-O ) :   1.0839 B(  7-C ,  8-H ) :   0.8785 B(  7-C ,  9-C ) :   1.0473
B(  7-C , 13-O ) :   1.0418 B(  9-C , 10-H ) :   0.8933 B(  9-C , 11-O ) :   1.0620
B(  9-C , 12-O ) :   1.1523 B( 12-O , 19-H ) :   0.8419 B( 13-O , 20-H ) :   0.8468
B( 14-O , 21-H ) :   0.8468 B( 15-O , 22-H ) :   0.8455 B( 16-O , 23-H ) :   0.8436

Dispersion correction           -0.024780451
FINAL SINGLE POINT ENERGY      -685.689400056193

DIPOLE MOMENT
-------------

Method             : SCF
Type of density    : Electron Density
Multiplicity       :   1
Irrep              :   0
Energy             :  -685.8186263511884135 Eh
Relativity type    :
Basis              : AO
                                X                 Y                 Z
Electronic contribution:      1.043525926      -0.541160607      -1.266791415
Nuclear contribution   :      0.437251219       0.880220145       1.309104014
                        -----------------------------------------
Total Dipole Moment    :      1.480777145       0.339059538       0.042312600
                        -----------------------------------------
Magnitude (a.u.)       :      1.519688350
Magnitude (Debye)      :      3.862740807

Rotational constants in cm-1:             0.040034             0.027187             0.022582
Rotational constants in MHz :          1200.200639           815.046001           676.978323

                             ****ORCA TERMINATED NORMALLY****
TOTAL RUN TIME: 0 days 0 hours 0 minutes 11 seconds 832 msec
