                         Program Version 6.0.0  -   RELEASE  -
|  1> ! wb97x-v def2-tzvp def2/J RIJCOSX DEFGRID2 scfconv7 GCP(DFT/TZ) printgap
|  2> %output
|  3>     printlevel normal
|  4> end
|  5> %cpcm
|  6>     smd true
|  7>     smdsolvent "water"
|  8> end
|  9> * xyz 0 1
| 10> C -2.102541730917562 0.10641900585895661 -6.703758525289389e-05
| 11> C -0.7200703302198944 0.6794902767162413 -0.0005701477329626114
| 12> C 0.4494755299122234 0.02267406455511069 -0.000506044574146065
| 13> C 1.755258826684048 0.7686196943719791 0.00027739689841722425
| 14> C 0.5972573908883695 -1.471431638564333 -0.00011964438894298686
| 15> H -2.664191515651337 0.4475522219170929 -0.8790752788058136
| 16> H -2.1172344673741708 -0.9855451381140586 0.0038411010565202594
| 17> H -2.6654117895903617 0.4534651546047187 0.8758020361358994
| 18> H -0.6759691696754747 1.7697128047914539 -0.0004821440681142411
| 19> H 2.354651458226855 0.5047080149696562 -0.880786751110477
| 20> H 1.6073446822926536 1.8522141000127645 0.005402115014320798
| 21> H 2.3581566897670316 0.4968285901895958 0.8765436277950984
| 22> H 1.1838924375942312 -1.7944305348845346 -0.86971762691935
| 23> H 1.157134374304452 -1.797063954135959 0.8861207881884678
| 24> H -0.3551862095708899 -2.0035496313148387 -0.01534406295408815
| 25> *
| 26>
| 27>                          ****END OF INPUT****

CARTESIAN COORDINATES (ANGSTROEM)
---------------------------------
  C     -2.102542    0.106419   -0.000067
  C     -0.720070    0.679490   -0.000570
  C      0.449476    0.022674   -0.000506
  C      1.755259    0.768620    0.000277
  C      0.597257   -1.471432   -0.000120
  H     -2.664192    0.447552   -0.879075
  H     -2.117234   -0.985545    0.003841
  H     -2.665412    0.453465    0.875802
  H     -0.675969    1.769713   -0.000482
  H      2.354651    0.504708   -0.880787
  H      1.607345    1.852214    0.005402
  H      2.358157    0.496829    0.876544
  H      1.183892   -1.794431   -0.869718
  H      1.157134   -1.797064    0.886121
  H     -0.355186   -2.003550   -0.015344

 Total Charge           Charge          ....    0
 Multiplicity           Mult            ....    1
 Number of Electrons    NEL             ....   40
 Basis Dimension        Dim             ....  215

ORBITAL ENERGIES
----------------

  NO   OCC          E(Eh)            E(eV)
   0   2.0000     -12.046361      -327.7982
   1   2.0000     -12.031959      -327.4063
   2   2.0000     -12.029254      -327.3326
   3   2.0000     -12.028834      -327.3212
   4   2.0000     -12.028339      -327.3077
   5   2.0000      -1.324214       -36.0337
   6   2.0000      -1.228990       -33.4425
   7   2.0000      -1.177788       -32.0493
   8   2.0000      -1.131828       -30.7986
   9   2.0000      -0.971430       -26.4340
  10   2.0000      -0.900633       -24.5075
  11   2.0000      -0.880732       -23.9659
  12   2.0000      -0.840709       -22.8769
  13   2.0000      -0.814309       -22.1585
  14   2.0000      -0.809400       -22.0249
  15   2.0000      -0.799066       -21.7437
  16   2.0000      -0.798298       -21.7228
  17   2.0000      -0.791458       -21.5367
  18   2.0000      -0.768876       -20.9222
  19   2.0000      -0.625745       -17.0274
  20   0.0000      -0.187677        -5.1070
  21   0.0000      -0.028498        -0.7755
  22   0.0000      -0.004607        -0.1254
  23   0.0000       0.005935         0.1615
  24   0.0000       0.017700         0.4817

MULLIKEN ATOMIC CHARGES
-----------------------
   0 C :   -0.349900
   1 C :   -0.203778
   2 C :   -0.021695
   3 C :   -0.365353
   4 C :   -0.367345
   5 H :    0.131431
   6 H :    0.125458
   7 H :    0.131454
   8 H :    0.136266
   9 H :    0.130013
  10 H :    0.129448
  11 H :    0.129695
  12 H :    0.133561
  13 H :    0.134007
  14 H :    0.126738
Sum of atomic charges:   -0.0000000

LOEWDIN ATOMIC CHARGES
----------------------
   0 C :   -0.299697
   1 C :   -0.205980
   2 C :   -0.244360
   3 C :   -0.267327
   4 C :   -0.264677
   5 H :    0.126401
   6 H :    0.122201
   7 H :    0.126429
   8 H :    0.143284
   9 H :    0.127158
  10 H :    0.125309
  11 H :    0.127180
  12 H :    0.130293
  13 H :    0.130399
  14 H :    0.123388

  Mayer bond orders larger than 0.100000
B(  0-C ,  1-C ) :   0.9552 B(  0-C ,  5-H ) :   0.9676 B(  0-C ,  6-H ) :   0.9909
B(  0-C ,  7-H ) :   0.9679 B(  1-C ,  2-C ) :   1.8886 B(  1-C ,  8-H ) :   0.9650
B(  2-C ,  3-C ) :   0.9651 B(  2-C ,  4-C ) :   0.9580 B(  3-C ,  9-H ) :   0.9688
B(  3-C , 10-H ) :   0.9835 B(  3-C , 11-H ) :   0.9687 B(  4-C , 12-H ) :   0.9684
B(  4-C , 13-H ) :   0.9679 B(  4-C , 14-H ) :   0.9869

FINAL SINGLE POINT ENERGY      -196.539739040893

DIPOLE MOMENT
-------------

Method             : SCF
Type of density    : Electron Density
Multiplicity       :   1
Irrep              :   0
Energy             :  -196.5495475813931421 Eh
Relativity type    :
Basis              : AO
                                X                 Y                 Z
Electronic contribution:     -0.114730247       0.891882039      -0.002391679
Nuclear contribution   :      0.180291069      -1.018353700       0.003434081
                        -----------------------------------------
Total Dipole Moment    :      0.065560822      -0.126471662       0.001042402
                        -----------------------------------------
Magnitude (a.u.)       :      0.142458377
Magnitude (Debye)      :      0.362100418

Rotational constants in cm-1:             0.270012             0.117262             0.085629
Rotational constants in MHz :          8094.752788          3515.419295          2567.096655

                             ****ORCA TERMINATED NORMALLY****
TOTAL RUN TIME: 0 days 0 hours 0 minutes 48 seconds 901 msec
