                         Program Version 6.0.0  -   RELEASE  -
|  1> ! pbe def2-sv(p) def2/J RI DEFGRID1 loosescf d4 GCP(DFT/SV(P)) printgap
|  2> %output
|  3>     printlevel normal
|  4> end
|  5> * xyz 0 1
|  6> C -1.5924346772 -0.1455314597 -0.5048026664
|  7> C -0.6712664278 0.4920544567 0.5300897733
|  8> C 0.6883699668 -0.2178794108 0.634168558
|  9> N 1.5376776893 -0.1314420119 -0.5435753154
| 10> H -2.5566861972 0.356718513 -0.5131939299
| 11> H -1.1678508208 -0.0738375279 -1.5042702675
| 12> H -1.7526290166 -1.1963475315 -0.2728596302
| 13> H -1.1507629988 0.4580046844 1.509928075
| 14> H -0.506930882 1.5427347088 0.2759517755
| 15> H 1.2498310383 0.2112692061 1.4692869557
| 16> H 0.5281005978 -1.2785842612 0.8459628371
| 17> H 1.6865454567 0.8434811554 -0.7831340591
| 18> H 1.0740905602 -0.5698055065 -1.3321040497
| 19> *
| 20>
| 21>                          ****END OF INPUT****

CARTESIAN COORDINATES (ANGSTROEM)
---------------------------------
  C     -1.592435   -0.145531   -0.504803
  C     -0.671266    0.492054    0.530090
  C      0.688370   -0.217879    0.634169
  N      1.537678   -0.131442   -0.543575
  H     -2.556686    0.356719   -0.513194
  H     -1.167851   -0.073838   -1.504270
  H     -1.752629   -1.196348   -0.272860
  H     -1.150763    0.458005    1.509928
  H     -0.506931    1.542735    0.275952
  H      1.249831    0.211269    1.469287
  H      0.528101   -1.278584    0.845963
  H      1.686545    0.843481   -0.783134
  H      1.074091   -0.569806   -1.332104

 Total Charge           Charge          ....    0
 Multiplicity           Mult            ....    1
 Number of Electrons    NEL             ....   34
 Basis Dimension        Dim             ....   74

ORBITAL ENERGIES
----------------

  NO   OCC          E(Eh)            E(eV)
   0   2.0000     -13.955393      -379.7455
   1   2.0000      -9.902643      -269.4646
   2   2.0000      -9.881772      -268.8967
   3   2.0000      -9.876731      -268.7595
   4   2.0000      -0.792727       -21.5712
   5   2.0000      -0.685424       -18.6513
   6   2.0000      -0.593442       -16.1484
   7   2.0000      -0.517856       -14.0916
   8   2.0000      -0.444673       -12.1002
   9   2.0000      -0.406406       -11.0589
  10   2.0000      -0.389106       -10.5881
  11   2.0000      -0.366245        -9.9660
  12   2.0000      -0.336775        -9.1641
  13   2.0000      -0.310791        -8.4571
  14   2.0000      -0.295475        -8.0403
  15   2.0000      -0.291258        -7.9255
  16   2.0000      -0.180418        -4.9094
  17   0.0000       0.029381         0.7995
  18   0.0000       0.065043         1.7699
  19   0.0000       0.067467         1.8359
  20   0.0000       0.087607         2.3839
  21   0.0000       0.110724         3.0130

MULLIKEN ATOMIC CHARGES
-----------------------
   0 C :   -0.290849
   1 C :   -0.189134
   2 C :   -0.090626
   3 N :   -0.449479
   4 H :    0.107577
   5 H :    0.085535
   6 H :    0.099437
   7 H :    0.080538
   8 H :    0.077775
   9 H :    0.087419
  10 H :    0.083396
  11 H :    0.197217
  12 H :    0.201193
Sum of atomic charges:    0.0000000

LOEWDIN ATOMIC CHARGES
----------------------
   0 C :   -0.347557
   1 C :   -0.258702
   2 C :   -0.182105
   3 N :   -0.406817
   4 H :    0.121524
   5 H :    0.107761
   6 H :    0.117481
   7 H :    0.116056
   8 H :    0.109517
   9 H :    0.111024
  10 H :    0.110653
  11 H :    0.200836
  12 H :    0.200330

  Mayer bond orders larger than 0.100000
B(  0-C ,  1-C ) :   1.1429 B(  0-C ,  4-H ) :   0.9531 B(  0-C ,  5-H ) :   0.9456
B(  0-C ,  6-H ) :   0.9562 B(  1-C ,  2-C ) :   1.0823 B(  1-C ,  7-H ) :   0.9142
B(  1-C ,  8-H ) :   0.9263 B(  2-C ,  3-N ) :   1.1490 B(  2-C ,  9-H ) :   0.9355
B(  2-C , 10-H ) :   0.9346 B(  3-N , 11-H ) :   0.9106 B(  3-N , 12-H ) :   0.9103

Dispersion correction           -0.007405380
FINAL SINGLE POINT ENERGY      -174.033068231094

DIPOLE MOMENT
-------------

Method             : SCF
Type of density    : Electron Density
Multiplicity       :   1
Irrep              :   0
Energy             :  -174.0831036665409783 Eh
Relativity type    :
Basis              : AO
                                X                 Y                 Z
Electronic contribution:      2.001458594      -0.014952994       0.137289730
Nuclear contribution   :     -2.427296488       0.274754397      -0.288603735
                        -----------------------------------------
Total Dipole Moment    :     -0.425837894       0.259801402      -0.151314005
                        -----------------------------------------
Magnitude (a.u.)       :      0.521277862
Magnitude (Debye)      :      1.324983026

Rotational constants in cm-1:             0.465107             0.163507             0.140125
Rotational constants in MHz :         13943.543957          4901.807625          4200.849482

                             ****ORCA TERMINATED NORMALLY****
TOTAL RUN TIME: 0 days 0 hours 0 minutes 4 seconds 973 msec
