                         Program Version 6.0.0  -   RELEASE  -
|  1> ! r2scan-3c def2/J RI DEFGRID2 scfconv6 printgap
|  2> %output
|  3>     printlevel normal
|  4> end
|  5> * xyz 0 1
|  6> C -2.1223139715 -0.8965637563 -0.3471821282
|  7> C -1.2050770194 -0.3478908291 0.7648175773
|  8> H -1.7927331732 -0.409314893 1.6897042377
|  9> C -0.7722487565 1.119133409 0.5832975086
| 10> H -1.6304454326 1.6965648321 0.211202628
| 11> C 0.388682366 1.3010972298 -0.4134546454
| 12> H 0.8205831455 2.2927092146 -0.2187996955
| 13> C 1.5143012797 0.2871245881 -0.1097453627
| 14> H 2.163640468 0.2139081778 -0.9888111505
| 15> C 1.0255241892 -1.1413392925 0.2144569708
| 16> H 1.8194827844 -1.6128084948 0.8100932761
| 17> O -0.0964552529 -1.1984908682 1.0553070741
| 18> O 0.8210796032 -1.854976481 -0.9760302002
| 19> O 2.3179895177 0.7519694882 0.9477133456
| 20> O -0.0135869848 1.3316196301 -1.7501908689
| 21> O -0.3053858144 1.6465804172 1.8080376331
| 22> O -1.6011085701 -0.8590341555 -1.6532811342
| 23> H -3.0322669364 -0.2934145823 -0.3693979097
| 24> H -2.3865232175 -1.9262198968 -0.0775830457
| 25> H 0.8704185179 -2.8084837999 -0.8074837233
| 26> H 1.7375292424 1.0402140198 1.6726802656
| 27> H -0.6337981877 0.5896245581 -1.9308972294
| 28> H -1.0213621163 1.67243086 2.4589990035
| 29> H -0.7773895263 -1.3928737067 -1.6749549884
| 30> *
| 31>
| 32>                          ****END OF INPUT****

CARTESIAN COORDINATES (ANGSTROEM)
---------------------------------
  C     -2.122314   -0.896564   -0.347182
  C     -1.205077   -0.347891    0.764818
  H     -1.792733   -0.409315    1.689704
  C     -0.772249    1.119133    0.583298
  H     -1.630445    1.696565    0.211203
  C      0.388682    1.301097   -0.413455
  H      0.820583    2.292709   -0.218800
  C      1.514301    0.287125   -0.109745
  H      2.163640    0.213908   -0.988811
  C      1.025524   -1.141339    0.214457
  H      1.819483   -1.612808    0.810093
  O     -0.096455   -1.198491    1.055307
  O      0.821080   -1.854976   -0.976030
  O      2.317990    0.751969    0.947713
  O     -0.013587    1.331620   -1.750191
  O     -0.305386    1.646580    1.808038
  O     -1.601109   -0.859034   -1.653281
  H     -3.032267   -0.293415   -0.369398
  H     -2.386523   -1.926220   -0.077583
  H      0.870419   -2.808484   -0.807484
  H      1.737529    1.040214    1.672680
  H     -0.633798    0.589625   -1.930897
  H     -1.021362    1.672431    2.458999
  H     -0.777390   -1.392874   -1.674955

 Total Charge           Charge          ....    0
 Multiplicity           Mult            ....    1
 Number of Electrons    NEL             ....   96
 Basis Dimension        Dim             ....  318

ORBITAL ENERGIES
----------------

  NO   OCC          E(Eh)            E(eV)
   0   2.0000     -18.991498      -516.7849
   1   2.0000     -18.976815      -516.3854
   2   2.0000     -18.976437      -516.3751
   3   2.0000     -18.965491      -516.0773
   4   2.0000     -18.945636      -515.5370
   5   2.0000     -18.933589      -515.2091
   6   2.0000     -10.143461      -276.0176
   7   2.0000     -10.104242      -274.9504
   8   2.0000     -10.100852      -274.8581
   9   2.0000     -10.095519      -274.7130
  10   2.0000     -10.084616      -274.4164
  11   2.0000     -10.084100      -274.4023
  12   2.0000      -1.060395       -28.8548
  13   2.0000      -1.018609       -27.7177
  14   2.0000      -1.005154       -27.3516
  15   2.0000      -0.993685       -27.0395
  16   2.0000      -0.987654       -26.8754
  17   2.0000      -0.972879       -26.4734
  18   2.0000      -0.757126       -20.6024
  19   2.0000      -0.730086       -19.8667
  20   2.0000      -0.673018       -18.3138
  21   2.0000      -0.624641       -16.9973
  22   2.0000      -0.617476       -16.8024
  23   2.0000      -0.550830       -14.9888
  24   2.0000      -0.526400       -14.3241
  25   2.0000      -0.509885       -13.8747
  26   2.0000      -0.499759       -13.5991
  27   2.0000      -0.497741       -13.5442
  28   2.0000      -0.461678       -12.5629
  29   2.0000      -0.456141       -12.4122
  30   2.0000      -0.447514       -12.1775
  31   2.0000      -0.424109       -11.5406
  32   2.0000      -0.420628       -11.4459
  33   2.0000      -0.402027       -10.9397
  34   2.0000      -0.384940       -10.4747
  35   2.0000      -0.376141       -10.2353
  36   2.0000      -0.361734        -9.8433
  37   2.0000      -0.354025        -9.6335
  38   2.0000      -0.328119        -8.9286
  39   2.0000      -0.319296        -8.6885
  40   2.0000      -0.304040        -8.2733
  41   2.0000      -0.302928        -8.2431
  42   2.0000      -0.285440        -7.7672
  43   2.0000      -0.268193        -7.2979
  44   2.0000      -0.263752        -7.1771
  45   2.0000      -0.249543        -6.7904
  46   2.0000      -0.237885        -6.4732
  47   2.0000      -0.218266        -5.9393
  48   0.0000       0.021652         0.5892
  49   0.0000       0.031877         0.8674
  50   0.0000       0.059029         1.6063
  51   0.0000       0.076463         2.0807
  52   0.0000       0.084307         2.2941

MULLIKEN ATOMIC CHARGES
-----------------------
   0 C :   -0.237649
   1 C :    0.034935
   2 H :    0.145341
   3 C :   -0.129294
   4 H :    0.157849
   5 C :   -0.043667
   6 H :    0.167348
   7 C :   -0.011796
   8 H :    0.162184
   9 C :   -0.102838
  10 H :    0.146327
  11 O :   -0.152154
  12 O :   -0.404438
  13 O :   -0.413630
  14 O :   -0.418744
  15 O :   -0.400544
  16 O :   -0.464495
  17 H :    0.147515
  18 H :    0.150106
  19 H :    0.316322
  20 H :    0.325448
  21 H :    0.365698
  22 H :    0.291667
  23 H :    0.368510
Sum of atomic charges:    0.0000000

LOEWDIN ATOMIC CHARGES
----------------------
   0 C :    0.024131
   1 C :    0.092530
   2 H :    0.198831
   3 C :    0.112033
   4 H :    0.185632
   5 C :    0.121634
   6 H :    0.211774
   7 C :    0.126144
   8 H :    0.208146
   9 C :    0.291833
  10 H :    0.211451
  11 O :   -0.650188
  12 O :   -0.534360
  13 O :   -0.574260
  14 O :   -0.579771
  15 O :   -0.599436
  16 O :   -0.615667
  17 H :    0.185347
  18 H :    0.173905
  19 H :    0.279698
  20 H :    0.284547
  21 H :    0.285411
  22 H :    0.274202
  23 H :    0.286436

  Mayer bond orders larger than 0.100000
B(  0-C ,  1-C ) :   0.9052 B(  0-C , 16-O ) :   0.9926 B(  0-C , 17-H ) :   0.9747
B(  0-C , 18-H ) :   0.9786 B(  1-C ,  2-H ) :   0.9448 B(  1-C ,  3-C ) :   0.8400
B(  1-C , 11-O ) :   0.9025 B(  3-C ,  4-H ) :   0.9683 B(  3-C ,  5-C ) :   0.8431
B(  3-C , 15-O ) :   0.9090 B(  5-C ,  6-H ) :   0.9934 B(  5-C ,  7-C ) :   0.8822
B(  5-C , 14-O ) :   1.0428 B(  7-C ,  8-H ) :   0.9547 B(  7-C ,  9-C ) :   0.9278
B(  7-C , 13-O ) :   0.9711 B(  9-C , 10-H ) :   0.9681 B(  9-C , 11-O ) :   0.9925
B(  9-C , 12-O ) :   0.9331 B( 12-O , 19-H ) :   0.8870 B( 13-O , 20-H ) :   0.8465
B( 14-O , 21-H ) :   0.7789 B( 15-O , 22-H ) :   0.8976 B( 16-O , 23-H ) :   0.7944

Dispersion correction           -0.008825703
FINAL SINGLE POINT ENERGY      -687.073961418491

DIPOLE MOMENT
-------------

Method             : SCF
Type of density    : Electron Density
Multiplicity       :   1
Irrep              :   0
Energy             :  -687.0877454553806274 Eh
Relativity type    :
Basis              : AO
                                X                 Y                 Z
Electronic contribution:      2.584946366      -0.113170210       0.235729188
Nuclear contribution   :     -3.607394232      -0.882389230       0.718427653
                        -----------------------------------------
Total Dipole Moment    :     -1.022447866      -0.995559440       0.954156841
                        -----------------------------------------
Magnitude (a.u.)       :      1.716669308
Magnitude (Debye)      :      4.363426614

Rotational constants in cm-1:             0.039224             0.031269             0.027848
Rotational constants in MHz :          1175.911110           937.406250           834.872274

                             ****ORCA TERMINATED NORMALLY****
TOTAL RUN TIME: 0 days 0 hours 0 minutes 51 seconds 159 msec
