                         Program Version 6.0.0  -   RELEASE  -
|  1> ! r2scan-3c def2/J RI DEFGRID2 scfconv6 printgap
|  2> %output
|  3>     printlevel normal
|  4> end
|  5> %cpcm
|  6>     smd true
|  7>     smdsolvent "water"
|  8> end
|  9> * xyz 0 1
| 10> C -2.1223139715 -0.8965637563 -0.3471821282
| 11> C -1.2050770194 -0.3478908291 0.7648175773
| 12> H -1.7927331732 -0.409314893 1.6897042377
| 13> C -0.7722487565 1.119133409 0.5832975086
| 14> H -1.6304454326 1.6965648321 0.211202628
| 15> C 0.388682366 1.3010972298 -0.4134546454
| 16> H 0.8205831455 2.2927092146 -0.2187996955
| 17> C 1.5143012797 0.2871245881 -0.1097453627
| 18> H 2.163640468 0.2139081778 -0.9888111505
| 19> C 1.0255241892 -1.1413392925 0.2144569708
| 20> H 1.8194827844 -1.6128084948 0.8100932761
| 21> O -0.0964552529 -1.1984908682 1.0553070741
| 22> O 0.8210796032 -1.854976481 -0.9760302002
| 23> O 2.3179895177 0.7519694882 0.9477133456
| 24> O -0.0135869848 1.3316196301 -1.7501908689
| 25> O -0.3053858144 1.6465804172 1.8080376331
| 26> O -1.6011085701 -0.8590341555 -1.6532811342
| 27> H -3.0322669364 -0.2934145823 -0.3693979097
| 28> H -2.3865232175 -1.9262198968 -0.0775830457
| 29> H 0.8704185179 -2.8084837999 -0.8074837233
| 30> H 1.7375292424 1.0402140198 1.6726802656
| 31> H -0.6337981877 0.5896245581 -1.9308972294
| 32> H -1.0213621163 1.67243086 2.4589990035
| 33> H -0.7773895263 -1.3928737067 -1.6749549884
| 34> *
| 35>
| 36>                          ****END OF INPUT****

CARTESIAN COORDINATES (ANGSTROEM)
---------------------------------
  C     -2.122314   -0.896564   -0.347182
  C     -1.205077   -0.347891    0.764818
  H     -1.792733   -0.409315    1.689704
  C     -0.772249    1.119133    0.583298
  H     -1.630445    1.696565    0.211203
  C      0.388682    1.301097   -0.413455
  H      0.820583    2.292709   -0.218800
  C      1.514301    0.287125   -0.109745
  H      2.163640    0.213908   -0.988811
  C      1.025524   -1.141339    0.214457
  H      1.819483   -1.612808    0.810093
  O     -0.096455   -1.198491    1.055307
  O      0.821080   -1.854976   -0.976030
  O      2.317990    0.751969    0.947713
  O     -0.013587    1.331620   -1.750191
  O     -0.305386    1.646580    1.808038
  O     -1.601109   -0.859034   -1.653281
  H     -3.032267   -0.293415   -0.369398
  H     -2.386523   -1.926220   -0.077583
  H      0.870419   -2.808484   -0.807484
  H      1.737529    1.040214    1.672680
  H     -0.633798    0.589625   -1.930897
  H     -1.021362    1.672431    2.458999
  H     -0.777390   -1.392874   -1.674955

 Total Charge           Charge          ....    0
 Multiplicity           Mult            ....    1
 Number of Electrons    NEL             ....   96
 Basis Dimension        Dim             ....  318

ORBITAL ENERGIES
----------------

  NO   OCC          E(Eh)            E(eV)
   0   2.0000     -18.973538      -516.2962
   1   2.0000     -18.970647      -516.2175
   2   2.0000     -18.963169      -516.0141
   3   2.0000     -18.958676      -515.8918
   4   2.0000     -18.957157      -515.8505
   5   2.0000     -18.948153      -515.6055
   6   2.0000     -10.134155      -275.7644
   7   2.0000     -10.089492      -274.5490
   8   2.0000     -10.087949      -274.5070
   9   2.0000     -10.086314      -274.4626
  10   2.0000     -10.085590      -274.4429
  11   2.0000     -10.078076      -274.2384
  12   2.0000      -1.049252       -28.5516
  13   2.0000      -1.007727       -27.4217
  14   2.0000      -0.998838       -27.1798
  15   2.0000      -0.994205       -27.0537
  16   2.0000      -0.983376       -26.7590
  17   2.0000      -0.980515       -26.6812
  18   2.0000      -0.744649       -20.2629
  19   2.0000      -0.727555       -19.7978
  20   2.0000      -0.661779       -18.0079
  21   2.0000      -0.618574       -16.8322
  22   2.0000      -0.610051       -16.6003
  23   2.0000      -0.542838       -14.7714
  24   2.0000      -0.517993       -14.0953
  25   2.0000      -0.502222       -13.6662
  26   2.0000      -0.490335       -13.3427
  27   2.0000      -0.487556       -13.2671
  28   2.0000      -0.454822       -12.3763
  29   2.0000      -0.451896       -12.2967
  30   2.0000      -0.440100       -11.9757
  31   2.0000      -0.420454       -11.4411
  32   2.0000      -0.408856       -11.1255
  33   2.0000      -0.402466       -10.9517
  34   2.0000      -0.376754       -10.2520
  35   2.0000      -0.376090       -10.2339
  36   2.0000      -0.355489        -9.6734
  37   2.0000      -0.350611        -9.5406
  38   2.0000      -0.319831        -8.7031
  39   2.0000      -0.317300        -8.6342
  40   2.0000      -0.312551        -8.5049
  41   2.0000      -0.292756        -7.9663
  42   2.0000      -0.284165        -7.7325
  43   2.0000      -0.267075        -7.2675
  44   2.0000      -0.260633        -7.0922
  45   2.0000      -0.249813        -6.7978
  46   2.0000      -0.230951        -6.2845
  47   2.0000      -0.228214        -6.2100
  48   0.0000       0.036368         0.9896
  49   0.0000       0.060033         1.6336
  50   0.0000       0.077603         2.1117
  51   0.0000       0.092719         2.5230
  52   0.0000       0.097399         2.6504

MULLIKEN ATOMIC CHARGES
-----------------------
   0 C :   -0.246471
   1 C :    0.040159
   2 H :    0.181572
   3 C :   -0.125835
   4 H :    0.183544
   5 C :   -0.025756
   6 H :    0.174710
   7 C :   -0.041264
   8 H :    0.177335
   9 C :   -0.077932
  10 H :    0.167293
  11 O :   -0.214743
  12 O :   -0.439445
  13 O :   -0.478599
  14 O :   -0.489820
  15 O :   -0.462872
  16 O :   -0.514945
  17 H :    0.171181
  18 H :    0.163261
  19 H :    0.363390
  20 H :    0.359180
  21 H :    0.394575
  22 H :    0.347389
  23 H :    0.394094
Sum of atomic charges:    0.0000000

LOEWDIN ATOMIC CHARGES
----------------------
   0 C :    0.027851
   1 C :    0.101308
   2 H :    0.215610
   3 C :    0.118801
   4 H :    0.195483
   5 C :    0.116014
   6 H :    0.211966
   7 C :    0.121668
   8 H :    0.210153
   9 C :    0.294756
  10 H :    0.217593
  11 O :   -0.675159
  12 O :   -0.530827
  13 O :   -0.606433
  14 O :   -0.617061
  15 O :   -0.609992
  16 O :   -0.637475
  17 H :    0.195084
  18 H :    0.181026
  19 H :    0.299746
  20 H :    0.292454
  21 H :    0.290211
  22 H :    0.294865
  23 H :    0.292357

  Mayer bond orders larger than 0.100000
B(  0-C ,  1-C ) :   0.9123 B(  0-C , 16-O ) :   0.9738 B(  0-C , 17-H ) :   0.9673
B(  0-C , 18-H ) :   0.9674 B(  1-C ,  2-H ) :   0.9351 B(  1-C ,  3-C ) :   0.8405
B(  1-C , 11-O ) :   0.8871 B(  3-C ,  4-H ) :   0.9716 B(  3-C ,  5-C ) :   0.8420
B(  3-C , 15-O ) :   0.9177 B(  5-C ,  6-H ) :   0.9975 B(  5-C ,  7-C ) :   0.8605
B(  5-C , 14-O ) :   1.0143 B(  7-C ,  8-H ) :   0.9664 B(  7-C ,  9-C ) :   0.9142
B(  7-C , 13-O ) :   0.9426 B(  9-C , 10-H ) :   0.9728 B(  9-C , 11-O ) :   0.9856
B(  9-C , 12-O ) :   0.9403 B( 12-O , 19-H ) :   0.8608 B( 13-O , 20-H ) :   0.8286
B( 14-O , 21-H ) :   0.7624 B( 15-O , 22-H ) :   0.8706 B( 16-O , 23-H ) :   0.7796

Dispersion correction           -0.008825703
FINAL SINGLE POINT ENERGY      -687.106221529594

DIPOLE MOMENT
-------------

Method             : SCF
Type of density    : Electron Density
Multiplicity       :   1
Irrep              :   0
Energy             :  -687.1200055664832007 Eh
Relativity type    :
Basis              : AO
                                X                 Y                 Z
Electronic contribution:      2.084291928      -0.475214080       0.606100380
Nuclear contribution   :     -3.607394232      -0.882389230       0.718427653
                        -----------------------------------------
Total Dipole Moment    :     -1.523102303      -1.357603310       1.324528033
                        -----------------------------------------
Magnitude (a.u.)       :      2.432550489
Magnitude (Debye)      :      6.183051969

Rotational constants in cm-1:             0.039224             0.031269             0.027848
Rotational constants in MHz :          1175.911110           937.406250           834.872274

                             ****ORCA TERMINATED NORMALLY****
TOTAL RUN TIME: 0 days 0 hours 1 minutes 0 seconds 523 msec
