                         Program Version 6.0.0  -   RELEASE  -
|  1> ! r2scan-3c def2/J RI DEFGRID2 scfconv6 printgap
|  2> %output
|  3>     printlevel normal
|  4> end
|  5> * xyz 0 1
|  6> C -2.5408109332 -0.914886309 0.2745857378
|  7> C -1.1182696634 -0.4717461868 0.6215322191
|  8> H -1.0238274712 -0.4080612359 1.7169956226
|  9> C -0.8237182822 0.917952536 0.0386128052
| 10> H -1.0523896077 0.9038716432 -1.0368401718
| 11> C 0.6583599648 1.271381077 0.2144564407
| 12> H 0.8725005467 1.3883505788 1.2895146671
| 13> C 1.532537833 0.1413082363 -0.3303944853
| 14> H 1.3615893475 0.0490028197 -1.4144696143
| 15> C 1.1225334127 -1.1793332191 0.3508561673
| 16> H 1.3281948033 -1.0941730109 1.4334718913
| 17> O -0.2332995989 -1.4536466034 0.1212993733
| 18> O 1.8686383496 -2.2460049956 -0.1209042297
| 19> O 2.8776329278 0.4536118518 -0.0660187193
| 20> O 0.8888419867 2.4864568225 -0.4559004775
| 21> O -1.6443150895 1.8387546088 0.7103277018
| 22> O -2.7047524215 -0.8988896818 -1.1237239425
| 23> H -3.2305750047 -0.2157139538 0.7608131833
| 24> H -2.6857007693 -1.9260542048 0.6716786911
| 25> H 1.4210456486 -2.6198673016 -0.8968041636
| 26> H 3.4209657533 -0.3326940166 -0.2284399551
| 27> H 1.8396845653 2.6705545891 -0.440343614
| 28> H -1.4281144186 2.7259586362 0.3848354459
| 29> H -3.5994739558 -1.1986494067 -1.3380298047
| 30> *
| 31>
| 32>                          ****END OF INPUT****

CARTESIAN COORDINATES (ANGSTROEM)
---------------------------------
  C     -2.540811   -0.914886    0.274586
  C     -1.118270   -0.471746    0.621532
  H     -1.023827   -0.408061    1.716996
  C     -0.823718    0.917953    0.038613
  H     -1.052390    0.903872   -1.036840
  C      0.658360    1.271381    0.214456
  H      0.872501    1.388351    1.289515
  C      1.532538    0.141308   -0.330394
  H      1.361589    0.049003   -1.414470
  C      1.122533   -1.179333    0.350856
  H      1.328195   -1.094173    1.433472
  O     -0.233300   -1.453647    0.121299
  O      1.868638   -2.246005   -0.120904
  O      2.877633    0.453612   -0.066019
  O      0.888842    2.486457   -0.455900
  O     -1.644315    1.838755    0.710328
  O     -2.704752   -0.898890   -1.123724
  H     -3.230575   -0.215714    0.760813
  H     -2.685701   -1.926054    0.671679
  H      1.421046   -2.619867   -0.896804
  H      3.420966   -0.332694   -0.228440
  H      1.839685    2.670555   -0.440344
  H     -1.428114    2.725959    0.384835
  H     -3.599474   -1.198649   -1.338030

 Total Charge           Charge          ....    0
 Multiplicity           Mult            ....    1
 Number of Electrons    NEL             ....   96
 Basis Dimension        Dim             ....  318

ORBITAL ENERGIES
----------------

  NO   OCC          E(Eh)            E(eV)
   0   2.0000     -18.973455      -516.2940
   1   2.0000     -18.972299      -516.2625
   2   2.0000     -18.963419      -516.0209
   3   2.0000     -18.958611      -515.8900
   4   2.0000     -18.955260      -515.7988
   5   2.0000     -18.954800      -515.7863
   6   2.0000     -10.140856      -275.9467
   7   2.0000     -10.096878      -274.7500
   8   2.0000     -10.087841      -274.5041
   9   2.0000     -10.086984      -274.4808
  10   2.0000     -10.085400      -274.4377
  11   2.0000     -10.082766      -274.3660
  12   2.0000      -1.056821       -28.7576
  13   2.0000      -1.012140       -27.5417
  14   2.0000      -1.004317       -27.3288
  15   2.0000      -0.992797       -27.0154
  16   2.0000      -0.983806       -26.7707
  17   2.0000      -0.982170       -26.7262
  18   2.0000      -0.751665       -20.4539
  19   2.0000      -0.739431       -20.1209
  20   2.0000      -0.656721       -17.8703
  21   2.0000      -0.619102       -16.8466
  22   2.0000      -0.588374       -16.0105
  23   2.0000      -0.561571       -15.2811
  24   2.0000      -0.529660       -14.4128
  25   2.0000      -0.510515       -13.8918
  26   2.0000      -0.498804       -13.5731
  27   2.0000      -0.471179       -12.8214
  28   2.0000      -0.469411       -12.7733
  29   2.0000      -0.458108       -12.4658
  30   2.0000      -0.435825       -11.8594
  31   2.0000      -0.429623       -11.6906
  32   2.0000      -0.415259       -11.2998
  33   2.0000      -0.396228       -10.7819
  34   2.0000      -0.374660       -10.1950
  35   2.0000      -0.368973       -10.0403
  36   2.0000      -0.351735        -9.5712
  37   2.0000      -0.348471        -9.4824
  38   2.0000      -0.329434        -8.9643
  39   2.0000      -0.324943        -8.8422
  40   2.0000      -0.311022        -8.4633
  41   2.0000      -0.289573        -7.8797
  42   2.0000      -0.280702        -7.6383
  43   2.0000      -0.262126        -7.1328
  44   2.0000      -0.249142        -6.7795
  45   2.0000      -0.245826        -6.6893
  46   2.0000      -0.237390        -6.4597
  47   2.0000      -0.224575        -6.1110
  48   0.0000       0.034585         0.9411
  49   0.0000       0.053475         1.4551
  50   0.0000       0.055902         1.5212
  51   0.0000       0.081619         2.2210
  52   0.0000       0.090108         2.4520

MULLIKEN ATOMIC CHARGES
-----------------------
   0 C :   -0.182129
   1 C :   -0.062962
   2 H :    0.167440
   3 C :   -0.040426
   4 H :    0.196452
   5 C :   -0.034420
   6 H :    0.168706
   7 C :    0.122415
   8 H :    0.164249
   9 C :   -0.161010
  10 H :    0.155263
  11 O :   -0.189034
  12 O :   -0.388603
  13 O :   -0.443094
  14 O :   -0.444648
  15 O :   -0.440423
  16 O :   -0.424428
  17 H :    0.143464
  18 H :    0.130324
  19 H :    0.328865
  20 H :    0.310123
  21 H :    0.314534
  22 H :    0.312755
  23 H :    0.296587
Sum of atomic charges:   -0.0000000

LOEWDIN ATOMIC CHARGES
----------------------
   0 C :    0.046338
   1 C :    0.129581
   2 H :    0.190097
   3 C :    0.115649
   4 H :    0.198757
   5 C :    0.106842
   6 H :    0.184716
   7 C :    0.106228
   8 H :    0.183264
   9 C :    0.294297
  10 H :    0.192563
  11 O :   -0.666631
  12 O :   -0.498114
  13 O :   -0.579227
  14 O :   -0.576119
  15 O :   -0.575736
  16 O :   -0.606720
  17 H :    0.177547
  18 H :    0.168662
  19 H :    0.286705
  20 H :    0.283270
  21 H :    0.283152
  22 H :    0.283540
  23 H :    0.271342

  Mayer bond orders larger than 0.100000
B(  0-C ,  1-C ) :   1.0257 B(  0-C , 16-O ) :   1.0029 B(  0-C , 17-H ) :   0.9544
B(  0-C , 18-H ) :   0.9634 B(  1-C ,  2-H ) :   0.9342 B(  1-C ,  3-C ) :   0.8743
B(  1-C , 11-O ) :   0.7895 B(  3-C ,  4-H ) :   0.9927 B(  3-C ,  5-C ) :   0.8296
B(  3-C , 15-O ) :   0.8631 B(  5-C ,  6-H ) :   0.9873 B(  5-C ,  7-C ) :   0.8640
B(  5-C , 14-O ) :   0.8996 B(  7-C ,  8-H ) :   0.9481 B(  7-C ,  9-C ) :   0.7500
B(  7-C , 13-O ) :   0.8982 B(  9-C , 10-H ) :   1.0129 B(  9-C , 11-O ) :   0.9798
B(  9-C , 12-O ) :   1.0892 B( 12-O , 19-H ) :   0.8674 B( 13-O , 20-H ) :   0.8760
B( 14-O , 21-H ) :   0.8787 B( 15-O , 22-H ) :   0.8808 B( 16-O , 23-H ) :   0.8996

Dispersion correction           -0.008000529
FINAL SINGLE POINT ENERGY      -687.076006057544

DIPOLE MOMENT
-------------

Method             : SCF
Type of density    : Electron Density
Multiplicity       :   1
Irrep              :   0
Energy             :  -687.0873727569519360 Eh
Relativity type    :
Basis              : AO
                                X                 Y                 Z
Electronic contribution:      2.322353526      -0.267802248      -0.959333476
Nuclear contribution   :     -2.588858694      -0.051250413       0.832737626
                        -----------------------------------------
Total Dipole Moment    :     -0.266505167      -0.319052661      -0.126595850
                        -----------------------------------------
Magnitude (a.u.)       :      0.434564281
Magnitude (Debye)      :      1.104574619

Rotational constants in cm-1:             0.039376             0.027042             0.017882
Rotational constants in MHz :          1180.459965           810.697673           536.092405

                             ****ORCA TERMINATED NORMALLY****
TOTAL RUN TIME: 0 days 0 hours 0 minutes 48 seconds 204 msec
