                         Program Version 6.0.0  -   RELEASE  -
|  1> ! r2scan-3c def2/J RI DEFGRID2 scfconv6 printgap
|  2> %output
|  3>     printlevel normal
|  4> end
|  5> %cpcm
|  6>     smd true
|  7>     smdsolvent "water"
|  8> end
|  9> * xyz 0 1
| 10> C -2.5408109332 -0.914886309 0.2745857378
| 11> C -1.1182696634 -0.4717461868 0.6215322191
| 12> H -1.0238274712 -0.4080612359 1.7169956226
| 13> C -0.8237182822 0.917952536 0.0386128052
| 14> H -1.0523896077 0.9038716432 -1.0368401718
| 15> C 0.6583599648 1.271381077 0.2144564407
| 16> H 0.8725005467 1.3883505788 1.2895146671
| 17> C 1.532537833 0.1413082363 -0.3303944853
| 18> H 1.3615893475 0.0490028197 -1.4144696143
| 19> C 1.1225334127 -1.1793332191 0.3508561673
| 20> H 1.3281948033 -1.0941730109 1.4334718913
| 21> O -0.2332995989 -1.4536466034 0.1212993733
| 22> O 1.8686383496 -2.2460049956 -0.1209042297
| 23> O 2.8776329278 0.4536118518 -0.0660187193
| 24> O 0.8888419867 2.4864568225 -0.4559004775
| 25> O -1.6443150895 1.8387546088 0.7103277018
| 26> O -2.7047524215 -0.8988896818 -1.1237239425
| 27> H -3.2305750047 -0.2157139538 0.7608131833
| 28> H -2.6857007693 -1.9260542048 0.6716786911
| 29> H 1.4210456486 -2.6198673016 -0.8968041636
| 30> H 3.4209657533 -0.3326940166 -0.2284399551
| 31> H 1.8396845653 2.6705545891 -0.440343614
| 32> H -1.4281144186 2.7259586362 0.3848354459
| 33> H -3.5994739558 -1.1986494067 -1.3380298047
| 34> *
| 35>
| 36>                          ****END OF INPUT****

CARTESIAN COORDINATES (ANGSTROEM)
---------------------------------
  C     -2.540811   -0.914886    0.274586
  C     -1.118270   -0.471746    0.621532
  H     -1.023827   -0.408061    1.716996
  C     -0.823718    0.917953    0.038613
  H     -1.052390    0.903872   -1.036840
  C      0.658360    1.271381    0.214456
  H      0.872501    1.388351    1.289515
  C      1.532538    0.141308   -0.330394
  H      1.361589    0.049003   -1.414470
  C      1.122533   -1.179333    0.350856
  H      1.328195   -1.094173    1.433472
  O     -0.233300   -1.453647    0.121299
  O      1.868638   -2.246005   -0.120904
  O      2.877633    0.453612   -0.066019
  O      0.888842    2.486457   -0.455900
  O     -1.644315    1.838755    0.710328
  O     -2.704752   -0.898890   -1.123724
  H     -3.230575   -0.215714    0.760813
  H     -2.685701   -1.926054    0.671679
  H      1.421046   -2.619867   -0.896804
  H      3.420966   -0.332694   -0.228440
  H      1.839685    2.670555   -0.440344
  H     -1.428114    2.725959    0.384835
  H     -3.599474   -1.198649   -1.338030

 Total Charge           Charge          ....    0
 Multiplicity           Mult            ....    1
 Number of Electrons    NEL             ....   96
 Basis Dimension        Dim             ....  318

ORBITAL ENERGIES
----------------

  NO   OCC          E(Eh)            E(eV)
   0   2.0000     -18.976815      -516.3854
   1   2.0000     -18.969134      -516.1764
   2   2.0000     -18.962544      -515.9971
   3   2.0000     -18.961175      -515.9598
   4   2.0000     -18.960375      -515.9380
   5   2.0000     -18.955998      -515.8189
   6   2.0000     -10.136952      -275.8405
   7   2.0000     -10.093072      -274.6464
   8   2.0000     -10.086747      -274.4743
   9   2.0000     -10.085791      -274.4483
  10   2.0000     -10.083436      -274.3843
  11   2.0000     -10.077621      -274.2260
  12   2.0000      -1.056549       -28.7501
  13   2.0000      -1.013738       -27.5852
  14   2.0000      -1.005054       -27.3489
  15   2.0000      -0.993190       -27.0261
  16   2.0000      -0.986239       -26.8369
  17   2.0000      -0.981620       -26.7112
  18   2.0000      -0.750881       -20.4325
  19   2.0000      -0.736603       -20.0440
  20   2.0000      -0.653610       -17.7856
  21   2.0000      -0.617171       -16.7941
  22   2.0000      -0.586067       -15.9477
  23   2.0000      -0.559079       -15.2133
  24   2.0000      -0.528385       -14.3781
  25   2.0000      -0.508067       -13.8252
  26   2.0000      -0.495585       -13.4855
  27   2.0000      -0.471094       -12.8191
  28   2.0000      -0.467138       -12.7115
  29   2.0000      -0.455567       -12.3966
  30   2.0000      -0.434537       -11.8244
  31   2.0000      -0.429575       -11.6893
  32   2.0000      -0.414711       -11.2849
  33   2.0000      -0.396342       -10.7850
  34   2.0000      -0.376836       -10.2542
  35   2.0000      -0.369282       -10.0487
  36   2.0000      -0.354128        -9.6363
  37   2.0000      -0.348819        -9.4918
  38   2.0000      -0.334078        -9.0907
  39   2.0000      -0.329258        -8.9596
  40   2.0000      -0.313639        -8.5345
  41   2.0000      -0.290220        -7.8973
  42   2.0000      -0.282459        -7.6861
  43   2.0000      -0.264146        -7.1878
  44   2.0000      -0.253085        -6.8868
  45   2.0000      -0.248330        -6.7574
  46   2.0000      -0.242010        -6.5854
  47   2.0000      -0.225609        -6.1391
  48   0.0000       0.041812         1.1378
  49   0.0000       0.063770         1.7353
  50   0.0000       0.070666         1.9229
  51   0.0000       0.090622         2.4660
  52   0.0000       0.101713         2.7678

MULLIKEN ATOMIC CHARGES
-----------------------
   0 C :   -0.191795
   1 C :   -0.050012
   2 H :    0.196009
   3 C :   -0.043253
   4 H :    0.194663
   5 C :   -0.010617
   6 H :    0.183085
   7 C :    0.077785
   8 H :    0.185389
   9 C :   -0.129097
  10 H :    0.176957
  11 O :   -0.239116
  12 O :   -0.438583
  13 O :   -0.497579
  14 O :   -0.499890
  15 O :   -0.500468
  16 O :   -0.500384
  17 H :    0.154742
  18 H :    0.154547
  19 H :    0.374226
  20 H :    0.348664
  21 H :    0.352483
  22 H :    0.351573
  23 H :    0.350669
Sum of atomic charges:   -0.0000000

LOEWDIN ATOMIC CHARGES
----------------------
   0 C :    0.049739
   1 C :    0.127594
   2 H :    0.201549
   3 C :    0.113441
   4 H :    0.197954
   5 C :    0.108111
   6 H :    0.192766
   7 C :    0.109525
   8 H :    0.191039
   9 C :    0.296371
  10 H :    0.202994
  11 O :   -0.687630
  12 O :   -0.514056
  13 O :   -0.596000
  14 O :   -0.597265
  15 O :   -0.599818
  16 O :   -0.637589
  17 H :    0.182273
  18 H :    0.178325
  19 H :    0.301871
  20 H :    0.296066
  21 H :    0.295430
  22 H :    0.296332
  23 H :    0.290976

  Mayer bond orders larger than 0.100000
B(  0-C ,  1-C ) :   0.9911 B(  0-C , 16-O ) :   0.9806 B(  0-C , 17-H ) :   0.9573
B(  0-C , 18-H ) :   0.9648 B(  1-C ,  2-H ) :   0.9271 B(  1-C ,  3-C ) :   0.8843
B(  1-C , 11-O ) :   0.7982 B(  3-C ,  4-H ) :   0.9830 B(  3-C ,  5-C ) :   0.8571
B(  3-C , 15-O ) :   0.8422 B(  5-C ,  6-H ) :   0.9651 B(  5-C ,  7-C ) :   0.8834
B(  5-C , 14-O ) :   0.8849 B(  7-C ,  8-H ) :   0.9537 B(  7-C ,  9-C ) :   0.7789
B(  7-C , 13-O ) :   0.8861 B(  9-C , 10-H ) :   0.9951 B(  9-C , 11-O ) :   0.9631
B(  9-C , 12-O ) :   1.0853 B( 12-O , 19-H ) :   0.8408 B( 13-O , 20-H ) :   0.8585
B( 14-O , 21-H ) :   0.8600 B( 15-O , 22-H ) :   0.8618 B( 16-O , 23-H ) :   0.8725

Dispersion correction           -0.008000529
FINAL SINGLE POINT ENERGY      -687.108240855677

DIPOLE MOMENT
-------------

Method             : SCF
Type of density    : Electron Density
Multiplicity       :   1
Irrep              :   0
Energy             :  -687.1196075550842579 Eh
Relativity type    :
Basis              : AO
                                X                 Y                 Z
Electronic contribution:      2.317144800      -0.376449890      -0.871456986
Nuclear contribution   :     -2.588858694      -0.051250413       0.832737626
                        -----------------------------------------
Total Dipole Moment    :     -0.271713894      -0.427700303      -0.038719361
                        -----------------------------------------
Magnitude (a.u.)       :      0.508188133
Magnitude (Debye)      :      1.291711580

Rotational constants in cm-1:             0.039376             0.027042             0.017882
Rotational constants in MHz :          1180.459965           810.697673           536.092405

                             ****ORCA TERMINATED NORMALLY****
TOTAL RUN TIME: 0 days 0 hours 0 minutes 57 seconds 327 msec
