                         Program Version 6.0.0  -   RELEASE  -
|  1> ! pbe def2-sv(p) def2/J RI DEFGRID1 loosescf d4 GCP(DFT/SV(P)) printgap
|  2> %output
|  3>     printlevel normal
|  4> end
|  5> * xyz 0 1
|  6> C -2.7131624308 0.8922649893 0.1122825734
|  7> C -1.6567401491 -0.1673162712 -0.0200536312
|  8> O -1.8391923919 -1.1808319693 -0.6655972123
|  9> C -0.3463496866 0.1313053582 0.6831389284
| 10> C 0.3448072129 1.2987714299 -0.0558724122
| 11> C 1.8464328306 1.2643637437 0.2057600595
| 12> C 2.4788555994 0.0275146254 -0.4427145947
| 13> C 1.4973418238 -1.150232853 -0.4675919412
| 14> C 0.566619243 -1.1027960783 0.7389516973
| 15> H -3.6421810914 0.5473047988 -0.3332497955
| 16> H -2.8697920392 1.1373889611 1.1586974676
| 17> H -2.3846645677 1.793298867 -0.3997530177
| 18> H -0.5796485902 0.4523501442 1.7020016671
| 19> H 0.1696175192 1.2145607284 -1.1305461681
| 20> H -0.0726594202 2.2466795403 0.282789694
| 21> H 2.3107883697 2.1683546656 -0.1901585315
| 22> H 2.0153021705 1.251111824 1.2834683419
| 23> H 2.7851351156 0.2582194978 -1.4644027911
| 24> H 3.3758619328 -0.2502761454 0.1127693587
| 25> H 0.8889902317 -1.1229834177 -1.3737337767
| 26> H 2.0468304268 -2.0926122117 -0.4756413642
| 27> H -0.0550948206 -2.0005592597 0.7561523164
| 28> H 1.1609597336 -1.0855534834 1.653167248
| 29> *
| 30>
| 31>                          ****END OF INPUT****

CARTESIAN COORDINATES (ANGSTROEM)
---------------------------------
  C     -2.713162    0.892265    0.112283
  C     -1.656740   -0.167316   -0.020054
  O     -1.839192   -1.180832   -0.665597
  C     -0.346350    0.131305    0.683139
  C      0.344807    1.298771   -0.055872
  C      1.846433    1.264364    0.205760
  C      2.478856    0.027515   -0.442715
  C      1.497342   -1.150233   -0.467592
  C      0.566619   -1.102796    0.738952
  H     -3.642181    0.547305   -0.333250
  H     -2.869792    1.137389    1.158697
  H     -2.384665    1.793299   -0.399753
  H     -0.579649    0.452350    1.702002
  H      0.169618    1.214561   -1.130546
  H     -0.072659    2.246680    0.282790
  H      2.310788    2.168355   -0.190159
  H      2.015302    1.251112    1.283468
  H      2.785135    0.258219   -1.464403
  H      3.375862   -0.250276    0.112769
  H      0.888990   -1.122983   -1.373734
  H      2.046830   -2.092612   -0.475641
  H     -0.055095   -2.000559    0.756152
  H      1.160960   -1.085553    1.653167

 Total Charge           Charge          ....    0
 Multiplicity           Mult            ....    1
 Number of Electrons    NEL             ....   70
 Basis Dimension        Dim             ....  154

ORBITAL ENERGIES
----------------

  NO   OCC          E(Eh)            E(eV)
   0   2.0000     -18.736985      -509.8593
   1   2.0000      -9.971045      -271.3259
   2   2.0000      -9.899794      -269.3871
   3   2.0000      -9.896934      -269.3093
   4   2.0000      -9.887334      -269.0480
   5   2.0000      -9.885689      -269.0033
   6   2.0000      -9.881226      -268.8818
   7   2.0000      -9.878728      -268.8139
   8   2.0000      -9.876804      -268.7615
   9   2.0000      -0.934643       -25.4329
  10   2.0000      -0.761233       -20.7142
  11   2.0000      -0.693185       -18.8625
  12   2.0000      -0.665698       -18.1146
  13   2.0000      -0.652919       -17.7668
  14   2.0000      -0.560146       -15.2424
  15   2.0000      -0.555529       -15.1167
  16   2.0000      -0.482490       -13.1292
  17   2.0000      -0.459177       -12.4948
  18   2.0000      -0.444304       -12.0901
  19   2.0000      -0.433690       -11.8013
  20   2.0000      -0.413108       -11.2413
  21   2.0000      -0.391603       -10.6561
  22   2.0000      -0.381083       -10.3698
  23   2.0000      -0.363220        -9.8837
  24   2.0000      -0.354723        -9.6525
  25   2.0000      -0.339124        -9.2280
  26   2.0000      -0.333159        -9.0657
  27   2.0000      -0.324635        -8.8338
  28   2.0000      -0.323769        -8.8102
  29   2.0000      -0.318990        -8.6802
  30   2.0000      -0.303035        -8.2460
  31   2.0000      -0.270527        -7.3614
  32   2.0000      -0.265117        -7.2142
  33   2.0000      -0.261349        -7.1117
  34   2.0000      -0.193898        -5.2762
  35   0.0000      -0.047095        -1.2815
  36   0.0000       0.022830         0.6212
  37   0.0000       0.047883         1.3030
  38   0.0000       0.049781         1.3546
  39   0.0000       0.082261         2.2384

MULLIKEN ATOMIC CHARGES
-----------------------
   0 C :   -0.243480
   1 C :    0.003068
   2 O :   -0.165628
   3 C :   -0.182531
   4 C :   -0.161738
   5 C :   -0.128471
   6 C :   -0.163111
   7 C :   -0.163498
   8 C :   -0.088083
   9 H :    0.116957
  10 H :    0.116572
  11 H :    0.131694
  12 H :    0.078770
  13 H :    0.091320
  14 H :    0.092354
  15 H :    0.087621
  16 H :    0.076464
  17 H :    0.082424
  18 H :    0.081882
  19 H :    0.086916
  20 H :    0.086883
  21 H :    0.092982
  22 H :    0.070634
Sum of atomic charges:   -0.0000000

LOEWDIN ATOMIC CHARGES
----------------------
   0 C :   -0.361411
   1 C :    0.050804
   2 O :   -0.129673
   3 C :   -0.170875
   4 C :   -0.212414
   5 C :   -0.226425
   6 C :   -0.229968
   7 C :   -0.228936
   8 C :   -0.219956
   9 H :    0.134366
  10 H :    0.137804
  11 H :    0.144064
  12 H :    0.126966
  13 H :    0.120409
  14 H :    0.118893
  15 H :    0.119516
  16 H :    0.116139
  17 H :    0.116587
  18 H :    0.116280
  19 H :    0.118157
  20 H :    0.119605
  21 H :    0.125524
  22 H :    0.114544

  Mayer bond orders larger than 0.100000
B(  0-C ,  1-C ) :   1.0736 B(  0-C ,  9-H ) :   0.9330 B(  0-C , 10-H ) :   0.9280
B(  0-C , 11-H ) :   0.9219 B(  1-C ,  2-O ) :   2.1861 B(  1-C ,  3-C ) :   0.9221
B(  3-C ,  4-C ) :   1.0752 B(  3-C ,  8-C ) :   1.1032 B(  3-C , 12-H ) :   0.8737
B(  4-C ,  5-C ) :   1.1842 B(  4-C , 13-H ) :   0.9035 B(  4-C , 14-H ) :   0.9109
B(  5-C ,  6-C ) :   1.1437 B(  5-C , 15-H ) :   0.9203 B(  5-C , 16-H ) :   0.9044
B(  6-C ,  7-C ) :   1.1401 B(  6-C , 17-H ) :   0.9221 B(  6-C , 18-H ) :   0.9221
B(  7-C ,  8-C ) :   1.1816 B(  7-C , 19-H ) :   0.9065 B(  7-C , 20-H ) :   0.9213
B(  8-C , 21-H ) :   0.9008 B(  8-C , 22-H ) :   0.9031

Dispersion correction           -0.022273327
FINAL SINGLE POINT ENERGY      -387.601459075504

DIPOLE MOMENT
-------------

Method             : SCF
Type of density    : Electron Density
Multiplicity       :   1
Irrep              :   0
Energy             :  -387.6792577708302474 Eh
Relativity type    :
Basis              : AO
                                X                 Y                 Z
Electronic contribution:     -4.570699105      -3.360327362      -1.002820947
Nuclear contribution   :      4.803757157       4.220449835       1.473894967
                        -----------------------------------------
Total Dipole Moment    :      0.233058052       0.860122472       0.471074020
                        -----------------------------------------
Magnitude (a.u.)       :      1.007986833
Magnitude (Debye)      :      2.562098916

Rotational constants in cm-1:             0.098351             0.039666             0.032393
Rotational constants in MHz :          2948.488758          1189.143062           971.126876

                             ****ORCA TERMINATED NORMALLY****
TOTAL RUN TIME: 0 days 0 hours 0 minutes 10 seconds 298 msec
