                         Program Version 6.0.0  -   RELEASE  -
|  1> ! pbe def2-sv(p) def2/J RI DEFGRID1 loosescf d4 GCP(DFT/SV(P)) printgap
|  2> %output
|  3>     printlevel normal
|  4> end
|  5> * xyz 0 1
|  6> C -3.6960384295 -0.0414089587 0.119914432
|  7> C -2.2266656546 -0.0211509215 -0.2902044388
|  8> H -2.1492799738 0.3863408341 -1.3046694053
|  9> C -1.623344951 -1.423944459 -0.2782142782
| 10> C -0.1501035647 -1.3793808017 -0.6648264474
| 11> C 0.6520038995 -0.5033307179 0.314857421
| 12> H 0.4711309369 -0.8951114576 1.3229020403
| 13> C 0.0395618255 0.8781841874 0.2815415722
| 14> O 0.6251579954 1.8959782385 -0.0308531409
| 15> C -1.4214636352 0.8876258331 0.6521252737
| 16> C 2.1705822195 -0.5699285096 0.0662721196
| 17> C 2.583866957 -0.0523309538 -1.3104093589
| 18> C 2.9222485346 0.1844087297 1.163311182
| 19> H -4.1111677705 0.9630479261 0.1057301328
| 20> H -4.2697831144 -0.6601557822 -0.5652020071
| 21> H -3.8046557254 -0.4454617391 1.1235901385
| 22> H -1.7316051374 -1.8579609561 0.7178383646
| 23> H -2.1644431849 -2.0584348067 -0.9819699717
| 24> H 0.2718266493 -2.3854686355 -0.6618936441
| 25> H -0.0551729861 -0.9751914738 -1.6740449423
| 26> H -1.5281597324 0.5217854817 1.6748412214
| 27> H -1.7929452368 1.9127684818 0.6047021078
| 28> H 2.4527268147 -1.6286041028 0.1285340405
| 29> H 3.6657031194 -0.0986802081 -1.4100331879
| 30> H 2.2730374038 0.9812595407 -1.4360346663
| 31> H 2.1455867077 -0.6511014988 -2.1042640233
| 32> H 2.6543243388 -0.1947374795 2.1472627147
| 33> H 2.683828735 1.2444601902 1.122875431
| 34> H 3.9952230099 0.0698581059 1.0317088321
| 35> *
| 36>
| 37>                          ****END OF INPUT****

CARTESIAN COORDINATES (ANGSTROEM)
---------------------------------
  C     -3.696038   -0.041409    0.119914
  C     -2.226666   -0.021151   -0.290204
  H     -2.149280    0.386341   -1.304669
  C     -1.623345   -1.423944   -0.278214
  C     -0.150104   -1.379381   -0.664826
  C      0.652004   -0.503331    0.314857
  H      0.471131   -0.895111    1.322902
  C      0.039562    0.878184    0.281542
  O      0.625158    1.895978   -0.030853
  C     -1.421464    0.887626    0.652125
  C      2.170582   -0.569929    0.066272
  C      2.583867   -0.052331   -1.310409
  C      2.922249    0.184409    1.163311
  H     -4.111168    0.963048    0.105730
  H     -4.269783   -0.660156   -0.565202
  H     -3.804656   -0.445462    1.123590
  H     -1.731605   -1.857961    0.717838
  H     -2.164443   -2.058435   -0.981970
  H      0.271827   -2.385469   -0.661894
  H     -0.055173   -0.975191   -1.674045
  H     -1.528160    0.521785    1.674841
  H     -1.792945    1.912768    0.604702
  H      2.452727   -1.628604    0.128534
  H      3.665703   -0.098680   -1.410033
  H      2.273037    0.981260   -1.436035
  H      2.145587   -0.651101   -2.104264
  H      2.654324   -0.194737    2.147263
  H      2.683829    1.244460    1.122875
  H      3.995223    0.069858    1.031709

 Total Charge           Charge          ....    0
 Multiplicity           Mult            ....    1
 Number of Electrons    NEL             ....   86
 Basis Dimension        Dim             ....  190

ORBITAL ENERGIES
----------------

  NO   OCC          E(Eh)            E(eV)
   0   2.0000     -18.735673      -509.8236
   1   2.0000      -9.970332      -271.3065
   2   2.0000      -9.909619      -269.6544
   3   2.0000      -9.899927      -269.3907
   4   2.0000      -9.896187      -269.2889
   5   2.0000      -9.893464      -269.2148
   6   2.0000      -9.892510      -269.1889
   7   2.0000      -9.889232      -269.0997
   8   2.0000      -9.880869      -268.8721
   9   2.0000      -9.862750      -268.3791
  10   2.0000      -9.861415      -268.3427
  11   2.0000      -0.934833       -25.4381
  12   2.0000      -0.770380       -20.9631
  13   2.0000      -0.727684       -19.8013
  14   2.0000      -0.678415       -18.4606
  15   2.0000      -0.657599       -17.8942
  16   2.0000      -0.612094       -16.6559
  17   2.0000      -0.602879       -16.4052
  18   2.0000      -0.548244       -14.9185
  19   2.0000      -0.524078       -14.2609
  20   2.0000      -0.511214       -13.9108
  21   2.0000      -0.464347       -12.6355
  22   2.0000      -0.433043       -11.7837
  23   2.0000      -0.428750       -11.6669
  24   2.0000      -0.402720       -10.9586
  25   2.0000      -0.396223       -10.7818
  26   2.0000      -0.388476       -10.5710
  27   2.0000      -0.378667       -10.3041
  28   2.0000      -0.370108       -10.0711
  29   2.0000      -0.358071        -9.7436
  30   2.0000      -0.351875        -9.5750
  31   2.0000      -0.344739        -9.3808
  32   2.0000      -0.330239        -8.9863
  33   2.0000      -0.329341        -8.9618
  34   2.0000      -0.318434        -8.6650
  35   2.0000      -0.310421        -8.4470
  36   2.0000      -0.305656        -8.3173
  37   2.0000      -0.294665        -8.0182
  38   2.0000      -0.284973        -7.7545
  39   2.0000      -0.282223        -7.6797
  40   2.0000      -0.276013        -7.5107
  41   2.0000      -0.267408        -7.2765
  42   2.0000      -0.187693        -5.1074
  43   0.0000      -0.052222        -1.4210
  44   0.0000       0.032668         0.8889
  45   0.0000       0.037259         1.0139
  46   0.0000       0.045750         1.2449
  47   0.0000       0.066306         1.8043

MULLIKEN ATOMIC CHARGES
-----------------------
   0 C :   -0.195022
   1 C :   -0.236543
   2 H :    0.078475
   3 C :   -0.105995
   4 C :   -0.100129
   5 C :   -0.171568
   6 H :    0.076471
   7 C :    0.007965
   8 O :   -0.156398
   9 C :   -0.053441
  10 C :   -0.098096
  11 C :   -0.272657
  12 C :   -0.249423
  13 H :    0.103343
  14 H :    0.100911
  15 H :    0.092483
  16 H :    0.071369
  17 H :    0.086056
  18 H :    0.088755
  19 H :    0.089753
  20 H :    0.085534
  21 H :    0.085292
  22 H :    0.058655
  23 H :    0.092857
  24 H :    0.122558
  25 H :    0.098211
  26 H :    0.086284
  27 H :    0.119384
  28 H :    0.094913
Sum of atomic charges:   -0.0000000

LOEWDIN ATOMIC CHARGES
----------------------
   0 C :   -0.326991
   1 C :   -0.145250
   2 H :    0.120229
   3 C :   -0.217442
   4 C :   -0.206918
   5 C :   -0.160559
   6 H :    0.130323
   7 C :    0.060674
   8 O :   -0.122322
   9 C :   -0.233580
  10 C :   -0.141731
  11 C :   -0.340167
  12 C :   -0.335291
  13 H :    0.121067
  14 H :    0.120144
  15 H :    0.117895
  16 H :    0.115107
  17 H :    0.120282
  18 H :    0.121442
  19 H :    0.121826
  20 H :    0.131560
  21 H :    0.127211
  22 H :    0.112591
  23 H :    0.117538
  24 H :    0.126343
  25 H :    0.112615
  26 H :    0.111467
  27 H :    0.125179
  28 H :    0.116761

  Mayer bond orders larger than 0.100000
B(  0-C ,  1-C ) :   1.1140 B(  0-C , 13-H ) :   0.9474 B(  0-C , 14-H ) :   0.9471
B(  0-C , 15-H ) :   0.9452 B(  1-C ,  2-H ) :   0.8931 B(  1-C ,  3-C ) :   1.0887
B(  1-C ,  9-C ) :   1.0783 B(  3-C ,  4-C ) :   1.1363 B(  3-C , 16-H ) :   0.9054
B(  3-C , 17-H ) :   0.9094 B(  4-C ,  5-C ) :   1.0835 B(  4-C , 18-H ) :   0.9091
B(  4-C , 19-H ) :   0.8932 B(  5-C ,  6-H ) :   0.8630 B(  5-C ,  7-C ) :   0.9298
B(  5-C , 10-C ) :   1.0304 B(  7-C ,  8-O ) :   2.1597 B(  7-C ,  9-C ) :   1.0461
B(  9-C , 20-H ) :   0.8797 B(  9-C , 21-H ) :   0.8915 B( 10-C , 11-C ) :   1.1004
B( 10-C , 12-C ) :   1.1123 B( 10-C , 22-H ) :   0.8951 B( 11-C , 23-H ) :   0.9464
B( 11-C , 24-H ) :   0.9381 B( 11-C , 25-H ) :   0.9446 B( 12-C , 26-H ) :   0.9481
B( 12-C , 27-H ) :   0.9403 B( 12-C , 28-H ) :   0.9487

Dispersion correction           -0.030036993
FINAL SINGLE POINT ENERGY      -466.035966605377

DIPOLE MOMENT
-------------

Method             : SCF
Type of density    : Electron Density
Multiplicity       :   1
Irrep              :   0
Energy             :  -466.1330521521397259 Eh
Relativity type    :
Basis              : AO
                                X                 Y                 Z
Electronic contribution:      0.299318302       4.519816705       0.293888692
Nuclear contribution   :     -0.923099376      -5.386393192      -0.148806773
                        -----------------------------------------
Total Dipole Moment    :     -0.623781074      -0.866576487       0.145081919
                        -----------------------------------------
Magnitude (a.u.)       :      1.077546472
Magnitude (Debye)      :      2.738905467

Rotational constants in cm-1:             0.071286             0.023119             0.020378
Rotational constants in MHz :          2137.113415           693.077793           610.916081

                             ****ORCA TERMINATED NORMALLY****
TOTAL RUN TIME: 0 days 0 hours 0 minutes 13 seconds 513 msec
