                         Program Version 6.0.0  -   RELEASE  -
|  1> ! wb97x-v def2-tzvp def2/J RIJCOSX DEFGRID2 scfconv7 GCP(DFT/TZ) printgap
|  2> %output
|  3>     printlevel normal
|  4> end
|  5> * xyz 0 1
|  6> C -0.5251342407733389 1.4361195265063365 0.00010351783867231374
|  7> N -0.4079419212999041 -0.016116970630202405 -9.393643482438137e-05
|  8> C -1.6559831628762367 -0.7694562906232253 -0.00028305479867904643
|  9> C 0.7791374346159546 -0.6390914659266701 -0.0011929805050580119
| 10> O 1.8904190220931527 -0.08309142821888987 -0.0008481008702420916
| 11> H -1.0688568822173146 1.768481193858713 -0.891086360329249
| 12> H 0.4672652853922008 1.8870819632621476 0.004687255775491828
| 13> H -1.0765545096104194 1.7673886595281312 0.8869192750642125
| 14> H -2.2478049656946673 -0.5232721001739505 -0.8888086745565992
| 15> H -2.246377961302538 -0.5269779340324433 0.890213985385996
| 16> H -1.4418906384898933 -1.8402170542927203 -0.002759578267478621
| 17> H 0.6871035605919057 -1.7378388008684584 0.0010865705750998905
| 18> *
| 19>
| 20>                          ****END OF INPUT****

CARTESIAN COORDINATES (ANGSTROEM)
---------------------------------
  C     -0.525134    1.436120    0.000104
  N     -0.407942   -0.016117   -0.000094
  C     -1.655983   -0.769456   -0.000283
  C      0.779137   -0.639091   -0.001193
  O      1.890419   -0.083091   -0.000848
  H     -1.068857    1.768481   -0.891086
  H      0.467265    1.887082    0.004687
  H     -1.076555    1.767389    0.886919
  H     -2.247805   -0.523272   -0.888809
  H     -2.246378   -0.526978    0.890214
  H     -1.441891   -1.840217   -0.002760
  H      0.687104   -1.737839    0.001087

 Total Charge           Charge          ....    0
 Multiplicity           Mult            ....    1
 Number of Electrons    NEL             ....   40
 Basis Dimension        Dim             ....  197

ORBITAL ENERGIES
----------------

  NO   OCC          E(Eh)            E(eV)
   0   2.0000     -21.630587      -588.5982
   1   2.0000     -16.568894      -450.8625
   2   2.0000     -12.142883      -330.4247
   3   2.0000     -12.096982      -329.1756
   4   2.0000     -12.083845      -328.8181
   5   2.0000      -1.675093       -45.5816
   6   2.0000      -1.540469       -41.9183
   7   2.0000      -1.251615       -34.0582
   8   2.0000      -1.247996       -33.9597
   9   2.0000      -1.078901       -29.3584
  10   2.0000      -1.020672       -27.7739
  11   2.0000      -1.002429       -27.2775
  12   2.0000      -0.936860       -25.4933
  13   2.0000      -0.925320       -25.1792
  14   2.0000      -0.871386       -23.7116
  15   2.0000      -0.861056       -23.4305
  16   2.0000      -0.846309       -23.0293
  17   2.0000      -0.835833       -22.7442
  18   2.0000      -0.807289       -21.9675
  19   2.0000      -0.744713       -20.2647
  20   0.0000      -0.274909        -7.4807
  21   0.0000      -0.129585        -3.5262
  22   0.0000      -0.090343        -2.4584
  23   0.0000      -0.037229        -1.0130
  24   0.0000      -0.017531        -0.4770

MULLIKEN ATOMIC CHARGES
-----------------------
   0 C :   -0.281429
   1 N :   -0.052631
   2 C :   -0.255609
   3 C :    0.152913
   4 O :   -0.409748
   5 H :    0.119298
   6 H :    0.169232
   7 H :    0.119178
   8 H :    0.124387
   9 H :    0.124493
  10 H :    0.122093
  11 H :    0.067822
Sum of atomic charges:   -0.0000000

LOEWDIN ATOMIC CHARGES
----------------------
   0 C :   -0.271534
   1 N :    0.129858
   2 C :   -0.277257
   3 C :   -0.393922
   4 O :   -0.007347
   5 H :    0.114232
   6 H :    0.131605
   7 H :    0.114250
   8 H :    0.114081
   9 H :    0.114051
  10 H :    0.120078
  11 H :    0.111907

  Mayer bond orders larger than 0.100000
B(  0-C ,  1-N ) :   0.9162 B(  0-C ,  5-H ) :   0.9747 B(  0-C ,  6-H ) :   0.9606
B(  0-C ,  7-H ) :   0.9745 B(  1-N ,  2-C ) :   0.9609 B(  1-N ,  3-C ) :   1.2447
B(  2-C ,  8-H ) :   0.9729 B(  2-C ,  9-H ) :   0.9730 B(  2-C , 10-H ) :   0.9717
B(  3-C ,  4-O ) :   2.0000 B(  3-C , 11-H ) :   0.9710

FINAL SINGLE POINT ENERGY      -248.521680391681

DIPOLE MOMENT
-------------

Method             : SCF
Type of density    : Electron Density
Multiplicity       :   1
Irrep              :   0
Energy             :  -248.5296301828806804 Eh
Relativity type    :
Basis              : AO
                                X                 Y                 Z
Electronic contribution:      4.807305721      -0.953012679      -0.002511578
Nuclear contribution   :     -6.537047642       0.782319050       0.003028009
                        -----------------------------------------
Total Dipole Moment    :     -1.729741921      -0.170693629       0.000516431
                        -----------------------------------------
Magnitude (a.u.)       :      1.738143750
Magnitude (Debye)      :      4.418010307

Rotational constants in cm-1:             0.295905             0.138696             0.097932
Rotational constants in MHz :          8870.997190          4158.001651          2935.918207

                             ****ORCA TERMINATED NORMALLY****
TOTAL RUN TIME: 0 days 0 hours 0 minutes 56 seconds 361 msec
