                         Program Version 6.0.0  -   RELEASE  -
|  1> ! wb97x-v def2-tzvp def2/J RIJCOSX DEFGRID2 scfconv7 GCP(DFT/TZ) printgap
|  2> %output
|  3>     printlevel normal
|  4> end
|  5> %cpcm
|  6>     smd true
|  7>     smdsolvent "water"
|  8> end
|  9> * xyz 0 1
| 10> C -0.5251342407733389 1.4361195265063365 0.00010351783867231374
| 11> N -0.4079419212999041 -0.016116970630202405 -9.393643482438137e-05
| 12> C -1.6559831628762367 -0.7694562906232253 -0.00028305479867904643
| 13> C 0.7791374346159546 -0.6390914659266701 -0.0011929805050580119
| 14> O 1.8904190220931527 -0.08309142821888987 -0.0008481008702420916
| 15> H -1.0688568822173146 1.768481193858713 -0.891086360329249
| 16> H 0.4672652853922008 1.8870819632621476 0.004687255775491828
| 17> H -1.0765545096104194 1.7673886595281312 0.8869192750642125
| 18> H -2.2478049656946673 -0.5232721001739505 -0.8888086745565992
| 19> H -2.246377961302538 -0.5269779340324433 0.890213985385996
| 20> H -1.4418906384898933 -1.8402170542927203 -0.002759578267478621
| 21> H 0.6871035605919057 -1.7378388008684584 0.0010865705750998905
| 22> *
| 23>
| 24>                          ****END OF INPUT****

CARTESIAN COORDINATES (ANGSTROEM)
---------------------------------
  C     -0.525134    1.436120    0.000104
  N     -0.407942   -0.016117   -0.000094
  C     -1.655983   -0.769456   -0.000283
  C      0.779137   -0.639091   -0.001193
  O      1.890419   -0.083091   -0.000848
  H     -1.068857    1.768481   -0.891086
  H      0.467265    1.887082    0.004687
  H     -1.076555    1.767389    0.886919
  H     -2.247805   -0.523272   -0.888809
  H     -2.246378   -0.526978    0.890214
  H     -1.441891   -1.840217   -0.002760
  H      0.687104   -1.737839    0.001087

 Total Charge           Charge          ....    0
 Multiplicity           Mult            ....    1
 Number of Electrons    NEL             ....   40
 Basis Dimension        Dim             ....  197

ORBITAL ENERGIES
----------------

  NO   OCC          E(Eh)            E(eV)
   0   2.0000     -21.645631      -589.0076
   1   2.0000     -16.565715      -450.7760
   2   2.0000     -12.148068      -330.5657
   3   2.0000     -12.071741      -328.4888
   4   2.0000     -12.068788      -328.4084
   5   2.0000      -1.693437       -46.0808
   6   2.0000      -1.534322       -41.7510
   7   2.0000      -1.242127       -33.8000
   8   2.0000      -1.232703       -33.5436
   9   2.0000      -1.083515       -29.4839
  10   2.0000      -1.020595       -27.7718
  11   2.0000      -0.999900       -27.2087
  12   2.0000      -0.930623       -25.3236
  13   2.0000      -0.921630       -25.0788
  14   2.0000      -0.884751       -24.0753
  15   2.0000      -0.843398       -22.9500
  16   2.0000      -0.825477       -22.4624
  17   2.0000      -0.818899       -22.2834
  18   2.0000      -0.817027       -22.2324
  19   2.0000      -0.735471       -20.0132
  20   0.0000      -0.276407        -7.5214
  21   0.0000      -0.114850        -3.1252
  22   0.0000      -0.080085        -2.1792
  23   0.0000      -0.020989        -0.5711
  24   0.0000       0.000350         0.0095

MULLIKEN ATOMIC CHARGES
-----------------------
   0 C :   -0.305487
   1 N :   -0.043711
   2 C :   -0.287907
   3 C :    0.182420
   4 O :   -0.573311
   5 H :    0.150064
   6 H :    0.149107
   7 H :    0.150093
   8 H :    0.146968
   9 H :    0.147041
  10 H :    0.153367
  11 H :    0.131356
Sum of atomic charges:   -0.0000000

LOEWDIN ATOMIC CHARGES
----------------------
   0 C :   -0.268221
   1 N :    0.146074
   2 C :   -0.265197
   3 C :   -0.382104
   4 O :   -0.109405
   5 H :    0.124489
   6 H :    0.124451
   7 H :    0.124557
   8 H :    0.122322
   9 H :    0.122291
  10 H :    0.129350
  11 H :    0.131394

  Mayer bond orders larger than 0.100000
B(  0-C ,  1-N ) :   0.9092 B(  0-C ,  5-H ) :   0.9687 B(  0-C ,  6-H ) :   0.9645
B(  0-C ,  7-H ) :   0.9686 B(  1-N ,  2-C ) :   0.9401 B(  1-N ,  3-C ) :   1.3301
B(  2-C ,  8-H ) :   0.9689 B(  2-C ,  9-H ) :   0.9689 B(  2-C , 10-H ) :   0.9645
B(  3-C ,  4-O ) :   1.8248 B(  3-C , 11-H ) :   0.9659

FINAL SINGLE POINT ENERGY      -248.533708439634

DIPOLE MOMENT
-------------

Method             : SCF
Type of density    : Electron Density
Multiplicity       :   1
Irrep              :   0
Energy             :  -248.5416582308337183 Eh
Relativity type    :
Basis              : AO
                                X                 Y                 Z
Electronic contribution:      4.073997188      -1.099073254      -0.002367312
Nuclear contribution   :     -6.537047642       0.782319050       0.003028009
                        -----------------------------------------
Total Dipole Moment    :     -2.463050454      -0.316754204       0.000660697
                        -----------------------------------------
Magnitude (a.u.)       :      2.483334694
Magnitude (Debye)      :      6.312135157

Rotational constants in cm-1:             0.295905             0.138696             0.097932
Rotational constants in MHz :          8870.997190          4158.001651          2935.918207

                             ****ORCA TERMINATED NORMALLY****
TOTAL RUN TIME: 0 days 0 hours 0 minutes 53 seconds 353 msec
