                         Program Version 6.0.0  -   RELEASE  -
|  1> ! pbe def2-sv(p) def2/J RI DEFGRID1 loosescf d4 GCP(DFT/SV(P)) printgap
|  2> %output
|  3>     printlevel normal
|  4> end
|  5> * xyz 0 1
|  6> N 6.514e-06 1.35827e-05 -0.0668323253
|  7> H -0.6981676479 0.6296938519 0.309603512
|  8> H 0.8944931483 0.2895867443 0.3096262093
|  9> H -0.1964160252 -0.919469354 0.3095333815
| 10> *
| 11>
| 12>                          ****END OF INPUT****

CARTESIAN COORDINATES (ANGSTROEM)
---------------------------------
  N      0.000007    0.000014   -0.066832
  H     -0.698168    0.629694    0.309604
  H      0.894493    0.289587    0.309626
  H     -0.196416   -0.919469    0.309533

 Total Charge           Charge          ....    0
 Multiplicity           Mult            ....    1
 Number of Electrons    NEL             ....   10
 Basis Dimension        Dim             ....   20

ORBITAL ENERGIES
----------------

  NO   OCC          E(Eh)            E(eV)
   0   2.0000     -13.947526      -379.5315
   1   2.0000      -0.757576       -20.6147
   2   2.0000      -0.404756       -11.0140
   3   2.0000      -0.404720       -11.0130
   4   2.0000      -0.193976        -5.2784
   5   0.0000       0.036131         0.9832
   6   0.0000       0.119695         3.2571
   7   0.0000       0.119697         3.2571
   8   0.0000       0.500208        13.6114
   9   0.0000       0.500280        13.6133

MULLIKEN ATOMIC CHARGES
-----------------------
   0 N :   -0.606970
   1 H :    0.202317
   2 H :    0.202332
   3 H :    0.202320
Sum of atomic charges:    0.0000000

LOEWDIN ATOMIC CHARGES
----------------------
   0 N :   -0.601750
   1 H :    0.200581
   2 H :    0.200589
   3 H :    0.200581

  Mayer bond orders larger than 0.100000
B(  0-N ,  1-H ) :   0.9360 B(  0-N ,  2-H ) :   0.9360 B(  0-N ,  3-H ) :   0.9360

Dispersion correction           -0.000418208
FINAL SINGLE POINT ENERGY       -56.397915481901

DIPOLE MOMENT
-------------

Method             : SCF
Type of density    : Electron Density
Multiplicity       :   1
Irrep              :   0
Energy             :   -56.4156018293388755 Eh
Relativity type    :
Basis              : AO
                                X                 Y                 Z
Electronic contribution:      0.000062570       0.000084010      -0.154558840
Nuclear contribution   :     -0.000084891      -0.000177011       0.870963558
                        -----------------------------------------
Total Dipole Moment    :     -0.000022321      -0.000093001       0.716404718
                        -----------------------------------------
Magnitude (a.u.)       :      0.716404725
Magnitude (Debye)      :      1.820956096

Rotational constants in cm-1:             9.982013             9.980008             6.306286
Rotational constants in MHz :        299253.223656        299193.115808        189057.693115

                             ****ORCA TERMINATED NORMALLY****
TOTAL RUN TIME: 0 days 0 hours 0 minutes 2 seconds 755 msec
