                         Program Version 6.0.0  -   RELEASE  -
|  1> ! wb97x-v def2-tzvp def2/J RIJCOSX DEFGRID2 scfconv7 GCP(DFT/TZ) printgap
|  2> %output
|  3>     printlevel normal
|  4> end
|  5> * xyz 0 1
|  6> C -0.3788369612707491 1.4022051189259932 -0.10399115050834677
|  7> C 0.00011553974306044092 0.00010509989186495598 0.373305896979135
|  8> C -1.0248869458576269 -1.0288799419777825 -0.10393200930173783
|  9> C 1.4036882659798608 -0.3733460558914968 -0.10400567989365297
| 10> H 0.33658666257349923 2.151632620366214 0.2519682787400115
| 11> H -0.3897290992070827 1.4424561518559431 -1.2003619583422864
| 12> H -1.3743942044486597 1.688765383853433 0.25224378546859305
| 13> H 0.0003033563567372044 0.0002888784736823932 1.4722129619369366
| 14> H -1.0540288722456415 -1.0581492461977047 -1.2002896501536717
| 15> H -2.031572392388923 -0.7836205261998833 0.2519765177703822
| 16> H -0.7757960032151002 -2.0346133503831973 0.25200774470219794
| 17> H 1.6941849550125918 -1.3677782437765962 0.2521896896708937
| 18> H 2.1503172256423473 0.34499038763583467 0.2519721043988795
| 19> H 1.443991205918551 -0.38404663018930996 -1.200377319104499
| 20> *
| 21>
| 22>                          ****END OF INPUT****

CARTESIAN COORDINATES (ANGSTROEM)
---------------------------------
  C     -0.378837    1.402205   -0.103991
  C      0.000116    0.000105    0.373306
  C     -1.024887   -1.028880   -0.103932
  C      1.403688   -0.373346   -0.104006
  H      0.336587    2.151633    0.251968
  H     -0.389729    1.442456   -1.200362
  H     -1.374394    1.688765    0.252244
  H      0.000303    0.000289    1.472213
  H     -1.054029   -1.058149   -1.200290
  H     -2.031572   -0.783621    0.251977
  H     -0.775796   -2.034613    0.252008
  H      1.694185   -1.367778    0.252190
  H      2.150317    0.344990    0.251972
  H      1.443991   -0.384047   -1.200377

 Total Charge           Charge          ....    0
 Multiplicity           Mult            ....    1
 Number of Electrons    NEL             ....   34
 Basis Dimension        Dim             ....  184

ORBITAL ENERGIES
----------------

  NO   OCC          E(Eh)            E(eV)
   0   2.0000     -12.046822      -327.8107
   1   2.0000     -12.030433      -327.3647
   2   2.0000     -12.030428      -327.3646
   3   2.0000     -12.029947      -327.3515
   4   2.0000      -1.307796       -35.5869
   5   2.0000      -1.172484       -31.9049
   6   2.0000      -1.172452       -31.9040
   7   2.0000      -1.028369       -27.9833
   8   2.0000      -0.889873       -24.2147
   9   2.0000      -0.862740       -23.4764
  10   2.0000      -0.862681       -23.4747
  11   2.0000      -0.806425       -21.9440
  12   2.0000      -0.806423       -21.9439
  13   2.0000      -0.791196       -21.5295
  14   2.0000      -0.767983       -20.8979
  15   2.0000      -0.767981       -20.8978
  16   2.0000      -0.743106       -20.2209
  17   0.0000      -0.020194        -0.5495
  18   0.0000      -0.008101        -0.2204
  19   0.0000      -0.002158        -0.0587
  20   0.0000      -0.002154        -0.0586
  21   0.0000       0.024808         0.6751

MULLIKEN ATOMIC CHARGES
-----------------------
   0 C :   -0.339829
   1 C :    0.003464
   2 C :   -0.339686
   3 C :   -0.339827
   4 H :    0.108329
   5 H :    0.100796
   6 H :    0.108271
   7 H :    0.063736
   8 H :    0.100687
   9 H :    0.108332
  10 H :    0.108334
  11 H :    0.108269
  12 H :    0.108330
  13 H :    0.100793
Sum of atomic charges:    0.0000000

LOEWDIN ATOMIC CHARGES
----------------------
   0 C :   -0.285937
   1 C :   -0.340323
   2 C :   -0.285937
   3 C :   -0.285939
   4 H :    0.116944
   5 H :    0.117925
   6 H :    0.116963
   7 H :    0.142643
   8 H :    0.117928
   9 H :    0.116953
  10 H :    0.116951
  11 H :    0.116962
  12 H :    0.116944
  13 H :    0.117924

  Mayer bond orders larger than 0.100000
B(  0-C ,  1-C ) :   0.9842 B(  0-C ,  4-H ) :   0.9812 B(  0-C ,  5-H ) :   0.9744
B(  0-C ,  6-H ) :   0.9812 B(  1-C ,  2-C ) :   0.9843 B(  1-C ,  3-C ) :   0.9842
B(  1-C ,  7-H ) :   0.9678 B(  2-C ,  8-H ) :   0.9744 B(  2-C ,  9-H ) :   0.9812
B(  2-C , 10-H ) :   0.9812 B(  3-C , 11-H ) :   0.9812 B(  3-C , 12-H ) :   0.9812
B(  3-C , 13-H ) :   0.9744

FINAL SINGLE POINT ENERGY      -158.455730760948

DIPOLE MOMENT
-------------

Method             : SCF
Type of density    : Electron Density
Multiplicity       :   1
Irrep              :   0
Energy             :  -158.4656026579480965 Eh
Relativity type    :
Basis              : AO
                                X                 Y                 Z
Electronic contribution:      0.000287248       0.000242981       0.650056988
Nuclear contribution   :     -0.000261267      -0.000221109      -0.597039096
                        -----------------------------------------
Total Dipole Moment    :      0.000025980       0.000021872       0.053017892
                        -----------------------------------------
Magnitude (a.u.)       :      0.053017903
Magnitude (Debye)      :      0.134760801

Rotational constants in cm-1:             0.260569             0.260467             0.151274
Rotational constants in MHz :          7811.657844          7808.594621          4535.070037

                             ****ORCA TERMINATED NORMALLY****
TOTAL RUN TIME: 0 days 0 hours 0 minutes 46 seconds 81 msec
