                         Program Version 6.0.0  -   RELEASE  -
|  1> ! wb97x-v def2-tzvp def2/J RIJCOSX DEFGRID2 scfconv7 GCP(DFT/TZ) printgap
|  2> %output
|  3>     printlevel normal
|  4> end
|  5> %cpcm
|  6>     smd true
|  7>     smdsolvent "water"
|  8> end
|  9> * xyz 0 1
| 10> C -0.3788369612707491 1.4022051189259932 -0.10399115050834677
| 11> C 0.00011553974306044092 0.00010509989186495598 0.373305896979135
| 12> C -1.0248869458576269 -1.0288799419777825 -0.10393200930173783
| 13> C 1.4036882659798608 -0.3733460558914968 -0.10400567989365297
| 14> H 0.33658666257349923 2.151632620366214 0.2519682787400115
| 15> H -0.3897290992070827 1.4424561518559431 -1.2003619583422864
| 16> H -1.3743942044486597 1.688765383853433 0.25224378546859305
| 17> H 0.0003033563567372044 0.0002888784736823932 1.4722129619369366
| 18> H -1.0540288722456415 -1.0581492461977047 -1.2002896501536717
| 19> H -2.031572392388923 -0.7836205261998833 0.2519765177703822
| 20> H -0.7757960032151002 -2.0346133503831973 0.25200774470219794
| 21> H 1.6941849550125918 -1.3677782437765962 0.2521896896708937
| 22> H 2.1503172256423473 0.34499038763583467 0.2519721043988795
| 23> H 1.443991205918551 -0.38404663018930996 -1.200377319104499
| 24> *
| 25>
| 26>                          ****END OF INPUT****

CARTESIAN COORDINATES (ANGSTROEM)
---------------------------------
  C     -0.378837    1.402205   -0.103991
  C      0.000116    0.000105    0.373306
  C     -1.024887   -1.028880   -0.103932
  C      1.403688   -0.373346   -0.104006
  H      0.336587    2.151633    0.251968
  H     -0.389729    1.442456   -1.200362
  H     -1.374394    1.688765    0.252244
  H      0.000303    0.000289    1.472213
  H     -1.054029   -1.058149   -1.200290
  H     -2.031572   -0.783621    0.251977
  H     -0.775796   -2.034613    0.252008
  H      1.694185   -1.367778    0.252190
  H      2.150317    0.344990    0.251972
  H      1.443991   -0.384047   -1.200377

 Total Charge           Charge          ....    0
 Multiplicity           Mult            ....    1
 Number of Electrons    NEL             ....   34
 Basis Dimension        Dim             ....  184

ORBITAL ENERGIES
----------------

  NO   OCC          E(Eh)            E(eV)
   0   2.0000     -12.039158      -327.6021
   1   2.0000     -12.022336      -327.1444
   2   2.0000     -12.022332      -327.1443
   3   2.0000     -12.021852      -327.1312
   4   2.0000      -1.300090       -35.3773
   5   2.0000      -1.165145       -31.7052
   6   2.0000      -1.165105       -31.7041
   7   2.0000      -1.020985       -27.7824
   8   2.0000      -0.882101       -24.0032
   9   2.0000      -0.855190       -23.2709
  10   2.0000      -0.855137       -23.2694
  11   2.0000      -0.798813       -21.7368
  12   2.0000      -0.798803       -21.7365
  13   2.0000      -0.783578       -21.3222
  14   2.0000      -0.760425       -20.6922
  15   2.0000      -0.760418       -20.6920
  16   2.0000      -0.735234       -20.0067
  17   0.0000      -0.011129        -0.3028
  18   0.0000      -0.000548        -0.0149
  19   0.0000       0.005363         0.1459
  20   0.0000       0.005363         0.1459
  21   0.0000       0.033746         0.9183

MULLIKEN ATOMIC CHARGES
-----------------------
   0 C :   -0.396845
   1 C :    0.022777
   2 C :   -0.396743
   3 C :   -0.396851
   4 H :    0.124243
   5 H :    0.116352
   6 H :    0.124218
   7 H :    0.073250
   8 H :    0.116220
   9 H :    0.124283
  10 H :    0.124283
  11 H :    0.124218
  12 H :    0.124243
  13 H :    0.116352
Sum of atomic charges:    0.0000000

LOEWDIN ATOMIC CHARGES
----------------------
   0 C :   -0.293178
   1 C :   -0.339782
   2 C :   -0.293172
   3 C :   -0.293182
   4 H :    0.119052
   5 H :    0.120060
   6 H :    0.119086
   7 H :    0.144701
   8 H :    0.120054
   9 H :    0.119083
  10 H :    0.119079
  11 H :    0.119084
  12 H :    0.119053
  13 H :    0.120060

  Mayer bond orders larger than 0.100000
B(  0-C ,  1-C ) :   0.9754 B(  0-C ,  4-H ) :   0.9788 B(  0-C ,  5-H ) :   0.9737
B(  0-C ,  6-H ) :   0.9788 B(  1-C ,  2-C ) :   0.9756 B(  1-C ,  3-C ) :   0.9754
B(  1-C ,  7-H ) :   0.9682 B(  2-C ,  8-H ) :   0.9737 B(  2-C ,  9-H ) :   0.9788
B(  2-C , 10-H ) :   0.9788 B(  3-C , 11-H ) :   0.9788 B(  3-C , 12-H ) :   0.9788
B(  3-C , 13-H ) :   0.9737

FINAL SINGLE POINT ENERGY      -158.452726771217

DIPOLE MOMENT
-------------

Method             : SCF
Type of density    : Electron Density
Multiplicity       :   1
Irrep              :   0
Energy             :  -158.4625986682173391 Eh
Relativity type    :
Basis              : AO
                                X                 Y                 Z
Electronic contribution:      0.000109548       0.000096340       0.661542859
Nuclear contribution   :     -0.000261267      -0.000221109      -0.597039096
                        -----------------------------------------
Total Dipole Moment    :     -0.000151720      -0.000124769       0.064503764
                        -----------------------------------------
Magnitude (a.u.)       :      0.064504063
Magnitude (Debye)      :      0.163956298

Rotational constants in cm-1:             0.260569             0.260467             0.151274
Rotational constants in MHz :          7811.657844          7808.594621          4535.070037

                             ****ORCA TERMINATED NORMALLY****
TOTAL RUN TIME: 0 days 0 hours 0 minutes 48 seconds 223 msec
