                         Program Version 6.0.0  -   RELEASE  -
|  1> ! r2scan-3c def2/J RI DEFGRID2 scfconv6 printgap
|  2> %output
|  3>     printlevel normal
|  4> end
|  5> %cpcm
|  6>     smd true
|  7>     smdsolvent "water"
|  8> end
|  9> * xyz 0 1
| 10> C -2.79216e-05 1.39617e-05 -1.0436e-05
| 11> F 0.524409405 -0.3301346337 1.1584539796
| 12> F 0.4112820951 -0.8404307591 -0.9222576575
| 13> F 0.3746882002 1.2181433355 -0.319094432
| 14> F -1.3103620485 -0.0475867693 0.0829047075
| 15> *
| 16>
| 17>                          ****END OF INPUT****

CARTESIAN COORDINATES (ANGSTROEM)
---------------------------------
  C     -0.000028    0.000014   -0.000010
  F      0.524409   -0.330135    1.158454
  F      0.411282   -0.840431   -0.922258
  F      0.374688    1.218143   -0.319094
  F     -1.310362   -0.047587    0.082905

 Total Charge           Charge          ....    0
 Multiplicity           Mult            ....    1
 Number of Electrons    NEL             ....   42
 Basis Dimension        Dim             ....  115

ORBITAL ENERGIES
----------------

  NO   OCC          E(Eh)            E(eV)
   0   2.0000     -24.546468      -667.9433
   1   2.0000     -24.546465      -667.9433
   2   2.0000     -24.546459      -667.9431
   3   2.0000     -24.546436      -667.9425
   4   2.0000     -10.369511      -282.1687
   5   2.0000      -1.344317       -36.5807
   6   2.0000      -1.227136       -33.3921
   7   2.0000      -1.227129       -33.3919
   8   2.0000      -1.227114       -33.3915
   9   2.0000      -0.697328       -18.9753
  10   2.0000      -0.605878       -16.4868
  11   2.0000      -0.605876       -16.4867
  12   2.0000      -0.605873       -16.4867
  13   2.0000      -0.465917       -12.6782
  14   2.0000      -0.465910       -12.6781
  15   2.0000      -0.442667       -12.0456
  16   2.0000      -0.442662       -12.0454
  17   2.0000      -0.442653       -12.0452
  18   2.0000      -0.395226       -10.7546
  19   2.0000      -0.395223       -10.7546
  20   2.0000      -0.395216       -10.7544
  21   0.0000       0.101281         2.7560
  22   0.0000       0.152474         4.1490
  23   0.0000       0.152492         4.1495
  24   0.0000       0.152514         4.1501
  25   0.0000       0.209753         5.7077

MULLIKEN ATOMIC CHARGES
-----------------------
   0 C :    0.779227
   1 F :   -0.194858
   2 F :   -0.194839
   3 F :   -0.194766
   4 F :   -0.194763
Sum of atomic charges:   -0.0000000

LOEWDIN ATOMIC CHARGES
----------------------
   0 C :    0.592070
   1 F :   -0.148030
   2 F :   -0.148031
   3 F :   -0.147995
   4 F :   -0.148014

  Mayer bond orders larger than 0.100000
B(  0-C ,  1-F ) :   1.0685 B(  0-C ,  2-F ) :   1.0686 B(  0-C ,  3-F ) :   1.0686
B(  0-C ,  4-F ) :   1.0686

Dispersion correction           -0.000580431
FINAL SINGLE POINT ENERGY      -437.484287319823

DIPOLE MOMENT
-------------

Method             : SCF
Type of density    : Electron Density
Multiplicity       :   1
Irrep              :   0
Energy             :  -437.4948296174561051 Eh
Relativity type    :
Basis              : AO
                                X                 Y                 Z
Electronic contribution:      0.000035833       0.000166758      -0.000101706
Nuclear contribution   :     -0.000016356       0.000008178      -0.000006113
                        -----------------------------------------
Total Dipole Moment    :      0.000019477       0.000174936      -0.000107819
                        -----------------------------------------
Magnitude (a.u.)       :      0.000206415
Magnitude (Debye)      :      0.000524664

Rotational constants in cm-1:             0.192786             0.192779             0.192772
Rotational constants in MHz :          5779.565564          5779.380095          5779.152630

                             ****ORCA TERMINATED NORMALLY****
TOTAL RUN TIME: 0 days 0 hours 0 minutes 12 seconds 213 msec
