                         Program Version 6.0.0  -   RELEASE  -
|  1> ! pbe def2-sv(p) def2/J RI DEFGRID1 loosescf d4 GCP(DFT/SV(P)) printgap
|  2> %output
|  3>     printlevel normal
|  4> end
|  5> * xyz 0 1
|  6> C 1.586986013 1.5182250812 1.339110108
|  7> C 0.2484496528 0.7801914921 1.4375494002
|  8> H -0.2198980623 1.1369088126 2.3581433784
|  9> C 0.2474157533 -0.7787271225 1.438531731
| 10> H -0.2199143858 -1.1338944563 2.3602487445
| 11> C 1.5850460042 -1.5184362969 1.338847022
| 12> O 2.3060461898 -1.2544463118 0.1584638857
| 13> S 3.3987217116 -0.0008170705 0.1989259807
| 14> O 3.9317239961 -0.0012332924 1.547374633
| 15> O 2.3079242452 1.2540853646 0.1586901962
| 16> C -0.7125333772 -1.1148851881 0.2623418421
| 17> C -0.069626778 -0.6720810882 -1.0376046875
| 18> C -0.0678882773 0.6686153811 -1.0389327311
| 19> C -0.70989636 1.1158339823 0.2599627191
| 20> C -1.7721029851 0.0018896098 0.4110633644
| 21> Cl -2.978098801 0.0018048575 -0.890899954
| 22> Cl -2.6304398594 0.0042971245 1.9439599745
| 23> Cl -1.3144547171 2.7612232417 0.2629607404
| 24> Cl 0.5062631905 1.7306691853 -2.220486791
| 25> Cl 0.5015336888 -1.7381202367 -2.2169762975
| 26> Cl -1.3209999171 -2.7586576248 0.2694574268
| 27> H 2.2129954081 1.2555181648 2.200585919
| 28> H 1.3936422452 2.5937323019 1.3559684773
| 29> H 2.2116133797 -1.257541548 2.2004071929
| 30> H 1.3900700541 -2.5936767317 1.3547566704
| 31> *
| 32>
| 33>                          ****END OF INPUT****

CARTESIAN COORDINATES (ANGSTROEM)
---------------------------------
  C      1.586986    1.518225    1.339110
  C      0.248450    0.780191    1.437549
  H     -0.219898    1.136909    2.358143
  C      0.247416   -0.778727    1.438532
  H     -0.219914   -1.133894    2.360249
  C      1.585046   -1.518436    1.338847
  O      2.306046   -1.254446    0.158464
  S      3.398722   -0.000817    0.198926
  O      3.931724   -0.001233    1.547375
  O      2.307924    1.254085    0.158690
  C     -0.712533   -1.114885    0.262342
  C     -0.069627   -0.672081   -1.037605
  C     -0.067888    0.668615   -1.038933
  C     -0.709896    1.115834    0.259963
  C     -1.772103    0.001890    0.411063
  Cl    -2.978099    0.001805   -0.890900
  Cl    -2.630440    0.004297    1.943960
  Cl    -1.314455    2.761223    0.262961
  Cl     0.506263    1.730669   -2.220487
  Cl     0.501534   -1.738120   -2.216976
  Cl    -1.321000   -2.758658    0.269457
  H      2.212995    1.255518    2.200586
  H      1.393642    2.593732    1.355968
  H      2.211613   -1.257542    2.200407
  H      1.390070   -2.593677    1.354757

 Total Charge           Charge          ....    0
 Multiplicity           Mult            ....    1
 Number of Electrons    NEL             ....  202
 Basis Dimension        Dim             ....  306

ORBITAL ENERGIES
----------------

  NO   OCC          E(Eh)            E(eV)
   0   2.0000    -100.663717     -2739.1990
   1   2.0000    -100.661319     -2739.1337
   2   2.0000    -100.661277     -2739.1326
   3   2.0000    -100.654687     -2738.9533
   4   2.0000    -100.654665     -2738.9527
   5   2.0000    -100.650082     -2738.8280
   6   2.0000     -88.211627     -2400.3604
   7   2.0000     -18.804986      -511.7097
   8   2.0000     -18.804916      -511.7078
   9   2.0000     -18.774593      -510.8827
  10   2.0000     -10.036244      -273.1001
  11   2.0000     -10.003271      -272.2028
  12   2.0000     -10.003215      -272.2013
  13   2.0000      -9.971177      -271.3295
  14   2.0000      -9.970615      -271.3142
  15   2.0000      -9.967641      -271.2333
  16   2.0000      -9.967571      -271.2314
  17   2.0000      -9.946233      -270.6508
  18   2.0000      -9.946140      -270.6482
  19   2.0000      -9.199740      -250.3376
  20   2.0000      -9.197035      -250.2640
  21   2.0000      -9.196989      -250.2628
  22   2.0000      -9.190432      -250.0844
  23   2.0000      -9.190407      -250.0837
  24   2.0000      -9.185932      -249.9619
  25   2.0000      -7.838384      -213.2933
  26   2.0000      -7.031318      -191.3319
  27   2.0000      -7.028598      -191.2579
  28   2.0000      -7.028572      -191.2572
  29   2.0000      -7.022095      -191.0809
  30   2.0000      -7.022072      -191.0803
  31   2.0000      -7.019318      -191.0054
  32   2.0000      -7.019175      -191.0015
  33   2.0000      -7.017993      -190.9693
  34   2.0000      -7.016963      -190.9413
  35   2.0000      -7.016939      -190.9406
  36   2.0000      -7.016197      -190.9204
  37   2.0000      -7.016169      -190.9197
  38   2.0000      -7.010072      -190.7538
  39   2.0000      -7.010048      -190.7531
  40   2.0000      -7.009813      -190.7467
  41   2.0000      -7.009789      -190.7461
  42   2.0000      -7.005352      -190.6253
  43   2.0000      -7.005143      -190.6196
  44   2.0000      -5.866730      -159.6418
  45   2.0000      -5.866070      -159.6239
  46   2.0000      -5.855930      -159.3479
  47   2.0000      -1.049618       -28.5616
  48   2.0000      -0.960893       -26.1472
  49   2.0000      -0.945180       -25.7197
  50   2.0000      -0.909726       -24.7549
  51   2.0000      -0.835454       -22.7339
  52   2.0000      -0.824884       -22.4462
  53   2.0000      -0.802434       -21.8354
  54   2.0000      -0.790164       -21.5015
  55   2.0000      -0.773066       -21.0362
  56   2.0000      -0.766777       -20.8651
  57   2.0000      -0.731659       -19.9094
  58   2.0000      -0.690293       -18.7838
  59   2.0000      -0.677350       -18.4316
  60   2.0000      -0.626003       -17.0344
  61   2.0000      -0.622418       -16.9368
  62   2.0000      -0.559930       -15.2365
  63   2.0000      -0.553970       -15.0743
  64   2.0000      -0.527524       -14.3546
  65   2.0000      -0.503887       -13.7115
  66   2.0000      -0.498142       -13.5551
  67   2.0000      -0.495076       -13.4717
  68   2.0000      -0.479659       -13.0522
  69   2.0000      -0.472192       -12.8490
  70   2.0000      -0.461141       -12.5483
  71   2.0000      -0.447580       -12.1793
  72   2.0000      -0.424641       -11.5551
  73   2.0000      -0.421860       -11.4794
  74   2.0000      -0.421326       -11.4649
  75   2.0000      -0.411245       -11.1905
  76   2.0000      -0.396545       -10.7905
  77   2.0000      -0.394950       -10.7471
  78   2.0000      -0.388746       -10.5783
  79   2.0000      -0.386398       -10.5144
  80   2.0000      -0.359456        -9.7813
  81   2.0000      -0.355065        -9.6618
  82   2.0000      -0.340580        -9.2677
  83   2.0000      -0.340352        -9.2614
  84   2.0000      -0.323647        -8.8069
  85   2.0000      -0.313778        -8.5383
  86   2.0000      -0.309982        -8.4350
  87   2.0000      -0.299917        -8.1611
  88   2.0000      -0.292540        -7.9604
  89   2.0000      -0.287548        -7.8246
  90   2.0000      -0.285861        -7.7787
  91   2.0000      -0.283079        -7.7030
  92   2.0000      -0.282319        -7.6823
  93   2.0000      -0.278062        -7.5664
  94   2.0000      -0.276073        -7.5123
  95   2.0000      -0.272266        -7.4087
  96   2.0000      -0.268096        -7.2953
  97   2.0000      -0.267920        -7.2905
  98   2.0000      -0.265623        -7.2280
  99   2.0000      -0.251302        -6.8383
 100   2.0000      -0.214814        -5.8454
 101   0.0000      -0.058847        -1.6013
 102   0.0000      -0.054433        -1.4812
 103   0.0000      -0.039113        -1.0643
 104   0.0000      -0.019846        -0.5400
 105   0.0000      -0.015319        -0.4168

MULLIKEN ATOMIC CHARGES
-----------------------
   0 C :    0.052361
   1 C :   -0.069068
   2 H :    0.095600
   3 C :   -0.069043
   4 H :    0.095560
   5 C :    0.052249
   6 O :   -0.408876
   7 S :    0.864664
   8 O :   -0.428335
   9 O :   -0.408765
  10 C :   -0.105043
  11 C :    0.068887
  12 C :    0.068522
  13 C :   -0.105010
  14 C :   -0.139562
  15 Cl:    0.012597
  16 Cl:    0.006921
  17 Cl:   -0.024230
  18 Cl:   -0.006785
  19 Cl:   -0.006761
  20 Cl:   -0.024168
  21 H :    0.128441
  22 H :    0.110729
  23 H :    0.128402
  24 H :    0.110715
Sum of atomic charges:    0.0000000

LOEWDIN ATOMIC CHARGES
----------------------
   0 C :   -0.144128
   1 C :   -0.153088
   2 H :    0.136170
   3 C :   -0.153024
   4 H :    0.136187
   5 C :   -0.144126
   6 O :   -0.297904
   7 S :    0.929285
   8 O :   -0.457695
   9 O :   -0.297821
  10 C :   -0.166171
  11 C :   -0.210588
  12 C :   -0.210665
  13 C :   -0.166062
  14 C :   -0.229174
  15 Cl:    0.123307
  16 Cl:    0.142304
  17 Cl:    0.132404
  18 Cl:    0.202250
  19 Cl:    0.202303
  20 Cl:    0.132507
  21 H :    0.118981
  22 H :    0.127900
  23 H :    0.118969
  24 H :    0.127879

  Mayer bond orders larger than 0.100000
B(  0-C ,  1-C ) :   1.0688 B(  0-C ,  9-O ) :   0.9778 B(  0-C , 21-H ) :   0.8935
B(  0-C , 22-H ) :   0.9052 B(  1-C ,  2-H ) :   0.8371 B(  1-C ,  3-C ) :   1.0011
B(  1-C , 13-C ) :   0.9992 B(  3-C ,  4-H ) :   0.8372 B(  3-C ,  5-C ) :   1.0687
B(  3-C , 10-C ) :   0.9993 B(  5-C ,  6-O ) :   0.9778 B(  5-C , 23-H ) :   0.8935
B(  5-C , 24-H ) :   0.9052 B(  6-O ,  7-S ) :   0.9002 B(  7-S ,  8-O ) :   1.7507
B(  7-S ,  9-O ) :   0.9005 B( 10-C , 11-C ) :   0.9105 B( 10-C , 14-C ) :   0.8323
B( 10-C , 20-Cl) :   1.1267 B( 11-C , 12-C ) :   1.7687 B( 11-C , 19-Cl) :   1.1390
B( 12-C , 13-C ) :   0.9107 B( 12-C , 18-Cl) :   1.1391 B( 13-C , 14-C ) :   0.8322
B( 13-C , 17-Cl) :   1.1267 B( 14-C , 15-Cl) :   1.1499 B( 14-C , 16-Cl) :   1.1317

Dispersion correction           -0.062154573
FINAL SINGLE POINT ENERGY     -3728.112599168529

DIPOLE MOMENT
-------------

Method             : SCF
Type of density    : Electron Density
Multiplicity       :   1
Irrep              :   0
Energy             : -3728.1644995923020360 Eh
Relativity type    :
Basis              : AO
                                X                 Y                 Z
Electronic contribution:    -15.856835123       0.000515616     -14.316534721
Nuclear contribution   :     16.090509998      -0.000650937      14.948504835
                        -----------------------------------------
Total Dipole Moment    :      0.233674874      -0.000135320       0.631970113
                        -----------------------------------------
Magnitude (a.u.)       :      0.673787941
Magnitude (Debye)      :      1.712632840

Rotational constants in cm-1:             0.010296             0.007272             0.006615
Rotational constants in MHz :           308.664222           218.009923           198.318687

                             ****ORCA TERMINATED NORMALLY****
TOTAL RUN TIME: 0 days 0 hours 0 minutes 22 seconds 926 msec
