                         Program Version 6.0.0  -   RELEASE  -
|  1> ! r2scan-3c def2/J RI DEFGRID2 scfconv6 printgap
|  2> %output
|  3>     printlevel normal
|  4> end
|  5> * xyz 0 1
|  6> C -1.6143344785 -1.6869420679 -0.3619325066
|  7> C -1.6035678353 -0.2317372493 -0.820559191
|  8> C -2.2535185182 0.6769747604 0.2186078935
|  9> C -0.196571988 0.233655984 -1.16622114
| 10> Br 1.0310888815 0.1860506376 0.3766089063
| 11> H -1.0566283291 -1.7967151839 0.5660965351
| 12> H -2.634315247 -2.0177485952 -0.1877252782
| 13> H -1.1654438105 -2.3327444408 -1.1135719514
| 14> H -2.1707202285 -0.1551356458 -1.7568804688
| 15> H -3.2791084838 0.3673247504 0.3986775387
| 16> H -2.2593884502 1.7105123164 -0.1209182501
| 17> H -1.7109211238 0.6254508762 1.1605632112
| 18> H -0.1873266039 1.2687668457 -1.5034169881
| 19> H 0.2657218362 -0.4066744909 -1.9155597556
| 20> *
| 21>
| 22>                          ****END OF INPUT****

CARTESIAN COORDINATES (ANGSTROEM)
---------------------------------
  C     -1.614334   -1.686942   -0.361933
  C     -1.603568   -0.231737   -0.820559
  C     -2.253519    0.676975    0.218608
  C     -0.196572    0.233656   -1.166221
  Br     1.031089    0.186051    0.376609
  H     -1.056628   -1.796715    0.566097
  H     -2.634315   -2.017749   -0.187725
  H     -1.165444   -2.332744   -1.113572
  H     -2.170720   -0.155136   -1.756880
  H     -3.279108    0.367325    0.398678
  H     -2.259388    1.710512   -0.120918
  H     -1.710921    0.625451    1.160563
  H     -0.187327    1.268767   -1.503417
  H      0.265722   -0.406674   -1.915560

 Total Charge           Charge          ....    0
 Multiplicity           Mult            ....    1
 Number of Electrons    NEL             ....   68
 Basis Dimension        Dim             ....  157

ORBITAL ENERGIES
----------------

  NO   OCC          E(Eh)            E(eV)
   0   2.0000    -482.211677    -13121.6468
   1   2.0000     -62.283475     -1694.8195
   2   2.0000     -56.063919     -1525.5768
   3   2.0000     -56.061251     -1525.5042
   4   2.0000     -56.061223     -1525.5034
   5   2.0000     -10.089044      -274.5368
   6   2.0000     -10.054319      -273.5919
   7   2.0000     -10.022449      -272.7247
   8   2.0000     -10.022441      -272.7245
   9   2.0000      -8.615358      -234.4358
  10   2.0000      -6.422657      -174.7694
  11   2.0000      -6.409331      -174.4068
  12   2.0000      -6.409095      -174.4003
  13   2.0000      -2.520251       -68.5795
  14   2.0000      -2.516989       -68.4907
  15   2.0000      -2.516800       -68.4856
  16   2.0000      -2.506914       -68.2166
  17   2.0000      -2.506891       -68.2160
  18   2.0000      -0.803114       -21.8539
  19   2.0000      -0.733274       -19.9534
  20   2.0000      -0.658920       -17.9301
  21   2.0000      -0.641373       -17.4526
  22   2.0000      -0.533014       -14.5041
  23   2.0000      -0.450095       -12.2477
  24   2.0000      -0.434017       -11.8102
  25   2.0000      -0.414630       -11.2827
  26   2.0000      -0.364302        -9.9132
  27   2.0000      -0.359492        -9.7823
  28   2.0000      -0.350895        -9.5483
  29   2.0000      -0.324642        -8.8340
  30   2.0000      -0.313510        -8.5310
  31   2.0000      -0.306420        -8.3381
  32   2.0000      -0.250327        -6.8117
  33   2.0000      -0.247726        -6.7410
  34   0.0000      -0.023476        -0.6388
  35   0.0000       0.076660         2.0860
  36   0.0000       0.127558         3.4710
  37   0.0000       0.127963         3.4820
  38   0.0000       0.130737         3.5575

MULLIKEN ATOMIC CHARGES
-----------------------
   0 C :   -0.473989
   1 C :   -0.060501
   2 C :   -0.473814
   3 C :   -0.200166
   4 Br:   -0.192309
   5 H :    0.169543
   6 H :    0.146684
   7 H :    0.144094
   8 H :    0.146767
   9 H :    0.146647
  10 H :    0.144035
  11 H :    0.169586
  12 H :    0.166693
  13 H :    0.166731
Sum of atomic charges:   -0.0000000

LOEWDIN ATOMIC CHARGES
----------------------
   0 C :   -0.420683
   1 C :   -0.272145
   2 C :   -0.420671
   3 C :   -0.378908
   4 Br:    0.062752
   5 H :    0.162191
   6 H :    0.154968
   7 H :    0.154329
   8 H :    0.164842
   9 H :    0.154964
  10 H :    0.154312
  11 H :    0.162205
  12 H :    0.160926
  13 H :    0.160920

  Mayer bond orders larger than 0.100000
B(  0-C ,  1-C ) :   0.9355 B(  0-C ,  5-H ) :   0.9712 B(  0-C ,  6-H ) :   0.9703
B(  0-C ,  7-H ) :   0.9707 B(  1-C ,  2-C ) :   0.9356 B(  1-C ,  3-C ) :   0.9179
B(  1-C ,  8-H ) :   0.9354 B(  2-C ,  9-H ) :   0.9703 B(  2-C , 10-H ) :   0.9707
B(  2-C , 11-H ) :   0.9712 B(  3-C ,  4-Br) :   0.9516 B(  3-C , 12-H ) :   0.9584
B(  3-C , 13-H ) :   0.9584

Dispersion correction           -0.003632048
FINAL SINGLE POINT ENERGY     -2731.934117303815

DIPOLE MOMENT
-------------

Method             : SCF
Type of density    : Electron Density
Multiplicity       :   1
Irrep              :   0
Energy             : -2731.9375468887146781 Eh
Relativity type    :
Basis              : AO
                                X                 Y                 Z
Electronic contribution:     22.221048838       4.260879881       7.092869299
Nuclear contribution   :    -22.894052628      -4.295242321      -7.693043467
                        -----------------------------------------
Total Dipole Moment    :     -0.673003791      -0.034362440      -0.600174168
                        -----------------------------------------
Magnitude (a.u.)       :      0.902398976
Magnitude (Debye)      :      2.293715911

Rotational constants in cm-1:             0.186045             0.056510             0.052868
Rotational constants in MHz :          5577.486660          1694.124287          1584.939042

                             ****ORCA TERMINATED NORMALLY****
TOTAL RUN TIME: 0 days 0 hours 0 minutes 14 seconds 897 msec
