                         Program Version 6.0.0  -   RELEASE  -
|  1> ! r2scan-3c def2/J RI DEFGRID2 scfconv6 printgap
|  2> %output
|  3>     printlevel normal
|  4> end
|  5> %cpcm
|  6>     smd true
|  7>     smdsolvent "water"
|  8> end
|  9> * xyz 0 1
| 10> C -1.6143344785 -1.6869420679 -0.3619325066
| 11> C -1.6035678353 -0.2317372493 -0.820559191
| 12> C -2.2535185182 0.6769747604 0.2186078935
| 13> C -0.196571988 0.233655984 -1.16622114
| 14> Br 1.0310888815 0.1860506376 0.3766089063
| 15> H -1.0566283291 -1.7967151839 0.5660965351
| 16> H -2.634315247 -2.0177485952 -0.1877252782
| 17> H -1.1654438105 -2.3327444408 -1.1135719514
| 18> H -2.1707202285 -0.1551356458 -1.7568804688
| 19> H -3.2791084838 0.3673247504 0.3986775387
| 20> H -2.2593884502 1.7105123164 -0.1209182501
| 21> H -1.7109211238 0.6254508762 1.1605632112
| 22> H -0.1873266039 1.2687668457 -1.5034169881
| 23> H 0.2657218362 -0.4066744909 -1.9155597556
| 24> *
| 25>
| 26>                          ****END OF INPUT****

CARTESIAN COORDINATES (ANGSTROEM)
---------------------------------
  C     -1.614334   -1.686942   -0.361933
  C     -1.603568   -0.231737   -0.820559
  C     -2.253519    0.676975    0.218608
  C     -0.196572    0.233656   -1.166221
  Br     1.031089    0.186051    0.376609
  H     -1.056628   -1.796715    0.566097
  H     -2.634315   -2.017749   -0.187725
  H     -1.165444   -2.332744   -1.113572
  H     -2.170720   -0.155136   -1.756880
  H     -3.279108    0.367325    0.398678
  H     -2.259388    1.710512   -0.120918
  H     -1.710921    0.625451    1.160563
  H     -0.187327    1.268767   -1.503417
  H      0.265722   -0.406674   -1.915560

 Total Charge           Charge          ....    0
 Multiplicity           Mult            ....    1
 Number of Electrons    NEL             ....   68
 Basis Dimension        Dim             ....  157

ORBITAL ENERGIES
----------------

  NO   OCC          E(Eh)            E(eV)
   0   2.0000    -482.207955    -13121.5455
   1   2.0000     -62.279860     -1694.7211
   2   2.0000     -56.060212     -1525.4759
   3   2.0000     -56.057679     -1525.4070
   4   2.0000     -56.057653     -1525.4063
   5   2.0000     -10.075919      -274.1797
   6   2.0000     -10.039875      -273.1989
   7   2.0000     -10.009776      -272.3799
   8   2.0000     -10.009755      -272.3793
   9   2.0000      -8.611821      -234.3396
  10   2.0000      -6.418655      -174.6605
  11   2.0000      -6.406019      -174.3166
  12   2.0000      -6.405821      -174.3113
  13   2.0000      -2.516396       -68.4746
  14   2.0000      -2.513283       -68.3899
  15   2.0000      -2.513122       -68.3855
  16   2.0000      -2.503735       -68.1301
  17   2.0000      -2.503713       -68.1295
  18   2.0000      -0.791397       -21.5350
  19   2.0000      -0.725390       -19.7389
  20   2.0000      -0.646600       -17.5949
  21   2.0000      -0.629992       -17.1429
  22   2.0000      -0.519889       -14.1469
  23   2.0000      -0.436850       -11.8873
  24   2.0000      -0.419838       -11.4244
  25   2.0000      -0.401631       -10.9289
  26   2.0000      -0.353105        -9.6085
  27   2.0000      -0.350641        -9.5414
  28   2.0000      -0.337631        -9.1874
  29   2.0000      -0.311862        -8.4862
  30   2.0000      -0.300491        -8.1768
  31   2.0000      -0.293990        -7.9999
  32   2.0000      -0.247024        -6.7219
  33   2.0000      -0.244596        -6.6558
  34   0.0000      -0.016064        -0.4371
  35   0.0000       0.091878         2.5001
  36   0.0000       0.137501         3.7416
  37   0.0000       0.137874         3.7517
  38   0.0000       0.143326         3.9001

MULLIKEN ATOMIC CHARGES
-----------------------
   0 C :   -0.520411
   1 C :   -0.025250
   2 C :   -0.520389
   3 C :   -0.214590
   4 Br:   -0.238713
   5 H :    0.163763
   6 H :    0.161085
   7 H :    0.160768
   8 H :    0.169625
   9 H :    0.161106
  10 H :    0.160760
  11 H :    0.163731
  12 H :    0.189214
  13 H :    0.189300
Sum of atomic charges:    0.0000000

LOEWDIN ATOMIC CHARGES
----------------------
   0 C :   -0.428789
   1 C :   -0.265657
   2 C :   -0.428815
   3 C :   -0.371646
   4 Br:    0.032181
   5 H :    0.157806
   6 H :    0.158824
   7 H :    0.158602
   8 H :    0.174878
   9 H :    0.158843
  10 H :    0.158585
  11 H :    0.157783
  12 H :    0.168694
  13 H :    0.168714

  Mayer bond orders larger than 0.100000
B(  0-C ,  1-C ) :   0.9224 B(  0-C ,  5-H ) :   0.9734 B(  0-C ,  6-H ) :   0.9681
B(  0-C ,  7-H ) :   0.9695 B(  1-C ,  2-C ) :   0.9221 B(  1-C ,  3-C ) :   0.9137
B(  1-C ,  8-H ) :   0.9316 B(  2-C ,  9-H ) :   0.9682 B(  2-C , 10-H ) :   0.9695
B(  2-C , 11-H ) :   0.9735 B(  3-C ,  4-Br) :   0.9150 B(  3-C , 12-H ) :   0.9537
B(  3-C , 13-H ) :   0.9538

Dispersion correction           -0.003632048
FINAL SINGLE POINT ENERGY     -2731.935465847727

DIPOLE MOMENT
-------------

Method             : SCF
Type of density    : Electron Density
Multiplicity       :   1
Irrep              :   0
Energy             : -2731.9388954326263956 Eh
Relativity type    :
Basis              : AO
                                X                 Y                 Z
Electronic contribution:     22.030660999       4.276500526       6.817933747
Nuclear contribution   :    -22.894052628      -4.295242321      -7.693043467
                        -----------------------------------------
Total Dipole Moment    :     -0.863391630      -0.018741795      -0.875109720
                        -----------------------------------------
Magnitude (a.u.)       :      1.229476874
Magnitude (Debye)      :      3.125081858

Rotational constants in cm-1:             0.186045             0.056510             0.052868
Rotational constants in MHz :          5577.486660          1694.124287          1584.939042

                             ****ORCA TERMINATED NORMALLY****
TOTAL RUN TIME: 0 days 0 hours 0 minutes 17 seconds 984 msec
