                         Program Version 6.0.0  -   RELEASE  -
|  1> ! wb97x-v def2-tzvp def2/J RIJCOSX DEFGRID2 scfconv7 GCP(DFT/TZ) printgap
|  2> %output
|  3>     printlevel normal
|  4> end
|  5> * xyz 0 1
|  6> C -2.080552200860966 -0.017634696518447266 0.09155130124267888
|  7> C -0.7650509860704753 0.6649821306206383 -0.2766475084499681
|  8> C 0.48212907160712914 0.020023431688543075 0.342677957064896
|  9> C 0.6490482326846105 -1.4375392046511681 -0.0893624320827852
| 10> C 1.7289098016190447 0.8272224105066465 -0.02106480417239082
| 11> H -2.935843919076569 0.548161787341452 -0.2919644920266054
| 12> H -2.192030441032452 -0.09353098188789069 1.179475241462994
| 13> H -2.1444685096629557 -1.0285302956671194 -0.3226787267512474
| 14> H -0.647847365341164 0.6735823174682866 -1.3698221706975962
| 15> H -0.8049489588934966 1.7157873268279573 0.03887515251841685
| 16> H 0.36347502849122165 0.042752614210880245 1.4361709272779093
| 17> H 1.5702271752377588 -1.8633590062810883 0.32308987638079056
| 18> H 0.7067106650752252 -1.5083955840990895 -1.1829786274672733
| 19> H -0.18332354279454083 -2.063945547169576 0.2453457824625427
| 20> H 1.6373604494763918 1.8704250834025258 0.30116116671518733
| 21> H 1.883641292041055 0.8236273330386648 -1.10726519147257
| 22> H 2.6261890710000513 0.4064332089839121 0.4455067399660861
| 23> *
| 24>
| 25>                          ****END OF INPUT****

CARTESIAN COORDINATES (ANGSTROEM)
---------------------------------
  C     -2.080552   -0.017635    0.091551
  C     -0.765051    0.664982   -0.276648
  C      0.482129    0.020023    0.342678
  C      0.649048   -1.437539   -0.089362
  C      1.728910    0.827222   -0.021065
  H     -2.935844    0.548162   -0.291964
  H     -2.192030   -0.093531    1.179475
  H     -2.144469   -1.028530   -0.322679
  H     -0.647847    0.673582   -1.369822
  H     -0.804949    1.715787    0.038875
  H      0.363475    0.042753    1.436171
  H      1.570227   -1.863359    0.323090
  H      0.706711   -1.508396   -1.182979
  H     -0.183324   -2.063946    0.245346
  H      1.637360    1.870425    0.301161
  H      1.883641    0.823627   -1.107265
  H      2.626189    0.406433    0.445507

 Total Charge           Charge          ....    0
 Multiplicity           Mult            ....    1
 Number of Electrons    NEL             ....   42
 Basis Dimension        Dim             ....  227

ORBITAL ENERGIES
----------------

  NO   OCC          E(Eh)            E(eV)
   0   2.0000     -12.044911      -327.7587
   1   2.0000     -12.036789      -327.5377
   2   2.0000     -12.031072      -327.3821
   3   2.0000     -12.029850      -327.3489
   4   2.0000     -12.029504      -327.3395
   5   2.0000      -1.315307       -35.7913
   6   2.0000      -1.231413       -33.5085
   7   2.0000      -1.172076       -31.8938
   8   2.0000      -1.109598       -30.1937
   9   2.0000      -1.020394       -27.7663
  10   2.0000      -0.893503       -24.3134
  11   2.0000      -0.875903       -23.8345
  12   2.0000      -0.862560       -23.4714
  13   2.0000      -0.839116       -22.8335
  14   2.0000      -0.812068       -22.0975
  15   2.0000      -0.804408       -21.8891
  16   2.0000      -0.793904       -21.6032
  17   2.0000      -0.777515       -21.1573
  18   2.0000      -0.768076       -20.9004
  19   2.0000      -0.753117       -20.4934
  20   2.0000      -0.736576       -20.0432
  21   0.0000      -0.026987        -0.7344
  22   0.0000      -0.022993        -0.6257
  23   0.0000      -0.012726        -0.3463
  24   0.0000      -0.003579        -0.0974
  25   0.0000       0.012201         0.3320

MULLIKEN ATOMIC CHARGES
-----------------------
   0 C :   -0.355043
   1 C :   -0.160935
   2 C :   -0.003386
   3 C :   -0.364409
   4 C :   -0.337987
   5 H :    0.114762
   6 H :    0.104133
   7 H :    0.113349
   8 H :    0.085656
   9 H :    0.090399
  10 H :    0.063182
  11 H :    0.110146
  12 H :    0.102484
  13 H :    0.117219
  14 H :    0.108476
  15 H :    0.101845
  16 H :    0.110109
Sum of atomic charges:    0.0000000

LOEWDIN ATOMIC CHARGES
----------------------
   0 C :   -0.307731
   1 C :   -0.271428
   2 C :   -0.315603
   3 C :   -0.283510
   4 C :   -0.284275
   5 H :    0.115986
   6 H :    0.116542
   7 H :    0.114746
   8 H :    0.132488
   9 H :    0.132669
  10 H :    0.144349
  11 H :    0.118045
  12 H :    0.119126
  13 H :    0.116512
  14 H :    0.116874
  15 H :    0.118394
  16 H :    0.116814

  Mayer bond orders larger than 0.100000
B(  0-C ,  1-C ) :   0.9720 B(  0-C ,  5-H ) :   0.9841 B(  0-C ,  6-H ) :   0.9786
B(  0-C ,  7-H ) :   0.9862 B(  1-C ,  2-C ) :   0.9835 B(  1-C ,  8-H ) :   0.9707
B(  1-C ,  9-H ) :   0.9760 B(  2-C ,  3-C ) :   0.9678 B(  2-C ,  4-C ) :   0.9852
B(  2-C , 10-H ) :   0.9675 B(  3-C , 11-H ) :   0.9821 B(  3-C , 12-H ) :   0.9727
B(  3-C , 13-H ) :   0.9853 B(  4-C , 14-H ) :   0.9825 B(  4-C , 15-H ) :   0.9741
B(  4-C , 16-H ) :   0.9844

FINAL SINGLE POINT ENERGY      -197.769675372270

DIPOLE MOMENT
-------------

Method             : SCF
Type of density    : Electron Density
Multiplicity       :   1
Irrep              :   0
Energy             :  -197.7818324124704361 Eh
Relativity type    :
Basis              : AO
                                X                 Y                 Z
Electronic contribution:      0.108746748       0.497810076       0.358163576
Nuclear contribution   :     -0.121522872      -0.479406792      -0.326612371
                        -----------------------------------------
Total Dipole Moment    :     -0.012776124       0.018403285       0.031551206
                        -----------------------------------------
Magnitude (a.u.)       :      0.038696108
Magnitude (Debye)      :      0.098357691

Rotational constants in cm-1:             0.245034             0.112677             0.085982
Rotational constants in MHz :          7345.938396          3377.985418          2577.661483

                             ****ORCA TERMINATED NORMALLY****
TOTAL RUN TIME: 0 days 0 hours 1 minutes 26 seconds 721 msec
