                         Program Version 6.0.0  -   RELEASE  -
|  1> ! wb97x-v def2-tzvp def2/J RIJCOSX DEFGRID2 scfconv7 GCP(DFT/TZ) printgap
|  2> %output
|  3>     printlevel normal
|  4> end
|  5> %cpcm
|  6>     smd true
|  7>     smdsolvent "water"
|  8> end
|  9> * xyz 0 1
| 10> C -2.080552200860966 -0.017634696518447266 0.09155130124267888
| 11> C -0.7650509860704753 0.6649821306206383 -0.2766475084499681
| 12> C 0.48212907160712914 0.020023431688543075 0.342677957064896
| 13> C 0.6490482326846105 -1.4375392046511681 -0.0893624320827852
| 14> C 1.7289098016190447 0.8272224105066465 -0.02106480417239082
| 15> H -2.935843919076569 0.548161787341452 -0.2919644920266054
| 16> H -2.192030441032452 -0.09353098188789069 1.179475241462994
| 17> H -2.1444685096629557 -1.0285302956671194 -0.3226787267512474
| 18> H -0.647847365341164 0.6735823174682866 -1.3698221706975962
| 19> H -0.8049489588934966 1.7157873268279573 0.03887515251841685
| 20> H 0.36347502849122165 0.042752614210880245 1.4361709272779093
| 21> H 1.5702271752377588 -1.8633590062810883 0.32308987638079056
| 22> H 0.7067106650752252 -1.5083955840990895 -1.1829786274672733
| 23> H -0.18332354279454083 -2.063945547169576 0.2453457824625427
| 24> H 1.6373604494763918 1.8704250834025258 0.30116116671518733
| 25> H 1.883641292041055 0.8236273330386648 -1.10726519147257
| 26> H 2.6261890710000513 0.4064332089839121 0.4455067399660861
| 27> *
| 28>
| 29>                          ****END OF INPUT****

CARTESIAN COORDINATES (ANGSTROEM)
---------------------------------
  C     -2.080552   -0.017635    0.091551
  C     -0.765051    0.664982   -0.276648
  C      0.482129    0.020023    0.342678
  C      0.649048   -1.437539   -0.089362
  C      1.728910    0.827222   -0.021065
  H     -2.935844    0.548162   -0.291964
  H     -2.192030   -0.093531    1.179475
  H     -2.144469   -1.028530   -0.322679
  H     -0.647847    0.673582   -1.369822
  H     -0.804949    1.715787    0.038875
  H      0.363475    0.042753    1.436171
  H      1.570227   -1.863359    0.323090
  H      0.706711   -1.508396   -1.182979
  H     -0.183324   -2.063946    0.245346
  H      1.637360    1.870425    0.301161
  H      1.883641    0.823627   -1.107265
  H      2.626189    0.406433    0.445507

 Total Charge           Charge          ....    0
 Multiplicity           Mult            ....    1
 Number of Electrons    NEL             ....   42
 Basis Dimension        Dim             ....  227

ORBITAL ENERGIES
----------------

  NO   OCC          E(Eh)            E(eV)
   0   2.0000     -12.036919      -327.5412
   1   2.0000     -12.028469      -327.3113
   2   2.0000     -12.022940      -327.1608
   3   2.0000     -12.021790      -327.1295
   4   2.0000     -12.021207      -327.1137
   5   2.0000      -1.307336       -35.5744
   6   2.0000      -1.223778       -33.3007
   7   2.0000      -1.164606       -31.6905
   8   2.0000      -1.102056       -29.9885
   9   2.0000      -1.012671       -27.5562
  10   2.0000      -0.885467       -24.0948
  11   2.0000      -0.868109       -23.6224
  12   2.0000      -0.854837       -23.2613
  13   2.0000      -0.831348       -22.6221
  14   2.0000      -0.804404       -21.8889
  15   2.0000      -0.796651       -21.6780
  16   2.0000      -0.786228       -21.3944
  17   2.0000      -0.769759       -20.9462
  18   2.0000      -0.760273       -20.6881
  19   2.0000      -0.745158       -20.2768
  20   2.0000      -0.728435       -19.8217
  21   0.0000      -0.018971        -0.5162
  22   0.0000      -0.014248        -0.3877
  23   0.0000      -0.004660        -0.1268
  24   0.0000       0.004277         0.1164
  25   0.0000       0.021467         0.5841

MULLIKEN ATOMIC CHARGES
-----------------------
   0 C :   -0.402117
   1 C :   -0.186913
   2 C :    0.011026
   3 C :   -0.418013
   4 C :   -0.396676
   5 H :    0.129184
   6 H :    0.117846
   7 H :    0.127905
   8 H :    0.098012
   9 H :    0.103363
  10 H :    0.073266
  11 H :    0.126264
  12 H :    0.116808
  13 H :    0.132444
  14 H :    0.124589
  15 H :    0.116777
  16 H :    0.126236
Sum of atomic charges:    0.0000000

LOEWDIN ATOMIC CHARGES
----------------------
   0 C :   -0.314621
   1 C :   -0.274186
   2 C :   -0.315224
   3 C :   -0.290348
   4 C :   -0.291817
   5 H :    0.117530
   6 H :    0.118570
   7 H :    0.117018
   8 H :    0.134304
   9 H :    0.134533
  10 H :    0.146405
  11 H :    0.119813
  12 H :    0.121164
  13 H :    0.118719
  14 H :    0.118930
  15 H :    0.120317
  16 H :    0.118892

  Mayer bond orders larger than 0.100000
B(  0-C ,  1-C ) :   0.9686 B(  0-C ,  5-H ) :   0.9815 B(  0-C ,  6-H ) :   0.9768
B(  0-C ,  7-H ) :   0.9826 B(  1-C ,  2-C ) :   0.9789 B(  1-C ,  8-H ) :   0.9713
B(  1-C ,  9-H ) :   0.9754 B(  2-C ,  3-C ) :   0.9611 B(  2-C ,  4-C ) :   0.9745
B(  2-C , 10-H ) :   0.9681 B(  3-C , 11-H ) :   0.9800 B(  3-C , 12-H ) :   0.9720
B(  3-C , 13-H ) :   0.9816 B(  4-C , 14-H ) :   0.9806 B(  4-C , 15-H ) :   0.9736
B(  4-C , 16-H ) :   0.9818

FINAL SINGLE POINT ENERGY      -197.766437129032

DIPOLE MOMENT
-------------

Method             : SCF
Type of density    : Electron Density
Multiplicity       :   1
Irrep              :   0
Energy             :  -197.7785941692315816 Eh
Relativity type    :
Basis              : AO
                                X                 Y                 Z
Electronic contribution:      0.105912866       0.499771165       0.366867191
Nuclear contribution   :     -0.121522872      -0.479406792      -0.326612371
                        -----------------------------------------
Total Dipole Moment    :     -0.015610007       0.020364373       0.040254820
                        -----------------------------------------
Magnitude (a.u.)       :      0.047737098
Magnitude (Debye)      :      0.121338061

Rotational constants in cm-1:             0.245034             0.112677             0.085982
Rotational constants in MHz :          7345.938396          3377.985418          2577.661483

                             ****ORCA TERMINATED NORMALLY****
TOTAL RUN TIME: 0 days 0 hours 1 minutes 30 seconds 662 msec
