                         Program Version 6.0.0  -   RELEASE  -
|  1> ! pbe def2-sv(p) def2/J RI DEFGRID1 loosescf d4 GCP(DFT/SV(P)) printgap
|  2> %output
|  3>     printlevel normal
|  4> end
|  5> * xyz 0 1
|  6> C -2.3908664505 0.0650102506 -0.0080611098
|  7> C -0.9242493506 0.4749052389 0.054717405
|  8> C 0.0009744827 -0.694888864 -0.1157927521
|  9> C 1.3236071431 -0.6241319529 -0.0862245801
| 10> C 2.1054385331 0.6330290863 0.1282823902
| 11> H -3.0353636819 0.9319346459 0.1184402633
| 12> H -2.6198401658 -0.6511635294 0.7782988778
| 13> H -2.617018614 -0.3937314112 -0.9682729283
| 14> H -0.7201045881 1.2150470689 -0.7254997792
| 15> H -0.7218718188 0.9590080107 1.0145631572
| 16> H -0.4767124204 -1.6531029477 -0.2680303453
| 17> H 1.9062353064 -1.5281225625 -0.2028462942
| 18> H 2.2186128228 0.8269446952 1.1954378828
| 19> H 1.5986764821 1.4877082476 -0.313961147
| 20> H 3.0981733633 0.5461387812 -0.3054574722
| 21> *
| 22>
| 23>                          ****END OF INPUT****

CARTESIAN COORDINATES (ANGSTROEM)
---------------------------------
  C     -2.390866    0.065010   -0.008061
  C     -0.924249    0.474905    0.054717
  C      0.000974   -0.694889   -0.115793
  C      1.323607   -0.624132   -0.086225
  C      2.105439    0.633029    0.128282
  H     -3.035364    0.931935    0.118440
  H     -2.619840   -0.651164    0.778299
  H     -2.617019   -0.393731   -0.968273
  H     -0.720105    1.215047   -0.725500
  H     -0.721872    0.959008    1.014563
  H     -0.476712   -1.653103   -0.268030
  H      1.906235   -1.528123   -0.202846
  H      2.218613    0.826945    1.195438
  H      1.598676    1.487708   -0.313961
  H      3.098173    0.546139   -0.305457

 Total Charge           Charge          ....    0
 Multiplicity           Mult            ....    1
 Number of Electrons    NEL             ....   40
 Basis Dimension        Dim             ....   90

ORBITAL ENERGIES
----------------

  NO   OCC          E(Eh)            E(eV)
   0   2.0000      -9.885430      -268.9962
   1   2.0000      -9.878846      -268.8171
   2   2.0000      -9.876820      -268.7619
   3   2.0000      -9.876437      -268.7515
   4   2.0000      -9.873459      -268.6705
   5   2.0000      -0.723109       -19.6768
   6   2.0000      -0.672950       -18.3119
   7   2.0000      -0.604512       -16.4496
   8   2.0000      -0.545736       -14.8502
   9   2.0000      -0.467926       -12.7329
  10   2.0000      -0.418067       -11.3762
  11   2.0000      -0.401074       -10.9138
  12   2.0000      -0.380774       -10.3614
  13   2.0000      -0.364220        -9.9109
  14   2.0000      -0.333725        -9.0811
  15   2.0000      -0.324778        -8.8377
  16   2.0000      -0.308104        -8.3839
  17   2.0000      -0.304826        -8.2947
  18   2.0000      -0.279941        -7.6176
  19   2.0000      -0.207443        -5.6448
  20   0.0000      -0.008519        -0.2318
  21   0.0000       0.044594         1.2135
  22   0.0000       0.062065         1.6889
  23   0.0000       0.066302         1.8042
  24   0.0000       0.089495         2.4353

MULLIKEN ATOMIC CHARGES
-----------------------
   0 C :   -0.282494
   1 C :   -0.146758
   2 C :   -0.147438
   3 C :   -0.160951
   4 C :   -0.230673
   5 H :    0.100908
   6 H :    0.103051
   7 H :    0.103002
   8 H :    0.104964
   9 H :    0.099792
  10 H :    0.060448
  11 H :    0.064242
  12 H :    0.117504
  13 H :    0.109833
  14 H :    0.104569
Sum of atomic charges:    0.0000000

LOEWDIN ATOMIC CHARGES
----------------------
   0 C :   -0.338930
   1 C :   -0.235562
   2 C :   -0.154993
   3 C :   -0.154273
   4 C :   -0.339486
   5 H :    0.118601
   6 H :    0.118512
   7 H :    0.118387
   8 H :    0.125419
   9 H :    0.124346
  10 H :    0.117793
  11 H :    0.117508
  12 H :    0.132407
  13 H :    0.124988
  14 H :    0.125282

  Mayer bond orders larger than 0.100000
B(  0-C ,  1-C ) :   1.1505 B(  0-C ,  5-H ) :   0.9529 B(  0-C ,  6-H ) :   0.9565
B(  0-C ,  7-H ) :   0.9568 B(  1-C ,  2-C ) :   1.0685 B(  1-C ,  8-H ) :   0.9082
B(  1-C ,  9-H ) :   0.9103 B(  2-C ,  3-C ) :   1.9877 B(  2-C , 10-H ) :   0.9421
B(  3-C ,  4-C ) :   1.1199 B(  3-C , 11-H ) :   0.9349 B(  4-C , 12-H ) :   0.9329
B(  4-C , 13-H ) :   0.9354 B(  4-C , 14-H ) :   0.9454

Dispersion correction           -0.009725678
FINAL SINGLE POINT ENERGY      -196.028406274876

DIPOLE MOMENT
-------------

Method             : SCF
Type of density    : Electron Density
Multiplicity       :   1
Irrep              :   0
Energy             :  -196.0766159797977650 Eh
Relativity type    :
Basis              : AO
                                X                 Y                 Z
Electronic contribution:      1.311159227      -1.507658267      -0.258757076
Nuclear contribution   :     -1.284556848       1.633038462       0.302721862
                        -----------------------------------------
Total Dipole Moment    :      0.026602379       0.125380195       0.043964786
                        -----------------------------------------
Magnitude (a.u.)       :      0.135501964
Magnitude (Debye)      :      0.344418622

Rotational constants in cm-1:             0.473679             0.082963             0.073486
Rotational constants in MHz :         14200.527081          2487.168784          2203.051954

                             ****ORCA TERMINATED NORMALLY****
TOTAL RUN TIME: 0 days 0 hours 0 minutes 6 seconds 126 msec
