                         Program Version 6.0.0  -   RELEASE  -
|  1> ! pbe def2-sv(p) def2/J RI DEFGRID1 loosescf d4 GCP(DFT/SV(P)) printgap
|  2> %output
|  3>     printlevel normal
|  4> end
|  5> * xyz 0 1
|  6> C -2.3953517472 -1.1616586071 -0.2471922254
|  7> C -1.0559565822 -0.6087947101 0.2702088405
|  8> H -1.0694510919 -0.5446990936 1.3712809959
|  9> C -0.7717032445 0.798948715 -0.2872931293
| 10> H -0.7855146974 0.741808947 -1.3897168411
| 11> C 0.6240528581 1.2410036539 0.1666302012
| 12> H 0.6153569643 1.3661716927 1.2562158774
| 13> C 1.6770550585 0.1790561181 -0.1992840815
| 14> H 1.7894174856 0.1251190669 -1.2939750949
| 15> C 1.2439298196 -1.2118689865 0.2829982708
| 16> H 1.2834368365 -1.2177543889 1.3920834826
| 17> O -0.0654824153 -1.5265871061 -0.1434223533
| 18> O 2.0923644681 -2.1495147778 -0.2606029135
| 19> O 2.9068574102 0.481287806 0.4044771588
| 20> O 1.0081596306 2.4936219808 -0.3405391044
| 21> O -1.7036036239 1.7426894834 0.1703424497
| 22> O -3.4972328735 -0.3977639179 0.1734264707
| 23> H -2.4795176145 -2.207383633 0.0624693877
| 24> H -2.3893522254 -1.1282978702 -1.3390269034
| 25> H 1.776019293 -3.0422336482 -0.0475113857
| 26> H 3.0945161358 1.421739714 0.2487501356
| 27> H 0.7751695402 2.5592731406 -1.2779304913
| 28> H -2.6003555619 1.3888264912 0.0224489372
| 29> H -3.6940321744 -0.5848910872 1.1024956076
| 30> *
| 31>
| 32>                          ****END OF INPUT****

CARTESIAN COORDINATES (ANGSTROEM)
---------------------------------
  C     -2.395352   -1.161659   -0.247192
  C     -1.055957   -0.608795    0.270209
  H     -1.069451   -0.544699    1.371281
  C     -0.771703    0.798949   -0.287293
  H     -0.785515    0.741809   -1.389717
  C      0.624053    1.241004    0.166630
  H      0.615357    1.366172    1.256216
  C      1.677055    0.179056   -0.199284
  H      1.789417    0.125119   -1.293975
  C      1.243930   -1.211869    0.282998
  H      1.283437   -1.217754    1.392083
  O     -0.065482   -1.526587   -0.143422
  O      2.092364   -2.149515   -0.260603
  O      2.906857    0.481288    0.404477
  O      1.008160    2.493622   -0.340539
  O     -1.703604    1.742689    0.170342
  O     -3.497233   -0.397764    0.173426
  H     -2.479518   -2.207384    0.062469
  H     -2.389352   -1.128298   -1.339027
  H      1.776019   -3.042234   -0.047511
  H      3.094516    1.421740    0.248750
  H      0.775170    2.559273   -1.277930
  H     -2.600356    1.388826    0.022449
  H     -3.694032   -0.584891    1.102496

 Total Charge           Charge          ....    0
 Multiplicity           Mult            ....    1
 Number of Electrons    NEL             ....   96
 Basis Dimension        Dim             ....  192

ORBITAL ENERGIES
----------------

  NO   OCC          E(Eh)            E(eV)
   0   2.0000     -18.784967      -511.1649
   1   2.0000     -18.777583      -510.9640
   2   2.0000     -18.757550      -510.4189
   3   2.0000     -18.755432      -510.3613
   4   2.0000     -18.742083      -509.9980
   5   2.0000     -18.741392      -509.9792
   6   2.0000      -9.986668      -271.7510
   7   2.0000      -9.952044      -270.8089
   8   2.0000      -9.951292      -270.7884
   9   2.0000      -9.944933      -270.6154
  10   2.0000      -9.940211      -270.4869
  11   2.0000      -9.934850      -270.3410
  12   2.0000      -0.985834       -26.8259
  13   2.0000      -0.958947       -26.0943
  14   2.0000      -0.942590       -25.6492
  15   2.0000      -0.924913       -25.1682
  16   2.0000      -0.913988       -24.8709
  17   2.0000      -0.909710       -24.7545
  18   2.0000      -0.704171       -19.1615
  19   2.0000      -0.694473       -18.8976
  20   2.0000      -0.627662       -17.0795
  21   2.0000      -0.579227       -15.7616
  22   2.0000      -0.568504       -15.4698
  23   2.0000      -0.535045       -14.5593
  24   2.0000      -0.506232       -13.7753
  25   2.0000      -0.490044       -13.3348
  26   2.0000      -0.476773       -12.9737
  27   2.0000      -0.467409       -12.7188
  28   2.0000      -0.457402       -12.4465
  29   2.0000      -0.433212       -11.7883
  30   2.0000      -0.416102       -11.3227
  31   2.0000      -0.409351       -11.1390
  32   2.0000      -0.394040       -10.7224
  33   2.0000      -0.385833       -10.4990
  34   2.0000      -0.359923        -9.7940
  35   2.0000      -0.350372        -9.5341
  36   2.0000      -0.327349        -8.9076
  37   2.0000      -0.316643        -8.6163
  38   2.0000      -0.303016        -8.2455
  39   2.0000      -0.297410        -8.0929
  40   2.0000      -0.285436        -7.7671
  41   2.0000      -0.279765        -7.6128
  42   2.0000      -0.252945        -6.8830
  43   2.0000      -0.244231        -6.6459
  44   2.0000      -0.236258        -6.4289
  45   2.0000      -0.225805        -6.1445
  46   2.0000      -0.212600        -5.7851
  47   2.0000      -0.203447        -5.5361
  48   0.0000       0.002211         0.0602
  49   0.0000       0.016685         0.4540
  50   0.0000       0.034855         0.9485
  51   0.0000       0.046552         1.2667
  52   0.0000       0.053131         1.4458

MULLIKEN ATOMIC CHARGES
-----------------------
   0 C :    0.073275
   1 C :   -0.032750
   2 H :    0.047232
   3 C :    0.046349
   4 H :    0.034514
   5 C :    0.081963
   6 H :    0.063810
   7 C :    0.050559
   8 H :    0.043761
   9 C :    0.199701
  10 H :    0.038519
  11 O :   -0.313790
  12 O :   -0.365784
  13 O :   -0.412138
  14 O :   -0.411850
  15 O :   -0.417035
  16 O :   -0.434411
  17 H :    0.095531
  18 H :    0.093329
  19 H :    0.303748
  20 H :    0.302699
  21 H :    0.302013
  22 H :    0.298950
  23 H :    0.311806
Sum of atomic charges:    0.0000000

LOEWDIN ATOMIC CHARGES
----------------------
   0 C :   -0.126827
   1 C :   -0.080111
   2 H :    0.097866
   3 C :   -0.078086
   4 H :    0.093135
   5 C :   -0.077069
   6 H :    0.119148
   7 C :   -0.085412
   8 H :    0.100744
   9 C :    0.008375
  10 H :    0.082636
  11 O :   -0.155813
  12 O :   -0.285031
  13 O :   -0.316613
  14 O :   -0.306924
  15 O :   -0.326224
  16 O :   -0.317248
  17 H :    0.108061
  18 H :    0.120256
  19 H :    0.288622
  20 H :    0.283574
  21 H :    0.287582
  22 H :    0.271527
  23 H :    0.293831

  Mayer bond orders larger than 0.100000
B(  0-C ,  1-C ) :   1.0212 B(  0-C , 16-O ) :   1.0378 B(  0-C , 17-H ) :   0.9246
B(  0-C , 18-H ) :   0.9140 B(  1-C ,  2-H ) :   0.8778 B(  1-C ,  3-C ) :   0.9957
B(  1-C , 11-O ) :   0.9922 B(  3-C ,  4-H ) :   0.8640 B(  3-C ,  5-C ) :   1.0034
B(  3-C , 15-O ) :   1.1152 B(  5-C ,  6-H ) :   0.8656 B(  5-C ,  7-C ) :   0.9979
B(  5-C , 14-O ) :   1.0501 B(  7-C ,  8-H ) :   0.8604 B(  7-C ,  9-C ) :   0.9853
B(  7-C , 13-O ) :   1.0849 B(  9-C , 10-H ) :   0.8861 B(  9-C , 11-O ) :   0.9959
B(  9-C , 12-O ) :   1.1997 B( 12-O , 19-H ) :   0.8409 B( 13-O , 20-H ) :   0.8326
B( 14-O , 21-H ) :   0.8463 B( 15-O , 22-H ) :   0.8032 B( 16-O , 22-H ) :   0.1119
B( 16-O , 23-H ) :   0.8421

Dispersion correction           -0.023790647
FINAL SINGLE POINT ENERGY      -685.697833806232

DIPOLE MOMENT
-------------

Method             : SCF
Type of density    : Electron Density
Multiplicity       :   1
Irrep              :   0
Energy             :  -685.8282233961035672 Eh
Relativity type    :
Basis              : AO
                                X                 Y                 Z
Electronic contribution:      2.408227398       0.309340267      -0.032072295
Nuclear contribution   :     -3.445528371      -1.043391130       0.100986362
                        -----------------------------------------
Total Dipole Moment    :     -1.037300973      -0.734050863       0.068914068
                        -----------------------------------------
Magnitude (a.u.)       :      1.272624503
Magnitude (Debye)      :      3.234754417

Rotational constants in cm-1:             0.043667             0.024494             0.016458
Rotational constants in MHz :          1309.096358           734.315362           493.402425

                             ****ORCA TERMINATED NORMALLY****
TOTAL RUN TIME: 0 days 0 hours 0 minutes 11 seconds 769 msec
