                         Program Version 6.0.0  -   RELEASE  -
|  1> ! pbe def2-sv(p) def2/J RI DEFGRID1 loosescf d4 GCP(DFT/SV(P)) printgap
|  2> %output
|  3>     printlevel normal
|  4> end
|  5> * xyz 0 1
|  6> C -1.2229188049 -0.2523509813 0.0160996163
|  7> N 0.0041662517 0.5370002564 -0.0844947222
|  8> C 1.2185698839 -0.2494702388 0.015710773
|  9> H -1.8208945816 -0.0976121292 -0.8845236563
| 10> H -1.8271803286 0.0294279351 0.8794459409
| 11> H -0.9972778782 -1.3166121882 0.0949015232
| 12> H 0.0129846654 1.2544549189 0.6311137916
| 13> H 2.0738943499 0.4194415841 -0.0547452506
| 14> H 1.2540166192 -0.9462650565 -0.8217690516
| 15> H 1.2983836719 -0.8254232743 0.9506892252
| 16> *
| 17>
| 18>                          ****END OF INPUT****

CARTESIAN COORDINATES (ANGSTROEM)
---------------------------------
  C     -1.222919   -0.252351    0.016100
  N      0.004166    0.537000   -0.084495
  C      1.218570   -0.249470    0.015711
  H     -1.820895   -0.097612   -0.884524
  H     -1.827180    0.029428    0.879446
  H     -0.997278   -1.316612    0.094902
  H      0.012985    1.254455    0.631114
  H      2.073894    0.419442   -0.054745
  H      1.254017   -0.946265   -0.821769
  H      1.298384   -0.825423    0.950689

 Total Charge           Charge          ....    0
 Multiplicity           Mult            ....    1
 Number of Electrons    NEL             ....   26
 Basis Dimension        Dim             ....   56

ORBITAL ENERGIES
----------------

  NO   OCC          E(Eh)            E(eV)
   0   2.0000     -13.961595      -379.9143
   1   2.0000      -9.895830      -269.2792
   2   2.0000      -9.895715      -269.2761
   3   2.0000      -0.803708       -21.8700
   4   2.0000      -0.623409       -16.9638
   5   2.0000      -0.555269       -15.1096
   6   2.0000      -0.434726       -11.8295
   7   2.0000      -0.386112       -10.5066
   8   2.0000      -0.384029       -10.4499
   9   2.0000      -0.344015        -9.3611
  10   2.0000      -0.318445        -8.6653
  11   2.0000      -0.313592        -8.5333
  12   2.0000      -0.162183        -4.4132
  13   0.0000       0.036753         1.0001
  14   0.0000       0.075885         2.0649
  15   0.0000       0.088490         2.4079
  16   0.0000       0.110552         3.0083
  17   0.0000       0.116058         3.1581

MULLIKEN ATOMIC CHARGES
-----------------------
   0 C :   -0.192675
   1 N :   -0.381237
   2 C :   -0.198753
   3 H :    0.107164
   4 H :    0.091838
   5 H :    0.093170
   6 H :    0.198953
   7 H :    0.101017
   8 H :    0.105419
   9 H :    0.075103
Sum of atomic charges:   -0.0000000

LOEWDIN ATOMIC CHARGES
----------------------
   0 C :   -0.272307
   1 N :   -0.295374
   2 C :   -0.272689
   3 H :    0.108918
   4 H :    0.107526
   5 H :    0.108958
   6 H :    0.205820
   7 H :    0.112675
   8 H :    0.111377
   9 H :    0.085096

  Mayer bond orders larger than 0.100000
B(  0-C ,  1-N ) :   1.0631 B(  0-C ,  3-H ) :   0.9625 B(  0-C ,  4-H ) :   0.9601
B(  0-C ,  5-H ) :   0.9536 B(  1-N ,  2-C ) :   1.0910 B(  1-N ,  6-H ) :   0.8960
B(  2-C ,  7-H ) :   0.9631 B(  2-C ,  8-H ) :   0.9605 B(  2-C ,  9-H ) :   0.9352

Dispersion correction           -0.004495742
FINAL SINGLE POINT ENERGY      -134.807481055498

DIPOLE MOMENT
-------------

Method             : SCF
Type of density    : Electron Density
Multiplicity       :   1
Irrep              :   0
Energy             :  -134.8466764225173620 Eh
Relativity type    :
Basis              : AO
                                X                 Y                 Z
Electronic contribution:     -0.017123977       1.306931154      -0.324678336
Nuclear contribution   :     -0.005675016      -1.387963327       0.745486097
                        -----------------------------------------
Total Dipole Moment    :     -0.022798993      -0.081032173       0.420807761
                        -----------------------------------------
Magnitude (a.u.)       :      0.429144706
Magnitude (Debye)      :      1.090799155

Rotational constants in cm-1:             1.175451             0.307573             0.272818
Rotational constants in MHz :         35239.146362          9220.815412          8178.880951

                             ****ORCA TERMINATED NORMALLY****
TOTAL RUN TIME: 0 days 0 hours 0 minutes 4 seconds 224 msec
