                         Program Version 6.0.0  -   RELEASE  -
|  1> ! r2scan-3c def2/J RI DEFGRID2 scfconv6 printgap
|  2> %output
|  3>     printlevel normal
|  4> end
|  5> * xyz 0 1
|  6> C -2.4131904816 0.0129777375 -0.0002677973
|  7> C -0.9869738441 -0.5223706373 0.0002854625
|  8> C 0.027713038 0.6307063186 0.0001592969
|  9> C 1.3749026284 0.1390531689 5.5098e-05
| 10> N 2.4454818529 -0.2700190203 -0.0002070424
| 11> H -2.5944185812 0.6211392879 -0.8833795059
| 12> H -3.1216574034 -0.8109258542 -1.93329e-05
| 13> H -2.5947870074 0.6220131691 0.8821658226
| 14> H -0.824979384 -1.1449791726 0.8824647843
| 15> H -0.8245331233 -1.1455437242 -0.8814127274
| 16> H -0.1098647364 1.2540432735 0.8874363759
| 17> H -0.1100299086 1.2539756918 -0.8871435359
| 18> *
| 19>
| 20>                          ****END OF INPUT****

CARTESIAN COORDINATES (ANGSTROEM)
---------------------------------
  C     -2.413190    0.012978   -0.000268
  C     -0.986974   -0.522371    0.000285
  C      0.027713    0.630706    0.000159
  C      1.374903    0.139053    0.000055
  N      2.445482   -0.270019   -0.000207
  H     -2.594419    0.621139   -0.883380
  H     -3.121657   -0.810926   -0.000019
  H     -2.594787    0.622013    0.882166
  H     -0.824979   -1.144979    0.882465
  H     -0.824533   -1.145544   -0.881413
  H     -0.109865    1.254043    0.887436
  H     -0.110030    1.253976   -0.887144

 Total Charge           Charge          ....    0
 Multiplicity           Mult            ....    1
 Number of Electrons    NEL             ....   38
 Basis Dimension        Dim             ....  135

ORBITAL ENERGIES
----------------

  NO   OCC          E(Eh)            E(eV)
   0   2.0000     -14.149112      -385.0169
   1   2.0000     -10.083949      -274.3982
   2   2.0000     -10.064291      -273.8633
   3   2.0000     -10.058768      -273.7130
   4   2.0000     -10.039468      -273.1878
   5   2.0000      -0.874468       -23.7955
   6   2.0000      -0.794250       -21.6126
   7   2.0000      -0.705899       -19.2085
   8   2.0000      -0.592542       -16.1239
   9   2.0000      -0.494254       -13.4493
  10   2.0000      -0.472486       -12.8570
  11   2.0000      -0.419120       -11.4048
  12   2.0000      -0.400741       -10.9047
  13   2.0000      -0.365820        -9.9545
  14   2.0000      -0.345744        -9.4082
  15   2.0000      -0.332040        -9.0353
  16   2.0000      -0.322177        -8.7669
  17   2.0000      -0.300939        -8.1890
  18   2.0000      -0.298453        -8.1213
  19   0.0000       0.007913         0.2153
  20   0.0000       0.014586         0.3969
  21   0.0000       0.062941         1.7127
  22   0.0000       0.094370         2.5679
  23   0.0000       0.121248         3.2993

MULLIKEN ATOMIC CHARGES
-----------------------
   0 C :   -0.469159
   1 C :   -0.197761
   2 C :   -0.414809
   3 C :    0.229115
   4 N :   -0.246719
   5 H :    0.145768
   6 H :    0.157165
   7 H :    0.145737
   8 H :    0.151771
   9 H :    0.151775
  10 H :    0.173558
  11 H :    0.173559
Sum of atomic charges:    0.0000000

LOEWDIN ATOMIC CHARGES
----------------------
   0 C :   -0.418712
   1 C :   -0.287872
   2 C :   -0.260071
   3 C :    0.129648
   4 N :   -0.319613
   5 H :    0.152146
   6 H :    0.157297
   7 H :    0.152146
   8 H :    0.162015
   9 H :    0.162019
  10 H :    0.185496
  11 H :    0.185499

  Mayer bond orders larger than 0.100000
B(  0-C ,  1-C ) :   0.8919 B(  0-C ,  5-H ) :   0.9824 B(  0-C ,  6-H ) :   0.9716
B(  0-C ,  7-H ) :   0.9824 B(  1-C ,  2-C ) :   0.9208 B(  1-C ,  8-H ) :   0.9550
B(  1-C ,  9-H ) :   0.9551 B(  2-C ,  3-C ) :   1.0238 B(  2-C , 10-H ) :   0.9749
B(  2-C , 11-H ) :   0.9749 B(  3-C ,  4-N ) :   2.8870

Dispersion correction           -0.002430236
FINAL SINGLE POINT ENERGY      -211.313272572761

DIPOLE MOMENT
-------------

Method             : SCF
Type of density    : Electron Density
Multiplicity       :   1
Irrep              :   0
Energy             :  -211.3157300056689678 Eh
Relativity type    :
Basis              : AO
                                X                 Y                 Z
Electronic contribution:      7.913788835      -0.161633776       0.000123843
Nuclear contribution   :     -9.537384427       0.608065007       0.000103823
                        -----------------------------------------
Total Dipole Moment    :     -1.623595592       0.446431231       0.000227666
                        -----------------------------------------
Magnitude (a.u.)       :      1.683853776
Magnitude (Debye)      :      4.280016161

Rotational constants in cm-1:             0.791686             0.077455             0.073459
Rotational constants in MHz :         23734.140639          2322.047736          2202.236449

                             ****ORCA TERMINATED NORMALLY****
TOTAL RUN TIME: 0 days 0 hours 0 minutes 10 seconds 400 msec
