                         Program Version 6.0.0  -   RELEASE  -
|  1> ! r2scan-3c def2/J RI DEFGRID2 scfconv6 printgap
|  2> %output
|  3>     printlevel normal
|  4> end
|  5> %cpcm
|  6>     smd true
|  7>     smdsolvent "water"
|  8> end
|  9> * xyz 0 1
| 10> C -2.4131904816 0.0129777375 -0.0002677973
| 11> C -0.9869738441 -0.5223706373 0.0002854625
| 12> C 0.027713038 0.6307063186 0.0001592969
| 13> C 1.3749026284 0.1390531689 5.5098e-05
| 14> N 2.4454818529 -0.2700190203 -0.0002070424
| 15> H -2.5944185812 0.6211392879 -0.8833795059
| 16> H -3.1216574034 -0.8109258542 -1.93329e-05
| 17> H -2.5947870074 0.6220131691 0.8821658226
| 18> H -0.824979384 -1.1449791726 0.8824647843
| 19> H -0.8245331233 -1.1455437242 -0.8814127274
| 20> H -0.1098647364 1.2540432735 0.8874363759
| 21> H -0.1100299086 1.2539756918 -0.8871435359
| 22> *
| 23>
| 24>                          ****END OF INPUT****

CARTESIAN COORDINATES (ANGSTROEM)
---------------------------------
  C     -2.413190    0.012978   -0.000268
  C     -0.986974   -0.522371    0.000285
  C      0.027713    0.630706    0.000159
  C      1.374903    0.139053    0.000055
  N      2.445482   -0.270019   -0.000207
  H     -2.594419    0.621139   -0.883380
  H     -3.121657   -0.810926   -0.000019
  H     -2.594787    0.622013    0.882166
  H     -0.824979   -1.144979    0.882465
  H     -0.824533   -1.145544   -0.881413
  H     -0.109865    1.254043    0.887436
  H     -0.110030    1.253976   -0.887144

 Total Charge           Charge          ....    0
 Multiplicity           Mult            ....    1
 Number of Electrons    NEL             ....   38
 Basis Dimension        Dim             ....  135

ORBITAL ENERGIES
----------------

  NO   OCC          E(Eh)            E(eV)
   0   2.0000     -14.154874      -385.1737
   1   2.0000     -10.074485      -274.1407
   2   2.0000     -10.063345      -273.8375
   3   2.0000     -10.036761      -273.1141
   4   2.0000     -10.014549      -272.5097
   5   2.0000      -0.882258       -24.0075
   6   2.0000      -0.775524       -21.1031
   7   2.0000      -0.686127       -18.6705
   8   2.0000      -0.570548       -15.5254
   9   2.0000      -0.477921       -13.0049
  10   2.0000      -0.449947       -12.2437
  11   2.0000      -0.399180       -10.8622
  12   2.0000      -0.379735       -10.3331
  13   2.0000      -0.355574        -9.6757
  14   2.0000      -0.335197        -9.1212
  15   2.0000      -0.322813        -8.7842
  16   2.0000      -0.314224        -8.5505
  17   2.0000      -0.298222        -8.1150
  18   2.0000      -0.297928        -8.1070
  19   0.0000       0.006571         0.1788
  20   0.0000       0.012314         0.3351
  21   0.0000       0.070573         1.9204
  22   0.0000       0.116483         3.1697
  23   0.0000       0.143916         3.9162

MULLIKEN ATOMIC CHARGES
-----------------------
   0 C :   -0.519339
   1 C :   -0.204617
   2 C :   -0.407127
   3 C :    0.275128
   4 N :   -0.366955
   5 H :    0.160650
   6 H :    0.165768
   7 H :    0.160626
   8 H :    0.161740
   9 H :    0.161729
  10 H :    0.206198
  11 H :    0.206201
Sum of atomic charges:    0.0000000

LOEWDIN ATOMIC CHARGES
----------------------
   0 C :   -0.423605
   1 C :   -0.285025
   2 C :   -0.254675
   3 C :    0.159644
   4 N :   -0.399242
   5 H :    0.156188
   6 H :    0.158875
   7 H :    0.156189
   8 H :    0.164245
   9 H :    0.164243
  10 H :    0.201581
  11 H :    0.201583

  Mayer bond orders larger than 0.100000
B(  0-C ,  1-C ) :   0.8806 B(  0-C ,  5-H ) :   0.9805 B(  0-C ,  6-H ) :   0.9693
B(  0-C ,  7-H ) :   0.9805 B(  1-C ,  2-C ) :   0.8940 B(  1-C ,  8-H ) :   0.9569
B(  1-C ,  9-H ) :   0.9570 B(  2-C ,  3-C ) :   1.0334 B(  2-C , 10-H ) :   0.9599
B(  2-C , 11-H ) :   0.9600 B(  3-C ,  4-N ) :   2.8655

Dispersion correction           -0.002430236
FINAL SINGLE POINT ENERGY      -211.319421063229

DIPOLE MOMENT
-------------

Method             : SCF
Type of density    : Electron Density
Multiplicity       :   1
Irrep              :   0
Energy             :  -211.3218784961374581 Eh
Relativity type    :
Basis              : AO
                                X                 Y                 Z
Electronic contribution:      7.465910813       0.046584088       0.000206676
Nuclear contribution   :     -9.537384427       0.608065007       0.000103823
                        -----------------------------------------
Total Dipole Moment    :     -2.071473614       0.654649095       0.000310499
                        -----------------------------------------
Magnitude (a.u.)       :      2.172456781
Magnitude (Debye)      :      5.521946302

Rotational constants in cm-1:             0.791686             0.077455             0.073459
Rotational constants in MHz :         23734.140639          2322.047736          2202.236449

                             ****ORCA TERMINATED NORMALLY****
TOTAL RUN TIME: 0 days 0 hours 0 minutes 13 seconds 923 msec
