                         Program Version 6.0.0  -   RELEASE  -
|  1> ! r2scan-3c def2/J RI DEFGRID2 scfconv6 printgap
|  2> %output
|  3>     printlevel normal
|  4> end
|  5> * xyz 0 1
|  6> C 2.6440894492 -0.0006663519 2.0394990538
|  7> C 1.9235961472 1.2369153716 1.4984748386
|  8> H 1.9737704413 2.0658578638 2.2024199267
|  9> C 0.4654436602 0.7776408381 1.3207021558
| 10> H -0.076486284 1.1600287873 2.1878344252
| 11> C 0.4649789496 -0.777830734 1.3207748276
| 12> H -0.0772469737 -1.1597621334 2.1879242906
| 13> C 1.9228545145 -1.2379528294 1.4987120002
| 14> H 1.9724705541 -2.0667754297 2.2028536745
| 15> Cl 2.7359211092 -1.8946476989 0.0344787541
| 16> C -0.4055419262 -1.1198952808 0.082404961
| 17> C -1.8011993324 -0.668910079 0.5224224125
| 18> C -1.8008082107 0.6700502577 0.5223356821
| 19> C -0.4048724938 1.1201816731 0.0823410501
| 20> C -0.1417313791 1.32377e-05 -0.9535461876
| 21> Cl 1.3640523263 -0.000460922 -1.8388651755
| 22> Cl -1.4076530686 0.0004041821 -2.2347771154
| 23> Cl -0.3213972202 2.7667999187 -0.5126807836
| 24> Cl -3.0202642317 1.7454566624 0.9765473679
| 25> Cl -3.0212912314 -1.7435539558 0.9768815977
| 26> Cl -0.3231903721 -2.7665896444 -0.5125351466
| 27> Cl 2.7369144487 1.8928059805 0.0340096062
| 28> H 2.5577056636 -0.0005010868 3.1252212892
| 29> H 3.6983235357 -0.0009848329 1.77571951
| 30> *
| 31>
| 32>                          ****END OF INPUT****

CARTESIAN COORDINATES (ANGSTROEM)
---------------------------------
  C      2.644089   -0.000666    2.039499
  C      1.923596    1.236915    1.498475
  H      1.973770    2.065858    2.202420
  C      0.465444    0.777641    1.320702
  H     -0.076486    1.160029    2.187834
  C      0.464979   -0.777831    1.320775
  H     -0.077247   -1.159762    2.187924
  C      1.922855   -1.237953    1.498712
  H      1.972471   -2.066775    2.202854
  Cl     2.735921   -1.894648    0.034479
  C     -0.405542   -1.119895    0.082405
  C     -1.801199   -0.668910    0.522422
  C     -1.800808    0.670050    0.522336
  C     -0.404872    1.120182    0.082341
  C     -0.141731    0.000013   -0.953546
  Cl     1.364052   -0.000461   -1.838865
  Cl    -1.407653    0.000404   -2.234777
  Cl    -0.321397    2.766800   -0.512681
  Cl    -3.020264    1.745457    0.976547
  Cl    -3.021291   -1.743554    0.976882
  Cl    -0.323190   -2.766590   -0.512535
  Cl     2.736914    1.892806    0.034010
  H      2.557706   -0.000501    3.125221
  H      3.698324   -0.000985    1.775720

 Total Charge           Charge          ....    0
 Multiplicity           Mult            ....    1
 Number of Electrons    NEL             ....  202
 Basis Dimension        Dim             ....  436

ORBITAL ENERGIES
----------------

  NO   OCC          E(Eh)            E(eV)
   0   2.0000    -101.256299     -2755.3240
   1   2.0000    -101.256296     -2755.3239
   2   2.0000    -101.232094     -2754.6653
   3   2.0000    -101.232091     -2754.6652
   4   2.0000    -101.225422     -2754.4838
   5   2.0000    -101.222538     -2754.4053
   6   2.0000    -101.207276     -2753.9900
   7   2.0000    -101.207269     -2753.9898
   8   2.0000     -10.194428      -277.4045
   9   2.0000     -10.163233      -276.5556
  10   2.0000     -10.163228      -276.5555
  11   2.0000     -10.133385      -275.7434
  12   2.0000     -10.132689      -275.7245
  13   2.0000     -10.126613      -275.5591
  14   2.0000     -10.126602      -275.5589
  15   2.0000     -10.100261      -274.8421
  16   2.0000     -10.100158      -274.8393
  17   2.0000     -10.073102      -274.1030
  18   2.0000      -9.411649      -256.1040
  19   2.0000      -9.411646      -256.1039
  20   2.0000      -9.387924      -255.4584
  21   2.0000      -9.387922      -255.4583
  22   2.0000      -9.382366      -255.3071
  23   2.0000      -9.378604      -255.2048
  24   2.0000      -9.363909      -254.8049
  25   2.0000      -9.363903      -254.8048
  26   2.0000      -7.158187      -194.7842
  27   2.0000      -7.158186      -194.7841
  28   2.0000      -7.148028      -194.5077
  29   2.0000      -7.148028      -194.5077
  30   2.0000      -7.147087      -194.4821
  31   2.0000      -7.147087      -194.4821
  32   2.0000      -7.134763      -194.1468
  33   2.0000      -7.134761      -194.1467
  34   2.0000      -7.129355      -193.9996
  35   2.0000      -7.125621      -193.8980
  36   2.0000      -7.123845      -193.8497
  37   2.0000      -7.123843      -193.8496
  38   2.0000      -7.123427      -193.8383
  39   2.0000      -7.123425      -193.8383
  40   2.0000      -7.117931      -193.6887
  41   2.0000      -7.117791      -193.6849
  42   2.0000      -7.114453      -193.5941
  43   2.0000      -7.113987      -193.5814
  44   2.0000      -7.110392      -193.4836
  45   2.0000      -7.110385      -193.4834
  46   2.0000      -7.099838      -193.1964
  47   2.0000      -7.099832      -193.1962
  48   2.0000      -7.099605      -193.1901
  49   2.0000      -7.099598      -193.1899
  50   2.0000      -0.967615       -26.3301
  51   2.0000      -0.888363       -24.1736
  52   2.0000      -0.877177       -23.8692
  53   2.0000      -0.876054       -23.8387
  54   2.0000      -0.842251       -22.9188
  55   2.0000      -0.838698       -22.8221
  56   2.0000      -0.821419       -22.3520
  57   2.0000      -0.811933       -22.0938
  58   2.0000      -0.791602       -21.5406
  59   2.0000      -0.766608       -20.8605
  60   2.0000      -0.720098       -19.5949
  61   2.0000      -0.712297       -19.3826
  62   2.0000      -0.673683       -18.3318
  63   2.0000      -0.658329       -17.9141
  64   2.0000      -0.585231       -15.9250
  65   2.0000      -0.565711       -15.3938
  66   2.0000      -0.548962       -14.9380
  67   2.0000      -0.532803       -14.4983
  68   2.0000      -0.521146       -14.1811
  69   2.0000      -0.508164       -13.8278
  70   2.0000      -0.500149       -13.6098
  71   2.0000      -0.467010       -12.7080
  72   2.0000      -0.448219       -12.1967
  73   2.0000      -0.446839       -12.1591
  74   2.0000      -0.434142       -11.8136
  75   2.0000      -0.431500       -11.7417
  76   2.0000      -0.412455       -11.2235
  77   2.0000      -0.408453       -11.1146
  78   2.0000      -0.394913       -10.7461
  79   2.0000      -0.393230       -10.7003
  80   2.0000      -0.392782       -10.6881
  81   2.0000      -0.383241       -10.4285
  82   2.0000      -0.359033        -9.7698
  83   2.0000      -0.358906        -9.7663
  84   2.0000      -0.353667        -9.6238
  85   2.0000      -0.345224        -9.3940
  86   2.0000      -0.326926        -8.8961
  87   2.0000      -0.322552        -8.7771
  88   2.0000      -0.313815        -8.5393
  89   2.0000      -0.312787        -8.5114
  90   2.0000      -0.309837        -8.4311
  91   2.0000      -0.305035        -8.3004
  92   2.0000      -0.297411        -8.0930
  93   2.0000      -0.290917        -7.9163
  94   2.0000      -0.290507        -7.9051
  95   2.0000      -0.284369        -7.7381
  96   2.0000      -0.271361        -7.3841
  97   2.0000      -0.258441        -7.0325
  98   2.0000      -0.252335        -6.8664
  99   2.0000      -0.248306        -6.7568
 100   2.0000      -0.234386        -6.3780
 101   0.0000      -0.070217        -1.9107
 102   0.0000      -0.061017        -1.6603
 103   0.0000      -0.042611        -1.1595
 104   0.0000      -0.028815        -0.7841
 105   0.0000      -0.009157        -0.2492

MULLIKEN ATOMIC CHARGES
-----------------------
   0 C :   -0.375948
   1 C :    0.044225
   2 H :    0.191078
   3 C :   -0.392799
   4 H :    0.208963
   5 C :   -0.392784
   6 H :    0.208964
   7 C :    0.044204
   8 H :    0.191074
   9 Cl:   -0.163047
  10 C :    0.468471
  11 C :   -0.159231
  12 C :   -0.159226
  13 C :    0.468431
  14 C :   -0.090559
  15 Cl:   -0.017336
  16 Cl:   -0.089688
  17 Cl:   -0.078106
  18 Cl:   -0.018915
  19 Cl:   -0.018943
  20 Cl:   -0.078108
  21 Cl:   -0.163055
  22 H :    0.171652
  23 H :    0.200685
Sum of atomic charges:    0.0000000

LOEWDIN ATOMIC CHARGES
----------------------
   0 C :   -0.297966
   1 C :   -0.233204
   2 H :    0.173150
   3 C :   -0.181648
   4 H :    0.193530
   5 C :   -0.181642
   6 H :    0.193531
   7 C :   -0.233201
   8 H :    0.173150
   9 Cl:    0.064132
  10 C :   -0.224929
  11 C :   -0.245057
  12 C :   -0.245065
  13 C :   -0.224932
  14 C :   -0.280337
  15 Cl:    0.183478
  16 Cl:    0.147552
  17 Cl:    0.175049
  18 Cl:    0.221672
  19 Cl:    0.221644
  20 Cl:    0.175050
  21 Cl:    0.064128
  22 H :    0.175299
  23 H :    0.186616

  Mayer bond orders larger than 0.100000
B(  0-C ,  1-C ) :   0.9399 B(  0-C ,  7-C ) :   0.9399 B(  0-C , 22-H ) :   0.9445
B(  0-C , 23-H ) :   0.9465 B(  1-C ,  2-H ) :   0.9662 B(  1-C ,  3-C ) :   0.9919
B(  1-C , 21-Cl) :   0.9473 B(  3-C ,  4-H ) :   0.8891 B(  3-C ,  5-C ) :   1.0762
B(  3-C , 13-C ) :   0.9284 B(  5-C ,  6-H ) :   0.8891 B(  5-C ,  7-C ) :   0.9919
B(  5-C , 10-C ) :   0.9284 B(  7-C ,  8-H ) :   0.9662 B(  7-C ,  9-Cl) :   0.9474
B( 10-C , 11-C ) :   0.7264 B( 10-C , 14-C ) :   0.8308 B( 10-C , 20-Cl) :   1.0315
B( 11-C , 12-C ) :   1.5632 B( 11-C , 19-Cl) :   1.2119 B( 12-C , 13-C ) :   0.7264
B( 12-C , 18-Cl) :   1.2119 B( 13-C , 14-C ) :   0.8307 B( 13-C , 17-Cl) :   1.0315
B( 14-C , 15-Cl) :   1.1656 B( 14-C , 16-Cl) :   1.0430

Dispersion correction           -0.019042719
FINAL SINGLE POINT ENERGY     -4065.936308175197

DIPOLE MOMENT
-------------

Method             : SCF
Type of density    : Electron Density
Multiplicity       :   1
Irrep              :   0
Energy             : -4065.9370692477095872 Eh
Relativity type    :
Basis              : AO
                                X                 Y                 Z
Electronic contribution:    -11.057389920       0.002475752     -15.008094742
Nuclear contribution   :     11.114344500      -0.002292662      16.966014548
                        -----------------------------------------
Total Dipole Moment    :      0.056954580       0.000183090       1.957919805
                        -----------------------------------------
Magnitude (a.u.)       :      1.958748024
Magnitude (Debye)      :      4.978741810

Rotational constants in cm-1:             0.009944             0.007701             0.006183
Rotational constants in MHz :           298.115232           230.859657           185.351559

                             ****ORCA TERMINATED NORMALLY****
TOTAL RUN TIME: 0 days 0 hours 1 minutes 6 seconds 441 msec
