                         Program Version 6.0.0  -   RELEASE  -
|  1> ! r2scan-3c def2/J RI DEFGRID2 scfconv6 printgap
|  2> %output
|  3>     printlevel normal
|  4> end
|  5> %cpcm
|  6>     smd true
|  7>     smdsolvent "water"
|  8> end
|  9> * xyz 0 1
| 10> C 2.6440894492 -0.0006663519 2.0394990538
| 11> C 1.9235961472 1.2369153716 1.4984748386
| 12> H 1.9737704413 2.0658578638 2.2024199267
| 13> C 0.4654436602 0.7776408381 1.3207021558
| 14> H -0.076486284 1.1600287873 2.1878344252
| 15> C 0.4649789496 -0.777830734 1.3207748276
| 16> H -0.0772469737 -1.1597621334 2.1879242906
| 17> C 1.9228545145 -1.2379528294 1.4987120002
| 18> H 1.9724705541 -2.0667754297 2.2028536745
| 19> Cl 2.7359211092 -1.8946476989 0.0344787541
| 20> C -0.4055419262 -1.1198952808 0.082404961
| 21> C -1.8011993324 -0.668910079 0.5224224125
| 22> C -1.8008082107 0.6700502577 0.5223356821
| 23> C -0.4048724938 1.1201816731 0.0823410501
| 24> C -0.1417313791 1.32377e-05 -0.9535461876
| 25> Cl 1.3640523263 -0.000460922 -1.8388651755
| 26> Cl -1.4076530686 0.0004041821 -2.2347771154
| 27> Cl -0.3213972202 2.7667999187 -0.5126807836
| 28> Cl -3.0202642317 1.7454566624 0.9765473679
| 29> Cl -3.0212912314 -1.7435539558 0.9768815977
| 30> Cl -0.3231903721 -2.7665896444 -0.5125351466
| 31> Cl 2.7369144487 1.8928059805 0.0340096062
| 32> H 2.5577056636 -0.0005010868 3.1252212892
| 33> H 3.6983235357 -0.0009848329 1.77571951
| 34> *
| 35>
| 36>                          ****END OF INPUT****

CARTESIAN COORDINATES (ANGSTROEM)
---------------------------------
  C      2.644089   -0.000666    2.039499
  C      1.923596    1.236915    1.498475
  H      1.973770    2.065858    2.202420
  C      0.465444    0.777641    1.320702
  H     -0.076486    1.160029    2.187834
  C      0.464979   -0.777831    1.320775
  H     -0.077247   -1.159762    2.187924
  C      1.922855   -1.237953    1.498712
  H      1.972471   -2.066775    2.202854
  Cl     2.735921   -1.894648    0.034479
  C     -0.405542   -1.119895    0.082405
  C     -1.801199   -0.668910    0.522422
  C     -1.800808    0.670050    0.522336
  C     -0.404872    1.120182    0.082341
  C     -0.141731    0.000013   -0.953546
  Cl     1.364052   -0.000461   -1.838865
  Cl    -1.407653    0.000404   -2.234777
  Cl    -0.321397    2.766800   -0.512681
  Cl    -3.020264    1.745457    0.976547
  Cl    -3.021291   -1.743554    0.976882
  Cl    -0.323190   -2.766590   -0.512535
  Cl     2.736914    1.892806    0.034010
  H      2.557706   -0.000501    3.125221
  H      3.698324   -0.000985    1.775720

 Total Charge           Charge          ....    0
 Multiplicity           Mult            ....    1
 Number of Electrons    NEL             ....  202
 Basis Dimension        Dim             ....  436

ORBITAL ENERGIES
----------------

  NO   OCC          E(Eh)            E(eV)
   0   2.0000    -101.253151     -2755.2383
   1   2.0000    -101.253148     -2755.2382
   2   2.0000    -101.231788     -2754.6570
   3   2.0000    -101.231786     -2754.6569
   4   2.0000    -101.228477     -2754.5669
   5   2.0000    -101.227393     -2754.5374
   6   2.0000    -101.199316     -2753.7734
   7   2.0000    -101.199307     -2753.7732
   8   2.0000     -10.193818      -277.3879
   9   2.0000     -10.157920      -276.4111
  10   2.0000     -10.157915      -276.4109
  11   2.0000     -10.128759      -275.6176
  12   2.0000     -10.128063      -275.5986
  13   2.0000     -10.106896      -275.0226
  14   2.0000     -10.106885      -275.0223
  15   2.0000     -10.081135      -274.3216
  16   2.0000     -10.081032      -274.3188
  17   2.0000     -10.047580      -273.4085
  18   2.0000      -9.408521      -256.0189
  19   2.0000      -9.408518      -256.0188
  20   2.0000      -9.387775      -255.4544
  21   2.0000      -9.387774      -255.4543
  22   2.0000      -9.385558      -255.3940
  23   2.0000      -9.383646      -255.3420
  24   2.0000      -9.356381      -254.6001
  25   2.0000      -9.356374      -254.5999
  26   2.0000      -7.155019      -194.6980
  27   2.0000      -7.155019      -194.6980
  28   2.0000      -7.144874      -194.4219
  29   2.0000      -7.144874      -194.4219
  30   2.0000      -7.144020      -194.3987
  31   2.0000      -7.144020      -194.3987
  32   2.0000      -7.134451      -194.1383
  33   2.0000      -7.134451      -194.1383
  34   2.0000      -7.132438      -194.0835
  35   2.0000      -7.130446      -194.0293
  36   2.0000      -7.123760      -193.8474
  37   2.0000      -7.123759      -193.8474
  38   2.0000      -7.123349      -193.8362
  39   2.0000      -7.123349      -193.8362
  40   2.0000      -7.121171      -193.7769
  41   2.0000      -7.121014      -193.7726
  42   2.0000      -7.119592      -193.7339
  43   2.0000      -7.119112      -193.7209
  44   2.0000      -7.102452      -193.2676
  45   2.0000      -7.102445      -193.2674
  46   2.0000      -7.092474      -192.9960
  47   2.0000      -7.092466      -192.9958
  48   2.0000      -7.092245      -192.9898
  49   2.0000      -7.092238      -192.9896
  50   2.0000      -0.962818       -26.1996
  51   2.0000      -0.884752       -24.0753
  52   2.0000      -0.872794       -23.7499
  53   2.0000      -0.865185       -23.5429
  54   2.0000      -0.838705       -22.8223
  55   2.0000      -0.835744       -22.7418
  56   2.0000      -0.812082       -22.0979
  57   2.0000      -0.809105       -22.0169
  58   2.0000      -0.793736       -21.5987
  59   2.0000      -0.756668       -20.5900
  60   2.0000      -0.704073       -19.1588
  61   2.0000      -0.700824       -19.0704
  62   2.0000      -0.668287       -18.1850
  63   2.0000      -0.646988       -17.6054
  64   2.0000      -0.571281       -15.5453
  65   2.0000      -0.551783       -15.0148
  66   2.0000      -0.537969       -14.6389
  67   2.0000      -0.528099       -14.3703
  68   2.0000      -0.507144       -13.8001
  69   2.0000      -0.503573       -13.7029
  70   2.0000      -0.489100       -13.3091
  71   2.0000      -0.454782       -12.3752
  72   2.0000      -0.442557       -12.0426
  73   2.0000      -0.441649       -12.0179
  74   2.0000      -0.422649       -11.5009
  75   2.0000      -0.422415       -11.4945
  76   2.0000      -0.407753       -11.0955
  77   2.0000      -0.401183       -10.9168
  78   2.0000      -0.385008       -10.4766
  79   2.0000      -0.383481       -10.4350
  80   2.0000      -0.375398       -10.2151
  81   2.0000      -0.370357       -10.0779
  82   2.0000      -0.345449        -9.4001
  83   2.0000      -0.345156        -9.3922
  84   2.0000      -0.341136        -9.2828
  85   2.0000      -0.336768        -9.1639
  86   2.0000      -0.325453        -8.8560
  87   2.0000      -0.321023        -8.7355
  88   2.0000      -0.310917        -8.4605
  89   2.0000      -0.310644        -8.4531
  90   2.0000      -0.307940        -8.3795
  91   2.0000      -0.302572        -8.2334
  92   2.0000      -0.299187        -8.1413
  93   2.0000      -0.291530        -7.9329
  94   2.0000      -0.290078        -7.8934
  95   2.0000      -0.283005        -7.7010
  96   2.0000      -0.266642        -7.2557
  97   2.0000      -0.251826        -6.8525
  98   2.0000      -0.248074        -6.7504
  99   2.0000      -0.245605        -6.6833
 100   2.0000      -0.230691        -6.2774
 101   0.0000      -0.064951        -1.7674
 102   0.0000      -0.059373        -1.6156
 103   0.0000      -0.040707        -1.1077
 104   0.0000      -0.015883        -0.4322
 105   0.0000      -0.001514        -0.0412

MULLIKEN ATOMIC CHARGES
-----------------------
   0 C :   -0.420125
   1 C :    0.063088
   2 H :    0.224461
   3 C :   -0.376626
   4 H :    0.253588
   5 C :   -0.376668
   6 H :    0.253589
   7 C :    0.063066
   8 H :    0.224457
   9 Cl:   -0.216888
  10 C :    0.470906
  11 C :   -0.154954
  12 C :   -0.154945
  13 C :    0.470843
  14 C :   -0.103547
  15 Cl:   -0.034445
  16 Cl:   -0.118271
  17 Cl:   -0.107265
  18 Cl:   -0.027857
  19 Cl:   -0.027885
  20 Cl:   -0.107270
  21 Cl:   -0.216897
  22 H :    0.211163
  23 H :    0.208481
Sum of atomic charges:    0.0000000

LOEWDIN ATOMIC CHARGES
----------------------
   0 C :   -0.290380
   1 C :   -0.222695
   2 H :    0.187275
   3 C :   -0.171217
   4 H :    0.212259
   5 C :   -0.171213
   6 H :    0.212258
   7 C :   -0.222693
   8 H :    0.187276
   9 Cl:    0.030670
  10 C :   -0.223279
  11 C :   -0.241667
  12 C :   -0.241672
  13 C :   -0.223280
  14 C :   -0.281424
  15 Cl:    0.170197
  16 Cl:    0.127245
  17 Cl:    0.158734
  18 Cl:    0.216955
  19 Cl:    0.216927
  20 Cl:    0.158733
  21 Cl:    0.030667
  22 H :    0.193918
  23 H :    0.186408

  Mayer bond orders larger than 0.100000
B(  0-C ,  1-C ) :   0.9413 B(  0-C ,  7-C ) :   0.9413 B(  0-C , 22-H ) :   0.9298
B(  0-C , 23-H ) :   0.9581 B(  1-C ,  2-H ) :   0.9414 B(  1-C ,  3-C ) :   1.0161
B(  1-C , 21-Cl) :   0.8857 B(  3-C ,  4-H ) :   0.8663 B(  3-C ,  5-C ) :   1.0541
B(  3-C , 13-C ) :   0.9240 B(  5-C ,  6-H ) :   0.8663 B(  5-C ,  7-C ) :   1.0162
B(  5-C , 10-C ) :   0.9239 B(  7-C ,  8-H ) :   0.9414 B(  7-C ,  9-Cl) :   0.8858
B( 10-C , 11-C ) :   0.7320 B( 10-C , 14-C ) :   0.8439 B( 10-C , 20-Cl) :   0.9861
B( 11-C , 12-C ) :   1.5841 B( 11-C , 19-Cl) :   1.1941 B( 12-C , 13-C ) :   0.7319
B( 12-C , 18-Cl) :   1.1942 B( 13-C , 14-C ) :   0.8438 B( 13-C , 17-Cl) :   0.9861
B( 14-C , 15-Cl) :   1.1578 B( 14-C , 16-Cl) :   1.0195

Dispersion correction           -0.019042719
FINAL SINGLE POINT ENERGY     -4065.948024935494

DIPOLE MOMENT
-------------

Method             : SCF
Type of density    : Electron Density
Multiplicity       :   1
Irrep              :   0
Energy             : -4065.9487860080066639 Eh
Relativity type    :
Basis              : AO
                                X                 Y                 Z
Electronic contribution:    -11.037460254       0.002611612     -13.734094624
Nuclear contribution   :     11.114344500      -0.002292662      16.966014548
                        -----------------------------------------
Total Dipole Moment    :      0.076884246       0.000318951       3.231919924
                        -----------------------------------------
Magnitude (a.u.)       :      3.232834311
Magnitude (Debye)      :      8.217211787

Rotational constants in cm-1:             0.009944             0.007701             0.006183
Rotational constants in MHz :           298.115232           230.859657           185.351559

                             ****ORCA TERMINATED NORMALLY****
TOTAL RUN TIME: 0 days 0 hours 1 minutes 37 seconds 387 msec
