                         Program Version 6.0.0  -   RELEASE  -
|  1> ! pbe def2-sv(p) def2/J RI DEFGRID1 loosescf d4 GCP(DFT/SV(P)) printgap
|  2> %output
|  3>     printlevel normal
|  4> end
|  5> * xyz 0 1
|  6> C -2.5470929681 -0.67435087 -0.3808849091
|  7> C -1.1713118808 -0.318374812 0.1776911498
|  8> H -1.2417323899 -0.2849156188 1.2751431306
|  9> C -0.695264487 1.0503686495 -0.3315068513
| 10> H -0.6676784423 1.0307455904 -1.4328290433
| 11> C 0.7275250785 1.3218933924 0.1752417655
| 12> H 0.7047451821 1.4113348971 1.2731380142
| 13> C 1.646567513 0.1549459195 -0.1934281941
| 14> H 1.7329756215 0.1022836527 -1.2903565999
| 15> C 1.0240693936 -1.1618323192 0.3175458588
| 16> H 0.9929375981 -1.1293835098 1.4216983391
| 17> O -0.2629477312 -1.3303622971 -0.2131450902
| 18> O 1.7976139142 -2.2536673622 -0.0403638566
| 19> O 2.9055070088 0.3832175147 0.3883342808
| 20> O 1.1582561963 2.5318345989 -0.3985557734
| 21> O -1.5912395985 2.0312106306 0.1156506071
| 22> O -3.102539161 -1.7016236075 0.405629291
| 23> H -2.421040862 -0.9988406473 -1.4202055166
| 24> H -3.1649260808 0.2299697668 -0.3403847214
| 25> H 1.4631153735 -2.6128288902 -0.8772631749
| 26> H 3.4352717892 -0.42558728 0.3194761601
| 27> H 2.0854072309 2.6747243279 -0.1575619716
| 28> H -1.2151094167 2.9008554168 -0.0937997881
| 29> H -3.9627298449 -1.9516903235 0.0391333938
| 30> *
| 31>
| 32>                          ****END OF INPUT****

CARTESIAN COORDINATES (ANGSTROEM)
---------------------------------
  C     -2.547093   -0.674351   -0.380885
  C     -1.171312   -0.318375    0.177691
  H     -1.241732   -0.284916    1.275143
  C     -0.695264    1.050369   -0.331507
  H     -0.667678    1.030746   -1.432829
  C      0.727525    1.321893    0.175242
  H      0.704745    1.411335    1.273138
  C      1.646568    0.154946   -0.193428
  H      1.732976    0.102284   -1.290357
  C      1.024069   -1.161832    0.317546
  H      0.992938   -1.129384    1.421698
  O     -0.262948   -1.330362   -0.213145
  O      1.797614   -2.253667   -0.040364
  O      2.905507    0.383218    0.388334
  O      1.158256    2.531835   -0.398556
  O     -1.591240    2.031211    0.115651
  O     -3.102539   -1.701624    0.405629
  H     -2.421041   -0.998841   -1.420206
  H     -3.164926    0.229970   -0.340385
  H      1.463115   -2.612829   -0.877263
  H      3.435272   -0.425587    0.319476
  H      2.085407    2.674724   -0.157562
  H     -1.215109    2.900855   -0.093800
  H     -3.962730   -1.951690    0.039133

 Total Charge           Charge          ....    0
 Multiplicity           Mult            ....    1
 Number of Electrons    NEL             ....   96
 Basis Dimension        Dim             ....  192

ORBITAL ENERGIES
----------------

  NO   OCC          E(Eh)            E(eV)
   0   2.0000     -18.774688      -510.8852
   1   2.0000     -18.765822      -510.6440
   2   2.0000     -18.758100      -510.4339
   3   2.0000     -18.756146      -510.3807
   4   2.0000     -18.752406      -510.2789
   5   2.0000     -18.744279      -510.0578
   6   2.0000      -9.987651      -271.7778
   7   2.0000      -9.945830      -270.6398
   8   2.0000      -9.943357      -270.5725
   9   2.0000      -9.942272      -270.5430
  10   2.0000      -9.938315      -270.4353
  11   2.0000      -9.929261      -270.1889
  12   2.0000      -0.989456       -26.9245
  13   2.0000      -0.947017       -25.7697
  14   2.0000      -0.936603       -25.4863
  15   2.0000      -0.922624       -25.1059
  16   2.0000      -0.917365       -24.9628
  17   2.0000      -0.913279       -24.8516
  18   2.0000      -0.706277       -19.2188
  19   2.0000      -0.692992       -18.8573
  20   2.0000      -0.615007       -16.7352
  21   2.0000      -0.584264       -15.8986
  22   2.0000      -0.554180       -15.0800
  23   2.0000      -0.536027       -14.5860
  24   2.0000      -0.507540       -13.8109
  25   2.0000      -0.488980       -13.3058
  26   2.0000      -0.473499       -12.8846
  27   2.0000      -0.455462       -12.3937
  28   2.0000      -0.449111       -12.2209
  29   2.0000      -0.438162       -11.9230
  30   2.0000      -0.414915       -11.2904
  31   2.0000      -0.403906       -10.9908
  32   2.0000      -0.385296       -10.4844
  33   2.0000      -0.377019       -10.2592
  34   2.0000      -0.357807        -9.7364
  35   2.0000      -0.349518        -9.5109
  36   2.0000      -0.326086        -8.8732
  37   2.0000      -0.321035        -8.7358
  38   2.0000      -0.308798        -8.4028
  39   2.0000      -0.296947        -8.0803
  40   2.0000      -0.288710        -7.8562
  41   2.0000      -0.268797        -7.3143
  42   2.0000      -0.255663        -6.9570
  43   2.0000      -0.242101        -6.5879
  44   2.0000      -0.229882        -6.2554
  45   2.0000      -0.221674        -6.0321
  46   2.0000      -0.210985        -5.7412
  47   2.0000      -0.204639        -5.5685
  48   0.0000       0.018539         0.5045
  49   0.0000       0.028208         0.7676
  50   0.0000       0.034546         0.9400
  51   0.0000       0.043623         1.1870
  52   0.0000       0.061653         1.6777

MULLIKEN ATOMIC CHARGES
-----------------------
   0 C :    0.073880
   1 C :    0.020733
   2 H :    0.068530
   3 C :    0.051307
   4 H :    0.052923
   5 C :    0.064751
   6 H :    0.055647
   7 C :    0.043691
   8 H :    0.039103
   9 C :    0.182048
  10 H :    0.053872
  11 O :   -0.305837
  12 O :   -0.394523
  13 O :   -0.426538
  14 O :   -0.427295
  15 O :   -0.416626
  16 O :   -0.431489
  17 H :    0.063012
  18 H :    0.090368
  19 H :    0.308324
  20 H :    0.307942
  21 H :    0.314461
  22 H :    0.311796
  23 H :    0.299919
Sum of atomic charges:   -0.0000000

LOEWDIN ATOMIC CHARGES
----------------------
   0 C :   -0.125410
   1 C :   -0.051056
   2 H :    0.114780
   3 C :   -0.065895
   4 H :    0.102965
   5 C :   -0.076905
   6 H :    0.105484
   7 C :   -0.100924
   8 H :    0.098871
   9 C :   -0.000736
  10 H :    0.096520
  11 O :   -0.143089
  12 O :   -0.302212
  13 O :   -0.326863
  14 O :   -0.326025
  15 O :   -0.316111
  16 O :   -0.342456
  17 H :    0.099703
  18 H :    0.108681
  19 H :    0.292051
  20 H :    0.288395
  21 H :    0.292970
  22 H :    0.290724
  23 H :    0.286539

  Mayer bond orders larger than 0.100000
B(  0-C ,  1-C ) :   1.0757 B(  0-C , 16-O ) :   1.1108 B(  0-C , 17-H ) :   0.8985
B(  0-C , 18-H ) :   0.9114 B(  1-C ,  2-H ) :   0.8706 B(  1-C ,  3-C ) :   1.0065
B(  1-C , 11-O ) :   0.9863 B(  3-C ,  4-H ) :   0.8696 B(  3-C ,  5-C ) :   1.0242
B(  3-C , 15-O ) :   1.0642 B(  5-C ,  6-H ) :   0.8743 B(  5-C ,  7-C ) :   1.0046
B(  5-C , 14-O ) :   1.0796 B(  7-C ,  8-H ) :   0.8589 B(  7-C ,  9-C ) :   0.9767
B(  7-C , 13-O ) :   1.0695 B(  9-C , 10-H ) :   0.8786 B(  9-C , 11-O ) :   1.0279
B(  9-C , 12-O ) :   1.1159 B( 12-O , 19-H ) :   0.8385 B( 13-O , 20-H ) :   0.8325
B( 14-O , 21-H ) :   0.8367 B( 15-O , 22-H ) :   0.8340 B( 16-O , 23-H ) :   0.8517

Dispersion correction           -0.023518884
FINAL SINGLE POINT ENERGY      -685.699737741258

DIPOLE MOMENT
-------------

Method             : SCF
Type of density    : Electron Density
Multiplicity       :   1
Irrep              :   0
Energy             :  -685.8295287595963146 Eh
Relativity type    :
Basis              : AO
                                X                 Y                 Z
Electronic contribution:      2.171081666      -0.852339318       0.451543100
Nuclear contribution   :     -2.105703176       0.883107152      -1.200618383
                        -----------------------------------------
Total Dipole Moment    :      0.065378490       0.030767834      -0.749075283
                        -----------------------------------------
Magnitude (a.u.)       :      0.752552182
Magnitude (Debye)      :      1.912835630

Rotational constants in cm-1:             0.039643             0.025684             0.016349
Rotational constants in MHz :          1188.472616           769.974803           490.131864

                             ****ORCA TERMINATED NORMALLY****
TOTAL RUN TIME: 0 days 0 hours 0 minutes 11 seconds 861 msec
