                         Program Version 6.0.0  -   RELEASE  -
|  1> ! pbe def2-sv(p) def2/J RI DEFGRID1 loosescf d4 GCP(DFT/SV(P)) printgap
|  2> %output
|  3>     printlevel normal
|  4> end
|  5> * xyz 0 1
|  6> C -1.7822485523 -1.3394226671 -0.5232331336
|  7> C -1.1224854354 -0.4646859415 0.5585765914
|  8> H -1.8353630948 -0.3725069195 1.3862370123
|  9> C -0.7966539851 0.9584886615 0.0327128909
| 10> H -0.9832574335 1.0189484565 -1.046062949
| 11> C 0.6909438711 1.2617610006 0.2462625895
| 12> H 0.909036349 1.3142751854 1.3258239322
| 13> C 1.513288419 0.1133380866 -0.3524550314
| 14> H 1.242705577 -0.0031735226 -1.4110020483
| 15> C 1.1711075425 -1.1972991462 0.3839364546
| 16> H 1.9551112874 -1.3951117017 1.1313668556
| 17> O 0.0012983726 -1.0996441638 1.1567189071
| 18> O 1.1100249705 -2.2155328306 -0.5654767109
| 19> O 2.8700310927 0.4530448337 -0.2188860564
| 20> O 0.9972702609 2.4819633301 -0.3725838636
| 21> O -1.6412482458 1.9277693974 0.5928462092
| 22> O -3.1025871107 -0.9408130396 -0.790671761
| 23> H -1.8525421071 -2.3651590849 -0.1551303974
| 24> H -1.1742151649 -1.3335462388 -1.4376749203
| 25> H 1.0157787688 -3.077666383 -0.1327740306
| 26> H 3.4177549 -0.1545654378 -0.7352853074
| 27> H 1.9623500444 2.5809323411 -0.3809127606
| 28> H -1.3774810633 2.1160992913 1.5046816972
| 29> H -3.1214539697 -0.0023530214 -1.0262236867
| 30> *
| 31>
| 32>                          ****END OF INPUT****

CARTESIAN COORDINATES (ANGSTROEM)
---------------------------------
  C     -1.782249   -1.339423   -0.523233
  C     -1.122485   -0.464686    0.558577
  H     -1.835363   -0.372507    1.386237
  C     -0.796654    0.958489    0.032713
  H     -0.983257    1.018948   -1.046063
  C      0.690944    1.261761    0.246263
  H      0.909036    1.314275    1.325824
  C      1.513288    0.113338   -0.352455
  H      1.242706   -0.003174   -1.411002
  C      1.171108   -1.197299    0.383936
  H      1.955111   -1.395112    1.131367
  O      0.001298   -1.099644    1.156719
  O      1.110025   -2.215533   -0.565477
  O      2.870031    0.453045   -0.218886
  O      0.997270    2.481963   -0.372584
  O     -1.641248    1.927769    0.592846
  O     -3.102587   -0.940813   -0.790672
  H     -1.852542   -2.365159   -0.155130
  H     -1.174215   -1.333546   -1.437675
  H      1.015779   -3.077666   -0.132774
  H      3.417755   -0.154565   -0.735285
  H      1.962350    2.580932   -0.380913
  H     -1.377481    2.116099    1.504682
  H     -3.121454   -0.002353   -1.026224

 Total Charge           Charge          ....    0
 Multiplicity           Mult            ....    1
 Number of Electrons    NEL             ....   96
 Basis Dimension        Dim             ....  192

ORBITAL ENERGIES
----------------

  NO   OCC          E(Eh)            E(eV)
   0   2.0000     -18.772992      -510.8391
   1   2.0000     -18.772561      -510.8273
   2   2.0000     -18.772282      -510.8198
   3   2.0000     -18.750628      -510.2305
   4   2.0000     -18.747645      -510.1494
   5   2.0000     -18.743604      -510.0394
   6   2.0000      -9.990576      -271.8574
   7   2.0000      -9.950322      -270.7620
   8   2.0000      -9.947097      -270.6743
   9   2.0000      -9.946877      -270.6683
  10   2.0000      -9.940473      -270.4940
  11   2.0000      -9.926242      -270.1068
  12   2.0000      -0.986092       -26.8329
  13   2.0000      -0.952000       -25.9052
  14   2.0000      -0.938210       -25.5300
  15   2.0000      -0.922054       -25.0904
  16   2.0000      -0.916593       -24.9418
  17   2.0000      -0.915634       -24.9157
  18   2.0000      -0.707301       -19.2466
  19   2.0000      -0.693723       -18.8772
  20   2.0000      -0.620172       -16.8758
  21   2.0000      -0.590049       -16.0561
  22   2.0000      -0.570849       -15.5336
  23   2.0000      -0.531448       -14.4614
  24   2.0000      -0.513166       -13.9640
  25   2.0000      -0.492033       -13.3889
  26   2.0000      -0.473037       -12.8720
  27   2.0000      -0.464124       -12.6295
  28   2.0000      -0.442453       -12.0398
  29   2.0000      -0.434045       -11.8110
  30   2.0000      -0.411518       -11.1980
  31   2.0000      -0.402980       -10.9656
  32   2.0000      -0.394167       -10.7258
  33   2.0000      -0.375645       -10.2218
  34   2.0000      -0.362278        -9.8581
  35   2.0000      -0.350044        -9.5252
  36   2.0000      -0.330217        -8.9857
  37   2.0000      -0.313591        -8.5332
  38   2.0000      -0.307795        -8.3755
  39   2.0000      -0.293430        -7.9846
  40   2.0000      -0.286782        -7.8037
  41   2.0000      -0.267438        -7.2774
  42   2.0000      -0.258410        -7.0317
  43   2.0000      -0.251051        -6.8315
  44   2.0000      -0.236201        -6.4273
  45   2.0000      -0.227133        -6.1806
  46   2.0000      -0.217644        -5.9224
  47   2.0000      -0.198642        -5.4053
  48   0.0000       0.012991         0.3535
  49   0.0000       0.018987         0.5167
  50   0.0000       0.028027         0.7626
  51   0.0000       0.032350         0.8803
  52   0.0000       0.049718         1.3529

MULLIKEN ATOMIC CHARGES
-----------------------
   0 C :    0.020499
   1 C :    0.049963
   2 H :    0.068954
   3 C :    0.034437
   4 H :    0.065799
   5 C :    0.063784
   6 H :    0.049613
   7 C :   -0.017788
   8 H :    0.071266
   9 C :    0.201978
  10 H :    0.059542
  11 O :   -0.307128
  12 O :   -0.393002
  13 O :   -0.417307
  14 O :   -0.407240
  15 O :   -0.407788
  16 O :   -0.435196
  17 H :    0.076554
  18 H :    0.088606
  19 H :    0.306151
  20 H :    0.313333
  21 H :    0.304600
  22 H :    0.302827
  23 H :    0.307545
Sum of atomic charges:    0.0000000

LOEWDIN ATOMIC CHARGES
----------------------
   0 C :   -0.138665
   1 C :   -0.077372
   2 H :    0.119218
   3 C :   -0.073103
   4 H :    0.113866
   5 C :   -0.072462
   6 H :    0.101591
   7 C :   -0.088923
   8 H :    0.110673
   9 C :   -0.013012
  10 H :    0.099004
  11 O :   -0.145376
  12 O :   -0.307502
  13 O :   -0.316529
  14 O :   -0.315100
  15 O :   -0.309076
  16 O :   -0.332280
  17 H :    0.110072
  18 H :    0.095830
  19 H :    0.287681
  20 H :    0.295221
  21 H :    0.284459
  22 H :    0.287013
  23 H :    0.284770

  Mayer bond orders larger than 0.100000
B(  0-C ,  1-C ) :   1.0355 B(  0-C , 16-O ) :   1.0634 B(  0-C , 17-H ) :   0.9155
B(  0-C , 18-H ) :   0.9120 B(  1-C ,  2-H ) :   0.8860 B(  1-C ,  3-C ) :   0.9383
B(  1-C , 11-O ) :   1.0065 B(  3-C ,  4-H ) :   0.8742 B(  3-C ,  5-C ) :   1.0261
B(  3-C , 15-O ) :   1.0522 B(  5-C ,  6-H ) :   0.8629 B(  5-C ,  7-C ) :   1.0123
B(  5-C , 14-O ) :   1.1148 B(  7-C ,  8-H ) :   0.8803 B(  7-C ,  9-C ) :   0.9835
B(  7-C , 13-O ) :   1.0732 B(  9-C , 10-H ) :   0.8886 B(  9-C , 11-O ) :   1.0731
B(  9-C , 12-O ) :   1.1227 B( 12-O , 19-H ) :   0.8374 B( 13-O , 20-H ) :   0.8437
B( 14-O , 21-H ) :   0.8330 B( 15-O , 22-H ) :   0.8472 B( 16-O , 23-H ) :   0.8452

Dispersion correction           -0.024480509
FINAL SINGLE POINT ENERGY      -685.689534588149

DIPOLE MOMENT
-------------

Method             : SCF
Type of density    : Electron Density
Multiplicity       :   1
Irrep              :   0
Energy             :  -685.8190341863088406 Eh
Relativity type    :
Basis              : AO
                                X                 Y                 Z
Electronic contribution:      1.145337853       0.999376465       1.134427227
Nuclear contribution   :      0.152107035      -1.561345259      -0.919485550
                        -----------------------------------------
Total Dipole Moment    :      1.297444888      -0.561968794       0.214941677
                        -----------------------------------------
Magnitude (a.u.)       :      1.430165056
Magnitude (Debye)      :      3.635190678

Rotational constants in cm-1:             0.038549             0.028125             0.018762
Rotational constants in MHz :          1155.673907           843.176812           562.457225

                             ****ORCA TERMINATED NORMALLY****
TOTAL RUN TIME: 0 days 0 hours 0 minutes 12 seconds 37 msec
