                         Program Version 6.0.0  -   RELEASE  -
|  1> ! r2scan-3c def2/J RI DEFGRID2 scfconv6 printgap
|  2> %output
|  3>     printlevel normal
|  4> end
|  5> * xyz 0 1
|  6> C -2.3177141423 -0.1992531209 -0.5653209105
|  7> C -1.2768867745 -0.5865667287 0.4869997615
|  8> C 0.0081086312 0.1611470933 0.2414200328
|  9> O 0.1257129879 1.3682954049 0.2802800009
| 10> O 1.0046826654 -0.6660865307 -0.0485796204
| 11> C 2.2981625376 -0.120802312 -0.3278095467
| 12> H -2.4553691712 0.8793935734 -0.5703350856
| 13> H -1.994176099 -0.5125621428 -1.5548221157
| 14> H -3.2664748616 -0.6760303788 -0.3396931721
| 15> H -1.0708292639 -1.6553387845 0.4593095529
| 16> H -1.6414995781 -0.3070314081 1.4763978245
| 17> H 2.7190839838 -0.7173095277 -1.1328130181
| 18> H 2.9138177366 -0.1998218895 0.5675873662
| 19> H 2.2041546395 0.9254524938 -0.6207836934
| 20> *
| 21>
| 22>                          ****END OF INPUT****

CARTESIAN COORDINATES (ANGSTROEM)
---------------------------------
  C     -2.317714   -0.199253   -0.565321
  C     -1.276887   -0.586567    0.487000
  C      0.008109    0.161147    0.241420
  O      0.125713    1.368295    0.280280
  O      1.004683   -0.666087   -0.048580
  C      2.298163   -0.120802   -0.327810
  H     -2.455369    0.879394   -0.570335
  H     -1.994176   -0.512562   -1.554822
  H     -3.266475   -0.676030   -0.339693
  H     -1.070829   -1.655339    0.459310
  H     -1.641500   -0.307031    1.476398
  H      2.719084   -0.717310   -1.132813
  H      2.913818   -0.199822    0.567587
  H      2.204155    0.925452   -0.620784

 Total Charge           Charge          ....    0
 Multiplicity           Mult            ....    1
 Number of Electrons    NEL             ....   48
 Basis Dimension        Dim             ....  164

ORBITAL ENERGIES
----------------

  NO   OCC          E(Eh)            E(eV)
   0   2.0000     -19.000939      -517.0418
   1   2.0000     -18.928432      -515.0688
   2   2.0000     -10.152986      -276.2768
   3   2.0000     -10.086147      -274.4580
   4   2.0000     -10.044509      -273.3250
   5   2.0000     -10.029521      -272.9171
   6   2.0000      -1.073598       -29.2141
   7   2.0000      -0.976754       -26.5788
   8   2.0000      -0.760025       -20.6813
   9   2.0000      -0.698275       -19.0010
  10   2.0000      -0.611588       -16.6422
  11   2.0000      -0.532528       -14.4908
  12   2.0000      -0.470737       -12.8094
  13   2.0000      -0.454859       -12.3774
  14   2.0000      -0.446547       -12.1512
  15   2.0000      -0.414646       -11.2831
  16   2.0000      -0.400073       -10.8865
  17   2.0000      -0.375803       -10.2261
  18   2.0000      -0.347492        -9.4557
  19   2.0000      -0.335579        -9.1316
  20   2.0000      -0.323899        -8.8137
  21   2.0000      -0.314579        -8.5601
  22   2.0000      -0.273191        -7.4339
  23   2.0000      -0.237983        -6.4759
  24   0.0000      -0.015687        -0.4269
  25   0.0000       0.066080         1.7981
  26   0.0000       0.096997         2.6394
  27   0.0000       0.120908         3.2901
  28   0.0000       0.129912         3.5351

MULLIKEN ATOMIC CHARGES
-----------------------
   0 C :   -0.462339
   1 C :   -0.291140
   2 C :    0.413238
   3 O :   -0.438793
   4 O :   -0.191884
   5 C :   -0.300013
   6 H :    0.171437
   7 H :    0.145283
   8 H :    0.151010
   9 H :    0.159986
  10 H :    0.160626
  11 H :    0.148531
  12 H :    0.150236
  13 H :    0.183822
Sum of atomic charges:   -0.0000000

LOEWDIN ATOMIC CHARGES
----------------------
   0 C :   -0.393722
   1 C :   -0.236706
   2 C :    0.356273
   3 O :   -0.437917
   4 O :   -0.603519
   5 C :   -0.046047
   6 H :    0.164699
   7 H :    0.154807
   8 H :    0.152258
   9 H :    0.174259
  10 H :    0.177357
  11 H :    0.174896
  12 H :    0.172847
  13 H :    0.190517

  Mayer bond orders larger than 0.100000
B(  0-C ,  1-C ) :   0.9001 B(  0-C ,  6-H ) :   0.9730 B(  0-C ,  7-H ) :   0.9745
B(  0-C ,  8-H ) :   0.9724 B(  1-C ,  2-C ) :   0.9631 B(  1-C ,  9-H ) :   0.9804
B(  1-C , 10-H ) :   0.9535 B(  2-C ,  3-O ) :   1.8227 B(  2-C ,  4-O ) :   1.0636
B(  4-O ,  5-C ) :   0.8427 B(  5-C , 11-H ) :   0.9686 B(  5-C , 12-H ) :   0.9607
B(  5-C , 13-H ) :   0.9654

Dispersion correction           -0.002966669
FINAL SINGLE POINT ENERGY      -307.630710088648

DIPOLE MOMENT
-------------

Method             : SCF
Type of density    : Electron Density
Multiplicity       :   1
Irrep              :   0
Energy             :  -307.6372181092899609 Eh
Relativity type    :
Basis              : AO
                                X                 Y                 Z
Electronic contribution:      2.579572572       1.378620144       1.470638650
Nuclear contribution   :     -2.414290486      -2.112888159      -1.605668356
                        -----------------------------------------
Total Dipole Moment    :      0.165282086      -0.734268015      -0.135029706
                        -----------------------------------------
Magnitude (a.u.)       :      0.764657249
Magnitude (Debye)      :      1.943604266

Rotational constants in cm-1:             0.259486             0.074502             0.065264
Rotational constants in MHz :          7779.187306          2233.510402          1956.578378

                             ****ORCA TERMINATED NORMALLY****
TOTAL RUN TIME: 0 days 0 hours 0 minutes 18 seconds 298 msec
