                         Program Version 6.0.0  -   RELEASE  -
|  1> ! r2scan-3c def2/J RI DEFGRID2 scfconv6 printgap
|  2> %output
|  3>     printlevel normal
|  4> end
|  5> %cpcm
|  6>     smd true
|  7>     smdsolvent "water"
|  8> end
|  9> * xyz 0 1
| 10> C -2.3177141423 -0.1992531209 -0.5653209105
| 11> C -1.2768867745 -0.5865667287 0.4869997615
| 12> C 0.0081086312 0.1611470933 0.2414200328
| 13> O 0.1257129879 1.3682954049 0.2802800009
| 14> O 1.0046826654 -0.6660865307 -0.0485796204
| 15> C 2.2981625376 -0.120802312 -0.3278095467
| 16> H -2.4553691712 0.8793935734 -0.5703350856
| 17> H -1.994176099 -0.5125621428 -1.5548221157
| 18> H -3.2664748616 -0.6760303788 -0.3396931721
| 19> H -1.0708292639 -1.6553387845 0.4593095529
| 20> H -1.6414995781 -0.3070314081 1.4763978245
| 21> H 2.7190839838 -0.7173095277 -1.1328130181
| 22> H 2.9138177366 -0.1998218895 0.5675873662
| 23> H 2.2041546395 0.9254524938 -0.6207836934
| 24> *
| 25>
| 26>                          ****END OF INPUT****

CARTESIAN COORDINATES (ANGSTROEM)
---------------------------------
  C     -2.317714   -0.199253   -0.565321
  C     -1.276887   -0.586567    0.487000
  C      0.008109    0.161147    0.241420
  O      0.125713    1.368295    0.280280
  O      1.004683   -0.666087   -0.048580
  C      2.298163   -0.120802   -0.327810
  H     -2.455369    0.879394   -0.570335
  H     -1.994176   -0.512562   -1.554822
  H     -3.266475   -0.676030   -0.339693
  H     -1.070829   -1.655339    0.459310
  H     -1.641500   -0.307031    1.476398
  H      2.719084   -0.717310   -1.132813
  H      2.913818   -0.199822    0.567587
  H      2.204155    0.925452   -0.620784

 Total Charge           Charge          ....    0
 Multiplicity           Mult            ....    1
 Number of Electrons    NEL             ....   48
 Basis Dimension        Dim             ....  164

ORBITAL ENERGIES
----------------

  NO   OCC          E(Eh)            E(eV)
   0   2.0000     -19.005471      -517.1652
   1   2.0000     -18.943486      -515.4785
   2   2.0000     -10.162714      -276.5415
   3   2.0000     -10.075324      -274.1635
   4   2.0000     -10.037896      -273.1450
   5   2.0000     -10.021171      -272.6899
   6   2.0000      -1.079739       -29.3812
   7   2.0000      -0.989602       -26.9284
   8   2.0000      -0.755560       -20.5598
   9   2.0000      -0.692248       -18.8370
  10   2.0000      -0.604771       -16.4566
  11   2.0000      -0.530459       -14.4345
  12   2.0000      -0.471044       -12.8178
  13   2.0000      -0.458514       -12.4768
  14   2.0000      -0.450108       -12.2481
  15   2.0000      -0.409775       -11.1505
  16   2.0000      -0.399468       -10.8701
  17   2.0000      -0.372995       -10.1497
  18   2.0000      -0.341914        -9.3040
  19   2.0000      -0.332218        -9.0401
  20   2.0000      -0.320105        -8.7105
  21   2.0000      -0.312565        -8.5053
  22   2.0000      -0.280128        -7.6227
  23   2.0000      -0.253476        -6.8974
  24   0.0000      -0.022711        -0.6180
  25   0.0000       0.071406         1.9431
  26   0.0000       0.105248         2.8640
  27   0.0000       0.131035         3.5657
  28   0.0000       0.140155         3.8138

MULLIKEN ATOMIC CHARGES
-----------------------
   0 C :   -0.492611
   1 C :   -0.302840
   2 C :    0.450396
   3 O :   -0.523254
   4 O :   -0.208437
   5 C :   -0.318855
   6 H :    0.166351
   7 H :    0.163271
   8 H :    0.170954
   9 H :    0.174774
  10 H :    0.185374
  11 H :    0.175551
  12 H :    0.178054
  13 H :    0.181273
Sum of atomic charges:   -0.0000000

LOEWDIN ATOMIC CHARGES
----------------------
   0 C :   -0.396978
   1 C :   -0.233185
   2 C :    0.365917
   3 O :   -0.499132
   4 O :   -0.604691
   5 C :   -0.041117
   6 H :    0.161344
   7 H :    0.159992
   8 H :    0.159988
   9 H :    0.181637
  10 H :    0.186196
  11 H :    0.186757
  12 H :    0.183335
  13 H :    0.189936

  Mayer bond orders larger than 0.100000
B(  0-C ,  1-C ) :   0.8850 B(  0-C ,  6-H ) :   0.9740 B(  0-C ,  7-H ) :   0.9713
B(  0-C ,  8-H ) :   0.9666 B(  1-C ,  2-C ) :   0.9654 B(  1-C ,  9-H ) :   0.9719
B(  1-C , 10-H ) :   0.9461 B(  2-C ,  3-O ) :   1.7570 B(  2-C ,  4-O ) :   1.0887
B(  4-O ,  5-C ) :   0.8288 B(  5-C , 11-H ) :   0.9588 B(  5-C , 12-H ) :   0.9522
B(  5-C , 13-H ) :   0.9619

Dispersion correction           -0.002966669
FINAL SINGLE POINT ENERGY      -307.635251916304

DIPOLE MOMENT
-------------

Method             : SCF
Type of density    : Electron Density
Multiplicity       :   1
Irrep              :   0
Energy             :  -307.6417599369460163 Eh
Relativity type    :
Basis              : AO
                                X                 Y                 Z
Electronic contribution:      2.633753464       1.037947564       1.438700233
Nuclear contribution   :     -2.414290486      -2.112888159      -1.605668356
                        -----------------------------------------
Total Dipole Moment    :      0.219462978      -1.074940595      -0.166968124
                        -----------------------------------------
Magnitude (a.u.)       :      1.109747555
Magnitude (Debye)      :      2.820754116

Rotational constants in cm-1:             0.259486             0.074502             0.065264
Rotational constants in MHz :          7779.187306          2233.510402          1956.578378

                             ****ORCA TERMINATED NORMALLY****
TOTAL RUN TIME: 0 days 0 hours 0 minutes 20 seconds 937 msec
