                         Program Version 6.0.0  -   RELEASE  -
|  1> ! wb97x-v def2-tzvp def2/J RIJCOSX DEFGRID2 scfconv7 GCP(DFT/TZ) printgap
|  2> %output
|  3>     printlevel normal
|  4> end
|  5> * xyz 0 1
|  6> C 1.7086076936512486 2.8195625266271773 0.9366552918971911
|  7> C 1.866350505493129 1.657384368640727 -0.017164072787977044
|  8> C 2.7868238868500077 0.5311267555905516 0.5160135311359705
|  9> C 1.9948505780840762 -0.715938772658537 0.2448439399527715
| 10> C 2.3273138687117743 -2.060285684513571 0.3134154658413317
| 11> C 1.3468382840782496 -3.0173255269402985 0.032054232345295364
| 12> C 0.05130084730319481 -2.6273378643618166 -0.30636686507654465
| 13> C -0.2735067372070495 -1.2779268026140609 -0.3785688296343951
| 14> C 0.7035680189275135 -0.33006586346201705 -0.10487531149358753
| 15> O 0.5122838703917437 1.0142162165643358 -0.14058640799711417
| 16> O -1.5477805684510408 -0.8909064528233095 -0.8034486102327546
| 17> C -2.319561305883544 -0.2107149418837022 0.12962566069655926
| 18> O -2.005290722405021 -0.10314670666311317 1.308846341637624
| 19> N -3.43173290774305 0.26639064270749224 -0.4379108557886356
| 20> C -4.411511398872599 1.0096905581199473 0.3435911713189255
| 21> C 2.2583658305200323 2.094575974926766 -1.4165073725505661
| 22> H 0.9949496781905812 3.550201768663196 0.544242962748409
| 23> H 1.3653524817013436 2.47215372813834 1.9153493787549924
| 24> H 2.6749991332206617 3.3168201179387817 1.0649472600646865
| 25> H 3.7539565574880718 0.5406000189389392 0.005457199817699266
| 26> H 2.971166097624817 0.6479932139615948 1.5905600230357066
| 27> H 3.333712680296555 -2.3659988633426066 0.5820540534306998
| 28> H 1.5898575848024108 -4.073442214373775 0.0781890332477109
| 29> H -0.7161924384938515 -3.3627831415600093 -0.5248976351046356
| 30> H -3.55715333477476 0.15504962350908597 -1.4323266392376568
| 31> H -3.9957470471664163 1.9538434989581601 0.7102501807406761
| 32> H -4.754313018051471 0.41898067739621736 1.197923432750445
| 33> H -5.265629042261887 1.2263050943676788 -0.2984827083577924
| 34> H 3.2365238314433253 2.5845953811914884 -1.3886790066508785
| 35> H 1.5257347971119442 2.8005644448286935 -1.8183731636457519
| 36> H 2.3237329048382604 1.2295178190472504 -2.0847332400041783
| 37> *
| 38>
| 39>                          ****END OF INPUT****

CARTESIAN COORDINATES (ANGSTROEM)
---------------------------------
  C      1.708608    2.819563    0.936655
  C      1.866351    1.657384   -0.017164
  C      2.786824    0.531127    0.516014
  C      1.994851   -0.715939    0.244844
  C      2.327314   -2.060286    0.313415
  C      1.346838   -3.017326    0.032054
  C      0.051301   -2.627338   -0.306367
  C     -0.273507   -1.277927   -0.378569
  C      0.703568   -0.330066   -0.104875
  O      0.512284    1.014216   -0.140586
  O     -1.547781   -0.890906   -0.803449
  C     -2.319561   -0.210715    0.129626
  O     -2.005291   -0.103147    1.308846
  N     -3.431733    0.266391   -0.437911
  C     -4.411511    1.009691    0.343591
  C      2.258366    2.094576   -1.416507
  H      0.994950    3.550202    0.544243
  H      1.365352    2.472154    1.915349
  H      2.674999    3.316820    1.064947
  H      3.753957    0.540600    0.005457
  H      2.971166    0.647993    1.590560
  H      3.333713   -2.365999    0.582054
  H      1.589858   -4.073442    0.078189
  H     -0.716192   -3.362783   -0.524898
  H     -3.557153    0.155050   -1.432327
  H     -3.995747    1.953843    0.710250
  H     -4.754313    0.418981    1.197923
  H     -5.265629    1.226305   -0.298483
  H      3.236524    2.584595   -1.388679
  H      1.525735    2.800564   -1.818373
  H      2.323733    1.229518   -2.084733

 Total Charge           Charge          ....    0
 Multiplicity           Mult            ....    1
 Number of Electrons    NEL             ....  118
 Basis Dimension        Dim             ....  586

ORBITAL ENERGIES
----------------

  NO   OCC          E(Eh)            E(eV)
   0   2.0000     -21.713009      -590.8410
   1   2.0000     -21.690989      -590.2418
   2   2.0000     -21.632706      -588.6559
   3   2.0000     -16.555783      -450.5057
   4   2.0000     -12.188913      -331.6772
   5   2.0000     -12.118670      -329.7658
   6   2.0000     -12.102962      -329.3383
   7   2.0000     -12.098218      -329.2092
   8   2.0000     -12.083443      -328.8072
   9   2.0000     -12.057728      -328.1075
  10   2.0000     -12.051732      -327.9443
  11   2.0000     -12.048883      -327.8668
  12   2.0000     -12.048583      -327.8586
  13   2.0000     -12.043102      -327.7095
  14   2.0000     -12.041887      -327.6764
  15   2.0000     -12.040882      -327.6491
  16   2.0000      -1.748705       -47.5847
  17   2.0000      -1.706147       -46.4266
  18   2.0000      -1.679160       -45.6923
  19   2.0000      -1.526195       -41.5299
  20   2.0000      -1.388654       -37.7872
  21   2.0000      -1.343433       -36.5567
  22   2.0000      -1.301463       -35.4146
  23   2.0000      -1.285440       -34.9786
  24   2.0000      -1.242125       -33.7999
  25   2.0000      -1.200011       -32.6539
  26   2.0000      -1.195815       -32.5398
  27   2.0000      -1.172594       -31.9079
  28   2.0000      -1.128334       -30.7035
  29   2.0000      -1.113955       -30.3123
  30   2.0000      -1.091206       -29.6932
  31   2.0000      -1.080364       -29.3982
  32   2.0000      -1.051452       -28.6115
  33   2.0000      -1.020834       -27.7783
  34   2.0000      -0.994893       -27.0724
  35   2.0000      -0.984191       -26.7812
  36   2.0000      -0.966045       -26.2874
  37   2.0000      -0.961178       -26.1550
  38   2.0000      -0.954133       -25.9633
  39   2.0000      -0.927381       -25.2353
  40   2.0000      -0.917699       -24.9719
  41   2.0000      -0.899899       -24.4875
  42   2.0000      -0.883578       -24.0434
  43   2.0000      -0.880124       -23.9494
  44   2.0000      -0.866881       -23.5890
  45   2.0000      -0.865630       -23.5550
  46   2.0000      -0.864878       -23.5345
  47   2.0000      -0.841052       -22.8862
  48   2.0000      -0.837590       -22.7920
  49   2.0000      -0.832621       -22.6568
  50   2.0000      -0.828188       -22.5361
  51   2.0000      -0.817804       -22.2536
  52   2.0000      -0.814591       -22.1662
  53   2.0000      -0.795941       -21.6587
  54   2.0000      -0.790193       -21.5022
  55   2.0000      -0.759488       -20.6667
  56   2.0000      -0.757046       -20.6003
  57   2.0000      -0.643611       -17.5136
  58   2.0000      -0.629582       -17.1318
  59   0.0000      -0.268940        -7.3182
  60   0.0000      -0.249357        -6.7854
  61   0.0000      -0.240411        -6.5419
  62   0.0000      -0.210590        -5.7304
  63   0.0000      -0.193912        -5.2766

MULLIKEN ATOMIC CHARGES
-----------------------
   0 C :   -0.367779
   1 C :    0.281407
   2 C :   -0.158602
   3 C :   -0.013685
   4 C :   -0.250216
   5 C :   -0.095359
   6 C :   -0.220348
   7 C :    0.131427
   8 C :    0.243320
   9 O :   -0.273096
  10 O :   -0.298071
  11 C :    0.412184
  12 O :   -0.390513
  13 N :   -0.313295
  14 C :   -0.222576
  15 C :   -0.386295
  16 H :    0.120395
  17 H :    0.133422
  18 H :    0.111623
  19 H :    0.115925
  20 H :    0.107473
  21 H :    0.114705
  22 H :    0.112793
  23 H :    0.119002
  24 H :    0.237276
  25 H :    0.131320
  26 H :    0.136274
  27 H :    0.116300
  28 H :    0.112847
  29 H :    0.119498
  30 H :    0.132645
Sum of atomic charges:   -0.0000000

LOEWDIN ATOMIC CHARGES
----------------------
   0 C :   -0.253134
   1 C :   -0.313766
   2 C :   -0.152499
   3 C :   -0.124681
   4 C :   -0.117588
   5 C :   -0.152090
   6 C :   -0.109485
   7 C :   -0.197436
   8 C :   -0.194978
   9 O :    0.265499
  10 O :    0.272411
  11 C :   -0.547763
  12 O :    0.057009
  13 N :    0.093626
  14 C :   -0.291651
  15 C :   -0.253153
  16 H :    0.126256
  17 H :    0.129179
  18 H :    0.126732
  19 H :    0.144562
  20 H :    0.146198
  21 H :    0.142737
  22 H :    0.140478
  23 H :    0.148172
  24 H :    0.185766
  25 H :    0.116168
  26 H :    0.119457
  27 H :    0.113857
  28 H :    0.124810
  29 H :    0.125501
  30 H :    0.129808

  Mayer bond orders larger than 0.100000
B(  0-C ,  1-C ) :   0.9535 B(  0-C , 16-H ) :   0.9799 B(  0-C , 17-H ) :   0.9812
B(  0-C , 18-H ) :   0.9710 B(  1-C ,  2-C ) :   0.9850 B(  1-C ,  9-O ) :   0.8514
B(  1-C , 15-C ) :   0.9872 B(  2-C ,  3-C ) :   1.0059 B(  2-C , 19-H ) :   0.9638
B(  2-C , 20-H ) :   0.9173 B(  3-C ,  4-C ) :   1.3659 B(  3-C ,  8-C ) :   1.2891
B(  4-C ,  5-C ) :   1.4370 B(  4-C , 21-H ) :   0.9752 B(  5-C ,  6-C ) :   1.4264
B(  5-C , 22-H ) :   0.9821 B(  6-C ,  7-C ) :   1.4671 B(  6-C , 23-H ) :   0.9709
B(  7-C ,  8-C ) :   1.3374 B(  7-C , 10-O ) :   0.9707 B(  8-C ,  9-O ) :   1.1734
B( 10-O , 11-C ) :   1.0718 B( 11-C , 12-O ) :   2.0182 B( 11-C , 13-N ) :   1.2736
B( 13-N , 14-C ) :   0.9317 B( 13-N , 24-H ) :   0.9157 B( 14-C , 25-H ) :   0.9785
B( 14-C , 26-H ) :   0.9767 B( 14-C , 27-H ) :   0.9700 B( 15-C , 28-H ) :   0.9708
B( 15-C , 29-H ) :   0.9787 B( 15-C , 30-H ) :   0.9727

FINAL SINGLE POINT ENERGY      -746.812435268045

DIPOLE MOMENT
-------------

Method             : SCF
Type of density    : Electron Density
Multiplicity       :   1
Irrep              :   0
Energy             :  -746.8326545477453919 Eh
Relativity type    :
Basis              : AO
                                X                 Y                 Z
Electronic contribution:     -4.655953740     -10.450898532      -0.691076428
Nuclear contribution   :      4.735554066      11.068562323      -0.078825630
                        -----------------------------------------
Total Dipole Moment    :      0.079600326       0.617663791      -0.769902058
                        -----------------------------------------
Magnitude (a.u.)       :      0.990249438
Magnitude (Debye)      :      2.517014040

Rotational constants in cm-1:             0.024454             0.014091             0.010078
Rotational constants in MHz :           733.123029           422.427181           302.133755

                             ****ORCA TERMINATED NORMALLY****
TOTAL RUN TIME: 0 days 0 hours 11 minutes 23 seconds 168 msec
