                         Program Version 6.0.0  -   RELEASE  -
|  1> ! wb97x-v def2-tzvp def2/J RIJCOSX DEFGRID2 scfconv7 GCP(DFT/TZ) printgap
|  2> %output
|  3>     printlevel normal
|  4> end
|  5> %cpcm
|  6>     smd true
|  7>     smdsolvent "water"
|  8> end
|  9> * xyz 0 1
| 10> C 1.7086076936512486 2.8195625266271773 0.9366552918971911
| 11> C 1.866350505493129 1.657384368640727 -0.017164072787977044
| 12> C 2.7868238868500077 0.5311267555905516 0.5160135311359705
| 13> C 1.9948505780840762 -0.715938772658537 0.2448439399527715
| 14> C 2.3273138687117743 -2.060285684513571 0.3134154658413317
| 15> C 1.3468382840782496 -3.0173255269402985 0.032054232345295364
| 16> C 0.05130084730319481 -2.6273378643618166 -0.30636686507654465
| 17> C -0.2735067372070495 -1.2779268026140609 -0.3785688296343951
| 18> C 0.7035680189275135 -0.33006586346201705 -0.10487531149358753
| 19> O 0.5122838703917437 1.0142162165643358 -0.14058640799711417
| 20> O -1.5477805684510408 -0.8909064528233095 -0.8034486102327546
| 21> C -2.319561305883544 -0.2107149418837022 0.12962566069655926
| 22> O -2.005290722405021 -0.10314670666311317 1.308846341637624
| 23> N -3.43173290774305 0.26639064270749224 -0.4379108557886356
| 24> C -4.411511398872599 1.0096905581199473 0.3435911713189255
| 25> C 2.2583658305200323 2.094575974926766 -1.4165073725505661
| 26> H 0.9949496781905812 3.550201768663196 0.544242962748409
| 27> H 1.3653524817013436 2.47215372813834 1.9153493787549924
| 28> H 2.6749991332206617 3.3168201179387817 1.0649472600646865
| 29> H 3.7539565574880718 0.5406000189389392 0.005457199817699266
| 30> H 2.971166097624817 0.6479932139615948 1.5905600230357066
| 31> H 3.333712680296555 -2.3659988633426066 0.5820540534306998
| 32> H 1.5898575848024108 -4.073442214373775 0.0781890332477109
| 33> H -0.7161924384938515 -3.3627831415600093 -0.5248976351046356
| 34> H -3.55715333477476 0.15504962350908597 -1.4323266392376568
| 35> H -3.9957470471664163 1.9538434989581601 0.7102501807406761
| 36> H -4.754313018051471 0.41898067739621736 1.197923432750445
| 37> H -5.265629042261887 1.2263050943676788 -0.2984827083577924
| 38> H 3.2365238314433253 2.5845953811914884 -1.3886790066508785
| 39> H 1.5257347971119442 2.8005644448286935 -1.8183731636457519
| 40> H 2.3237329048382604 1.2295178190472504 -2.0847332400041783
| 41> *
| 42>
| 43>                          ****END OF INPUT****

CARTESIAN COORDINATES (ANGSTROEM)
---------------------------------
  C      1.708608    2.819563    0.936655
  C      1.866351    1.657384   -0.017164
  C      2.786824    0.531127    0.516014
  C      1.994851   -0.715939    0.244844
  C      2.327314   -2.060286    0.313415
  C      1.346838   -3.017326    0.032054
  C      0.051301   -2.627338   -0.306367
  C     -0.273507   -1.277927   -0.378569
  C      0.703568   -0.330066   -0.104875
  O      0.512284    1.014216   -0.140586
  O     -1.547781   -0.890906   -0.803449
  C     -2.319561   -0.210715    0.129626
  O     -2.005291   -0.103147    1.308846
  N     -3.431733    0.266391   -0.437911
  C     -4.411511    1.009691    0.343591
  C      2.258366    2.094576   -1.416507
  H      0.994950    3.550202    0.544243
  H      1.365352    2.472154    1.915349
  H      2.674999    3.316820    1.064947
  H      3.753957    0.540600    0.005457
  H      2.971166    0.647993    1.590560
  H      3.333713   -2.365999    0.582054
  H      1.589858   -4.073442    0.078189
  H     -0.716192   -3.362783   -0.524898
  H     -3.557153    0.155050   -1.432327
  H     -3.995747    1.953843    0.710250
  H     -4.754313    0.418981    1.197923
  H     -5.265629    1.226305   -0.298483
  H      3.236524    2.584595   -1.388679
  H      1.525735    2.800564   -1.818373
  H      2.323733    1.229518   -2.084733

 Total Charge           Charge          ....    0
 Multiplicity           Mult            ....    1
 Number of Electrons    NEL             ....  118
 Basis Dimension        Dim             ....  586

ORBITAL ENERGIES
----------------

  NO   OCC          E(Eh)            E(eV)
   0   2.0000     -21.729865      -591.2997
   1   2.0000     -21.701943      -590.5399
   2   2.0000     -21.659853      -589.3946
   3   2.0000     -16.558808      -450.5881
   4   2.0000     -12.209052      -332.2252
   5   2.0000     -12.115296      -329.6740
   6   2.0000     -12.113686      -329.6301
   7   2.0000     -12.107943      -329.4739
   8   2.0000     -12.073454      -328.5354
   9   2.0000     -12.057821      -328.1100
  10   2.0000     -12.055421      -328.0447
  11   2.0000     -12.053093      -327.9813
  12   2.0000     -12.049645      -327.8875
  13   2.0000     -12.048644      -327.8603
  14   2.0000     -12.031681      -327.3987
  15   2.0000     -12.030893      -327.3772
  16   2.0000      -1.768040       -48.1108
  17   2.0000      -1.717847       -46.7450
  18   2.0000      -1.705595       -46.4116
  19   2.0000      -1.530104       -41.6363
  20   2.0000      -1.397409       -38.0254
  21   2.0000      -1.341962       -36.5166
  22   2.0000      -1.306441       -35.5501
  23   2.0000      -1.292703       -35.1762
  24   2.0000      -1.244728       -33.8708
  25   2.0000      -1.198590       -32.6153
  26   2.0000      -1.187226       -32.3061
  27   2.0000      -1.178279       -32.0626
  28   2.0000      -1.135584       -30.9008
  29   2.0000      -1.124398       -30.5964
  30   2.0000      -1.099862       -29.9288
  31   2.0000      -1.084524       -29.5114
  32   2.0000      -1.070897       -29.1406
  33   2.0000      -1.029950       -28.0264
  34   2.0000      -1.013578       -27.5809
  35   2.0000      -0.995780       -27.0965
  36   2.0000      -0.971265       -26.4295
  37   2.0000      -0.964630       -26.2489
  38   2.0000      -0.956183       -26.0191
  39   2.0000      -0.936614       -25.4866
  40   2.0000      -0.922486       -25.1021
  41   2.0000      -0.914232       -24.8775
  42   2.0000      -0.895281       -24.3618
  43   2.0000      -0.879770       -23.9398
  44   2.0000      -0.876508       -23.8510
  45   2.0000      -0.873443       -23.7676
  46   2.0000      -0.863033       -23.4843
  47   2.0000      -0.843993       -22.9662
  48   2.0000      -0.829941       -22.5838
  49   2.0000      -0.827893       -22.5281
  50   2.0000      -0.821916       -22.3655
  51   2.0000      -0.814063       -22.1518
  52   2.0000      -0.805643       -21.9227
  53   2.0000      -0.788483       -21.4557
  54   2.0000      -0.783289       -21.3144
  55   2.0000      -0.764915       -20.8144
  56   2.0000      -0.759271       -20.6608
  57   2.0000      -0.653163       -17.7735
  58   2.0000      -0.638362       -17.3707
  59   0.0000      -0.285293        -7.7632
  60   0.0000      -0.259673        -7.0661
  61   0.0000      -0.248448        -6.7606
  62   0.0000      -0.220593        -6.0026
  63   0.0000      -0.194792        -5.3006

MULLIKEN ATOMIC CHARGES
-----------------------
   0 C :   -0.423464
   1 C :    0.332691
   2 C :   -0.160205
   3 C :   -0.036293
   4 C :   -0.283744
   5 C :   -0.147329
   6 C :   -0.262067
   7 C :    0.114945
   8 C :    0.225082
   9 O :   -0.336176
  10 O :   -0.304726
  11 C :    0.456678
  12 O :   -0.520019
  13 N :   -0.295778
  14 C :   -0.282347
  15 C :   -0.439838
  16 H :    0.140089
  17 H :    0.139281
  18 H :    0.141464
  19 H :    0.147482
  20 H :    0.131749
  21 H :    0.162983
  22 H :    0.162122
  23 H :    0.165138
  24 H :    0.293276
  25 H :    0.147714
  26 H :    0.148311
  27 H :    0.159928
  28 H :    0.141776
  29 H :    0.136696
  30 H :    0.144584
Sum of atomic charges:   -0.0000000

LOEWDIN ATOMIC CHARGES
----------------------
   0 C :   -0.257017
   1 C :   -0.309580
   2 C :   -0.143047
   3 C :   -0.122617
   4 C :   -0.116792
   5 C :   -0.158631
   6 C :   -0.119751
   7 C :   -0.217524
   8 C :   -0.210926
   9 O :    0.237395
  10 O :    0.270081
  11 C :   -0.544331
  12 O :   -0.017216
  13 N :    0.115584
  14 C :   -0.288639
  15 C :   -0.254658
  16 H :    0.128885
  17 H :    0.128695
  18 H :    0.136236
  19 H :    0.155231
  20 H :    0.154124
  21 H :    0.155123
  22 H :    0.151334
  23 H :    0.159019
  24 H :    0.206872
  25 H :    0.119475
  26 H :    0.121206
  27 H :    0.128170
  28 H :    0.134002
  29 H :    0.127843
  30 H :    0.131455

  Mayer bond orders larger than 0.100000
B(  0-C ,  1-C ) :   0.9577 B(  0-C , 16-H ) :   0.9768 B(  0-C , 17-H ) :   0.9743
B(  0-C , 18-H ) :   0.9689 B(  1-C ,  2-C ) :   0.9793 B(  1-C ,  9-O ) :   0.7754
B(  1-C , 15-C ) :   0.9853 B(  2-C ,  3-C ) :   1.0117 B(  2-C , 19-H ) :   0.9540
B(  2-C , 20-H ) :   0.9182 B(  3-C ,  4-C ) :   1.3430 B(  3-C ,  8-C ) :   1.2843
B(  4-C ,  5-C ) :   1.4109 B(  4-C , 21-H ) :   0.9800 B(  5-C ,  6-C ) :   1.4119
B(  5-C , 22-H ) :   0.9847 B(  6-C ,  7-C ) :   1.4371 B(  6-C , 23-H ) :   0.9761
B(  7-C ,  8-C ) :   1.3239 B(  7-C , 10-O ) :   0.9608 B(  8-C ,  9-O ) :   1.1647
B( 10-O , 11-C ) :   1.0902 B( 11-C , 12-O ) :   1.8683 B( 11-C , 13-N ) :   1.3513
B( 13-N , 14-C ) :   0.9146 B( 13-N , 24-H ) :   0.8887 B( 14-C , 25-H ) :   0.9732
B( 14-C , 26-H ) :   0.9719 B( 14-C , 27-H ) :   0.9646 B( 15-C , 28-H ) :   0.9680
B( 15-C , 29-H ) :   0.9754 B( 15-C , 30-H ) :   0.9676

FINAL SINGLE POINT ENERGY      -746.830634384084

DIPOLE MOMENT
-------------

Method             : SCF
Type of density    : Electron Density
Multiplicity       :   1
Irrep              :   0
Energy             :  -746.8508536637838233 Eh
Relativity type    :
Basis              : AO
                                X                 Y                 Z
Electronic contribution:     -4.400944782     -10.340171991      -1.108718803
Nuclear contribution   :      4.735554066      11.068562323      -0.078825630
                        -----------------------------------------
Total Dipole Moment    :      0.334609284       0.728390332      -1.187544433
                        -----------------------------------------
Magnitude (a.u.)       :      1.432751768
Magnitude (Debye)      :      3.641765579

Rotational constants in cm-1:             0.024454             0.014091             0.010078
Rotational constants in MHz :           733.123029           422.427181           302.133755

                             ****ORCA TERMINATED NORMALLY****
TOTAL RUN TIME: 0 days 0 hours 11 minutes 29 seconds 86 msec
