                         Program Version 6.0.0  -   RELEASE  -
|  1> ! r2scan-3c def2/J RI DEFGRID2 scfconv6 printgap
|  2> %output
|  3>     printlevel normal
|  4> end
|  5> * xyz 0 1
|  6> C -3.9294551056 -0.3080862086 -0.002661152
|  7> C -3.7202986766 1.0639690063 -0.002019871
|  8> C -2.4325427391 1.5674674074 -0.0001629982
|  9> C -1.3332148996 0.7118703446 0.0009122364
| 10> C -1.5455215304 -0.6716046159 0.0005593845
| 11> C -2.8478034582 -1.1684512713 -0.0011838011
| 12> C -0.4146882192 -1.6100727559 0.0013101784
| 13> O -0.5909865626 -2.8270327756 0.0019564178
| 14> C 0.9357436357 -1.0231194711 0.0006517721
| 15> C 2.007220187 -1.9000585092 0.000336409
| 16> C 3.3154007484 -1.4196055055 -0.0009526183
| 17> C 3.5476854412 -0.0710727513 -0.0019357074
| 18> C 2.4829189901 0.8617694387 -0.0012115677
| 19> C 1.1440675674 0.3761312497 0.0002191375
| 20> C 0.0242194031 1.2947341178 0.0020310288
| 21> O 0.1545550822 2.5289469106 0.0043154943
| 22> N 2.7634318953 2.1680273091 -0.0025517393
| 23> H -4.9328006697 -0.7040835768 -0.0045791565
| 24> H -4.5612072498 1.7396519405 -0.0032588359
| 25> H -2.2483408281 2.6316426524 0.0002506489
| 26> H -2.9812642761 -2.2402317998 -0.0015352959
| 27> H 1.8011757092 -2.9593988432 0.0009974274
| 28> H 4.1399157288 -2.1150472707 -0.0012306708
| 29> H 4.5575572581 0.3094446807 -0.0031241805
| 30> H 1.9952073874 2.8267962699 -0.0002344323
| 31> H 3.7197193638 2.476796534 -0.0024351946
| 32> *
| 33>
| 34>                          ****END OF INPUT****

CARTESIAN COORDINATES (ANGSTROEM)
---------------------------------
  C     -3.929455   -0.308086   -0.002661
  C     -3.720299    1.063969   -0.002020
  C     -2.432543    1.567467   -0.000163
  C     -1.333215    0.711870    0.000912
  C     -1.545522   -0.671605    0.000559
  C     -2.847803   -1.168451   -0.001184
  C     -0.414688   -1.610073    0.001310
  O     -0.590987   -2.827033    0.001956
  C      0.935744   -1.023119    0.000652
  C      2.007220   -1.900059    0.000336
  C      3.315401   -1.419606   -0.000953
  C      3.547685   -0.071073   -0.001936
  C      2.482919    0.861769   -0.001212
  C      1.144068    0.376131    0.000219
  C      0.024219    1.294734    0.002031
  O      0.154555    2.528947    0.004315
  N      2.763432    2.168027   -0.002552
  H     -4.932801   -0.704084   -0.004579
  H     -4.561207    1.739652   -0.003259
  H     -2.248341    2.631643    0.000251
  H     -2.981264   -2.240232   -0.001535
  H      1.801176   -2.959399    0.000997
  H      4.139916   -2.115047   -0.001231
  H      4.557557    0.309445   -0.003124
  H      1.995207    2.826796   -0.000234
  H      3.719719    2.476797   -0.002435

 Total Charge           Charge          ....    0
 Multiplicity           Mult            ....    1
 Number of Electrons    NEL             ....  116
 Basis Dimension        Dim             ....  383

ORBITAL ENERGIES
----------------

  NO   OCC          E(Eh)            E(eV)
   0   2.0000     -18.942159      -515.4424
   1   2.0000     -18.937880      -515.3259
   2   2.0000     -14.186056      -386.0222
   3   2.0000     -10.125168      -275.5198
   4   2.0000     -10.122264      -275.4408
   5   2.0000     -10.106518      -275.0123
   6   2.0000     -10.059474      -273.7322
   7   2.0000     -10.059361      -273.7291
   8   2.0000     -10.057607      -273.6814
   9   2.0000     -10.057146      -273.6689
  10   2.0000     -10.056700      -273.6567
  11   2.0000     -10.054233      -273.5896
  12   2.0000     -10.053532      -273.5705
  13   2.0000     -10.053364      -273.5659
  14   2.0000     -10.050563      -273.4897
  15   2.0000     -10.050018      -273.4749
  16   2.0000     -10.042255      -273.2637
  17   2.0000      -1.006853       -27.3979
  18   2.0000      -1.001980       -27.2652
  19   2.0000      -0.917604       -24.9693
  20   2.0000      -0.850589       -23.1457
  21   2.0000      -0.830909       -22.6102
  22   2.0000      -0.774991       -21.0886
  23   2.0000      -0.737659       -20.0727
  24   2.0000      -0.733190       -19.9511
  25   2.0000      -0.720012       -19.5925
  26   2.0000      -0.651832       -17.7373
  27   2.0000      -0.631404       -17.1814
  28   2.0000      -0.611595       -16.6424
  29   2.0000      -0.578846       -15.7512
  30   2.0000      -0.551016       -14.9939
  31   2.0000      -0.539749       -14.6873
  32   2.0000      -0.520200       -14.1554
  33   2.0000      -0.495016       -13.4701
  34   2.0000      -0.471320       -12.8253
  35   2.0000      -0.460529       -12.5316
  36   2.0000      -0.448199       -12.1961
  37   2.0000      -0.437989       -11.9183
  38   2.0000      -0.430669       -11.7191
  39   2.0000      -0.419248       -11.4083
  40   2.0000      -0.407417       -11.0864
  41   2.0000      -0.403320       -10.9749
  42   2.0000      -0.397633       -10.8201
  43   2.0000      -0.387858       -10.5542
  44   2.0000      -0.379666       -10.3312
  45   2.0000      -0.369633       -10.0582
  46   2.0000      -0.358499        -9.7552
  47   2.0000      -0.348229        -9.4758
  48   2.0000      -0.339774        -9.2457
  49   2.0000      -0.332848        -9.0573
  50   2.0000      -0.323728        -8.8091
  51   2.0000      -0.306503        -8.3404
  52   2.0000      -0.261560        -7.1174
  53   2.0000      -0.252616        -6.8740
  54   2.0000      -0.250635        -6.8201
  55   2.0000      -0.235153        -6.3988
  56   2.0000      -0.222714        -6.0604
  57   2.0000      -0.203680        -5.5424
  58   0.0000      -0.129274        -3.5177
  59   0.0000      -0.079768        -2.1706
  60   0.0000      -0.050572        -1.3761
  61   0.0000      -0.028885        -0.7860
  62   0.0000       0.022602         0.6150

MULLIKEN ATOMIC CHARGES
-----------------------
   0 C :   -0.130611
   1 C :   -0.126452
   2 C :   -0.226126
   3 C :    0.179185
   4 C :    0.140632
   5 C :   -0.213970
   6 C :    0.037408
   7 O :   -0.354031
   8 C :    0.215106
   9 C :   -0.245553
  10 C :   -0.118757
  11 C :   -0.382674
  12 C :    0.504756
  13 C :   -0.139469
  14 C :    0.046192
  15 O :   -0.436242
  16 N :   -0.431013
  17 H :    0.149148
  18 H :    0.148905
  19 H :    0.182144
  20 H :    0.182209
  21 H :    0.185129
  22 H :    0.149205
  23 H :    0.139697
  24 H :    0.303264
  25 H :    0.241917
Sum of atomic charges:   -0.0000000

LOEWDIN ATOMIC CHARGES
----------------------
   0 C :   -0.142600
   1 C :   -0.139929
   2 C :   -0.101288
   3 C :   -0.026941
   4 C :   -0.035158
   5 C :   -0.096841
   6 C :    0.269800
   7 O :   -0.478967
   8 C :   -0.024274
   9 C :   -0.123293
  10 C :   -0.128616
  11 C :   -0.132937
  12 C :    0.186385
  13 C :   -0.041405
  14 C :    0.272010
  15 O :   -0.528847
  16 N :   -0.534230
  17 H :    0.170737
  18 H :    0.170621
  19 H :    0.192773
  20 H :    0.192028
  21 H :    0.193569
  22 H :    0.172498
  23 H :    0.171727
  24 H :    0.284879
  25 H :    0.258301

  Mayer bond orders larger than 0.100000
B(  0-C ,  1-C ) :   1.3227 B(  0-C ,  5-C ) :   1.3565 B(  0-C , 17-H ) :   0.9556
B(  1-C ,  2-C ) :   1.3496 B(  1-C , 18-H ) :   0.9555 B(  2-C ,  3-C ) :   1.3554
B(  2-C , 15-O ) :   0.1039 B(  2-C , 19-H ) :   0.9613 B(  3-C ,  4-C ) :   1.5187
B(  3-C , 14-C ) :   0.9235 B(  3-C , 15-O ) :  -0.2001 B(  4-C ,  5-C ) :   1.3510
B(  4-C ,  6-C ) :   0.8521 B(  4-C ,  7-O ) :  -0.2206 B(  5-C ,  7-O ) :   0.1081
B(  5-C , 20-H ) :   0.9633 B(  6-C ,  7-O ) :   2.0958 B(  6-C ,  8-C ) :   0.8625
B(  7-O ,  8-C ) :  -0.2144 B(  7-O ,  9-C ) :   0.1228 B(  8-C ,  9-C ) :   1.4140
B(  8-C , 13-C ) :   1.2807 B(  8-C , 14-C ) :  -0.1003 B(  9-C , 10-C ) :   1.2567
B(  9-C , 21-H ) :   0.9617 B( 10-C , 11-C ) :   1.4091 B( 10-C , 22-H ) :   0.9579
B( 11-C , 12-C ) :   1.1297 B( 11-C , 23-H ) :   0.9559 B( 12-C , 13-C ) :   1.2906
B( 12-C , 16-N ) :   1.0910 B( 13-C , 14-C ) :   0.9629 B( 13-C , 15-O ) :  -0.1353
B( 14-C , 15-O ) :   1.8943 B( 16-N , 24-H ) :   0.8516 B( 16-N , 25-H ) :   0.9324

Dispersion correction           -0.012589591
FINAL SINGLE POINT ENERGY      -743.986897922231

DIPOLE MOMENT
-------------

Method             : SCF
Type of density    : Electron Density
Multiplicity       :   1
Irrep              :   0
Energy             :  -743.9842452564359974 Eh
Relativity type    :
Basis              : AO
                                X                 Y                 Z
Electronic contribution:     -0.723649453      -1.103057557       0.010779468
Nuclear contribution   :      1.406566576       1.851545366      -0.014134195
                        -----------------------------------------
Total Dipole Moment    :      0.682917124       0.748487809      -0.003354726
                        -----------------------------------------
Magnitude (a.u.)       :      1.013223100
Magnitude (Debye)      :      2.575408450

Rotational constants in cm-1:             0.030455             0.013638             0.009420
Rotational constants in MHz :           913.010540           408.852326           282.394516

                             ****ORCA TERMINATED NORMALLY****
TOTAL RUN TIME: 0 days 0 hours 0 minutes 59 seconds 586 msec
