                         Program Version 6.0.0  -   RELEASE  -
|  1> ! r2scan-3c def2/J RI DEFGRID2 scfconv6 printgap
|  2> %output
|  3>     printlevel normal
|  4> end
|  5> %cpcm
|  6>     smd true
|  7>     smdsolvent "water"
|  8> end
|  9> * xyz 0 1
| 10> C -3.9294551056 -0.3080862086 -0.002661152
| 11> C -3.7202986766 1.0639690063 -0.002019871
| 12> C -2.4325427391 1.5674674074 -0.0001629982
| 13> C -1.3332148996 0.7118703446 0.0009122364
| 14> C -1.5455215304 -0.6716046159 0.0005593845
| 15> C -2.8478034582 -1.1684512713 -0.0011838011
| 16> C -0.4146882192 -1.6100727559 0.0013101784
| 17> O -0.5909865626 -2.8270327756 0.0019564178
| 18> C 0.9357436357 -1.0231194711 0.0006517721
| 19> C 2.007220187 -1.9000585092 0.000336409
| 20> C 3.3154007484 -1.4196055055 -0.0009526183
| 21> C 3.5476854412 -0.0710727513 -0.0019357074
| 22> C 2.4829189901 0.8617694387 -0.0012115677
| 23> C 1.1440675674 0.3761312497 0.0002191375
| 24> C 0.0242194031 1.2947341178 0.0020310288
| 25> O 0.1545550822 2.5289469106 0.0043154943
| 26> N 2.7634318953 2.1680273091 -0.0025517393
| 27> H -4.9328006697 -0.7040835768 -0.0045791565
| 28> H -4.5612072498 1.7396519405 -0.0032588359
| 29> H -2.2483408281 2.6316426524 0.0002506489
| 30> H -2.9812642761 -2.2402317998 -0.0015352959
| 31> H 1.8011757092 -2.9593988432 0.0009974274
| 32> H 4.1399157288 -2.1150472707 -0.0012306708
| 33> H 4.5575572581 0.3094446807 -0.0031241805
| 34> H 1.9952073874 2.8267962699 -0.0002344323
| 35> H 3.7197193638 2.476796534 -0.0024351946
| 36> *
| 37>
| 38>                          ****END OF INPUT****

CARTESIAN COORDINATES (ANGSTROEM)
---------------------------------
  C     -3.929455   -0.308086   -0.002661
  C     -3.720299    1.063969   -0.002020
  C     -2.432543    1.567467   -0.000163
  C     -1.333215    0.711870    0.000912
  C     -1.545522   -0.671605    0.000559
  C     -2.847803   -1.168451   -0.001184
  C     -0.414688   -1.610073    0.001310
  O     -0.590987   -2.827033    0.001956
  C      0.935744   -1.023119    0.000652
  C      2.007220   -1.900059    0.000336
  C      3.315401   -1.419606   -0.000953
  C      3.547685   -0.071073   -0.001936
  C      2.482919    0.861769   -0.001212
  C      1.144068    0.376131    0.000219
  C      0.024219    1.294734    0.002031
  O      0.154555    2.528947    0.004315
  N      2.763432    2.168027   -0.002552
  H     -4.932801   -0.704084   -0.004579
  H     -4.561207    1.739652   -0.003259
  H     -2.248341    2.631643    0.000251
  H     -2.981264   -2.240232   -0.001535
  H      1.801176   -2.959399    0.000997
  H      4.139916   -2.115047   -0.001231
  H      4.557557    0.309445   -0.003124
  H      1.995207    2.826796   -0.000234
  H      3.719719    2.476797   -0.002435

 Total Charge           Charge          ....    0
 Multiplicity           Mult            ....    1
 Number of Electrons    NEL             ....  116
 Basis Dimension        Dim             ....  383

ORBITAL ENERGIES
----------------

  NO   OCC          E(Eh)            E(eV)
   0   2.0000     -18.949146      -515.6325
   1   2.0000     -18.946549      -515.5618
   2   2.0000     -14.177148      -385.7798
   3   2.0000     -10.132093      -275.7083
   4   2.0000     -10.128442      -275.6089
   5   2.0000     -10.102348      -274.8989
   6   2.0000     -10.060421      -273.7580
   7   2.0000     -10.060030      -273.7473
   8   2.0000     -10.058995      -273.7192
   9   2.0000     -10.055667      -273.6286
  10   2.0000     -10.050365      -273.4843
  11   2.0000     -10.050165      -273.4789
  12   2.0000     -10.049977      -273.4738
  13   2.0000     -10.048698      -273.4390
  14   2.0000     -10.048537      -273.4346
  15   2.0000     -10.046763      -273.3863
  16   2.0000     -10.042745      -273.2770
  17   2.0000      -1.016045       -27.6480
  18   2.0000      -1.012005       -27.5381
  19   2.0000      -0.909955       -24.7611
  20   2.0000      -0.850927       -23.1549
  21   2.0000      -0.828877       -22.5549
  22   2.0000      -0.773037       -21.0354
  23   2.0000      -0.737964       -20.0810
  24   2.0000      -0.730601       -19.8807
  25   2.0000      -0.717776       -19.5317
  26   2.0000      -0.651775       -17.7357
  27   2.0000      -0.628218       -17.0947
  28   2.0000      -0.608950       -16.5704
  29   2.0000      -0.574636       -15.6366
  30   2.0000      -0.550290       -14.9742
  31   2.0000      -0.534047       -14.5322
  32   2.0000      -0.518377       -14.1057
  33   2.0000      -0.487838       -13.2747
  34   2.0000      -0.469842       -12.7850
  35   2.0000      -0.460986       -12.5441
  36   2.0000      -0.443336       -12.0638
  37   2.0000      -0.433815       -11.8047
  38   2.0000      -0.427695       -11.6382
  39   2.0000      -0.422573       -11.4988
  40   2.0000      -0.414514       -11.2795
  41   2.0000      -0.406561       -11.0631
  42   2.0000      -0.399082       -10.8596
  43   2.0000      -0.388728       -10.5778
  44   2.0000      -0.385027       -10.4771
  45   2.0000      -0.371654       -10.1132
  46   2.0000      -0.350832        -9.5466
  47   2.0000      -0.345778        -9.4091
  48   2.0000      -0.341674        -9.2974
  49   2.0000      -0.329884        -8.9766
  50   2.0000      -0.322869        -8.7857
  51   2.0000      -0.305775        -8.3206
  52   2.0000      -0.264923        -7.2089
  53   2.0000      -0.252305        -6.8656
  54   2.0000      -0.251290        -6.8379
  55   2.0000      -0.245086        -6.6691
  56   2.0000      -0.231904        -6.3104
  57   2.0000      -0.201591        -5.4856
  58   0.0000      -0.133547        -3.6340
  59   0.0000      -0.080733        -2.1968
  60   0.0000      -0.048856        -1.3294
  61   0.0000      -0.027800        -0.7565
  62   0.0000       0.024239         0.6596

MULLIKEN ATOMIC CHARGES
-----------------------
   0 C :   -0.168409
   1 C :   -0.158229
   2 C :   -0.240648
   3 C :    0.188475
   4 C :    0.141515
   5 C :   -0.226565
   6 C :    0.080662
   7 O :   -0.441155
   8 C :    0.204709
   9 C :   -0.250037
  10 C :   -0.156733
  11 C :   -0.368062
  12 C :    0.478436
  13 C :   -0.142564
  14 C :    0.060582
  15 O :   -0.496005
  16 N :   -0.482162
  17 H :    0.185597
  18 H :    0.185817
  19 H :    0.197275
  20 H :    0.196252
  21 H :    0.197337
  22 H :    0.186182
  23 H :    0.188244
  24 H :    0.332431
  25 H :    0.307056
Sum of atomic charges:   -0.0000000

LOEWDIN ATOMIC CHARGES
----------------------
   0 C :   -0.138047
   1 C :   -0.131888
   2 C :   -0.107523
   3 C :   -0.028917
   4 C :   -0.041429
   5 C :   -0.101755
   6 C :    0.276599
   7 O :   -0.548668
   8 C :   -0.033389
   9 C :   -0.126418
  10 C :   -0.127163
  11 C :   -0.114000
  12 C :    0.185673
  13 C :   -0.047204
  14 C :    0.272927
  15 O :   -0.574660
  16 N :   -0.511947
  17 H :    0.184463
  18 H :    0.184624
  19 H :    0.196505
  20 H :    0.195228
  21 H :    0.195497
  22 H :    0.186409
  23 H :    0.191499
  24 H :    0.286677
  25 H :    0.276908

  Mayer bond orders larger than 0.100000
B(  0-C ,  1-C ) :   1.3110 B(  0-C ,  5-C ) :   1.3530 B(  0-C , 17-H ) :   0.9601
B(  1-C ,  2-C ) :   1.3399 B(  1-C , 18-H ) :   0.9599 B(  2-C ,  3-C ) :   1.2999
B(  2-C , 15-O ) :   0.1015 B(  2-C , 19-H ) :   0.9731 B(  3-C ,  4-C ) :   1.5076
B(  3-C , 14-C ) :   0.9145 B(  3-C , 15-O ) :  -0.2005 B(  4-C ,  5-C ) :   1.2897
B(  4-C ,  6-C ) :   0.8614 B(  4-C ,  7-O ) :  -0.2207 B(  5-C ,  7-O ) :   0.1041
B(  5-C , 20-H ) :   0.9738 B(  6-C ,  7-O ) :   2.0562 B(  6-C ,  8-C ) :   0.8745
B(  7-O ,  8-C ) :  -0.2144 B(  7-O ,  9-C ) :   0.1216 B(  8-C ,  9-C ) :   1.3476
B(  8-C , 13-C ) :   1.2661 B(  8-C , 14-C ) :  -0.1020 B(  9-C , 10-C ) :   1.2369
B(  9-C , 21-H ) :   0.9748 B( 10-C , 11-C ) :   1.3947 B( 10-C , 22-H ) :   0.9674
B( 11-C , 12-C ) :   1.1325 B( 11-C , 23-H ) :   0.9624 B( 12-C , 13-C ) :   1.2603
B( 12-C , 16-N ) :   1.1012 B( 13-C , 14-C ) :   0.9811 B( 13-C , 15-O ) :  -0.1396
B( 14-C , 15-O ) :   1.8790 B( 16-N , 24-H ) :   0.8448 B( 16-N , 25-H ) :   0.9080

Dispersion correction           -0.012589591
FINAL SINGLE POINT ENERGY      -744.000987611200

DIPOLE MOMENT
-------------

Method             : SCF
Type of density    : Electron Density
Multiplicity       :   1
Irrep              :   0
Energy             :  -743.9983349454049630 Eh
Relativity type    :
Basis              : AO
                                X                 Y                 Z
Electronic contribution:     -0.230495249      -0.700414538       0.008805727
Nuclear contribution   :      1.406566576       1.851545366      -0.014134195
                        -----------------------------------------
Total Dipole Moment    :      1.176071327       1.151130828      -0.005328467
                        -----------------------------------------
Magnitude (a.u.)       :      1.645683549
Magnitude (Debye)      :      4.182995153

Rotational constants in cm-1:             0.030455             0.013638             0.009420
Rotational constants in MHz :           913.010540           408.852326           282.394516

                             ****ORCA TERMINATED NORMALLY****
TOTAL RUN TIME: 0 days 0 hours 1 minutes 16 seconds 33 msec
