                         Program Version 6.0.0  -   RELEASE  -
|  1> ! pbe def2-sv(p) def2/J RI DEFGRID1 loosescf d4 GCP(DFT/SV(P)) printgap
|  2> %output
|  3>     printlevel normal
|  4> end
|  5> * xyz 0 1
|  6> C 2.1078476375 0.0166872842 0.0002994674
|  7> N 0.6705126698 -0.0033883584 -0.0003678595
|  8> C -0.120388394 -1.115348697 -0.0002037043
|  9> C -1.4088776228 -0.6640953306 0.0002172956
| 10> N -1.4252920335 0.6964237023 0.0001323465
| 11> C -0.1653838418 1.0541620737 -0.000167681
| 12> H 2.4910249671 -0.4844696354 -0.8892712596
| 13> H 2.4481580408 1.0494489635 0.0057241563
| 14> H 2.4899543584 -0.4933877942 0.8851870329
| 15> H 0.2853602949 -2.1052256167 -0.0003749144
| 16> H -2.3224991871 -1.2241562226 0.0005130358
| 17> H 0.1729726208 2.0708188125 -0.0002376155
| 18> *
| 19>
| 20>                          ****END OF INPUT****

CARTESIAN COORDINATES (ANGSTROEM)
---------------------------------
  C      2.107848    0.016687    0.000299
  N      0.670513   -0.003388   -0.000368
  C     -0.120388   -1.115349   -0.000204
  C     -1.408878   -0.664095    0.000217
  N     -1.425292    0.696424    0.000132
  C     -0.165384    1.054162   -0.000168
  H      2.491025   -0.484470   -0.889271
  H      2.448158    1.049449    0.005724
  H      2.489954   -0.493388    0.885187
  H      0.285360   -2.105226   -0.000375
  H     -2.322499   -1.224156    0.000513
  H      0.172973    2.070819   -0.000238

 Total Charge           Charge          ....    0
 Multiplicity           Mult            ....    1
 Number of Electrons    NEL             ....   44
 Basis Dimension        Dim             ....   96

ORBITAL ENERGIES
----------------

  NO   OCC          E(Eh)            E(eV)
   0   2.0000     -14.057524      -382.5247
   1   2.0000     -13.955834      -379.7575
   2   2.0000      -9.941664      -270.5264
   3   2.0000      -9.925511      -270.0869
   4   2.0000      -9.906202      -269.5615
   5   2.0000      -9.891421      -269.1593
   6   2.0000      -0.934791       -25.4370
   7   2.0000      -0.802874       -21.8473
   8   2.0000      -0.675827       -18.3902
   9   2.0000      -0.647712       -17.6251
  10   2.0000      -0.537688       -14.6312
  11   2.0000      -0.514042       -13.9878
  12   2.0000      -0.486668       -13.2429
  13   2.0000      -0.434905       -11.8344
  14   2.0000      -0.406262       -11.0549
  15   2.0000      -0.383946       -10.4477
  16   2.0000      -0.371587       -10.1114
  17   2.0000      -0.356276        -9.6948
  18   2.0000      -0.351687        -9.5699
  19   2.0000      -0.236817        -6.4441
  20   2.0000      -0.208313        -5.6685
  21   2.0000      -0.198874        -5.4116
  22   0.0000      -0.003254        -0.0886
  23   0.0000       0.034367         0.9352
  24   0.0000       0.039227         1.0674
  25   0.0000       0.069335         1.8867
  26   0.0000       0.076979         2.0947

MULLIKEN ATOMIC CHARGES
-----------------------
   0 C :   -0.173576
   1 N :   -0.136340
   2 C :   -0.046268
   3 C :   -0.080386
   4 N :   -0.131080
   5 C :   -0.014682
   6 H :    0.130211
   7 H :    0.128083
   8 H :    0.130166
   9 H :    0.060855
  10 H :    0.061594
  11 H :    0.071423
Sum of atomic charges:    0.0000000

LOEWDIN ATOMIC CHARGES
----------------------
   0 C :   -0.242497
   1 N :    0.043797
   2 C :   -0.159319
   3 C :   -0.145618
   4 N :   -0.120284
   5 C :   -0.115010
   6 H :    0.128253
   7 H :    0.132080
   8 H :    0.128301
   9 H :    0.121301
  10 H :    0.115154
  11 H :    0.113842

  Mayer bond orders larger than 0.100000
B(  0-C ,  1-N ) :   0.9945 B(  0-C ,  6-H ) :   0.9512 B(  0-C ,  7-H ) :   0.9525
B(  0-C ,  8-H ) :   0.9513 B(  1-N ,  2-C ) :   1.1997 B(  1-N ,  5-C ) :   1.2203
B(  2-C ,  3-C ) :   1.4817 B(  2-C ,  9-H ) :   0.9652 B(  3-C ,  4-N ) :   1.4168
B(  3-C , 10-H ) :   0.9769 B(  4-N ,  5-C ) :   1.6350 B(  5-C , 11-H ) :   0.9544

Dispersion correction           -0.009756070
FINAL SINGLE POINT ENERGY      -264.951677216872

DIPOLE MOMENT
-------------

Method             : SCF
Type of density    : Electron Density
Multiplicity       :   1
Irrep              :   0
Energy             :  -264.9920022461009239 Eh
Relativity type    :
Basis              : AO
                                X                 Y                 Z
Electronic contribution:     -3.703476542       0.718197393      -0.001227938
Nuclear contribution   :      5.216753573      -1.109768799       0.001443899
                        -----------------------------------------
Total Dipole Moment    :      1.513277031      -0.391571406       0.000215961
                        -----------------------------------------
Magnitude (a.u.)       :      1.563117265
Magnitude (Debye)      :      3.973128339

Rotational constants in cm-1:             0.312974             0.122030             0.089273
Rotational constants in MHz :          9382.713507          3658.381122          2676.347725

                             ****ORCA TERMINATED NORMALLY****
TOTAL RUN TIME: 0 days 0 hours 0 minutes 5 seconds 389 msec
