                         Program Version 6.0.0  -   RELEASE  -
|  1> ! wb97x-v def2-tzvp def2/J RIJCOSX DEFGRID2 scfconv7 GCP(DFT/TZ) printgap
|  2> %output
|  3>     printlevel normal
|  4> end
|  5> * xyz 0 1
|  6> C -3.950859611237356 -0.3131653930033243 -0.0020577210282457822
|  7> C -3.739197493585755 1.066269497801832 -0.0018930055784476857
|  8> C -2.4476646240899114 1.5760139791208034 -0.0007219310975443489
|  9> C -1.3491420097932258 0.7130248146030829 0.00018615798794905882
| 10> C -1.5637165278304794 -0.6757174403554259 6.602745686217931e-05
| 11> C -2.8676519730782037 -1.179831437464024 -0.0009707156027308344
| 12> C -0.4202995015576159 -1.607568317678166 0.0009962639938122686
| 13> O -0.5997628301885554 -2.8296183298773365 0.0020716229531364248
| 14> C 0.9466049962259835 -1.0326641753824921 0.00042843787504596683
| 15> C 2.0154770593298528 -1.9136216346403954 -6.375917032464651e-05
| 16> C 3.324842750356512 -1.4181620931149828 -0.0010736670137734615
| 17> C 3.5628979608383013 -0.06514948343418427 -0.0015179807956589612
| 18> C 2.495103656955164 0.8685303205430376 -0.0008031591587390957
| 19> C 1.1531440320779913 0.37541720184780397 0.0001757432224045375
| 20> C 0.021493268100021518 1.2844861557091645 0.001063063476583571
| 21> O 0.1572682487387098 2.525415730455583 0.002019687728016847
| 22> N 2.7918959456015044 2.1819682321435723 -0.0013186977717664049
| 23> H -4.961341655652434 -0.7078889032770601 -0.0030688613589786662
| 24> H -4.586124220212409 1.7445619015378753 -0.0027261293627201676
| 25> H -2.2815209661028817 2.6470043315536143 -0.0005817406617393633
| 26> H -3.0204445994080467 -2.253104196214298 -0.0010248622156614304
| 27> H 1.8309407682532852 -2.9807757488766193 0.0002298359186597871
| 28> H 4.1621088035106295 -2.1084895630347305 -0.0015582480926311956
| 29> H 4.579574969474994 0.31687260172229814 -0.0023649354708462134
| 30> H 2.0398247120475888 2.855624904500246 0.0003459755550988124
| 31> H 3.7572443820932397 2.4699489059505795 -0.0013745125591470083
| 32> *
| 33>
| 34>                          ****END OF INPUT****

CARTESIAN COORDINATES (ANGSTROEM)
---------------------------------
  C     -3.950860   -0.313165   -0.002058
  C     -3.739197    1.066269   -0.001893
  C     -2.447665    1.576014   -0.000722
  C     -1.349142    0.713025    0.000186
  C     -1.563717   -0.675717    0.000066
  C     -2.867652   -1.179831   -0.000971
  C     -0.420300   -1.607568    0.000996
  O     -0.599763   -2.829618    0.002072
  C      0.946605   -1.032664    0.000428
  C      2.015477   -1.913622   -0.000064
  C      3.324843   -1.418162   -0.001074
  C      3.562898   -0.065149   -0.001518
  C      2.495104    0.868530   -0.000803
  C      1.153144    0.375417    0.000176
  C      0.021493    1.284486    0.001063
  O      0.157268    2.525416    0.002020
  N      2.791896    2.181968   -0.001319
  H     -4.961342   -0.707889   -0.003069
  H     -4.586124    1.744562   -0.002726
  H     -2.281521    2.647004   -0.000582
  H     -3.020445   -2.253104   -0.001025
  H      1.830941   -2.980776    0.000230
  H      4.162109   -2.108490   -0.001558
  H      4.579575    0.316873   -0.002365
  H      2.039825    2.855625    0.000346
  H      3.757244    2.469949   -0.001375

 Total Charge           Charge          ....    0
 Multiplicity           Mult            ....    1
 Number of Electrons    NEL             ....  116
 Basis Dimension        Dim             ....  581

ORBITAL ENERGIES
----------------

  NO   OCC          E(Eh)            E(eV)
   0   2.0000     -21.665498      -589.5482
   1   2.0000     -21.665431      -589.5463
   2   2.0000     -16.545516      -450.2264
   3   2.0000     -12.149648      -330.6087
   4   2.0000     -12.147317      -330.5453
   5   2.0000     -12.123792      -329.9052
   6   2.0000     -12.078441      -328.6711
   7   2.0000     -12.078021      -328.6597
   8   2.0000     -12.075721      -328.5971
   9   2.0000     -12.073194      -328.5283
  10   2.0000     -12.071563      -328.4839
  11   2.0000     -12.069936      -328.4397
  12   2.0000     -12.069900      -328.4387
  13   2.0000     -12.067428      -328.3714
  14   2.0000     -12.066784      -328.3539
  15   2.0000     -12.065644      -328.3229
  16   2.0000     -12.055431      -328.0449
  17   2.0000      -1.705665       -46.4135
  18   2.0000      -1.702496       -46.3273
  19   2.0000      -1.519953       -41.3600
  20   2.0000      -1.414558       -38.4921
  21   2.0000      -1.393075       -37.9075
  22   2.0000      -1.334383       -36.3104
  23   2.0000      -1.304968       -35.5100
  24   2.0000      -1.295620       -35.2556
  25   2.0000      -1.286246       -35.0005
  26   2.0000      -1.217540       -33.1310
  27   2.0000      -1.178194       -32.0603
  28   2.0000      -1.153792       -31.3963
  29   2.0000      -1.125512       -30.6267
  30   2.0000      -1.110104       -30.2075
  31   2.0000      -1.084572       -29.5127
  32   2.0000      -1.050141       -28.5758
  33   2.0000      -1.043303       -28.3897
  34   2.0000      -1.029494       -28.0139
  35   2.0000      -1.013624       -27.5821
  36   2.0000      -1.001835       -27.2613
  37   2.0000      -0.980768       -26.6881
  38   2.0000      -0.962863       -26.2008
  39   2.0000      -0.951287       -25.8858
  40   2.0000      -0.932920       -25.3860
  41   2.0000      -0.929431       -25.2911
  42   2.0000      -0.914923       -24.8963
  43   2.0000      -0.905980       -24.6530
  44   2.0000      -0.901674       -24.5358
  45   2.0000      -0.874800       -23.8045
  46   2.0000      -0.859009       -23.3748
  47   2.0000      -0.854636       -23.2558
  48   2.0000      -0.843575       -22.9548
  49   2.0000      -0.842051       -22.9134
  50   2.0000      -0.827258       -22.5108
  51   2.0000      -0.811897       -22.0929
  52   2.0000      -0.793637       -21.5959
  53   2.0000      -0.764147       -20.7935
  54   2.0000      -0.686688       -18.6857
  55   2.0000      -0.662789       -18.0354
  56   2.0000      -0.658621       -17.9220
  57   2.0000      -0.629840       -17.1388
  58   0.0000      -0.409077       -11.1315
  59   0.0000      -0.322358        -8.7718
  60   0.0000      -0.264782        -7.2051
  61   0.0000      -0.247296        -6.7293
  62   0.0000      -0.208169        -5.6646

MULLIKEN ATOMIC CHARGES
-----------------------
   0 C :   -0.085586
   1 C :   -0.081888
   2 C :   -0.195413
   3 C :    0.074667
   4 C :    0.031680
   5 C :   -0.180352
   6 C :    0.215103
   7 O :   -0.323157
   8 C :    0.052144
   9 C :   -0.223807
  10 C :   -0.055950
  11 C :   -0.240109
  12 C :    0.245030
  13 C :   -0.099273
  14 C :    0.246446
  15 O :   -0.428387
  16 N :   -0.387099
  17 H :    0.128738
  18 H :    0.127476
  19 H :    0.152166
  20 H :    0.153323
  21 H :    0.148624
  22 H :    0.126495
  23 H :    0.106644
  24 H :    0.266038
  25 H :    0.226446
Sum of atomic charges:   -0.0000000

LOEWDIN ATOMIC CHARGES
----------------------
   0 C :   -0.119203
   1 C :   -0.117530
   2 C :   -0.071358
   3 C :   -0.066338
   4 C :   -0.074656
   5 C :   -0.067626
   6 C :   -0.217639
   7 O :    0.118639
   8 C :   -0.070993
   9 C :   -0.095780
  10 C :   -0.115790
  11 C :   -0.117043
  12 C :   -0.172959
  13 C :   -0.072345
  14 C :   -0.222758
  15 O :    0.069398
  16 N :    0.028286
  17 H :    0.145543
  18 H :    0.145526
  19 H :    0.156088
  20 H :    0.156893
  21 H :    0.155128
  22 H :    0.147779
  23 H :    0.142913
  24 H :    0.169709
  25 H :    0.166118

  Mayer bond orders larger than 0.100000
B(  0-C ,  1-C ) :   1.3802 B(  0-C ,  5-C ) :   1.4178 B(  0-C , 17-H ) :   0.9762
B(  1-C ,  2-C ) :   1.4173 B(  1-C , 18-H ) :   0.9772 B(  2-C ,  3-C ) :   1.4108
B(  2-C , 19-H ) :   0.9504 B(  3-C ,  4-C ) :   1.3487 B(  3-C , 14-C ) :   1.0065
B(  3-C , 15-O ) :  -0.1372 B(  4-C ,  5-C ) :   1.4013 B(  4-C ,  6-C ) :   0.9609
B(  4-C ,  7-O ) :  -0.1474 B(  5-C , 20-H ) :   0.9519 B(  6-C ,  7-O ) :   2.1531
B(  6-C ,  8-C ) :   0.9625 B(  7-O ,  8-C ) :  -0.1459 B(  7-O ,  9-C ) :   0.1013
B(  8-C ,  9-C ) :   1.5028 B(  8-C , 13-C ) :   1.2900 B(  9-C , 10-C ) :   1.3040
B(  9-C , 21-H ) :   0.9549 B( 10-C , 11-C ) :   1.5413 B( 10-C , 22-H ) :   0.9761
B( 11-C , 12-C ) :   1.2736 B( 11-C , 23-H ) :   0.9682 B( 12-C , 13-C ) :   1.2599
B( 12-C , 16-N ) :   1.2713 B( 13-C , 14-C ) :   1.0249 B( 14-C , 15-O ) :   1.9370
B( 16-N , 24-H ) :   0.8700 B( 16-N , 25-H ) :   0.9179

FINAL SINGLE POINT ENERGY      -744.186544886711

DIPOLE MOMENT
-------------

Method             : SCF
Type of density    : Electron Density
Multiplicity       :   1
Irrep              :   0
Energy             :  -744.1999587745111739 Eh
Relativity type    :
Basis              : AO
                                X                 Y                 Z
Electronic contribution:     -0.889594675      -1.209694721       0.007659906
Nuclear contribution   :      1.446482672       1.876060219      -0.009819014
                        -----------------------------------------
Total Dipole Moment    :      0.556887997       0.666365498      -0.002159109
                        -----------------------------------------
Magnitude (a.u.)       :      0.868430699
Magnitude (Debye)      :      2.207375415

Rotational constants in cm-1:             0.030316             0.013473             0.009327
Rotational constants in MHz :           908.849261           403.899798           279.630122

                             ****ORCA TERMINATED NORMALLY****
TOTAL RUN TIME: 0 days 0 hours 11 minutes 30 seconds 714 msec
