                         Program Version 6.0.0  -   RELEASE  -
|  1> ! wb97x-v def2-tzvp def2/J RIJCOSX DEFGRID2 scfconv7 GCP(DFT/TZ) printgap
|  2> %output
|  3>     printlevel normal
|  4> end
|  5> %cpcm
|  6>     smd true
|  7>     smdsolvent "water"
|  8> end
|  9> * xyz 0 1
| 10> C -3.950859611237356 -0.3131653930033243 -0.0020577210282457822
| 11> C -3.739197493585755 1.066269497801832 -0.0018930055784476857
| 12> C -2.4476646240899114 1.5760139791208034 -0.0007219310975443489
| 13> C -1.3491420097932258 0.7130248146030829 0.00018615798794905882
| 14> C -1.5637165278304794 -0.6757174403554259 6.602745686217931e-05
| 15> C -2.8676519730782037 -1.179831437464024 -0.0009707156027308344
| 16> C -0.4202995015576159 -1.607568317678166 0.0009962639938122686
| 17> O -0.5997628301885554 -2.8296183298773365 0.0020716229531364248
| 18> C 0.9466049962259835 -1.0326641753824921 0.00042843787504596683
| 19> C 2.0154770593298528 -1.9136216346403954 -6.375917032464651e-05
| 20> C 3.324842750356512 -1.4181620931149828 -0.0010736670137734615
| 21> C 3.5628979608383013 -0.06514948343418427 -0.0015179807956589612
| 22> C 2.495103656955164 0.8685303205430376 -0.0008031591587390957
| 23> C 1.1531440320779913 0.37541720184780397 0.0001757432224045375
| 24> C 0.021493268100021518 1.2844861557091645 0.001063063476583571
| 25> O 0.1572682487387098 2.525415730455583 0.002019687728016847
| 26> N 2.7918959456015044 2.1819682321435723 -0.0013186977717664049
| 27> H -4.961341655652434 -0.7078889032770601 -0.0030688613589786662
| 28> H -4.586124220212409 1.7445619015378753 -0.0027261293627201676
| 29> H -2.2815209661028817 2.6470043315536143 -0.0005817406617393633
| 30> H -3.0204445994080467 -2.253104196214298 -0.0010248622156614304
| 31> H 1.8309407682532852 -2.9807757488766193 0.0002298359186597871
| 32> H 4.1621088035106295 -2.1084895630347305 -0.0015582480926311956
| 33> H 4.579574969474994 0.31687260172229814 -0.0023649354708462134
| 34> H 2.0398247120475888 2.855624904500246 0.0003459755550988124
| 35> H 3.7572443820932397 2.4699489059505795 -0.0013745125591470083
| 36> *
| 37>
| 38>                          ****END OF INPUT****

CARTESIAN COORDINATES (ANGSTROEM)
---------------------------------
  C     -3.950860   -0.313165   -0.002058
  C     -3.739197    1.066269   -0.001893
  C     -2.447665    1.576014   -0.000722
  C     -1.349142    0.713025    0.000186
  C     -1.563717   -0.675717    0.000066
  C     -2.867652   -1.179831   -0.000971
  C     -0.420300   -1.607568    0.000996
  O     -0.599763   -2.829618    0.002072
  C      0.946605   -1.032664    0.000428
  C      2.015477   -1.913622   -0.000064
  C      3.324843   -1.418162   -0.001074
  C      3.562898   -0.065149   -0.001518
  C      2.495104    0.868530   -0.000803
  C      1.153144    0.375417    0.000176
  C      0.021493    1.284486    0.001063
  O      0.157268    2.525416    0.002020
  N      2.791896    2.181968   -0.001319
  H     -4.961342   -0.707889   -0.003069
  H     -4.586124    1.744562   -0.002726
  H     -2.281521    2.647004   -0.000582
  H     -3.020445   -2.253104   -0.001025
  H      1.830941   -2.980776    0.000230
  H      4.162109   -2.108490   -0.001558
  H      4.579575    0.316873   -0.002365
  H      2.039825    2.855625    0.000346
  H      3.757244    2.469949   -0.001375

 Total Charge           Charge          ....    0
 Multiplicity           Mult            ....    1
 Number of Electrons    NEL             ....  116
 Basis Dimension        Dim             ....  581

ORBITAL ENERGIES
----------------

  NO   OCC          E(Eh)            E(eV)
   0   2.0000     -21.675910      -589.8315
   1   2.0000     -21.669852      -589.6667
   2   2.0000     -16.536282      -449.9751
   3   2.0000     -12.157737      -330.8289
   4   2.0000     -12.153681      -330.7185
   5   2.0000     -12.119416      -329.7861
   6   2.0000     -12.078197      -328.6645
   7   2.0000     -12.077636      -328.6492
   8   2.0000     -12.075561      -328.5927
   9   2.0000     -12.067456      -328.3722
  10   2.0000     -12.066498      -328.3461
  11   2.0000     -12.066171      -328.3372
  12   2.0000     -12.066009      -328.3328
  13   2.0000     -12.064120      -328.2814
  14   2.0000     -12.062900      -328.2482
  15   2.0000     -12.058082      -328.1171
  16   2.0000     -12.054863      -328.0295
  17   2.0000      -1.719222       -46.7824
  18   2.0000      -1.709185       -46.5093
  19   2.0000      -1.511532       -41.1309
  20   2.0000      -1.413698       -38.4687
  21   2.0000      -1.390610       -37.8404
  22   2.0000      -1.331407       -36.2294
  23   2.0000      -1.304579       -35.4994
  24   2.0000      -1.292361       -35.1669
  25   2.0000      -1.283798       -34.9339
  26   2.0000      -1.217657       -33.1341
  27   2.0000      -1.176554       -32.0157
  28   2.0000      -1.151510       -31.3342
  29   2.0000      -1.121525       -30.5182
  30   2.0000      -1.113766       -30.3071
  31   2.0000      -1.085642       -29.5418
  32   2.0000      -1.050251       -28.5788
  33   2.0000      -1.043491       -28.3948
  34   2.0000      -1.032163       -28.0866
  35   2.0000      -1.010240       -27.4900
  36   2.0000      -1.001105       -27.2415
  37   2.0000      -0.981412       -26.7056
  38   2.0000      -0.961658       -26.1680
  39   2.0000      -0.945704       -25.7339
  40   2.0000      -0.930373       -25.3167
  41   2.0000      -0.926635       -25.2150
  42   2.0000      -0.923120       -25.1194
  43   2.0000      -0.915477       -24.9114
  44   2.0000      -0.904448       -24.6113
  45   2.0000      -0.873154       -23.7597
  46   2.0000      -0.856784       -23.3143
  47   2.0000      -0.849846       -23.1255
  48   2.0000      -0.842547       -22.9269
  49   2.0000      -0.836075       -22.7507
  50   2.0000      -0.824942       -22.4478
  51   2.0000      -0.811303       -22.0767
  52   2.0000      -0.793808       -21.6006
  53   2.0000      -0.761259       -20.7149
  54   2.0000      -0.684485       -18.6258
  55   2.0000      -0.662780       -18.0352
  56   2.0000      -0.655274       -17.8309
  57   2.0000      -0.626399       -17.0452
  58   0.0000      -0.409214       -11.1353
  59   0.0000      -0.322004        -8.7622
  60   0.0000      -0.261702        -7.1213
  61   0.0000      -0.244714        -6.6590
  62   0.0000      -0.208401        -5.6709

MULLIKEN ATOMIC CHARGES
-----------------------
   0 C :   -0.130596
   1 C :   -0.122650
   2 C :   -0.221632
   3 C :    0.097254
   4 C :    0.051451
   5 C :   -0.203197
   6 C :    0.294656
   7 O :   -0.433652
   8 C :    0.067473
   9 C :   -0.251181
  10 C :   -0.086126
  11 C :   -0.276314
  12 C :    0.217502
  13 C :   -0.107869
  14 C :    0.283736
  15 O :   -0.503872
  16 N :   -0.402969
  17 H :    0.170906
  18 H :    0.170218
  19 H :    0.164568
  20 H :    0.164948
  21 H :    0.159665
  22 H :    0.169692
  23 H :    0.163786
  24 H :    0.278325
  25 H :    0.285877
Sum of atomic charges:   -0.0000000

LOEWDIN ATOMIC CHARGES
----------------------
   0 C :   -0.113738
   1 C :   -0.109810
   2 C :   -0.076207
   3 C :   -0.067098
   4 C :   -0.077603
   5 C :   -0.071230
   6 C :   -0.205044
   7 O :    0.054459
   8 C :   -0.077528
   9 C :   -0.102127
  10 C :   -0.112862
  11 C :   -0.103184
  12 C :   -0.174645
  13 C :   -0.076712
  14 C :   -0.217366
  15 O :    0.024797
  16 N :    0.038887
  17 H :    0.157497
  18 H :    0.157762
  19 H :    0.158716
  20 H :    0.159613
  21 H :    0.156375
  22 H :    0.159684
  23 H :    0.160168
  24 H :    0.170877
  25 H :    0.186317

  Mayer bond orders larger than 0.100000
B(  0-C ,  1-C ) :   1.3745 B(  0-C ,  5-C ) :   1.4169 B(  0-C , 17-H ) :   0.9759
B(  1-C ,  2-C ) :   1.4147 B(  1-C , 18-H ) :   0.9763 B(  2-C ,  3-C ) :   1.3479
B(  2-C , 19-H ) :   0.9671 B(  3-C ,  4-C ) :   1.3567 B(  3-C , 14-C ) :   1.0170
B(  3-C , 15-O ) :  -0.1381 B(  4-C ,  5-C ) :   1.3340 B(  4-C ,  6-C ) :   0.9791
B(  4-C ,  7-O ) :  -0.1538 B(  5-C , 20-H ) :   0.9696 B(  6-C ,  7-O ) :   2.0582
B(  6-C ,  8-C ) :   0.9807 B(  7-O ,  8-C ) :  -0.1540 B(  7-O ,  9-C ) :   0.1070
B(  8-C ,  9-C ) :   1.4389 B(  8-C , 13-C ) :   1.2865 B(  9-C , 10-C ) :   1.2899
B(  9-C , 21-H ) :   0.9748 B( 10-C , 11-C ) :   1.5232 B( 10-C , 22-H ) :   0.9770
B( 11-C , 12-C ) :   1.2493 B( 11-C , 23-H ) :   0.9744 B( 12-C , 13-C ) :   1.2228
B( 12-C , 16-N ) :   1.3223 B( 13-C , 14-C ) :   1.0464 B( 14-C , 15-O ) :   1.8814
B( 16-N , 24-H ) :   0.8690 B( 16-N , 25-H ) :   0.8878

FINAL SINGLE POINT ENERGY      -744.200519262653

DIPOLE MOMENT
-------------

Method             : SCF
Type of density    : Electron Density
Multiplicity       :   1
Irrep              :   0
Energy             :  -744.2139331504532720 Eh
Relativity type    :
Basis              : AO
                                X                 Y                 Z
Electronic contribution:     -0.549657781      -0.889410905       0.006462522
Nuclear contribution   :      1.446482672       1.876060219      -0.009819014
                        -----------------------------------------
Total Dipole Moment    :      0.896824891       0.986649314      -0.003356493
                        -----------------------------------------
Magnitude (a.u.)       :      1.333335299
Magnitude (Debye)      :      3.389068997

Rotational constants in cm-1:             0.030316             0.013473             0.009327
Rotational constants in MHz :           908.849261           403.899798           279.630122

                             ****ORCA TERMINATED NORMALLY****
TOTAL RUN TIME: 0 days 0 hours 11 minutes 27 seconds 463 msec
