                         Program Version 6.0.0  -   RELEASE  -
|  1> ! wb97x-v def2-tzvp def2/J RIJCOSX DEFGRID2 scfconv7 GCP(DFT/TZ) printgap
|  2> %output
|  3>     printlevel normal
|  4> end
|  5> * xyz 0 1
|  6> C 2.0280022755151004 0.04230093769049917 -0.0003761418560892212
|  7> C 0.741205111850552 -0.766230394153501 0.0004792648454339271
|  8> C -0.4965363555120516 0.08452499408541123 -7.881365584863092e-06
|  9> O -0.5155820956328008 1.3007877432810127 -0.00029806379798741366
| 10> O -1.6819759823734002 -0.5790146226439457 -0.0002214869016104633
| 11> H 2.0919008487233137 0.680745905171817 0.8848510955544896
| 12> H 2.8895423623790917 -0.6301139263558978 0.00035973748585674134
| 13> H 2.09192508159582 0.6788391359999261 -0.8869767169894616
| 14> H 0.6829654019561164 -1.4268854383059406 -0.8743217838582884
| 15> H 0.6831650554288431 -1.4252451243625435 0.8765414498328452
| 16> H -1.5329605430087219 -1.5379978777866457 -1.779694211607095e-05
| 17> *
| 18>
| 19>                          ****END OF INPUT****

CARTESIAN COORDINATES (ANGSTROEM)
---------------------------------
  C      2.028002    0.042301   -0.000376
  C      0.741205   -0.766230    0.000479
  C     -0.496536    0.084525   -0.000008
  O     -0.515582    1.300788   -0.000298
  O     -1.681976   -0.579015   -0.000221
  H      2.091901    0.680746    0.884851
  H      2.889542   -0.630114    0.000360
  H      2.091925    0.678839   -0.886977
  H      0.682965   -1.426885   -0.874322
  H      0.683165   -1.425245    0.876541
  H     -1.532961   -1.537998   -0.000018

 Total Charge           Charge          ....    0
 Multiplicity           Mult            ....    1
 Number of Electrons    NEL             ....   40
 Basis Dimension        Dim             ....  191

ORBITAL ENERGIES
----------------

  NO   OCC          E(Eh)            E(eV)
   0   2.0000     -21.724995      -591.1672
   1   2.0000     -21.657195      -589.3222
   2   2.0000     -12.184306      -331.5518
   3   2.0000     -12.080443      -328.7256
   4   2.0000     -12.050849      -327.9203
   5   2.0000      -1.761633       -47.9365
   6   2.0000      -1.696336       -46.1597
   7   2.0000      -1.314942       -35.7814
   8   2.0000      -1.212094       -32.9827
   9   2.0000      -1.151129       -31.3238
  10   2.0000      -1.065470       -28.9929
  11   2.0000      -1.031940       -28.0805
  12   2.0000      -0.980602       -26.6835
  13   2.0000      -0.959144       -26.0996
  14   2.0000      -0.906367       -24.6635
  15   2.0000      -0.875475       -23.8229
  16   2.0000      -0.860822       -23.4242
  17   2.0000      -0.855928       -23.2910
  18   2.0000      -0.808494       -22.0002
  19   2.0000      -0.794596       -21.6220
  20   0.0000      -0.307618        -8.3707
  21   0.0000      -0.140880        -3.8335
  22   0.0000      -0.088617        -2.4114
  23   0.0000      -0.047865        -1.3025
  24   0.0000      -0.003479        -0.0947

MULLIKEN ATOMIC CHARGES
-----------------------
   0 C :   -0.329693
   1 C :   -0.239674
   2 C :    0.299401
   3 O :   -0.316674
   4 O :   -0.343795
   5 H :    0.125374
   6 H :    0.114105
   7 H :    0.125323
   8 H :    0.124764
   9 H :    0.124815
  10 H :    0.316054
Sum of atomic charges:    0.0000000

LOEWDIN ATOMIC CHARGES
----------------------
   0 C :   -0.288972
   1 C :   -0.275094
   2 C :   -0.484964
   3 O :    0.101698
   4 O :    0.091999
   5 H :    0.126552
   6 H :    0.118541
   7 H :    0.126538
   8 H :    0.147714
   9 H :    0.147751
  10 H :    0.188238

  Mayer bond orders larger than 0.100000
B(  0-C ,  1-C ) :   1.0072 B(  0-C ,  5-H ) :   0.9752 B(  0-C ,  6-H ) :   0.9731
B(  0-C ,  7-H ) :   0.9752 B(  1-C ,  2-C ) :   0.9875 B(  1-C ,  8-H ) :   0.9476
B(  1-C ,  9-H ) :   0.9475 B(  2-C ,  3-O ) :   2.1243 B(  2-C ,  4-O ) :   1.2042
B(  4-O , 10-H ) :   0.8835

FINAL SINGLE POINT ENERGY      -268.412091421477

DIPOLE MOMENT
-------------

Method             : SCF
Type of density    : Electron Density
Multiplicity       :   1
Irrep              :   0
Energy             :  -268.4192980987768351 Eh
Relativity type    :
Basis              : AO
                                X                 Y                 Z
Electronic contribution:     -5.843685776       1.797516058      -0.000366594
Nuclear contribution   :      6.515790345      -3.437250796       0.000915342
                        -----------------------------------------
Total Dipole Moment    :      0.672104569      -1.639734737       0.000548749
                        -----------------------------------------
Magnitude (a.u.)       :      1.772132857
Magnitude (Debye)      :      4.504403751

Rotational constants in cm-1:             0.333571             0.127576             0.095554
Rotational constants in MHz :         10000.211591          3824.642285          2864.637624

                             ****ORCA TERMINATED NORMALLY****
TOTAL RUN TIME: 0 days 0 hours 0 minutes 57 seconds 690 msec
