                         Program Version 6.0.0  -   RELEASE  -
|  1> ! wb97x-v def2-tzvp def2/J RIJCOSX DEFGRID2 scfconv7 GCP(DFT/TZ) printgap
|  2> %output
|  3>     printlevel normal
|  4> end
|  5> %cpcm
|  6>     smd true
|  7>     smdsolvent "water"
|  8> end
|  9> * xyz 0 1
| 10> C 2.0280022755151004 0.04230093769049917 -0.0003761418560892212
| 11> C 0.741205111850552 -0.766230394153501 0.0004792648454339271
| 12> C -0.4965363555120516 0.08452499408541123 -7.881365584863092e-06
| 13> O -0.5155820956328008 1.3007877432810127 -0.00029806379798741366
| 14> O -1.6819759823734002 -0.5790146226439457 -0.0002214869016104633
| 15> H 2.0919008487233137 0.680745905171817 0.8848510955544896
| 16> H 2.8895423623790917 -0.6301139263558978 0.00035973748585674134
| 17> H 2.09192508159582 0.6788391359999261 -0.8869767169894616
| 18> H 0.6829654019561164 -1.4268854383059406 -0.8743217838582884
| 19> H 0.6831650554288431 -1.4252451243625435 0.8765414498328452
| 20> H -1.5329605430087219 -1.5379978777866457 -1.779694211607095e-05
| 21> *
| 22>
| 23>                          ****END OF INPUT****

CARTESIAN COORDINATES (ANGSTROEM)
---------------------------------
  C      2.028002    0.042301   -0.000376
  C      0.741205   -0.766230    0.000479
  C     -0.496536    0.084525   -0.000008
  O     -0.515582    1.300788   -0.000298
  O     -1.681976   -0.579015   -0.000221
  H      2.091901    0.680746    0.884851
  H      2.889542   -0.630114    0.000360
  H      2.091925    0.678839   -0.886977
  H      0.682965   -1.426885   -0.874322
  H      0.683165   -1.425245    0.876541
  H     -1.532961   -1.537998   -0.000018

 Total Charge           Charge          ....    0
 Multiplicity           Mult            ....    1
 Number of Electrons    NEL             ....   40
 Basis Dimension        Dim             ....  191

ORBITAL ENERGIES
----------------

  NO   OCC          E(Eh)            E(eV)
   0   2.0000     -21.720460      -591.0438
   1   2.0000     -21.669398      -589.6543
   2   2.0000     -12.190684      -331.7254
   3   2.0000     -12.058136      -328.1186
   4   2.0000     -12.034303      -327.4700
   5   2.0000      -1.763546       -47.9885
   6   2.0000      -1.704866       -46.3918
   7   2.0000      -1.298842       -35.3433
   8   2.0000      -1.207824       -32.8666
   9   2.0000      -1.139251       -31.0006
  10   2.0000      -1.080435       -29.4001
  11   2.0000      -1.026216       -27.9248
  12   2.0000      -0.980047       -26.6684
  13   2.0000      -0.960245       -26.1296
  14   2.0000      -0.910527       -24.7767
  15   2.0000      -0.866280       -23.5727
  16   2.0000      -0.864788       -23.5321
  17   2.0000      -0.837263       -22.7831
  18   2.0000      -0.793661       -21.5966
  19   2.0000      -0.775838       -21.1116
  20   0.0000      -0.305971        -8.3259
  21   0.0000      -0.132389        -3.6025
  22   0.0000      -0.051084        -1.3901
  23   0.0000      -0.029651        -0.8069
  24   0.0000       0.019568         0.5325

MULLIKEN ATOMIC CHARGES
-----------------------
   0 C :   -0.386967
   1 C :   -0.210712
   2 C :    0.356080
   3 O :   -0.453653
   4 O :   -0.409421
   5 H :    0.130617
   6 H :    0.137479
   7 H :    0.130629
   8 H :    0.157361
   9 H :    0.157366
  10 H :    0.391221
Sum of atomic charges:    0.0000000

LOEWDIN ATOMIC CHARGES
----------------------
   0 C :   -0.298043
   1 C :   -0.255992
   2 C :   -0.465547
   3 O :    0.018040
   4 O :    0.078971
   5 H :    0.123723
   6 H :    0.125416
   7 H :    0.123726
   8 H :    0.163708
   9 H :    0.163734
  10 H :    0.222265

  Mayer bond orders larger than 0.100000
B(  0-C ,  1-C ) :   0.9846 B(  0-C ,  5-H ) :   0.9743 B(  0-C ,  6-H ) :   0.9721
B(  0-C ,  7-H ) :   0.9743 B(  1-C ,  2-C ) :   1.0132 B(  1-C ,  8-H ) :   0.9346
B(  1-C ,  9-H ) :   0.9345 B(  2-C ,  3-O ) :   1.9969 B(  2-C ,  4-O ) :   1.2322
B(  4-O , 10-H ) :   0.8357

FINAL SINGLE POINT ENERGY      -268.429593438718

DIPOLE MOMENT
-------------

Method             : SCF
Type of density    : Electron Density
Multiplicity       :   1
Irrep              :   0
Energy             :  -268.4368001160181620 Eh
Relativity type    :
Basis              : AO
                                X                 Y                 Z
Electronic contribution:     -5.715594236       1.067186536      -0.000137907
Nuclear contribution   :      6.515790345      -3.437250796       0.000915342
                        -----------------------------------------
Total Dipole Moment    :      0.800196110      -2.370064260       0.000777435
                        -----------------------------------------
Magnitude (a.u.)       :      2.501503351
Magnitude (Debye)      :      6.358316213

Rotational constants in cm-1:             0.333571             0.127576             0.095554
Rotational constants in MHz :         10000.211591          3824.642285          2864.637624

                             ****ORCA TERMINATED NORMALLY****
TOTAL RUN TIME: 0 days 0 hours 0 minutes 57 seconds 718 msec
