                         Program Version 6.0.0  -   RELEASE  -
|  1> ! r2scan-3c def2/J RI DEFGRID2 scfconv6 printgap
|  2> %output
|  3>     printlevel normal
|  4> end
|  5> * xyz 0 1
|  6> C -2.5819438656 0.0080523558 -0.0178161941
|  7> C -1.8867913 1.1863268126 0.201582004
|  8> C -0.5031967083 1.1887576104 0.2125175959
|  9> C 0.1962479341 0.0023151384 0.0088364425
| 10> C -0.5089061478 -1.1814971789 -0.1888656661
| 11> C -1.8910880352 -1.1775752028 -0.2103137459
| 12> C 1.6851857278 -0.059933563 0.0247653726
| 13> O 2.2891738762 -1.0626387467 0.4057313295
| 14> N 2.3287477728 1.0354012546 -0.405744022
| 15> H -3.6609815396 0.0118719959 -0.0304117156
| 16> H -2.4250113707 2.1070404755 0.3669439613
| 17> H 0.0246631699 2.1086392092 0.4119931007
| 18> H 0.0495433573 -2.0959010494 -0.3261760972
| 19> H -2.4284878295 -2.0992867381 -0.372337383
| 20> H 1.8319816165 1.8205047567 -0.7885533365
| 21> H 3.3356353824 1.0263066168 -0.4293080235
| 22> *
| 23>
| 24>                          ****END OF INPUT****

CARTESIAN COORDINATES (ANGSTROEM)
---------------------------------
  C     -2.581944    0.008052   -0.017816
  C     -1.886791    1.186327    0.201582
  C     -0.503197    1.188758    0.212518
  C      0.196248    0.002315    0.008836
  C     -0.508906   -1.181497   -0.188866
  C     -1.891088   -1.177575   -0.210314
  C      1.685186   -0.059934    0.024765
  O      2.289174   -1.062639    0.405731
  N      2.328748    1.035401   -0.405744
  H     -3.660982    0.011872   -0.030412
  H     -2.425011    2.107040    0.366944
  H      0.024663    2.108639    0.411993
  H      0.049543   -2.095901   -0.326176
  H     -2.428488   -2.099287   -0.372337
  H      1.831982    1.820505   -0.788553
  H      3.335635    1.026307   -0.429308

 Total Charge           Charge          ....    0
 Multiplicity           Mult            ....    1
 Number of Electrons    NEL             ....   64
 Basis Dimension        Dim             ....  216

ORBITAL ENERGIES
----------------

  NO   OCC          E(Eh)            E(eV)
   0   2.0000     -18.910628      -514.5843
   1   2.0000     -14.188665      -386.0932
   2   2.0000     -10.133572      -275.7485
   3   2.0000     -10.054159      -273.5876
   4   2.0000     -10.051989      -273.5285
   5   2.0000     -10.047788      -273.4142
   6   2.0000     -10.047306      -273.4011
   7   2.0000     -10.045071      -273.3403
   8   2.0000     -10.044087      -273.3135
   9   2.0000      -0.996652       -27.1203
  10   2.0000      -0.881392       -23.9839
  11   2.0000      -0.838184       -22.8082
  12   2.0000      -0.737902       -20.0793
  13   2.0000      -0.728578       -19.8256
  14   2.0000      -0.619962       -16.8700
  15   2.0000      -0.587938       -15.9986
  16   2.0000      -0.557036       -15.1577
  17   2.0000      -0.528492       -14.3810
  18   2.0000      -0.490666       -13.3517
  19   2.0000      -0.453272       -12.3342
  20   2.0000      -0.432822       -11.7777
  21   2.0000      -0.414042       -11.2667
  22   2.0000      -0.401984       -10.9386
  23   2.0000      -0.385659       -10.4943
  24   2.0000      -0.376662       -10.2495
  25   2.0000      -0.348842        -9.4925
  26   2.0000      -0.333395        -9.0721
  27   2.0000      -0.321906        -8.7595
  28   2.0000      -0.250922        -6.8279
  29   2.0000      -0.250397        -6.8136
  30   2.0000      -0.246420        -6.7054
  31   2.0000      -0.218641        -5.9495
  32   0.0000      -0.065314        -1.7773
  33   0.0000      -0.043468        -1.1828
  34   0.0000       0.024324         0.6619
  35   0.0000       0.058354         1.5879
  36   0.0000       0.093532         2.5451

MULLIKEN ATOMIC CHARGES
-----------------------
   0 C :   -0.127356
   1 C :   -0.144581
   2 C :   -0.248727
   3 C :    0.111166
   4 C :   -0.193739
   5 C :   -0.148728
   6 C :    0.287322
   7 O :   -0.417971
   8 N :   -0.386470
   9 H :    0.149085
  10 H :    0.147386
  11 H :    0.140201
  12 H :    0.177880
  13 H :    0.149109
  14 H :    0.255391
  15 H :    0.250032
Sum of atomic charges:   -0.0000000

LOEWDIN ATOMIC CHARGES
----------------------
   0 C :   -0.152221
   1 C :   -0.160220
   2 C :   -0.146847
   3 C :   -0.036570
   4 C :   -0.108903
   5 C :   -0.156244
   6 C :    0.322908
   7 O :   -0.462631
   8 N :   -0.490927
   9 H :    0.168640
  10 H :    0.168652
  11 H :    0.170288
  12 H :    0.188909
  13 H :    0.169893
  14 H :    0.261172
  15 H :    0.264101

  Mayer bond orders larger than 0.100000
B(  0-C ,  1-C ) :   1.4246 B(  0-C ,  5-C ) :   1.4021 B(  0-C ,  9-H ) :   0.9465
B(  1-C ,  2-C ) :   1.4101 B(  1-C , 10-H ) :   0.9468 B(  2-C ,  3-C ) :   1.3590
B(  2-C , 11-H ) :   0.9571 B(  3-C ,  4-C ) :   1.4350 B(  3-C ,  6-C ) :   0.9303
B(  3-C ,  7-O ) :  -0.1004 B(  4-C ,  5-C ) :   1.3868 B(  4-C , 12-H ) :   0.9487
B(  5-C , 13-H ) :   0.9540 B(  6-C ,  7-O ) :   1.9743 B(  6-C ,  8-N ) :   1.1117
B(  8-N , 14-H ) :   0.9150 B(  8-N , 15-H ) :   0.9177

Dispersion correction           -0.005358922
FINAL SINGLE POINT ENERGY      -400.863725080136

DIPOLE MOMENT
-------------

Method             : SCF
Type of density    : Electron Density
Multiplicity       :   1
Irrep              :   0
Energy             :  -400.8656252350798468 Eh
Relativity type    :
Basis              : AO
                                X                 Y                 Z
Electronic contribution:      2.434656160      -1.424854323       0.521629603
Nuclear contribution   :     -3.023548716       2.691111344      -1.091863859
                        -----------------------------------------
Total Dipole Moment    :     -0.588892555       1.266257022      -0.570234256
                        -----------------------------------------
Magnitude (a.u.)       :      1.508432429
Magnitude (Debye)      :      3.834130531

Rotational constants in cm-1:             0.128719             0.040660             0.031870
Rotational constants in MHz :          3858.894236          1218.952522           955.443330

                             ****ORCA TERMINATED NORMALLY****
TOTAL RUN TIME: 0 days 0 hours 0 minutes 32 seconds 86 msec
