                         Program Version 6.0.0  -   RELEASE  -
|  1> ! r2scan-3c def2/J RI DEFGRID2 scfconv6 printgap
|  2> %output
|  3>     printlevel normal
|  4> end
|  5> %cpcm
|  6>     smd true
|  7>     smdsolvent "water"
|  8> end
|  9> * xyz 0 1
| 10> C -2.5819438656 0.0080523558 -0.0178161941
| 11> C -1.8867913 1.1863268126 0.201582004
| 12> C -0.5031967083 1.1887576104 0.2125175959
| 13> C 0.1962479341 0.0023151384 0.0088364425
| 14> C -0.5089061478 -1.1814971789 -0.1888656661
| 15> C -1.8910880352 -1.1775752028 -0.2103137459
| 16> C 1.6851857278 -0.059933563 0.0247653726
| 17> O 2.2891738762 -1.0626387467 0.4057313295
| 18> N 2.3287477728 1.0354012546 -0.405744022
| 19> H -3.6609815396 0.0118719959 -0.0304117156
| 20> H -2.4250113707 2.1070404755 0.3669439613
| 21> H 0.0246631699 2.1086392092 0.4119931007
| 22> H 0.0495433573 -2.0959010494 -0.3261760972
| 23> H -2.4284878295 -2.0992867381 -0.372337383
| 24> H 1.8319816165 1.8205047567 -0.7885533365
| 25> H 3.3356353824 1.0263066168 -0.4293080235
| 26> *
| 27>
| 28>                          ****END OF INPUT****

CARTESIAN COORDINATES (ANGSTROEM)
---------------------------------
  C     -2.581944    0.008052   -0.017816
  C     -1.886791    1.186327    0.201582
  C     -0.503197    1.188758    0.212518
  C      0.196248    0.002315    0.008836
  C     -0.508906   -1.181497   -0.188866
  C     -1.891088   -1.177575   -0.210314
  C      1.685186   -0.059934    0.024765
  O      2.289174   -1.062639    0.405731
  N      2.328748    1.035401   -0.405744
  H     -3.660982    0.011872   -0.030412
  H     -2.425011    2.107040    0.366944
  H      0.024663    2.108639    0.411993
  H      0.049543   -2.095901   -0.326176
  H     -2.428488   -2.099287   -0.372337
  H      1.831982    1.820505   -0.788553
  H      3.335635    1.026307   -0.429308

 Total Charge           Charge          ....    0
 Multiplicity           Mult            ....    1
 Number of Electrons    NEL             ....   64
 Basis Dimension        Dim             ....  216

ORBITAL ENERGIES
----------------

  NO   OCC          E(Eh)            E(eV)
   0   2.0000     -18.927985      -515.0567
   1   2.0000     -14.182122      -385.9152
   2   2.0000     -10.142986      -276.0047
   3   2.0000     -10.053077      -273.5581
   4   2.0000     -10.044715      -273.3306
   5   2.0000     -10.042861      -273.2801
   6   2.0000     -10.040730      -273.2222
   7   2.0000     -10.039541      -273.1898
   8   2.0000     -10.039448      -273.1873
   9   2.0000      -1.012406       -27.5490
  10   2.0000      -0.879117       -23.9220
  11   2.0000      -0.834823       -22.7167
  12   2.0000      -0.734709       -19.9925
  13   2.0000      -0.723655       -19.6917
  14   2.0000      -0.616242       -16.7688
  15   2.0000      -0.582146       -15.8410
  16   2.0000      -0.551228       -14.9997
  17   2.0000      -0.520587       -14.1659
  18   2.0000      -0.481618       -13.1055
  19   2.0000      -0.451859       -12.2957
  20   2.0000      -0.428018       -11.6470
  21   2.0000      -0.414280       -11.2731
  22   2.0000      -0.396370       -10.7858
  23   2.0000      -0.392344       -10.6762
  24   2.0000      -0.387178       -10.5356
  25   2.0000      -0.349596        -9.5130
  26   2.0000      -0.328304        -8.9336
  27   2.0000      -0.314935        -8.5698
  28   2.0000      -0.256858        -6.9895
  29   2.0000      -0.250881        -6.8268
  30   2.0000      -0.246794        -6.7156
  31   2.0000      -0.236805        -6.4438
  32   0.0000      -0.066501        -1.8096
  33   0.0000      -0.040092        -1.0909
  34   0.0000       0.020488         0.5575
  35   0.0000       0.073844         2.0094
  36   0.0000       0.108794         2.9604

MULLIKEN ATOMIC CHARGES
-----------------------
   0 C :   -0.146915
   1 C :   -0.185918
   2 C :   -0.223953
   3 C :    0.083021
   4 C :   -0.225455
   5 C :   -0.196227
   6 C :    0.324554
   7 O :   -0.533213
   8 N :   -0.441539
   9 H :    0.184334
  10 H :    0.182670
  11 H :    0.182510
  12 H :    0.191510
  13 H :    0.182558
  14 H :    0.320718
  15 H :    0.301345
Sum of atomic charges:   -0.0000000

LOEWDIN ATOMIC CHARGES
----------------------
   0 C :   -0.153128
   1 C :   -0.162488
   2 C :   -0.134849
   3 C :   -0.051945
   4 C :   -0.128237
   5 C :   -0.163230
   6 C :    0.324657
   7 O :   -0.556548
   8 N :   -0.452359
   9 H :    0.180557
  10 H :    0.181209
  11 H :    0.187323
  12 H :    0.190156
  13 H :    0.181149
  14 H :    0.280133
  15 H :    0.277598

  Mayer bond orders larger than 0.100000
B(  0-C ,  1-C ) :   1.3851 B(  0-C ,  5-C ) :   1.3777 B(  0-C ,  9-H ) :   0.9495
B(  1-C ,  2-C ) :   1.3882 B(  1-C , 10-H ) :   0.9558 B(  2-C ,  3-C ) :   1.3600
B(  2-C , 11-H ) :   0.9544 B(  3-C ,  4-C ) :   1.3569 B(  3-C ,  6-C ) :   0.9378
B(  3-C ,  7-O ) :  -0.1018 B(  4-C ,  5-C ) :   1.3823 B(  4-C , 12-H ) :   0.9559
B(  5-C , 13-H ) :   0.9585 B(  6-C ,  7-O ) :   1.8753 B(  6-C ,  8-N ) :   1.1802
B(  8-N , 14-H ) :   0.8873 B(  8-N , 15-H ) :   0.8946

Dispersion correction           -0.005358922
FINAL SINGLE POINT ENERGY      -400.880788244196

DIPOLE MOMENT
-------------

Method             : SCF
Type of density    : Electron Density
Multiplicity       :   1
Irrep              :   0
Energy             :  -400.8826883991404202 Eh
Relativity type    :
Basis              : AO
                                X                 Y                 Z
Electronic contribution:      2.143091525      -0.712492051       0.270158491
Nuclear contribution   :     -3.023548716       2.691111344      -1.091863859
                        -----------------------------------------
Total Dipole Moment    :     -0.880457191       1.978619294      -0.821705368
                        -----------------------------------------
Magnitude (a.u.)       :      2.316320117
Magnitude (Debye)      :      5.887617841

Rotational constants in cm-1:             0.128719             0.040660             0.031870
Rotational constants in MHz :          3858.894236          1218.952522           955.443330

                             ****ORCA TERMINATED NORMALLY****
TOTAL RUN TIME: 0 days 0 hours 0 minutes 34 seconds 562 msec
