                         Program Version 6.0.0  -   RELEASE  -
|  1> ! pbe def2-sv(p) def2/J RI DEFGRID1 loosescf d4 GCP(DFT/SV(P)) printgap
|  2> %output
|  3>     printlevel normal
|  4> end
|  5> * xyz 0 1
|  6> C -2.1637279419 -1.2675081813 0.0316331829
|  7> C -0.8780530238 -0.5666463013 0.4959789057
|  8> H -1.0142242176 -0.2633578213 1.5445639118
|  9> C -0.6089952323 0.7040181871 -0.3258451832
| 10> H -0.6853825532 0.454563757 -1.3972000597
| 11> C 0.7983318926 1.290566926 -0.0761760772
| 12> H 0.7092727405 2.0555448986 0.7026289584
| 13> C 1.8118568206 0.2204623154 0.3935517758
| 14> H 2.7894980011 0.4847211257 -0.0213085685
| 15> C 1.3829986807 -1.1482329332 -0.1474021845
| 16> H 2.0910922164 -1.9200078463 0.1856094874
| 17> O 0.1607097747 -1.5456411308 0.4266124437
| 18> O 1.3241219636 -1.0703862255 -1.5358945212
| 19> O 1.9859144414 0.1788419132 1.784134195
| 20> O 1.277203713 1.9635270049 -1.2113057784
| 21> O -1.5398412651 1.7057614654 0.0019328649
| 22> O -3.2699812032 -0.4436970034 0.3182370845
| 23> H -2.2265861295 -2.2229570514 0.5647841358
| 24> H -2.0923278113 -1.4654693778 -1.0455014673
| 25> H 1.2333951361 -1.9549645941 -1.9222382549
| 26> H 1.2307773577 -0.2621225112 2.1995660847
| 27> H 1.3836402093 1.322855324 -1.9319570323
| 28> H -2.4294986113 1.3104078489 0.0289528873
| 29> H -4.0879565539 -0.9100866043 0.0954092083
| 30> *
| 31>
| 32>                          ****END OF INPUT****

CARTESIAN COORDINATES (ANGSTROEM)
---------------------------------
  C     -2.163728   -1.267508    0.031633
  C     -0.878053   -0.566646    0.495979
  H     -1.014224   -0.263358    1.544564
  C     -0.608995    0.704018   -0.325845
  H     -0.685383    0.454564   -1.397200
  C      0.798332    1.290567   -0.076176
  H      0.709273    2.055545    0.702629
  C      1.811857    0.220462    0.393552
  H      2.789498    0.484721   -0.021309
  C      1.382999   -1.148233   -0.147402
  H      2.091092   -1.920008    0.185609
  O      0.160710   -1.545641    0.426612
  O      1.324122   -1.070386   -1.535895
  O      1.985914    0.178842    1.784134
  O      1.277204    1.963527   -1.211306
  O     -1.539841    1.705761    0.001933
  O     -3.269981   -0.443697    0.318237
  H     -2.226586   -2.222957    0.564784
  H     -2.092328   -1.465469   -1.045501
  H      1.233395   -1.954965   -1.922238
  H      1.230777   -0.262123    2.199566
  H      1.383640    1.322855   -1.931957
  H     -2.429499    1.310408    0.028953
  H     -4.087957   -0.910087    0.095409

 Total Charge           Charge          ....    0
 Multiplicity           Mult            ....    1
 Number of Electrons    NEL             ....   96
 Basis Dimension        Dim             ....  192

ORBITAL ENERGIES
----------------

  NO   OCC          E(Eh)            E(eV)
   0   2.0000     -18.782432      -511.0960
   1   2.0000     -18.781355      -511.0667
   2   2.0000     -18.781280      -511.0646
   3   2.0000     -18.750317      -510.2221
   4   2.0000     -18.731767      -509.7173
   5   2.0000     -18.730280      -509.6768
   6   2.0000      -9.993164      -271.9278
   7   2.0000      -9.951800      -270.8022
   8   2.0000      -9.950229      -270.7595
   9   2.0000      -9.935741      -270.3652
  10   2.0000      -9.933963      -270.3169
  11   2.0000      -9.926128      -270.1037
  12   2.0000      -0.992409       -27.0048
  13   2.0000      -0.955789       -26.0084
  14   2.0000      -0.933491       -25.4016
  15   2.0000      -0.923335       -25.1252
  16   2.0000      -0.917659       -24.9708
  17   2.0000      -0.901977       -24.5441
  18   2.0000      -0.707488       -19.2517
  19   2.0000      -0.685512       -18.6537
  20   2.0000      -0.627554       -17.0766
  21   2.0000      -0.583183       -15.8692
  22   2.0000      -0.567908       -15.4536
  23   2.0000      -0.524683       -14.2774
  24   2.0000      -0.513446       -13.9716
  25   2.0000      -0.494375       -13.4526
  26   2.0000      -0.474784       -12.9195
  27   2.0000      -0.469402       -12.7731
  28   2.0000      -0.449082       -12.2201
  29   2.0000      -0.417342       -11.3565
  30   2.0000      -0.414612       -11.2822
  31   2.0000      -0.411781       -11.2051
  32   2.0000      -0.387244       -10.5374
  33   2.0000      -0.373714       -10.1693
  34   2.0000      -0.360868        -9.8197
  35   2.0000      -0.352994        -9.6055
  36   2.0000      -0.329846        -8.9756
  37   2.0000      -0.325615        -8.8604
  38   2.0000      -0.309721        -8.4279
  39   2.0000      -0.287819        -7.8320
  40   2.0000      -0.279341        -7.6013
  41   2.0000      -0.270513        -7.3610
  42   2.0000      -0.256537        -6.9807
  43   2.0000      -0.246126        -6.6974
  44   2.0000      -0.237530        -6.4635
  45   2.0000      -0.230116        -6.2618
  46   2.0000      -0.206749        -5.6259
  47   2.0000      -0.191919        -5.2224
  48   0.0000       0.000082         0.0022
  49   0.0000       0.009214         0.2507
  50   0.0000       0.025343         0.6896
  51   0.0000       0.058180         1.5832
  52   0.0000       0.074609         2.0302

MULLIKEN ATOMIC CHARGES
-----------------------
   0 C :    0.060888
   1 C :   -0.021829
   2 H :    0.067548
   3 C :    0.074261
   4 H :    0.034251
   5 C :    0.119476
   6 H :    0.074442
   7 C :    0.034935
   8 H :    0.080811
   9 C :    0.134563
  10 H :    0.073311
  11 O :   -0.321767
  12 O :   -0.393338
  13 O :   -0.415598
  14 O :   -0.426491
  15 O :   -0.421339
  16 O :   -0.440468
  17 H :    0.088971
  18 H :    0.067469
  19 H :    0.310007
  20 H :    0.304200
  21 H :    0.297991
  22 H :    0.300728
  23 H :    0.316981
Sum of atomic charges:   -0.0000000

LOEWDIN ATOMIC CHARGES
----------------------
   0 C :   -0.126327
   1 C :   -0.074926
   2 H :    0.105981
   3 C :   -0.074990
   4 H :    0.097513
   5 C :   -0.064085
   6 H :    0.126230
   7 C :   -0.086926
   8 H :    0.123233
   9 C :   -0.015429
  10 H :    0.101798
  11 O :   -0.152259
  12 O :   -0.307818
  13 O :   -0.306875
  14 O :   -0.311271
  15 O :   -0.323869
  16 O :   -0.330160
  17 H :    0.105281
  18 H :    0.097922
  19 H :    0.291216
  20 H :    0.282096
  21 H :    0.275867
  22 H :    0.270847
  23 H :    0.296953

  Mayer bond orders larger than 0.100000
B(  0-C ,  1-C ) :   1.0589 B(  0-C , 16-O ) :   1.0530 B(  0-C , 17-H ) :   0.9176
B(  0-C , 18-H ) :   0.9075 B(  1-C ,  2-H ) :   0.8757 B(  1-C ,  3-C ) :   1.0335
B(  1-C , 11-O ) :   0.9519 B(  3-C ,  4-H ) :   0.8542 B(  3-C ,  5-C ) :   1.0154
B(  3-C , 15-O ) :   1.0901 B(  5-C ,  6-H ) :   0.8626 B(  5-C ,  7-C ) :   0.9682
B(  5-C , 14-O ) :   1.0360 B(  7-C ,  8-H ) :   0.8825 B(  7-C ,  9-C ) :   1.0406
B(  7-C , 13-O ) :   1.0475 B(  9-C , 10-H ) :   0.8988 B(  9-C , 11-O ) :   1.0501
B(  9-C , 12-O ) :   1.1166 B( 12-O , 19-H ) :   0.8372 B( 13-O , 20-H ) :   0.8408
B( 14-O , 21-H ) :   0.8413 B( 15-O , 22-H ) :   0.8081 B( 16-O , 23-H ) :   0.8403

Dispersion correction           -0.024901272
FINAL SINGLE POINT ENERGY      -685.691112317673

DIPOLE MOMENT
-------------

Method             : SCF
Type of density    : Electron Density
Multiplicity       :   1
Irrep              :   0
Energy             :  -685.8230524276106053 Eh
Relativity type    :
Basis              : AO
                                X                 Y                 Z
Electronic contribution:      1.824701464       1.026509646       0.346438163
Nuclear contribution   :     -2.907649290      -3.150772347      -0.938269573
                        -----------------------------------------
Total Dipole Moment    :     -1.082947826      -2.124262702      -0.591831410
                        -----------------------------------------
Magnitude (a.u.)       :      2.456732065
Magnitude (Debye)      :      6.244516648

Rotational constants in cm-1:             0.042886             0.025469             0.021594
Rotational constants in MHz :          1285.704626           763.555774           647.360001

                             ****ORCA TERMINATED NORMALLY****
TOTAL RUN TIME: 0 days 0 hours 0 minutes 12 seconds 120 msec
