                         Program Version 6.0.0  -   RELEASE  -
|  1> ! pbe def2-sv(p) def2/J RI DEFGRID1 loosescf d4 GCP(DFT/SV(P)) printgap
|  2> %output
|  3>     printlevel normal
|  4> end
|  5> * xyz 0 1
|  6> C -2.5141103838 -0.2079030567 1.0139835256
|  7> S -1.8508277346 0.2390360072 -0.6255746871
|  8> C -0.1044167526 0.0749821333 -0.2504423382
|  9> C 0.5988373662 1.1703970367 0.2220615609
| 10> C 1.9437058484 1.0369526498 0.5215543431
| 11> C 2.5770721977 -0.1823263856 0.3443383291
| 12> C 1.8680159129 -1.2713905181 -0.135586262
| 13> C 0.5229453622 -1.1453729017 -0.4373123304
| 14> H -2.1500063919 0.5004188991 1.7512862113
| 15> H -2.2050537482 -1.2186364547 1.2606036543
| 16> H -3.5935370558 -0.1494201566 0.9300018591
| 17> H 0.0923287398 2.1151387196 0.3492267783
| 18> H 2.4959260284 1.8872469631 0.8912990153
| 19> H 3.6257689509 -0.2833070616 0.5780736446
| 20> H 2.3610359513 -2.2207769038 -0.2779107619
| 21> H -0.0418222777 -1.9829989903 -0.8175933713
| 22> *
| 23>
| 24>                          ****END OF INPUT****

CARTESIAN COORDINATES (ANGSTROEM)
---------------------------------
  C     -2.514110   -0.207903    1.013984
  S     -1.850828    0.239036   -0.625575
  C     -0.104417    0.074982   -0.250442
  C      0.598837    1.170397    0.222062
  C      1.943706    1.036953    0.521554
  C      2.577072   -0.182326    0.344338
  C      1.868016   -1.271391   -0.135586
  C      0.522945   -1.145373   -0.437312
  H     -2.150006    0.500419    1.751286
  H     -2.205054   -1.218636    1.260604
  H     -3.593537   -0.149420    0.930002
  H      0.092329    2.115139    0.349227
  H      2.495926    1.887247    0.891299
  H      3.625769   -0.283307    0.578074
  H      2.361036   -2.220777   -0.277911
  H     -0.041822   -1.982999   -0.817593

 Total Charge           Charge          ....    0
 Multiplicity           Mult            ....    1
 Number of Electrons    NEL             ....   66
 Basis Dimension        Dim             ....  132

ORBITAL ENERGIES
----------------

  NO   OCC          E(Eh)            E(eV)
   0   2.0000     -88.017051     -2395.0657
   1   2.0000      -9.921383      -269.9746
   2   2.0000      -9.906625      -269.5730
   3   2.0000      -9.900099      -269.3954
   4   2.0000      -9.899524      -269.3797
   5   2.0000      -9.899479      -269.3785
   6   2.0000      -9.898683      -269.3569
   7   2.0000      -9.898663      -269.3563
   8   2.0000      -7.660833      -208.4619
   9   2.0000      -5.689652      -154.8233
  10   2.0000      -5.685709      -154.7160
  11   2.0000      -5.676754      -154.4723
  12   2.0000      -0.788201       -21.4480
  13   2.0000      -0.720587       -19.6082
  14   2.0000      -0.678072       -18.4513
  15   2.0000      -0.661875       -18.0105
  16   2.0000      -0.579387       -15.7659
  17   2.0000      -0.549697       -14.9580
  18   2.0000      -0.521661       -14.1951
  19   2.0000      -0.466509       -12.6943
  20   2.0000      -0.414464       -11.2781
  21   2.0000      -0.406720       -11.0674
  22   2.0000      -0.390763       -10.6332
  23   2.0000      -0.384271       -10.4566
  24   2.0000      -0.376956       -10.2575
  25   2.0000      -0.365194        -9.9374
  26   2.0000      -0.341285        -9.2868
  27   2.0000      -0.315932        -8.5969
  28   2.0000      -0.310198        -8.4409
  29   2.0000      -0.279722        -7.6116
  30   2.0000      -0.237360        -6.4589
  31   2.0000      -0.231177        -6.2906
  32   2.0000      -0.185295        -5.0421
  33   0.0000      -0.049288        -1.3412
  34   0.0000      -0.041861        -1.1391
  35   0.0000       0.021979         0.5981
  36   0.0000       0.037351         1.0164
  37   0.0000       0.065588         1.7847

MULLIKEN ATOMIC CHARGES
-----------------------
   0 C :   -0.352771
   1 S :   -0.050010
   2 C :   -0.040901
   3 C :   -0.054907
   4 C :   -0.055593
   5 C :   -0.039165
   6 C :   -0.056290
   7 C :   -0.054482
   8 H :    0.141244
   9 H :    0.141175
  10 H :    0.145488
  11 H :    0.051394
  12 H :    0.057695
  13 H :    0.058085
  14 H :    0.057761
  15 H :    0.051278
Sum of atomic charges:   -0.0000000

LOEWDIN ATOMIC CHARGES
----------------------
   0 C :   -0.445695
   1 S :    0.220463
   2 C :   -0.165236
   3 C :   -0.127369
   4 C :   -0.120321
   5 C :   -0.119382
   6 C :   -0.120423
   7 C :   -0.127290
   8 H :    0.122856
   9 H :    0.122836
  10 H :    0.129177
  11 H :    0.126584
  12 H :    0.125834
  13 H :    0.125568
  14 H :    0.125859
  15 H :    0.126540

  Mayer bond orders larger than 0.100000
B(  0-C ,  1-S ) :   1.0285 B(  0-C ,  8-H ) :   0.9477 B(  0-C ,  9-H ) :   0.9477
B(  0-C , 10-H ) :   0.9474 B(  1-S ,  2-C ) :   0.9654 B(  2-C ,  3-C ) :   1.4015
B(  2-C ,  7-C ) :   1.4013 B(  3-C ,  4-C ) :   1.3735 B(  3-C , 11-H ) :   0.9600
B(  4-C ,  5-C ) :   1.3798 B(  4-C , 12-H ) :   0.9640 B(  5-C ,  6-C ) :   1.3800
B(  5-C , 13-H ) :   0.9653 B(  6-C ,  7-C ) :   1.3739 B(  6-C , 14-H ) :   0.9640
B(  7-C , 15-H ) :   0.9599

Dispersion correction           -0.017605957
FINAL SINGLE POINT ENERGY      -668.832689609805

DIPOLE MOMENT
-------------

Method             : SCF
Type of density    : Electron Density
Multiplicity       :   1
Irrep              :   0
Energy             :  -668.8730484367059717 Eh
Relativity type    :
Basis              : AO
                                X                 Y                 Z
Electronic contribution:     -0.298483811       1.106818111      -3.838085204
Nuclear contribution   :      0.601462505      -1.275566656       4.394473494
                        -----------------------------------------
Total Dipole Moment    :      0.302978694      -0.168748545       0.556388290
                        -----------------------------------------
Magnitude (a.u.)       :      0.655621910
Magnitude (Debye)      :      1.666458461

Rotational constants in cm-1:             0.134264             0.037791             0.033754
Rotational constants in MHz :          4025.127479          1132.936835          1011.905022

                             ****ORCA TERMINATED NORMALLY****
TOTAL RUN TIME: 0 days 0 hours 0 minutes 7 seconds 798 msec
