                         Program Version 6.0.0  -   RELEASE  -
|  1> ! wb97x-v def2-tzvp def2/J RIJCOSX DEFGRID2 scfconv7 GCP(DFT/TZ) printgap
|  2> %output
|  3>     printlevel normal
|  4> end
|  5> * xyz 0 1
|  6> C 1.9210602713374059 -0.38919062191091713 0.9862372388163512
|  7> C 1.1057491223547364 -0.36916668529624375 -0.30483703256435485
|  8> C -0.35678611889314554 0.07851913027154224 -0.16097342689098498
|  9> C -0.4681804285352375 1.5153785165621008 0.3393740113075724
| 10> C -1.1606026987568283 -0.8685834680063589 0.7175980550551754
| 11> O -0.9776511671802779 -0.008102832236295774 -1.4788081489309144
| 12> H 1.9770617008252587 0.6018133102469613 1.4470841747406091
| 13> H 2.9456246510377637 -0.7139035255304178 0.779477115185066
| 14> H 1.4986170796909055 -1.0822894731165595 1.7205077705912188
| 15> H 1.101450842233678 -1.3714484920575951 -0.7510522473512861
| 16> H 1.5887546046518268 0.3015158904286924 -1.0287002500933367
| 17> H -0.0756349064867123 1.614238785420409 1.3555915367077025
| 18> H 0.09374555719672376 2.194204450896752 -0.31220692417938223
| 19> H -1.516760053034661 1.828769027870384 0.3490555447950176
| 20> H -1.0749630472216505 -1.898845908617872 0.3567699964481946
| 21> H -0.8065399780935469 -0.832749604684231 1.7507685898964216
| 22> H -2.217149775206837 -0.5822458525835174 0.7117070823752359
| 23> H -0.4895088630863475 0.5923126553384568 -2.058894547595631
| 24> *
| 25>
| 26>                          ****END OF INPUT****

CARTESIAN COORDINATES (ANGSTROEM)
---------------------------------
  C      1.921060   -0.389191    0.986237
  C      1.105749   -0.369167   -0.304837
  C     -0.356786    0.078519   -0.160973
  C     -0.468180    1.515379    0.339374
  C     -1.160603   -0.868583    0.717598
  O     -0.977651   -0.008103   -1.478808
  H      1.977062    0.601813    1.447084
  H      2.945625   -0.713904    0.779477
  H      1.498617   -1.082289    1.720508
  H      1.101451   -1.371448   -0.751052
  H      1.588755    0.301516   -1.028700
  H     -0.075635    1.614239    1.355592
  H      0.093746    2.194204   -0.312207
  H     -1.516760    1.828769    0.349056
  H     -1.074963   -1.898846    0.356770
  H     -0.806540   -0.832750    1.750769
  H     -2.217150   -0.582246    0.711707
  H     -0.489509    0.592313   -2.058895

 Total Charge           Charge          ....    0
 Multiplicity           Mult            ....    1
 Number of Electrons    NEL             ....   50
 Basis Dimension        Dim             ....  258

ORBITAL ENERGIES
----------------

  NO   OCC          E(Eh)            E(eV)
   0   2.0000     -21.661658      -589.4437
   1   2.0000     -12.101858      -329.3083
   2   2.0000     -12.043122      -327.7100
   3   2.0000     -12.038724      -327.5903
   4   2.0000     -12.035947      -327.5148
   5   2.0000     -12.030997      -327.3801
   6   2.0000      -1.659830       -45.1663
   7   2.0000      -1.320573       -35.9346
   8   2.0000      -1.241338       -33.7785
   9   2.0000      -1.186637       -32.2900
  10   2.0000      -1.128775       -30.7155
  11   2.0000      -1.076314       -29.2880
  12   2.0000      -0.988686       -26.9035
  13   2.0000      -0.939132       -25.5551
  14   2.0000      -0.923661       -25.1341
  15   2.0000      -0.882465       -24.0131
  16   2.0000      -0.860033       -23.4027
  17   2.0000      -0.830196       -22.5908
  18   2.0000      -0.827352       -22.5134
  19   2.0000      -0.817618       -22.2485
  20   2.0000      -0.812211       -22.1014
  21   2.0000      -0.808335       -21.9959
  22   2.0000      -0.786892       -21.4124
  23   2.0000      -0.762109       -20.7380
  24   2.0000      -0.758105       -20.6291
  25   0.0000      -0.153725        -4.1831
  26   0.0000      -0.058985        -1.6051
  27   0.0000      -0.019966        -0.5433
  28   0.0000      -0.016741        -0.4555
  29   0.0000      -0.010127        -0.2756

MULLIKEN ATOMIC CHARGES
-----------------------
   0 C :   -0.387458
   1 C :   -0.165781
   2 C :    0.217587
   3 C :   -0.382810
   4 C :   -0.357969
   5 O :   -0.440358
   6 H :    0.111934
   7 H :    0.119325
   8 H :    0.117449
   9 H :    0.111036
  10 H :    0.078812
  11 H :    0.111829
  12 H :    0.102007
  13 H :    0.126622
  14 H :    0.116457
  15 H :    0.110351
  16 H :    0.119723
  17 H :    0.291245
Sum of atomic charges:    0.0000000

LOEWDIN ATOMIC CHARGES
----------------------
   0 C :   -0.302574
   1 C :   -0.258666
   2 C :   -0.422587
   3 C :   -0.266784
   4 C :   -0.256073
   5 O :   -0.017705
   6 H :    0.115826
   7 H :    0.118773
   8 H :    0.117498
   9 H :    0.139435
  10 H :    0.131400
  11 H :    0.121808
  12 H :    0.118429
  13 H :    0.125121
  14 H :    0.125018
  15 H :    0.121322
  16 H :    0.125626
  17 H :    0.164133

  Mayer bond orders larger than 0.100000
B(  0-C ,  1-C ) :   0.9533 B(  0-C ,  6-H ) :   0.9804 B(  0-C ,  7-H ) :   0.9799
B(  0-C ,  8-H ) :   0.9824 B(  1-C ,  2-C ) :   0.9749 B(  1-C ,  9-H ) :   0.9826
B(  1-C , 10-H ) :   0.9646 B(  2-C ,  3-C ) :   0.9856 B(  2-C ,  4-C ) :   0.9447
B(  2-C ,  5-O ) :   0.9964 B(  3-C , 11-H ) :   0.9737 B(  3-C , 12-H ) :   0.9671
B(  3-C , 13-H ) :   0.9839 B(  4-C , 14-H ) :   0.9798 B(  4-C , 15-H ) :   0.9777
B(  4-C , 16-H ) :   0.9800 B(  5-O , 17-H ) :   0.9038

FINAL SINGLE POINT ENERGY      -273.000126989107

DIPOLE MOMENT
-------------

Method             : SCF
Type of density    : Electron Density
Multiplicity       :   1
Irrep              :   0
Energy             :  -273.0132524108066718 Eh
Relativity type    :
Basis              : AO
                                X                 Y                 Z
Electronic contribution:     -2.307723757      -0.265202313      -3.843328897
Nuclear contribution   :      2.834266221       0.594348318       4.077017481
                        -----------------------------------------
Total Dipole Moment    :      0.526542463       0.329146005       0.233688584
                        -----------------------------------------
Magnitude (a.u.)       :      0.663471486
Magnitude (Debye)      :      1.686410496

Rotational constants in cm-1:             0.147725             0.085020             0.084543
Rotational constants in MHz :          4428.688757          2548.847314          2534.526648

                             ****ORCA TERMINATED NORMALLY****
TOTAL RUN TIME: 0 days 0 hours 1 minutes 46 seconds 512 msec
