                         Program Version 6.0.0  -   RELEASE  -
|  1> ! wb97x-v def2-tzvp def2/J RIJCOSX DEFGRID2 scfconv7 GCP(DFT/TZ) printgap
|  2> %output
|  3>     printlevel normal
|  4> end
|  5> %cpcm
|  6>     smd true
|  7>     smdsolvent "water"
|  8> end
|  9> * xyz 0 1
| 10> C 1.9210602713374059 -0.38919062191091713 0.9862372388163512
| 11> C 1.1057491223547364 -0.36916668529624375 -0.30483703256435485
| 12> C -0.35678611889314554 0.07851913027154224 -0.16097342689098498
| 13> C -0.4681804285352375 1.5153785165621008 0.3393740113075724
| 14> C -1.1606026987568283 -0.8685834680063589 0.7175980550551754
| 15> O -0.9776511671802779 -0.008102832236295774 -1.4788081489309144
| 16> H 1.9770617008252587 0.6018133102469613 1.4470841747406091
| 17> H 2.9456246510377637 -0.7139035255304178 0.779477115185066
| 18> H 1.4986170796909055 -1.0822894731165595 1.7205077705912188
| 19> H 1.101450842233678 -1.3714484920575951 -0.7510522473512861
| 20> H 1.5887546046518268 0.3015158904286924 -1.0287002500933367
| 21> H -0.0756349064867123 1.614238785420409 1.3555915367077025
| 22> H 0.09374555719672376 2.194204450896752 -0.31220692417938223
| 23> H -1.516760053034661 1.828769027870384 0.3490555447950176
| 24> H -1.0749630472216505 -1.898845908617872 0.3567699964481946
| 25> H -0.8065399780935469 -0.832749604684231 1.7507685898964216
| 26> H -2.217149775206837 -0.5822458525835174 0.7117070823752359
| 27> H -0.4895088630863475 0.5923126553384568 -2.058894547595631
| 28> *
| 29>
| 30>                          ****END OF INPUT****

CARTESIAN COORDINATES (ANGSTROEM)
---------------------------------
  C      1.921060   -0.389191    0.986237
  C      1.105749   -0.369167   -0.304837
  C     -0.356786    0.078519   -0.160973
  C     -0.468180    1.515379    0.339374
  C     -1.160603   -0.868583    0.717598
  O     -0.977651   -0.008103   -1.478808
  H      1.977062    0.601813    1.447084
  H      2.945625   -0.713904    0.779477
  H      1.498617   -1.082289    1.720508
  H      1.101451   -1.371448   -0.751052
  H      1.588755    0.301516   -1.028700
  H     -0.075635    1.614239    1.355592
  H      0.093746    2.194204   -0.312207
  H     -1.516760    1.828769    0.349056
  H     -1.074963   -1.898846    0.356770
  H     -0.806540   -0.832750    1.750769
  H     -2.217150   -0.582246    0.711707
  H     -0.489509    0.592313   -2.058895

 Total Charge           Charge          ....    0
 Multiplicity           Mult            ....    1
 Number of Electrons    NEL             ....   50
 Basis Dimension        Dim             ....  258

ORBITAL ENERGIES
----------------

  NO   OCC          E(Eh)            E(eV)
   0   2.0000     -21.666392      -589.5725
   1   2.0000     -12.097238      -329.1826
   2   2.0000     -12.032533      -327.4219
   3   2.0000     -12.026164      -327.2486
   4   2.0000     -12.024814      -327.2118
   5   2.0000     -12.024411      -327.2009
   6   2.0000      -1.664947       -45.3055
   7   2.0000      -1.313657       -35.7464
   8   2.0000      -1.231698       -33.5162
   9   2.0000      -1.178786       -32.0764
  10   2.0000      -1.120860       -30.5002
  11   2.0000      -1.075338       -29.2614
  12   2.0000      -0.989939       -26.9376
  13   2.0000      -0.938111       -25.5273
  14   2.0000      -0.925407       -25.1816
  15   2.0000      -0.873260       -23.7626
  16   2.0000      -0.855041       -23.2669
  17   2.0000      -0.822332       -22.3768
  18   2.0000      -0.818564       -22.2743
  19   2.0000      -0.808807       -22.0088
  20   2.0000      -0.801632       -21.8135
  21   2.0000      -0.800431       -21.7808
  22   2.0000      -0.778150       -21.1745
  23   2.0000      -0.751278       -20.4433
  24   2.0000      -0.749505       -20.3951
  25   0.0000      -0.149957        -4.0805
  26   0.0000      -0.038421        -1.0455
  27   0.0000      -0.009006        -0.2451
  28   0.0000      -0.007117        -0.1937
  29   0.0000      -0.002071        -0.0563

MULLIKEN ATOMIC CHARGES
-----------------------
   0 C :   -0.433396
   1 C :   -0.188752
   2 C :    0.259928
   3 C :   -0.437248
   4 C :   -0.408236
   5 O :   -0.558000
   6 H :    0.129632
   7 H :    0.133942
   8 H :    0.130810
   9 H :    0.108860
  10 H :    0.112368
  11 H :    0.135404
  12 H :    0.132482
  13 H :    0.130900
  14 H :    0.129714
  15 H :    0.138694
  16 H :    0.130775
  17 H :    0.352123
Sum of atomic charges:    0.0000000

LOEWDIN ATOMIC CHARGES
----------------------
   0 C :   -0.306390
   1 C :   -0.258425
   2 C :   -0.420728
   3 C :   -0.268629
   4 C :   -0.265256
   5 O :   -0.061901
   6 H :    0.119681
   7 H :    0.120736
   8 H :    0.119970
   9 H :    0.138024
  10 H :    0.139574
  11 H :    0.127945
  12 H :    0.125948
  13 H :    0.124276
  14 H :    0.125229
  15 H :    0.129136
  16 H :    0.124902
  17 H :    0.185907

  Mayer bond orders larger than 0.100000
B(  0-C ,  1-C ) :   0.9557 B(  0-C ,  6-H ) :   0.9777 B(  0-C ,  7-H ) :   0.9770
B(  0-C ,  8-H ) :   0.9788 B(  1-C ,  2-C ) :   0.9758 B(  1-C ,  9-H ) :   0.9732
B(  1-C , 10-H ) :   0.9707 B(  2-C ,  3-C ) :   0.9797 B(  2-C ,  4-C ) :   0.9542
B(  2-C ,  5-O ) :   0.9577 B(  3-C , 11-H ) :   0.9687 B(  3-C , 12-H ) :   0.9705
B(  3-C , 13-H ) :   0.9765 B(  4-C , 14-H ) :   0.9749 B(  4-C , 15-H ) :   0.9739
B(  4-C , 16-H ) :   0.9760 B(  5-O , 17-H ) :   0.8711

FINAL SINGLE POINT ENERGY      -273.007168641394

DIPOLE MOMENT
-------------

Method             : SCF
Type of density    : Electron Density
Multiplicity       :   1
Irrep              :   0
Energy             :  -273.0202940630941839 Eh
Relativity type    :
Basis              : AO
                                X                 Y                 Z
Electronic contribution:     -2.053763577      -0.079854842      -3.736575562
Nuclear contribution   :      2.834266221       0.594348318       4.077017481
                        -----------------------------------------
Total Dipole Moment    :      0.780502644       0.514493476       0.340441919
                        -----------------------------------------
Magnitude (a.u.)       :      0.994881206
Magnitude (Debye)      :      2.528787059

Rotational constants in cm-1:             0.147725             0.085020             0.084543
Rotational constants in MHz :          4428.688757          2548.847314          2534.526648

                             ****ORCA TERMINATED NORMALLY****
TOTAL RUN TIME: 0 days 0 hours 1 minutes 59 seconds 250 msec
