                         Program Version 6.0.0  -   RELEASE  -
|  1> ! pbe def2-sv(p) def2/J RI DEFGRID1 loosescf d4 GCP(DFT/SV(P)) printgap
|  2> %output
|  3>     printlevel normal
|  4> end
|  5> * xyz 0 1
|  6> C -3.2419033223 1.0213961126 -5.405e-05
|  7> C -1.9059325954 0.3428370019 -2.05437e-05
|  8> C -1.8151214889 -1.0432412534 0.0013943679
|  9> C -0.5799860591 -1.6588079604 0.0012492077
| 10> C 0.6032896389 -0.9288296305 -0.0003598803
| 11> C 0.5267159932 0.4693419711 -0.0013699485
| 12> C -0.7300592043 1.0716429956 -0.0012112875
| 13> O 1.5696395607 1.3594965195 -0.0032635431
| 14> C 2.9112002109 0.9085210751 0.0043022047
| 15> O 1.814174064 -1.575591783 -0.0010011432
| 16> H -3.8121726562 0.7305281032 0.8802550025
| 17> H -3.1263081647 2.101135968 -0.0011267454
| 18> H -3.8128876411 0.7288627292 -0.8793484631
| 19> H -2.7115529453 -1.6436259178 0.0023909235
| 20> H -0.5210761018 -2.7380853801 0.0021127944
| 21> H -0.7483952459 2.1506955643 -0.0022027205
| 22> H 3.1383932417 0.3162860764 -0.8838997139
| 23> H 3.1298154163 0.3212232579 0.8979372193
| 24> H 3.509672771 1.8176498188 0.0046677923
| 25> H 1.6695862159 -2.5334951506 7.7436e-05
| 26> *
| 27>
| 28>                          ****END OF INPUT****

CARTESIAN COORDINATES (ANGSTROEM)
---------------------------------
  C     -3.241903    1.021396   -0.000054
  C     -1.905933    0.342837   -0.000021
  C     -1.815121   -1.043241    0.001394
  C     -0.579986   -1.658808    0.001249
  C      0.603290   -0.928830   -0.000360
  C      0.526716    0.469342   -0.001370
  C     -0.730059    1.071643   -0.001211
  O      1.569640    1.359497   -0.003264
  C      2.911200    0.908521    0.004302
  O      1.814174   -1.575592   -0.001001
  H     -3.812173    0.730528    0.880255
  H     -3.126308    2.101136   -0.001127
  H     -3.812888    0.728863   -0.879348
  H     -2.711553   -1.643626    0.002391
  H     -0.521076   -2.738085    0.002113
  H     -0.748395    2.150696   -0.002203
  H      3.138393    0.316286   -0.883900
  H      3.129815    0.321223    0.897937
  H      3.509673    1.817650    0.004668
  H      1.669586   -2.533495    0.000077

 Total Charge           Charge          ....    0
 Multiplicity           Mult            ....    1
 Number of Electrons    NEL             ....   74
 Basis Dimension        Dim             ....  160

ORBITAL ENERGIES
----------------

  NO   OCC          E(Eh)            E(eV)
   0   2.0000     -18.780765      -511.0506
   1   2.0000     -18.774551      -510.8815
   2   2.0000      -9.948175      -270.7036
   3   2.0000      -9.943798      -270.5845
   4   2.0000      -9.924064      -270.0475
   5   2.0000      -9.890355      -269.1302
   6   2.0000      -9.888764      -269.0870
   7   2.0000      -9.879629      -268.8384
   8   2.0000      -9.877568      -268.7823
   9   2.0000      -9.876889      -268.7638
  10   2.0000      -0.965796       -26.2807
  11   2.0000      -0.946993       -25.7690
  12   2.0000      -0.768950       -20.9242
  13   2.0000      -0.688466       -18.7341
  14   2.0000      -0.675751       -18.3881
  15   2.0000      -0.616275       -16.7697
  16   2.0000      -0.608050       -16.5459
  17   2.0000      -0.557145       -15.1607
  18   2.0000      -0.516198       -14.0465
  19   2.0000      -0.495636       -13.4870
  20   2.0000      -0.447429       -12.1752
  21   2.0000      -0.437960       -11.9175
  22   2.0000      -0.408334       -11.1113
  23   2.0000      -0.406611       -11.0644
  24   2.0000      -0.380142       -10.3442
  25   2.0000      -0.373731       -10.1697
  26   2.0000      -0.372331       -10.1316
  27   2.0000      -0.351017        -9.5517
  28   2.0000      -0.349274        -9.5042
  29   2.0000      -0.329181        -8.9575
  30   2.0000      -0.307917        -8.3789
  31   2.0000      -0.302861        -8.2413
  32   2.0000      -0.298749        -8.1294
  33   2.0000      -0.267828        -7.2880
  34   2.0000      -0.264348        -7.1933
  35   2.0000      -0.202876        -5.5205
  36   2.0000      -0.169862        -4.6222
  37   0.0000      -0.022770        -0.6196
  38   0.0000      -0.009584        -0.2608
  39   0.0000       0.019361         0.5268
  40   0.0000       0.047526         1.2933
  41   0.0000       0.065800         1.7905

MULLIKEN ATOMIC CHARGES
-----------------------
   0 C :   -0.220836
   1 C :    0.087736
   2 C :   -0.119476
   3 C :   -0.166567
   4 C :    0.145243
   5 C :    0.191050
   6 C :   -0.232162
   7 O :   -0.275887
   8 C :   -0.095000
   9 O :   -0.355726
  10 H :    0.111214
  11 H :    0.099778
  12 H :    0.111219
  13 H :    0.027273
  14 H :    0.018969
  15 H :    0.028705
  16 H :    0.107994
  17 H :    0.107697
  18 H :    0.111897
  19 H :    0.316882
Sum of atomic charges:    0.0000000

LOEWDIN ATOMIC CHARGES
----------------------
   0 C :   -0.321003
   1 C :   -0.061664
   2 C :   -0.140984
   3 C :   -0.167415
   4 C :   -0.013543
   5 C :    0.015331
   6 C :   -0.139655
   7 O :   -0.098820
   8 C :   -0.203966
   9 O :   -0.246768
  10 H :    0.129447
  11 H :    0.123593
  12 H :    0.129455
  13 H :    0.119545
  14 H :    0.118945
  15 H :    0.128432
  16 H :    0.109244
  17 H :    0.109196
  18 H :    0.113734
  19 H :    0.296900

  Mayer bond orders larger than 0.100000
B(  0-C ,  1-C ) :   1.0969 B(  0-C , 10-H ) :   0.9376 B(  0-C , 11-H ) :   0.9468
B(  0-C , 12-H ) :   0.9376 B(  1-C ,  2-C ) :   1.3557 B(  1-C ,  6-C ) :   1.3590
B(  2-C ,  3-C ) :   1.3507 B(  2-C , 13-H ) :   0.9708 B(  3-C ,  4-C ) :   1.3128
B(  3-C , 14-H ) :   0.9537 B(  4-C ,  5-C ) :   1.3208 B(  4-C ,  9-O ) :   1.1470
B(  5-C ,  6-C ) :   1.3483 B(  5-C ,  7-O ) :   1.1512 B(  6-C , 15-H ) :   0.9640
B(  7-O ,  8-C ) :   0.9694 B(  8-C , 16-H ) :   0.9502 B(  8-C , 17-H ) :   0.9503
B(  8-C , 18-H ) :   0.9576 B(  9-O , 19-H ) :   0.8385

Dispersion correction           -0.020156635
FINAL SINGLE POINT ENERGY      -460.300095411642

DIPOLE MOMENT
-------------

Method             : SCF
Type of density    : Electron Density
Multiplicity       :   1
Irrep              :   0
Energy             :  -460.3685210070703988 Eh
Relativity type    :
Basis              : AO
                                X                 Y                 Z
Electronic contribution:      3.212063076      -1.885991589      -0.015894736
Nuclear contribution   :     -3.031680467       1.170612635       0.019510337
                        -----------------------------------------
Total Dipole Moment    :      0.180382609      -0.715378954       0.003615602
                        -----------------------------------------
Magnitude (a.u.)       :      0.737779103
Magnitude (Debye)      :      1.875285450

Rotational constants in cm-1:             0.084554             0.033225             0.024068
Rotational constants in MHz :          2534.856207           996.067478           721.533375

                             ****ORCA TERMINATED NORMALLY****
TOTAL RUN TIME: 0 days 0 hours 0 minutes 9 seconds 993 msec
