                         Program Version 6.0.0  -   RELEASE  -
|  1> ! wb97x-v def2-tzvp def2/J RIJCOSX DEFGRID2 scfconv7 GCP(DFT/TZ) printgap
|  2> %output
|  3>     printlevel normal
|  4> end
|  5> * xyz 0 1
|  6> C 1.7238282981587307 0.3050062991420143 -7.148900808431714e-05
|  7> C 0.6818228739538076 -0.5083597141905305 0.0002917486160151537
|  8> Cl -0.9792596867943852 0.08027977176419977 -4.890274107715526e-05
|  9> H 2.717779336953631 -0.13210916744928142 -5.336581767665811e-05
| 10> H 1.6313877234168548 1.385609148999625 0.0002768109303263552
| 11> H 0.7368199358636126 -1.5914741216198027 -0.00018029182850898954
| 12> *
| 13>
| 14>                          ****END OF INPUT****

CARTESIAN COORDINATES (ANGSTROEM)
---------------------------------
  C      1.723828    0.305006   -0.000071
  C      0.681823   -0.508360    0.000292
  Cl    -0.979260    0.080280   -0.000049
  H      2.717779   -0.132109   -0.000053
  H      1.631388    1.385609    0.000277
  H      0.736820   -1.591474   -0.000180

 Total Charge           Charge          ....    0
 Multiplicity           Mult            ....    1
 Number of Electrons    NEL             ....   32
 Basis Dimension        Dim             ....  117

ORBITAL ENERGIES
----------------

  NO   OCC          E(Eh)            E(eV)
   0   2.0000    -107.144449     -2915.5487
   1   2.0000     -12.118710      -329.7669
   2   2.0000     -12.064187      -328.2832
   3   2.0000     -11.297562      -307.4223
   4   2.0000      -9.088964      -247.3233
   5   2.0000      -9.086361      -247.2524
   6   2.0000      -9.086308      -247.2510
   7   2.0000      -1.418179       -38.5906
   8   2.0000      -1.292844       -35.1801
   9   2.0000      -1.062331       -28.9075
  10   2.0000      -0.939279       -25.5591
  11   2.0000      -0.928179       -25.2570
  12   2.0000      -0.828791       -22.5526
  13   2.0000      -0.813296       -22.1309
  14   2.0000      -0.784618       -21.3506
  15   2.0000      -0.681359       -18.5407
  16   0.0000      -0.253441        -6.8965
  17   0.0000      -0.225577        -6.1383
  18   0.0000      -0.011806        -0.3213
  19   0.0000       0.012137         0.3303
  20   0.0000       0.085064         2.3147

MULLIKEN ATOMIC CHARGES
-----------------------
   0 C :   -0.276081
   1 C :   -0.053354
   2 Cl:   -0.098110
   3 H :    0.133358
   4 H :    0.146121
   5 H :    0.148065
Sum of atomic charges:    0.0000000

LOEWDIN ATOMIC CHARGES
----------------------
   0 C :   -0.231464
   1 C :   -0.465771
   2 Cl:    0.316381
   3 H :    0.130304
   4 H :    0.125919
   5 H :    0.124631

  Mayer bond orders larger than 0.100000
B(  0-C ,  1-C ) :   1.9546 B(  0-C ,  3-H ) :   0.9518 B(  0-C ,  4-H ) :   0.9560
B(  1-C ,  2-Cl) :   1.0947 B(  1-C ,  5-H ) :   0.9493

FINAL SINGLE POINT ENERGY      -538.134081069318

DIPOLE MOMENT
-------------

Method             : SCF
Type of density    : Electron Density
Multiplicity       :   1
Irrep              :   0
Energy             :  -538.1369800602184341 Eh
Relativity type    :
Basis              : AO
                                X                 Y                 Z
Electronic contribution:     -5.497427768       0.256352311      -0.000126493
Nuclear contribution   :      6.102336229      -0.426315669       0.000083619
                        -----------------------------------------
Total Dipole Moment    :      0.604908460      -0.169963358      -0.000042874
                        -----------------------------------------
Magnitude (a.u.)       :      0.628332547
Magnitude (Debye)      :      1.597094413

Rotational constants in cm-1:             1.882362             0.196154             0.177643
Rotational constants in MHz :         56431.795885          5880.554991          5325.594056

                             ****ORCA TERMINATED NORMALLY****
TOTAL RUN TIME: 0 days 0 hours 0 minutes 16 seconds 908 msec
