                         Program Version 6.0.0  -   RELEASE  -
|  1> ! wb97x-v def2-tzvp def2/J RIJCOSX DEFGRID2 scfconv7 GCP(DFT/TZ) printgap
|  2> %output
|  3>     printlevel normal
|  4> end
|  5> %cpcm
|  6>     smd true
|  7>     smdsolvent "water"
|  8> end
|  9> * xyz 0 1
| 10> C 1.7238282981587307 0.3050062991420143 -7.148900808431714e-05
| 11> C 0.6818228739538076 -0.5083597141905305 0.0002917486160151537
| 12> Cl -0.9792596867943852 0.08027977176419977 -4.890274107715526e-05
| 13> H 2.717779336953631 -0.13210916744928142 -5.336581767665811e-05
| 14> H 1.6313877234168548 1.385609148999625 0.0002768109303263552
| 15> H 0.7368199358636126 -1.5914741216198027 -0.00018029182850898954
| 16> *
| 17>
| 18>                          ****END OF INPUT****

CARTESIAN COORDINATES (ANGSTROEM)
---------------------------------
  C      1.723828    0.305006   -0.000071
  C      0.681823   -0.508360    0.000292
  Cl    -0.979260    0.080280   -0.000049
  H      2.717779   -0.132109   -0.000053
  H      1.631388    1.385609    0.000277
  H      0.736820   -1.591474   -0.000180

 Total Charge           Charge          ....    0
 Multiplicity           Mult            ....    1
 Number of Electrons    NEL             ....   32
 Basis Dimension        Dim             ....  117

ORBITAL ENERGIES
----------------

  NO   OCC          E(Eh)            E(eV)
   0   2.0000    -107.144574     -2915.5521
   1   2.0000     -12.109009      -329.5029
   2   2.0000     -12.053139      -327.9826
   3   2.0000     -11.297861      -307.4304
   4   2.0000      -9.089229      -247.3305
   5   2.0000      -9.086730      -247.2625
   6   2.0000      -9.086674      -247.2610
   7   2.0000      -1.417166       -38.5631
   8   2.0000      -1.284978       -34.9660
   9   2.0000      -1.052690       -28.6451
  10   2.0000      -0.930473       -25.3195
  11   2.0000      -0.919080       -25.0094
  12   2.0000      -0.818182       -22.2639
  13   2.0000      -0.813933       -22.1482
  14   2.0000      -0.784382       -21.3441
  15   2.0000      -0.674649       -18.3581
  16   0.0000      -0.248731        -6.7683
  17   0.0000      -0.216819        -5.8999
  18   0.0000       0.008002         0.2177
  19   0.0000       0.030072         0.8183
  20   0.0000       0.092811         2.5255

MULLIKEN ATOMIC CHARGES
-----------------------
   0 C :   -0.340891
   1 C :   -0.083445
   2 Cl:   -0.130638
   3 H :    0.177098
   4 H :    0.180126
   5 H :    0.197750
Sum of atomic charges:   -0.0000000

LOEWDIN ATOMIC CHARGES
----------------------
   0 C :   -0.230744
   1 C :   -0.472161
   2 Cl:    0.291527
   3 H :    0.141554
   4 H :    0.132860
   5 H :    0.136962

  Mayer bond orders larger than 0.100000
B(  0-C ,  1-C ) :   1.9511 B(  0-C ,  3-H ) :   0.9443 B(  0-C ,  4-H ) :   0.9497
B(  1-C ,  2-Cl) :   1.0640 B(  1-C ,  5-H ) :   0.9320

FINAL SINGLE POINT ENERGY      -538.134380035666

DIPOLE MOMENT
-------------

Method             : SCF
Type of density    : Electron Density
Multiplicity       :   1
Irrep              :   0
Energy             :  -538.1372790265662616 Eh
Relativity type    :
Basis              : AO
                                X                 Y                 Z
Electronic contribution:     -5.284557537       0.198037570      -0.000143502
Nuclear contribution   :      6.102336229      -0.426315669       0.000083619
                        -----------------------------------------
Total Dipole Moment    :      0.817778692      -0.228278099      -0.000059883
                        -----------------------------------------
Magnitude (a.u.)       :      0.849042333
Magnitude (Debye)      :      2.158094103

Rotational constants in cm-1:             1.882362             0.196154             0.177643
Rotational constants in MHz :         56431.795885          5880.554991          5325.594056

                             ****ORCA TERMINATED NORMALLY****
TOTAL RUN TIME: 0 days 0 hours 0 minutes 18 seconds 20 msec
