                         Program Version 6.0.0  -   RELEASE  -
|  1> ! wb97x-v def2-tzvp def2/J RIJCOSX DEFGRID2 scfconv7 GCP(DFT/TZ) printgap
|  2> %output
|  3>     printlevel normal
|  4> end
|  5> * xyz 0 1
|  6> C -1.8540705305384686e-06 -1.3941863388498437 5.7569667490120025e-05
|  7> C 1.201779661444804 -0.6982630101139579 5.1344823317449185e-05
|  8> C 1.2017797761449858 0.6982616101132307 2.6198470144982308e-05
|  9> C -1.994655738321229e-06 1.3941851394934663 4.562923925238619e-06
| 10> C -1.2017862630408036 0.6982624194258815 1.1636533354626965e-05
| 11> C -1.2017860635340365 -0.6982641422908438 4.066621730774975e-05
| 12> Cl -2.6903154374636364 -1.5987420030868076 5.524753042968389e-05
| 13> Cl -2.6903153998289713 1.5987407502944806 -1.6105570188180795e-05
| 14> Cl 2.6903054960722694 1.5987408662868494 1.3790474957680087e-05
| 15> Cl 2.6903058201609626 -1.5987414568418752 7.754371789959685e-05
| 16> H -3.448091378014561e-06 -2.477355869951005 7.490244991226311e-05
| 17> H -3.6787622271538205e-06 2.4773548600478423 -1.9991656140567594e-05
| 18> *
| 19>
| 20>                          ****END OF INPUT****

CARTESIAN COORDINATES (ANGSTROEM)
---------------------------------
  C     -0.000002   -1.394186    0.000058
  C      1.201780   -0.698263    0.000051
  C      1.201780    0.698262    0.000026
  C     -0.000002    1.394185    0.000005
  C     -1.201786    0.698262    0.000012
  C     -1.201786   -0.698264    0.000041
  Cl    -2.690315   -1.598742    0.000055
  Cl    -2.690315    1.598741   -0.000016
  Cl     2.690305    1.598741    0.000014
  Cl     2.690306   -1.598741    0.000078
  H     -0.000003   -2.477356    0.000075
  H     -0.000004    2.477355   -0.000020

 Total Charge           Charge          ....    0
 Multiplicity           Mult            ....    1
 Number of Electrons    NEL             ....  106
 Basis Dimension        Dim             ....  346

ORBITAL ENERGIES
----------------

  NO   OCC          E(Eh)            E(eV)
   0   2.0000    -107.166680     -2916.1536
   1   2.0000    -107.166673     -2916.1534
   2   2.0000    -107.166651     -2916.1528
   3   2.0000    -107.166632     -2916.1523
   4   2.0000     -12.151684      -330.6641
   5   2.0000     -12.151159      -330.6498
   6   2.0000     -12.149344      -330.6004
   7   2.0000     -12.149192      -330.5963
   8   2.0000     -12.100416      -329.2691
   9   2.0000     -12.100337      -329.2669
  10   2.0000     -11.319725      -308.0254
  11   2.0000     -11.319701      -308.0247
  12   2.0000     -11.319665      -308.0238
  13   2.0000     -11.319618      -308.0225
  14   2.0000      -9.111892      -247.9472
  15   2.0000      -9.111382      -247.9333
  16   2.0000      -9.111135      -247.9266
  17   2.0000      -9.110836      -247.9185
  18   2.0000      -9.108889      -247.8655
  19   2.0000      -9.108870      -247.8650
  20   2.0000      -9.108672      -247.8596
  21   2.0000      -9.108668      -247.8595
  22   2.0000      -9.108405      -247.8523
  23   2.0000      -9.108177      -247.8461
  24   2.0000      -9.108074      -247.8433
  25   2.0000      -9.107986      -247.8409
  26   2.0000      -1.488851       -40.5137
  27   2.0000      -1.461138       -39.7596
  28   2.0000      -1.438560       -39.1452
  29   2.0000      -1.431599       -38.9558
  30   2.0000      -1.383973       -37.6598
  31   2.0000      -1.313979       -35.7552
  32   2.0000      -1.287790       -35.0426
  33   2.0000      -1.166285       -31.7362
  34   2.0000      -1.139997       -31.0209
  35   2.0000      -1.036167       -28.1955
  36   2.0000      -1.013946       -27.5909
  37   2.0000      -0.981376       -26.7046
  38   2.0000      -0.956828       -26.0366
  39   2.0000      -0.933708       -25.4075
  40   2.0000      -0.915657       -24.9163
  41   2.0000      -0.890711       -24.2375
  42   2.0000      -0.880850       -23.9692
  43   2.0000      -0.848999       -23.1024
  44   2.0000      -0.830644       -22.6030
  45   2.0000      -0.824154       -22.4264
  46   2.0000      -0.819889       -22.3103
  47   2.0000      -0.815113       -22.1803
  48   2.0000      -0.812539       -22.1103
  49   2.0000      -0.808504       -22.0005
  50   2.0000      -0.778563       -21.1858
  51   2.0000      -0.690200       -18.7813
  52   2.0000      -0.685651       -18.6575
  53   0.0000      -0.327375        -8.9083
  54   0.0000      -0.315259        -8.5786
  55   0.0000      -0.294702        -8.0192
  56   0.0000      -0.291476        -7.9315
  57   0.0000      -0.278299        -7.5729

MULLIKEN ATOMIC CHARGES
-----------------------
   0 C :   -0.230500
   1 C :    0.086332
   2 C :    0.086314
   3 C :   -0.230514
   4 C :    0.086298
   5 C :    0.086351
   6 Cl:   -0.048769
   7 Cl:   -0.048785
   8 Cl:   -0.048766
   9 Cl:   -0.048776
  10 H :    0.155406
  11 H :    0.155410
Sum of atomic charges:    0.0000000

LOEWDIN ATOMIC CHARGES
----------------------
   0 C :   -0.134293
   1 C :   -0.427844
   2 C :   -0.427842
   3 C :   -0.134294
   4 C :   -0.427842
   5 C :   -0.427842
   6 Cl:    0.416437
   7 Cl:    0.416437
   8 Cl:    0.416439
   9 Cl:    0.416439
  10 H :    0.157102
  11 H :    0.157102

  Mayer bond orders larger than 0.100000
B(  0-C ,  1-C ) :   1.3823 B(  0-C ,  5-C ) :   1.3823 B(  0-C , 10-H ) :   0.9484
B(  1-C ,  2-C ) :   1.3191 B(  1-C ,  9-Cl) :   1.0913 B(  2-C ,  3-C ) :   1.3825
B(  2-C ,  8-Cl) :   1.0913 B(  3-C ,  4-C ) :   1.3822 B(  3-C , 11-H ) :   0.9484
B(  4-C ,  5-C ) :   1.3192 B(  4-C ,  7-Cl) :   1.0913 B(  5-C ,  6-Cl) :   1.0913

FINAL SINGLE POINT ENERGY     -2070.434363063951

DIPOLE MOMENT
-------------

Method             : SCF
Type of density    : Electron Density
Multiplicity       :   1
Irrep              :   0
Energy             : -2070.4401775191504385 Eh
Relativity type    :
Basis              : AO
                                X                 Y                 Z
Electronic contribution:     -0.000003334       0.000000687       0.000007609
Nuclear contribution   :      0.000004951      -0.000000387      -0.000010583
                        -----------------------------------------
Total Dipole Moment    :      0.000001617       0.000000300      -0.000002974
                        -----------------------------------------
Magnitude (a.u.)       :      0.000003399
Magnitude (Debye)      :      0.000008639

Rotational constants in cm-1:             0.037886             0.015384             0.010941
Rotational constants in MHz :          1135.790850           461.200255           328.008734

                             ****ORCA TERMINATED NORMALLY****
TOTAL RUN TIME: 0 days 0 hours 3 minutes 24 seconds 550 msec
