                         Program Version 6.0.0  -   RELEASE  -
|  1> ! wb97x-v def2-tzvp def2/J RIJCOSX DEFGRID2 scfconv7 GCP(DFT/TZ) printgap
|  2> %output
|  3>     printlevel normal
|  4> end
|  5> %cpcm
|  6>     smd true
|  7>     smdsolvent "water"
|  8> end
|  9> * xyz 0 1
| 10> C -1.8540705305384686e-06 -1.3941863388498437 5.7569667490120025e-05
| 11> C 1.201779661444804 -0.6982630101139579 5.1344823317449185e-05
| 12> C 1.2017797761449858 0.6982616101132307 2.6198470144982308e-05
| 13> C -1.994655738321229e-06 1.3941851394934663 4.562923925238619e-06
| 14> C -1.2017862630408036 0.6982624194258815 1.1636533354626965e-05
| 15> C -1.2017860635340365 -0.6982641422908438 4.066621730774975e-05
| 16> Cl -2.6903154374636364 -1.5987420030868076 5.524753042968389e-05
| 17> Cl -2.6903153998289713 1.5987407502944806 -1.6105570188180795e-05
| 18> Cl 2.6903054960722694 1.5987408662868494 1.3790474957680087e-05
| 19> Cl 2.6903058201609626 -1.5987414568418752 7.754371789959685e-05
| 20> H -3.448091378014561e-06 -2.477355869951005 7.490244991226311e-05
| 21> H -3.6787622271538205e-06 2.4773548600478423 -1.9991656140567594e-05
| 22> *
| 23>
| 24>                          ****END OF INPUT****

CARTESIAN COORDINATES (ANGSTROEM)
---------------------------------
  C     -0.000002   -1.394186    0.000058
  C      1.201780   -0.698263    0.000051
  C      1.201780    0.698262    0.000026
  C     -0.000002    1.394185    0.000005
  C     -1.201786    0.698262    0.000012
  C     -1.201786   -0.698264    0.000041
  Cl    -2.690315   -1.598742    0.000055
  Cl    -2.690315    1.598741   -0.000016
  Cl     2.690305    1.598741    0.000014
  Cl     2.690306   -1.598741    0.000078
  H     -0.000003   -2.477356    0.000075
  H     -0.000004    2.477355   -0.000020

 Total Charge           Charge          ....    0
 Multiplicity           Mult            ....    1
 Number of Electrons    NEL             ....  106
 Basis Dimension        Dim             ....  346

ORBITAL ENERGIES
----------------

  NO   OCC          E(Eh)            E(eV)
   0   2.0000    -107.162426     -2916.0378
   1   2.0000    -107.162418     -2916.0377
   2   2.0000    -107.162397     -2916.0371
   3   2.0000    -107.162378     -2916.0365
   4   2.0000     -12.143349      -330.4373
   5   2.0000     -12.142818      -330.4229
   6   2.0000     -12.141008      -330.3736
   7   2.0000     -12.140851      -330.3694
   8   2.0000     -12.088772      -328.9522
   9   2.0000     -12.088691      -328.9500
  10   2.0000     -11.315541      -307.9115
  11   2.0000     -11.315515      -307.9108
  12   2.0000     -11.315479      -307.9098
  13   2.0000     -11.315432      -307.9085
  14   2.0000      -9.107685      -247.8327
  15   2.0000      -9.107177      -247.8189
  16   2.0000      -9.106935      -247.8123
  17   2.0000      -9.106651      -247.8046
  18   2.0000      -9.104747      -247.7528
  19   2.0000      -9.104729      -247.7523
  20   2.0000      -9.104517      -247.7465
  21   2.0000      -9.104507      -247.7462
  22   2.0000      -9.104253      -247.7393
  23   2.0000      -9.104041      -247.7336
  24   2.0000      -9.103915      -247.7301
  25   2.0000      -9.103831      -247.7278
  26   2.0000      -1.481650       -40.3177
  27   2.0000      -1.455864       -39.6161
  28   2.0000      -1.433422       -39.0054
  29   2.0000      -1.427081       -38.8328
  30   2.0000      -1.377103       -37.4729
  31   2.0000      -1.304220       -35.4896
  32   2.0000      -1.280426       -34.8422
  33   2.0000      -1.156346       -31.4658
  34   2.0000      -1.131773       -30.7971
  35   2.0000      -1.027111       -27.9491
  36   2.0000      -1.006344       -27.3840
  37   2.0000      -0.975307       -26.5395
  38   2.0000      -0.951243       -25.8846
  39   2.0000      -0.919713       -25.0267
  40   2.0000      -0.909599       -24.7515
  41   2.0000      -0.879600       -23.9351
  42   2.0000      -0.873683       -23.7741
  43   2.0000      -0.844307       -22.9748
  44   2.0000      -0.826450       -22.4889
  45   2.0000      -0.820451       -22.3256
  46   2.0000      -0.815328       -22.1862
  47   2.0000      -0.810966       -22.0675
  48   2.0000      -0.808614       -22.0035
  49   2.0000      -0.804573       -21.8935
  50   2.0000      -0.772373       -21.0173
  51   2.0000      -0.679652       -18.4943
  52   2.0000      -0.678651       -18.4670
  53   0.0000      -0.320437        -8.7195
  54   0.0000      -0.307287        -8.3617
  55   0.0000      -0.285382        -7.7656
  56   0.0000      -0.283318        -7.7095
  57   0.0000      -0.272363        -7.4114

MULLIKEN ATOMIC CHARGES
-----------------------
   0 C :   -0.231656
   1 C :    0.087863
   2 C :    0.087879
   3 C :   -0.231678
   4 C :    0.087842
   5 C :    0.087902
   6 Cl:   -0.065819
   7 Cl:   -0.065836
   8 Cl:   -0.065817
   9 Cl:   -0.065826
  10 H :    0.187571
  11 H :    0.187575
Sum of atomic charges:    0.0000000

LOEWDIN ATOMIC CHARGES
----------------------
   0 C :   -0.123573
   1 C :   -0.426767
   2 C :   -0.426766
   3 C :   -0.123574
   4 C :   -0.426766
   5 C :   -0.426766
   6 Cl:    0.404432
   7 Cl:    0.404431
   8 Cl:    0.404433
   9 Cl:    0.404434
  10 H :    0.168241
  11 H :    0.168242

  Mayer bond orders larger than 0.100000
B(  0-C ,  1-C ) :   1.3786 B(  0-C ,  5-C ) :   1.3786 B(  0-C , 10-H ) :   0.9433
B(  1-C ,  2-C ) :   1.3115 B(  1-C ,  9-Cl) :   1.0787 B(  2-C ,  3-C ) :   1.3788
B(  2-C ,  8-Cl) :   1.0786 B(  3-C ,  4-C ) :   1.3786 B(  3-C , 11-H ) :   0.9433
B(  4-C ,  5-C ) :   1.3115 B(  4-C ,  7-Cl) :   1.0786 B(  5-C ,  6-Cl) :   1.0786

FINAL SINGLE POINT ENERGY     -2070.434794121569

DIPOLE MOMENT
-------------

Method             : SCF
Type of density    : Electron Density
Multiplicity       :   1
Irrep              :   0
Energy             : -2070.4406085767691366 Eh
Relativity type    :
Basis              : AO
                                X                 Y                 Z
Electronic contribution:     -0.000003635       0.000000998       0.000006364
Nuclear contribution   :      0.000004951      -0.000000387      -0.000010583
                        -----------------------------------------
Total Dipole Moment    :      0.000001316       0.000000611      -0.000004219
                        -----------------------------------------
Magnitude (a.u.)       :      0.000004462
Magnitude (Debye)      :      0.000011341

Rotational constants in cm-1:             0.037886             0.015384             0.010941
Rotational constants in MHz :          1135.790850           461.200255           328.008734

                             ****ORCA TERMINATED NORMALLY****
TOTAL RUN TIME: 0 days 0 hours 3 minutes 38 seconds 321 msec
