                         Program Version 6.0.0  -   RELEASE  -
|  1> ! wb97x-v def2-tzvp def2/J RIJCOSX DEFGRID2 scfconv7 GCP(DFT/TZ) printgap
|  2> %output
|  3>     printlevel normal
|  4> end
|  5> * xyz 0 1
|  6> C -3.4283803864856663 -0.34649601981960976 1.6688134066571898
|  7> N -2.3333437191547 0.027903900796865368 0.7804867201392696
|  8> C -2.384738185518264 -0.2714461964368589 -0.5222819508405614
|  9> O -3.283257843120744 -0.8958959312421388 -1.07516253598597
| 10> O -1.3334833232799985 0.16330422612311862 -1.3135331440625544
| 11> C -0.21647101871826188 0.7711764210342035 -0.721738795299815
| 12> C -0.166549770024579 2.138479078175476 -0.6388474027214223
| 13> C 0.9818877419571231 2.7570165620712843 -0.10144563055129237
| 14> C 2.041933014498334 1.9995581747096267 0.3352060074005979
| 15> C 2.0044653982175693 0.5857466614866367 0.2540274700660653
| 16> C 0.8478780280943184 -0.058749160170367534 -0.29121086042529337
| 17> C 0.8094256318631368 -1.470732066039526 -0.375553537330242
| 18> C 1.875888616830365 -2.2178921201289192 0.06629735619643679
| 19> C 3.019395395997669 -1.5895963658140293 0.6053245420190269
| 20> C 3.0824239134259734 -0.21965053368084636 0.6961379492544236
| 21> H -3.613019566049312 -1.42252107245783 1.6172457644067493
| 22> H -4.350060351813187 0.18477787525621128 1.410883267431982
| 23> H -3.1425859720060894 -0.08693666590033408 2.6884080243085333
| 24> H -1.594611780120885 0.6201572820937026 1.1302349926612072
| 25> H -1.0089217900708694 2.7279428979725733 -0.985389984732767
| 26> H 1.018186272874661 3.839394724695367 -0.037915838553880955
| 27> H 2.926209413813205 2.4742176078777782 0.7496367824102845
| 28> H -0.06691158487098017 -1.9573739283904112 -0.7907792920929528
| 29> H 1.8412056194708608 -3.3005125313131516 -0.00044945782331512485
| 30> H 3.8517431305465517 -2.1959689135514457 0.9479404493114927
| 31> H 3.9604920179893606 0.2683701477985931 1.1089988565942956
| 32> *
| 33>
| 34>                          ****END OF INPUT****

CARTESIAN COORDINATES (ANGSTROEM)
---------------------------------
  C     -3.428380   -0.346496    1.668813
  N     -2.333344    0.027904    0.780487
  C     -2.384738   -0.271446   -0.522282
  O     -3.283258   -0.895896   -1.075163
  O     -1.333483    0.163304   -1.313533
  C     -0.216471    0.771176   -0.721739
  C     -0.166550    2.138479   -0.638847
  C      0.981888    2.757017   -0.101446
  C      2.041933    1.999558    0.335206
  C      2.004465    0.585747    0.254027
  C      0.847878   -0.058749   -0.291211
  C      0.809426   -1.470732   -0.375554
  C      1.875889   -2.217892    0.066297
  C      3.019395   -1.589596    0.605325
  C      3.082424   -0.219651    0.696138
  H     -3.613020   -1.422521    1.617246
  H     -4.350060    0.184778    1.410883
  H     -3.142586   -0.086937    2.688408
  H     -1.594612    0.620157    1.130235
  H     -1.008922    2.727943   -0.985390
  H      1.018186    3.839395   -0.037916
  H      2.926209    2.474218    0.749637
  H     -0.066912   -1.957374   -0.790779
  H      1.841206   -3.300513   -0.000449
  H      3.851743   -2.195969    0.947940
  H      3.960492    0.268370    1.108999

 Total Charge           Charge          ....    0
 Multiplicity           Mult            ....    1
 Number of Electrons    NEL             ....  106
 Basis Dimension        Dim             ....  531

ORBITAL ENERGIES
----------------

  NO   OCC          E(Eh)            E(eV)
   0   2.0000     -21.719883      -591.0281
   1   2.0000     -21.633584      -588.6797
   2   2.0000     -16.564423      -450.7409
   3   2.0000     -12.195997      -331.8700
   4   2.0000     -12.126595      -329.9814
   5   2.0000     -12.088259      -328.9382
   6   2.0000     -12.079043      -328.6875
   7   2.0000     -12.077005      -328.6320
   8   2.0000     -12.071396      -328.4794
   9   2.0000     -12.069058      -328.4158
  10   2.0000     -12.067289      -328.3676
  11   2.0000     -12.066957      -328.3586
  12   2.0000     -12.065682      -328.3239
  13   2.0000     -12.064617      -328.2949
  14   2.0000     -12.063009      -328.2512
  15   2.0000      -1.754880       -47.7527
  16   2.0000      -1.682575       -45.7852
  17   2.0000      -1.531980       -41.6873
  18   2.0000      -1.420976       -38.6667
  19   2.0000      -1.368100       -37.2279
  20   2.0000      -1.325917       -36.0800
  21   2.0000      -1.289477       -35.0884
  22   2.0000      -1.276341       -34.7310
  23   2.0000      -1.247921       -33.9577
  24   2.0000      -1.195047       -32.5189
  25   2.0000      -1.147817       -31.2337
  26   2.0000      -1.141467       -31.0609
  27   2.0000      -1.122993       -30.5582
  28   2.0000      -1.080938       -29.4138
  29   2.0000      -1.042032       -28.3551
  30   2.0000      -1.031516       -28.0690
  31   2.0000      -1.012578       -27.5536
  32   2.0000      -1.003432       -27.3048
  33   2.0000      -0.973129       -26.4802
  34   2.0000      -0.966649       -26.3039
  35   2.0000      -0.958130       -26.0720
  36   2.0000      -0.928137       -25.2559
  37   2.0000      -0.925421       -25.1820
  38   2.0000      -0.905426       -24.6379
  39   2.0000      -0.900288       -24.4981
  40   2.0000      -0.876205       -23.8428
  41   2.0000      -0.868130       -23.6230
  42   2.0000      -0.867304       -23.6005
  43   2.0000      -0.857536       -23.3348
  44   2.0000      -0.843793       -22.9608
  45   2.0000      -0.834510       -22.7082
  46   2.0000      -0.818717       -22.2784
  47   2.0000      -0.815159       -22.1816
  48   2.0000      -0.765376       -20.8269
  49   2.0000      -0.744543       -20.2600
  50   2.0000      -0.699844       -19.0437
  51   2.0000      -0.646358       -17.5883
  52   2.0000      -0.617541       -16.8041
  53   0.0000      -0.305020        -8.3000
  54   0.0000      -0.276264        -7.5175
  55   0.0000      -0.272788        -7.4229
  56   0.0000      -0.220233        -5.9929
  57   0.0000      -0.210447        -5.7266

MULLIKEN ATOMIC CHARGES
-----------------------
   0 C :   -0.237882
   1 N :   -0.282864
   2 C :    0.342714
   3 O :   -0.371929
   4 O :   -0.211772
   5 C :    0.096429
   6 C :   -0.170398
   7 C :   -0.093056
   8 C :   -0.227676
   9 C :    0.115813
  10 C :    0.104255
  11 C :   -0.223732
  12 C :   -0.096359
  13 C :   -0.112262
  14 C :   -0.177666
  15 H :    0.140725
  16 H :    0.131539
  17 H :    0.119252
  18 H :    0.242886
  19 H :    0.138880
  20 H :    0.125694
  21 H :    0.119085
  22 H :    0.161054
  23 H :    0.126070
  24 H :    0.123073
  25 H :    0.118125
Sum of atomic charges:   -0.0000000

LOEWDIN ATOMIC CHARGES
----------------------
   0 C :   -0.286790
   1 N :    0.094660
   2 C :   -0.558685
   3 O :    0.048041
   4 O :    0.298122
   5 C :   -0.201818
   6 C :   -0.119492
   7 C :   -0.136365
   8 C :   -0.101330
   9 C :   -0.089042
  10 C :   -0.076615
  11 C :   -0.088148
  12 C :   -0.130919
  13 C :   -0.132895
  14 C :   -0.097857
  15 H :    0.121558
  16 H :    0.116462
  17 H :    0.114550
  18 H :    0.188471
  19 H :    0.152776
  20 H :    0.145269
  21 H :    0.147382
  22 H :    0.156799
  23 H :    0.145053
  24 H :    0.144050
  25 H :    0.146762

  Mayer bond orders larger than 0.100000
B(  0-C ,  1-N ) :   0.9372 B(  0-C , 15-H ) :   0.9765 B(  0-C , 16-H ) :   0.9769
B(  0-C , 17-H ) :   0.9701 B(  1-N ,  2-C ) :   1.2312 B(  1-N , 18-H ) :   0.9087
B(  2-C ,  3-O ) :   2.1024 B(  2-C ,  4-O ) :   1.0813 B(  4-O ,  5-C ) :   1.0006
B(  5-C ,  6-C ) :   1.6225 B(  5-C , 10-C ) :   1.1525 B(  6-C ,  7-C ) :   1.2307
B(  6-C , 19-H ) :   0.9733 B(  7-C ,  8-C ) :   1.5656 B(  7-C , 20-H ) :   0.9780
B(  8-C ,  9-C ) :   1.2186 B(  8-C , 21-H ) :   0.9836 B(  9-C , 10-C ) :   1.2573
B(  9-C , 14-C ) :   1.2345 B( 10-C , 11-C ) :   1.2531 B( 11-C , 12-C ) :   1.5717
B( 11-C , 22-H ) :   0.9464 B( 12-C , 13-C ) :   1.2659 B( 12-C , 23-H ) :   0.9752
B( 13-C , 14-C ) :   1.5670 B( 13-C , 24-H ) :   0.9755 B( 14-C , 25-H ) :   0.9795

FINAL SINGLE POINT ENERGY      -669.165533563727

DIPOLE MOMENT
-------------

Method             : SCF
Type of density    : Electron Density
Multiplicity       :   1
Irrep              :   0
Energy             :  -669.1801975669270632 Eh
Relativity type    :
Basis              : AO
                                X                 Y                 Z
Electronic contribution:      1.133617904       0.459690774      -6.094018890
Nuclear contribution   :      0.010311327       0.308956973       7.718140265
                        -----------------------------------------
Total Dipole Moment    :      1.143929231       0.768647747       1.624121376
                        -----------------------------------------
Magnitude (a.u.)       :      2.130061897
Magnitude (Debye)      :      5.414187071

Rotational constants in cm-1:             0.032560             0.015279             0.012383
Rotational constants in MHz :           976.128445           458.047769           371.231326

                             ****ORCA TERMINATED NORMALLY****
TOTAL RUN TIME: 0 days 0 hours 8 minutes 24 seconds 580 msec
