                         Program Version 6.0.0  -   RELEASE  -
|  1> ! wb97x-v def2-tzvp def2/J RIJCOSX DEFGRID2 scfconv7 GCP(DFT/TZ) printgap
|  2> %output
|  3>     printlevel normal
|  4> end
|  5> %cpcm
|  6>     smd true
|  7>     smdsolvent "water"
|  8> end
|  9> * xyz 0 1
| 10> C -3.4283803864856663 -0.34649601981960976 1.6688134066571898
| 11> N -2.3333437191547 0.027903900796865368 0.7804867201392696
| 12> C -2.384738185518264 -0.2714461964368589 -0.5222819508405614
| 13> O -3.283257843120744 -0.8958959312421388 -1.07516253598597
| 14> O -1.3334833232799985 0.16330422612311862 -1.3135331440625544
| 15> C -0.21647101871826188 0.7711764210342035 -0.721738795299815
| 16> C -0.166549770024579 2.138479078175476 -0.6388474027214223
| 17> C 0.9818877419571231 2.7570165620712843 -0.10144563055129237
| 18> C 2.041933014498334 1.9995581747096267 0.3352060074005979
| 19> C 2.0044653982175693 0.5857466614866367 0.2540274700660653
| 20> C 0.8478780280943184 -0.058749160170367534 -0.29121086042529337
| 21> C 0.8094256318631368 -1.470732066039526 -0.375553537330242
| 22> C 1.875888616830365 -2.2178921201289192 0.06629735619643679
| 23> C 3.019395395997669 -1.5895963658140293 0.6053245420190269
| 24> C 3.0824239134259734 -0.21965053368084636 0.6961379492544236
| 25> H -3.613019566049312 -1.42252107245783 1.6172457644067493
| 26> H -4.350060351813187 0.18477787525621128 1.410883267431982
| 27> H -3.1425859720060894 -0.08693666590033408 2.6884080243085333
| 28> H -1.594611780120885 0.6201572820937026 1.1302349926612072
| 29> H -1.0089217900708694 2.7279428979725733 -0.985389984732767
| 30> H 1.018186272874661 3.839394724695367 -0.037915838553880955
| 31> H 2.926209413813205 2.4742176078777782 0.7496367824102845
| 32> H -0.06691158487098017 -1.9573739283904112 -0.7907792920929528
| 33> H 1.8412056194708608 -3.3005125313131516 -0.00044945782331512485
| 34> H 3.8517431305465517 -2.1959689135514457 0.9479404493114927
| 35> H 3.9604920179893606 0.2683701477985931 1.1089988565942956
| 36> *
| 37>
| 38>                          ****END OF INPUT****

CARTESIAN COORDINATES (ANGSTROEM)
---------------------------------
  C     -3.428380   -0.346496    1.668813
  N     -2.333344    0.027904    0.780487
  C     -2.384738   -0.271446   -0.522282
  O     -3.283258   -0.895896   -1.075163
  O     -1.333483    0.163304   -1.313533
  C     -0.216471    0.771176   -0.721739
  C     -0.166550    2.138479   -0.638847
  C      0.981888    2.757017   -0.101446
  C      2.041933    1.999558    0.335206
  C      2.004465    0.585747    0.254027
  C      0.847878   -0.058749   -0.291211
  C      0.809426   -1.470732   -0.375554
  C      1.875889   -2.217892    0.066297
  C      3.019395   -1.589596    0.605325
  C      3.082424   -0.219651    0.696138
  H     -3.613020   -1.422521    1.617246
  H     -4.350060    0.184778    1.410883
  H     -3.142586   -0.086937    2.688408
  H     -1.594612    0.620157    1.130235
  H     -1.008922    2.727943   -0.985390
  H      1.018186    3.839395   -0.037916
  H      2.926209    2.474218    0.749637
  H     -0.066912   -1.957374   -0.790779
  H      1.841206   -3.300513   -0.000449
  H      3.851743   -2.195969    0.947940
  H      3.960492    0.268370    1.108999

 Total Charge           Charge          ....    0
 Multiplicity           Mult            ....    1
 Number of Electrons    NEL             ....  106
 Basis Dimension        Dim             ....  531

ORBITAL ENERGIES
----------------

  NO   OCC          E(Eh)            E(eV)
   0   2.0000     -21.729965      -591.3024
   1   2.0000     -21.657040      -589.3180
   2   2.0000     -16.562908      -450.6996
   3   2.0000     -12.211672      -332.2965
   4   2.0000     -12.120954      -329.8279
   5   2.0000     -12.074565      -328.5656
   6   2.0000     -12.071970      -328.4950
   7   2.0000     -12.069426      -328.4258
   8   2.0000     -12.060632      -328.1865
   9   2.0000     -12.058343      -328.1242
  10   2.0000     -12.057378      -328.0979
  11   2.0000     -12.056254      -328.0674
  12   2.0000     -12.055779      -328.0544
  13   2.0000     -12.055059      -328.0348
  14   2.0000     -12.053206      -327.9844
  15   2.0000      -1.767589       -48.0985
  16   2.0000      -1.704877       -46.3921
  17   2.0000      -1.530960       -41.6595
  18   2.0000      -1.413915       -38.4746
  19   2.0000      -1.360267       -37.0147
  20   2.0000      -1.320272       -35.9264
  21   2.0000      -1.280835       -34.8533
  22   2.0000      -1.271536       -34.6002
  23   2.0000      -1.241738       -33.7894
  24   2.0000      -1.194259       -32.4974
  25   2.0000      -1.139776       -31.0149
  26   2.0000      -1.133959       -30.8566
  27   2.0000      -1.123845       -30.5814
  28   2.0000      -1.075450       -29.2645
  29   2.0000      -1.061210       -28.8770
  30   2.0000      -1.029425       -28.0121
  31   2.0000      -1.018742       -27.7214
  32   2.0000      -0.996876       -27.1264
  33   2.0000      -0.969144       -26.3718
  34   2.0000      -0.964552       -26.2468
  35   2.0000      -0.953778       -25.9536
  36   2.0000      -0.925732       -25.1904
  37   2.0000      -0.915937       -24.9239
  38   2.0000      -0.906555       -24.6686
  39   2.0000      -0.895479       -24.3672
  40   2.0000      -0.889507       -24.2047
  41   2.0000      -0.873974       -23.7820
  42   2.0000      -0.863689       -23.5022
  43   2.0000      -0.845726       -23.0134
  44   2.0000      -0.830037       -22.5865
  45   2.0000      -0.823642       -22.4124
  46   2.0000      -0.808885       -22.0109
  47   2.0000      -0.808294       -21.9948
  48   2.0000      -0.762061       -20.7367
  49   2.0000      -0.736768       -20.0485
  50   2.0000      -0.693057       -18.8590
  51   2.0000      -0.638321       -17.3696
  52   2.0000      -0.610312       -16.6074
  53   0.0000      -0.297375        -8.0920
  54   0.0000      -0.285880        -7.7792
  55   0.0000      -0.265719        -7.2306
  56   0.0000      -0.219341        -5.9686
  57   0.0000      -0.207261        -5.6399

MULLIKEN ATOMIC CHARGES
-----------------------
   0 C :   -0.294679
   1 N :   -0.273788
   2 C :    0.421339
   3 O :   -0.516357
   4 O :   -0.266008
   5 C :    0.139648
   6 C :   -0.178100
   7 C :   -0.134558
   8 C :   -0.265338
   9 C :    0.091425
  10 C :    0.133169
  11 C :   -0.272666
  12 C :   -0.135289
  13 C :   -0.152162
  14 C :   -0.213516
  15 H :    0.150851
  16 H :    0.148538
  17 H :    0.160812
  18 H :    0.293620
  19 H :    0.169361
  20 H :    0.166767
  21 H :    0.164368
  22 H :    0.169546
  23 H :    0.164851
  24 H :    0.164257
  25 H :    0.163911
Sum of atomic charges:   -0.0000000

LOEWDIN ATOMIC CHARGES
----------------------
   0 C :   -0.283614
   1 N :    0.117778
   2 C :   -0.551400
   3 O :   -0.035292
   4 O :    0.278543
   5 C :   -0.205777
   6 C :   -0.108809
   7 C :   -0.135771
   8 C :   -0.099551
   9 C :   -0.096255
  10 C :   -0.082107
  11 C :   -0.102231
  12 C :   -0.136810
  13 C :   -0.139800
  14 C :   -0.099505
  15 H :    0.122472
  16 H :    0.120154
  17 H :    0.128310
  18 H :    0.207372
  19 H :    0.162462
  20 H :    0.155739
  21 H :    0.158903
  22 H :    0.159317
  23 H :    0.154013
  24 H :    0.153594
  25 H :    0.158265

  Mayer bond orders larger than 0.100000
B(  0-C ,  1-N ) :   0.9228 B(  0-C , 15-H ) :   0.9718 B(  0-C , 16-H ) :   0.9719
B(  0-C , 17-H ) :   0.9649 B(  1-N ,  2-C ) :   1.3024 B(  1-N , 18-H ) :   0.8873
B(  2-C ,  3-O ) :   1.9503 B(  2-C ,  4-O ) :   1.0920 B(  4-O ,  5-C ) :   0.9475
B(  5-C ,  6-C ) :   1.5997 B(  5-C , 10-C ) :   1.1592 B(  6-C ,  7-C ) :   1.2250
B(  6-C , 19-H ) :   0.9781 B(  7-C ,  8-C ) :   1.5411 B(  7-C , 20-H ) :   0.9807
B(  8-C ,  9-C ) :   1.2039 B(  8-C , 21-H ) :   0.9888 B(  9-C , 10-C ) :   1.2492
B(  9-C , 14-C ) :   1.2173 B( 10-C , 11-C ) :   1.1943 B( 11-C , 12-C ) :   1.5617
B( 11-C , 22-H ) :   0.9733 B( 12-C , 13-C ) :   1.2505 B( 12-C , 23-H ) :   0.9782
B( 13-C , 14-C ) :   1.5426 B( 13-C , 24-H ) :   0.9785 B( 14-C , 25-H ) :   0.9842

FINAL SINGLE POINT ENERGY      -669.183465164554

DIPOLE MOMENT
-------------

Method             : SCF
Type of density    : Electron Density
Multiplicity       :   1
Irrep              :   0
Energy             :  -669.1981291677542458 Eh
Relativity type    :
Basis              : AO
                                X                 Y                 Z
Electronic contribution:      1.587897932       0.953389749      -5.339531097
Nuclear contribution   :      0.010311327       0.308956973       7.718140265
                        -----------------------------------------
Total Dipole Moment    :      1.598209259       1.262346722       2.378609168
                        -----------------------------------------
Magnitude (a.u.)       :      3.131385262
Magnitude (Debye)      :      7.959348795

Rotational constants in cm-1:             0.032560             0.015279             0.012383
Rotational constants in MHz :           976.128445           458.047769           371.231326

                             ****ORCA TERMINATED NORMALLY****
TOTAL RUN TIME: 0 days 0 hours 8 minutes 35 seconds 718 msec
