                         Program Version 6.0.0  -   RELEASE  -
|  1> ! r2scan-3c def2/J RI DEFGRID2 scfconv6 printgap
|  2> %output
|  3>     printlevel normal
|  4> end
|  5> * xyz 0 1
|  6> C -3.6101440124 -1.4802984642 0.0222022786
|  7> C -4.7163658651 -0.6014045702 0.5423801904
|  8> C -4.6124743205 0.7029749133 0.7557051012
|  9> C -3.3864045906 1.5279621497 0.4672294257
| 10> C -2.4772300394 0.7010982488 -0.4288243856
| 11> H -2.9568128591 0.6176370007 -1.4132122027
| 12> C -2.3084104583 -0.7044264969 0.1501927892
| 13> H -2.0688820056 -0.6159314965 1.218554201
| 14> C -1.0473442603 -1.2031118893 -0.4937967743
| 15> O -0.6434333407 -2.3181893589 -0.6714531537
| 16> N -0.3252314839 -0.0453522443 -0.8355642931
| 17> C -1.0707566337 1.1404287332 -0.714935678
| 18> O -0.608738991 2.2360389138 -0.8744405611
| 19> S 1.2715131143 -0.0809739292 -1.3974106174
| 20> C 2.187579204 0.0052809916 0.1879127613
| 21> Cl 3.8911505677 -0.0660740677 -0.262842007
| 22> Cl 1.8527245973 1.5196417173 1.0607524252
| 23> Cl 1.7825455302 -1.3620792039 1.2522136879
| 24> H -3.8012340222 -1.7477586391 -1.0201556063
| 25> H -3.568527479 -2.4082830802 0.593367366
| 26> H -5.6457109789 -1.1076768131 0.7550001708
| 27> H -5.4521789008 1.2500494779 1.1567218333
| 28> H -3.6686071562 2.462028927 -0.0195270146
| 29> H -2.8801229385 1.7871213293 1.4007935882
| 30> *
| 31>
| 32>                          ****END OF INPUT****

CARTESIAN COORDINATES (ANGSTROEM)
---------------------------------
  C     -3.610144   -1.480298    0.022202
  C     -4.716366   -0.601405    0.542380
  C     -4.612474    0.702975    0.755705
  C     -3.386405    1.527962    0.467229
  C     -2.477230    0.701098   -0.428824
  H     -2.956813    0.617637   -1.413212
  C     -2.308410   -0.704426    0.150193
  H     -2.068882   -0.615931    1.218554
  C     -1.047344   -1.203112   -0.493797
  O     -0.643433   -2.318189   -0.671453
  N     -0.325231   -0.045352   -0.835564
  C     -1.070757    1.140429   -0.714936
  O     -0.608739    2.236039   -0.874441
  S      1.271513   -0.080974   -1.397411
  C      2.187579    0.005281    0.187913
  Cl     3.891151   -0.066074   -0.262842
  Cl     1.852725    1.519642    1.060752
  Cl     1.782546   -1.362079    1.252214
  H     -3.801234   -1.747759   -1.020156
  H     -3.568527   -2.408283    0.593367
  H     -5.645711   -1.107677    0.755000
  H     -5.452179    1.250049    1.156722
  H     -3.668607    2.462029   -0.019527
  H     -2.880123    1.787121    1.400794

 Total Charge           Charge          ....    0
 Multiplicity           Mult            ....    1
 Number of Electrons    NEL             ....  152
 Basis Dimension        Dim             ....  391

ORBITAL ENERGIES
----------------

  NO   OCC          E(Eh)            E(eV)
   0   2.0000    -101.251802     -2755.2016
   1   2.0000    -101.241426     -2754.9193
   2   2.0000    -101.239611     -2754.8699
   3   2.0000     -88.629667     -2411.7359
   4   2.0000     -18.959539      -515.9153
   5   2.0000     -18.959070      -515.9025
   6   2.0000     -14.250666      -387.7803
   7   2.0000     -10.253127      -279.0018
   8   2.0000     -10.166921      -276.6560
   9   2.0000     -10.166758      -276.6516
  10   2.0000     -10.079914      -274.2884
  11   2.0000     -10.079411      -274.2747
  12   2.0000     -10.062668      -273.8191
  13   2.0000     -10.062459      -273.8134
  14   2.0000     -10.052703      -273.5479
  15   2.0000     -10.051921      -273.5267
  16   2.0000      -9.407619      -255.9943
  17   2.0000      -9.397362      -255.7152
  18   2.0000      -9.395523      -255.6652
  19   2.0000      -7.920394      -215.5249
  20   2.0000      -7.154715      -194.6897
  21   2.0000      -7.144500      -194.4117
  22   2.0000      -7.143413      -194.3821
  23   2.0000      -7.143052      -194.3723
  24   2.0000      -7.142713      -194.3631
  25   2.0000      -7.133171      -194.1034
  26   2.0000      -7.132727      -194.0914
  27   2.0000      -7.131280      -194.0520
  28   2.0000      -7.130890      -194.0414
  29   2.0000      -5.870013      -159.7312
  30   2.0000      -5.864682      -159.5861
  31   2.0000      -5.854790      -159.3169
  32   2.0000      -1.058137       -28.7934
  33   2.0000      -1.037089       -28.2206
  34   2.0000      -0.953227       -25.9386
  35   2.0000      -0.923544       -25.1309
  36   2.0000      -0.851002       -23.1569
  37   2.0000      -0.815968       -22.2036
  38   2.0000      -0.806826       -21.9548
  39   2.0000      -0.780283       -21.2326
  40   2.0000      -0.750831       -20.4311
  41   2.0000      -0.720728       -19.6120
  42   2.0000      -0.663161       -18.0455
  43   2.0000      -0.637078       -17.3358
  44   2.0000      -0.595807       -16.2127
  45   2.0000      -0.595010       -16.1911
  46   2.0000      -0.535852       -14.5813
  47   2.0000      -0.530579       -14.4378
  48   2.0000      -0.492555       -13.4031
  49   2.0000      -0.485972       -13.2240
  50   2.0000      -0.474225       -12.9043
  51   2.0000      -0.464556       -12.6412
  52   2.0000      -0.454464       -12.3666
  53   2.0000      -0.448569       -12.2062
  54   2.0000      -0.438318       -11.9272
  55   2.0000      -0.421064       -11.4577
  56   2.0000      -0.415086       -11.2951
  57   2.0000      -0.408194       -11.1075
  58   2.0000      -0.398596       -10.8463
  59   2.0000      -0.392912       -10.6917
  60   2.0000      -0.382383       -10.4052
  61   2.0000      -0.370822       -10.0906
  62   2.0000      -0.340040        -9.2529
  63   2.0000      -0.338235        -9.2038
  64   2.0000      -0.332992        -9.0612
  65   2.0000      -0.331311        -9.0154
  66   2.0000      -0.326808        -8.8929
  67   2.0000      -0.320687        -8.7263
  68   2.0000      -0.305469        -8.3122
  69   2.0000      -0.303212        -8.2508
  70   2.0000      -0.285421        -7.7667
  71   2.0000      -0.279417        -7.6033
  72   2.0000      -0.264416        -7.1951
  73   2.0000      -0.252527        -6.8716
  74   2.0000      -0.249474        -6.7885
  75   2.0000      -0.240383        -6.5412
  76   0.0000      -0.083480        -2.2716
  77   0.0000      -0.068909        -1.8751
  78   0.0000      -0.049412        -1.3446
  79   0.0000      -0.043774        -1.1912
  80   0.0000      -0.029153        -0.7933

MULLIKEN ATOMIC CHARGES
-----------------------
   0 C :   -0.345850
   1 C :   -0.158368
   2 C :   -0.163243
   3 C :   -0.332544
   4 C :   -0.068801
   5 H :    0.219828
   6 C :   -0.044345
   7 H :    0.225575
   8 C :    0.100636
   9 O :   -0.350886
  10 N :    0.036276
  11 C :    0.132250
  12 O :   -0.355370
  13 S :    0.124503
  14 C :    0.133330
  15 Cl:   -0.043383
  16 Cl:   -0.052476
  17 Cl:   -0.057500
  18 H :    0.173192
  19 H :    0.170742
  20 H :    0.155623
  21 H :    0.155860
  22 H :    0.170856
  23 H :    0.174093
Sum of atomic charges:    0.0000000

LOEWDIN ATOMIC CHARGES
----------------------
   0 C :   -0.257824
   1 C :   -0.186663
   2 C :   -0.186697
   3 C :   -0.257011
   4 C :   -0.117286
   5 H :    0.201577
   6 C :   -0.118460
   7 H :    0.203402
   8 C :    0.358208
   9 O :   -0.374619
  10 N :   -0.884882
  11 C :    0.361540
  12 O :   -0.377439
  13 S :    0.590831
  14 C :   -0.459052
  15 Cl:    0.160991
  16 Cl:    0.152277
  17 Cl:    0.153680
  18 H :    0.175855
  19 H :    0.174882
  20 H :    0.167688
  21 H :    0.167775
  22 H :    0.174811
  23 H :    0.176415

  Mayer bond orders larger than 0.100000
B(  0-C ,  1-C ) :   0.9121 B(  0-C ,  6-C ) :   0.9111 B(  0-C , 18-H ) :   0.9889
B(  0-C , 19-H ) :   0.9664 B(  1-C ,  2-C ) :   1.9009 B(  1-C , 20-H ) :   0.9361
B(  2-C ,  3-C ) :   0.9159 B(  2-C , 21-H ) :   0.9360 B(  3-C ,  4-C ) :   0.9060
B(  3-C , 22-H ) :   0.9656 B(  3-C , 23-H ) :   0.9857 B(  4-C ,  5-H ) :   0.9100
B(  4-C ,  6-C ) :   0.9021 B(  4-C , 11-C ) :   0.8996 B(  6-C ,  7-H ) :   0.8895
B(  6-C ,  8-C ) :   0.8938 B(  8-C ,  9-O ) :   2.0200 B(  8-C , 10-N ) :   0.9714
B( 10-N , 11-C ) :   0.9877 B( 10-N , 13-S ) :   1.1047 B( 11-C , 12-O ) :   2.0071
B( 13-S , 14-C ) :   0.9162 B( 14-C , 15-Cl) :   1.0238 B( 14-C , 16-Cl) :   1.0416
B( 14-C , 17-Cl) :   1.0305

Dispersion correction           -0.012947580
FINAL SINGLE POINT ENERGY     -2331.543857575467

DIPOLE MOMENT
-------------

Method             : SCF
Type of density    : Electron Density
Multiplicity       :   1
Irrep              :   0
Energy             : -2331.5503594645247176 Eh
Relativity type    :
Basis              : AO
                                X                 Y                 Z
Electronic contribution:     36.891519913      -0.074323615       0.557212774
Nuclear contribution   :    -38.343874329       0.100605452      -0.232331025
                        -----------------------------------------
Total Dipole Moment    :     -1.452354416       0.026281837       0.324881748
                        -----------------------------------------
Magnitude (a.u.)       :      1.488479840
Magnitude (Debye)      :      3.783415081

Rotational constants in cm-1:             0.025201             0.007579             0.006892
Rotational constants in MHz :           755.505075           227.213128           206.611383

                             ****ORCA TERMINATED NORMALLY****
TOTAL RUN TIME: 0 days 0 hours 1 minutes 18 seconds 13 msec
