                         Program Version 6.0.0  -   RELEASE  -
|  1> ! r2scan-3c def2/J RI DEFGRID2 scfconv6 printgap
|  2> %output
|  3>     printlevel normal
|  4> end
|  5> %cpcm
|  6>     smd true
|  7>     smdsolvent "water"
|  8> end
|  9> * xyz 0 1
| 10> C -3.6101440124 -1.4802984642 0.0222022786
| 11> C -4.7163658651 -0.6014045702 0.5423801904
| 12> C -4.6124743205 0.7029749133 0.7557051012
| 13> C -3.3864045906 1.5279621497 0.4672294257
| 14> C -2.4772300394 0.7010982488 -0.4288243856
| 15> H -2.9568128591 0.6176370007 -1.4132122027
| 16> C -2.3084104583 -0.7044264969 0.1501927892
| 17> H -2.0688820056 -0.6159314965 1.218554201
| 18> C -1.0473442603 -1.2031118893 -0.4937967743
| 19> O -0.6434333407 -2.3181893589 -0.6714531537
| 20> N -0.3252314839 -0.0453522443 -0.8355642931
| 21> C -1.0707566337 1.1404287332 -0.714935678
| 22> O -0.608738991 2.2360389138 -0.8744405611
| 23> S 1.2715131143 -0.0809739292 -1.3974106174
| 24> C 2.187579204 0.0052809916 0.1879127613
| 25> Cl 3.8911505677 -0.0660740677 -0.262842007
| 26> Cl 1.8527245973 1.5196417173 1.0607524252
| 27> Cl 1.7825455302 -1.3620792039 1.2522136879
| 28> H -3.8012340222 -1.7477586391 -1.0201556063
| 29> H -3.568527479 -2.4082830802 0.593367366
| 30> H -5.6457109789 -1.1076768131 0.7550001708
| 31> H -5.4521789008 1.2500494779 1.1567218333
| 32> H -3.6686071562 2.462028927 -0.0195270146
| 33> H -2.8801229385 1.7871213293 1.4007935882
| 34> *
| 35>
| 36>                          ****END OF INPUT****

CARTESIAN COORDINATES (ANGSTROEM)
---------------------------------
  C     -3.610144   -1.480298    0.022202
  C     -4.716366   -0.601405    0.542380
  C     -4.612474    0.702975    0.755705
  C     -3.386405    1.527962    0.467229
  C     -2.477230    0.701098   -0.428824
  H     -2.956813    0.617637   -1.413212
  C     -2.308410   -0.704426    0.150193
  H     -2.068882   -0.615931    1.218554
  C     -1.047344   -1.203112   -0.493797
  O     -0.643433   -2.318189   -0.671453
  N     -0.325231   -0.045352   -0.835564
  C     -1.070757    1.140429   -0.714936
  O     -0.608739    2.236039   -0.874441
  S      1.271513   -0.080974   -1.397411
  C      2.187579    0.005281    0.187913
  Cl     3.891151   -0.066074   -0.262842
  Cl     1.852725    1.519642    1.060752
  Cl     1.782546   -1.362079    1.252214
  H     -3.801234   -1.747759   -1.020156
  H     -3.568527   -2.408283    0.593367
  H     -5.645711   -1.107677    0.755000
  H     -5.452179    1.250049    1.156722
  H     -3.668607    2.462029   -0.019527
  H     -2.880123    1.787121    1.400794

 Total Charge           Charge          ....    0
 Multiplicity           Mult            ....    1
 Number of Electrons    NEL             ....  152
 Basis Dimension        Dim             ....  391

ORBITAL ENERGIES
----------------

  NO   OCC          E(Eh)            E(eV)
   0   2.0000    -101.257743     -2755.3633
   1   2.0000    -101.248067     -2755.1000
   2   2.0000    -101.246810     -2755.0658
   3   2.0000     -88.635297     -2411.8891
   4   2.0000     -18.966140      -516.0949
   5   2.0000     -18.965174      -516.0686
   6   2.0000     -14.252088      -387.8190
   7   2.0000     -10.258599      -279.1507
   8   2.0000     -10.170356      -276.7494
   9   2.0000     -10.169807      -276.7345
  10   2.0000     -10.062436      -273.8128
  11   2.0000     -10.062295      -273.8090
  12   2.0000     -10.040501      -273.2159
  13   2.0000     -10.040302      -273.2105
  14   2.0000     -10.032278      -272.9922
  15   2.0000     -10.031497      -272.9709
  16   2.0000      -9.413519      -256.1549
  17   2.0000      -9.403997      -255.8958
  18   2.0000      -9.402742      -255.8616
  19   2.0000      -7.925995      -215.6773
  20   2.0000      -7.160603      -194.8499
  21   2.0000      -7.151116      -194.5918
  22   2.0000      -7.149895      -194.5585
  23   2.0000      -7.149300      -194.5423
  24   2.0000      -7.148984      -194.5337
  25   2.0000      -7.139744      -194.2823
  26   2.0000      -7.139443      -194.2741
  27   2.0000      -7.138454      -194.2472
  28   2.0000      -7.138189      -194.2400
  29   2.0000      -5.875473      -159.8797
  30   2.0000      -5.870256      -159.7378
  31   2.0000      -5.860581      -159.4745
  32   2.0000      -1.063078       -28.9278
  33   2.0000      -1.044377       -28.4190
  34   2.0000      -0.956268       -26.0214
  35   2.0000      -0.928581       -25.2680
  36   2.0000      -0.835576       -22.7372
  37   2.0000      -0.822008       -22.3680
  38   2.0000      -0.813829       -22.1454
  39   2.0000      -0.771205       -20.9856
  40   2.0000      -0.731420       -19.9030
  41   2.0000      -0.713556       -19.4168
  42   2.0000      -0.655749       -17.8438
  43   2.0000      -0.627397       -17.0723
  44   2.0000      -0.589622       -16.0444
  45   2.0000      -0.588135       -16.0040
  46   2.0000      -0.530149       -14.4261
  47   2.0000      -0.512187       -13.9373
  48   2.0000      -0.490022       -13.3342
  49   2.0000      -0.478895       -13.0314
  50   2.0000      -0.474769       -12.9191
  51   2.0000      -0.469082       -12.7644
  52   2.0000      -0.458561       -12.4781
  53   2.0000      -0.441997       -12.0273
  54   2.0000      -0.428879       -11.6704
  55   2.0000      -0.425737       -11.5849
  56   2.0000      -0.406866       -11.0714
  57   2.0000      -0.398775       -10.8512
  58   2.0000      -0.387869       -10.5545
  59   2.0000      -0.381191       -10.3727
  60   2.0000      -0.370911       -10.0930
  61   2.0000      -0.357578        -9.7302
  62   2.0000      -0.343732        -9.3534
  63   2.0000      -0.342545        -9.3211
  64   2.0000      -0.327174        -8.9029
  65   2.0000      -0.321827        -8.7574
  66   2.0000      -0.318276        -8.6607
  67   2.0000      -0.313155        -8.5214
  68   2.0000      -0.309395        -8.4191
  69   2.0000      -0.305812        -8.3216
  70   2.0000      -0.292244        -7.9524
  71   2.0000      -0.283951        -7.7267
  72   2.0000      -0.267026        -7.2661
  73   2.0000      -0.260393        -7.0856
  74   2.0000      -0.246439        -6.7059
  75   2.0000      -0.230232        -6.2649
  76   0.0000      -0.088345        -2.4040
  77   0.0000      -0.068119        -1.8536
  78   0.0000      -0.053560        -1.4574
  79   0.0000      -0.045027        -1.2253
  80   0.0000      -0.031109        -0.8465

MULLIKEN ATOMIC CHARGES
-----------------------
   0 C :   -0.353819
   1 C :   -0.210046
   2 C :   -0.214018
   3 C :   -0.340367
   4 C :   -0.048113
   5 H :    0.259917
   6 C :   -0.029149
   7 H :    0.263874
   8 C :    0.128951
   9 O :   -0.429799
  10 N :    0.052207
  11 C :    0.158449
  12 O :   -0.431913
  13 S :    0.100327
  14 C :    0.132761
  15 Cl:   -0.039074
  16 Cl:   -0.057845
  17 Cl:   -0.060424
  18 H :    0.194537
  19 H :    0.184103
  20 H :    0.180279
  21 H :    0.180604
  22 H :    0.184127
  23 H :    0.194429
Sum of atomic charges:    0.0000000

LOEWDIN ATOMIC CHARGES
----------------------
   0 C :   -0.257681
   1 C :   -0.193935
   2 C :   -0.194070
   3 C :   -0.256967
   4 C :   -0.108586
   5 H :    0.219251
   6 C :   -0.109911
   7 H :    0.219527
   8 C :    0.375667
   9 O :   -0.427598
  10 N :   -0.869391
  11 C :    0.379753
  12 O :   -0.429272
  13 S :    0.577765
  14 C :   -0.461527
  15 Cl:    0.161928
  16 Cl:    0.149169
  17 Cl:    0.152492
  18 H :    0.183113
  19 H :    0.178996
  20 H :    0.174578
  21 H :    0.174661
  22 H :    0.178965
  23 H :    0.183072

  Mayer bond orders larger than 0.100000
B(  0-C ,  1-C ) :   0.8996 B(  0-C ,  6-C ) :   0.8872 B(  0-C , 18-H ) :   0.9827
B(  0-C , 19-H ) :   0.9620 B(  1-C ,  2-C ) :   1.8817 B(  1-C , 20-H ) :   0.9408
B(  2-C ,  3-C ) :   0.9017 B(  2-C , 21-H ) :   0.9406 B(  3-C ,  4-C ) :   0.8773
B(  3-C , 22-H ) :   0.9614 B(  3-C , 23-H ) :   0.9809 B(  4-C ,  5-H ) :   0.8849
B(  4-C ,  6-C ) :   0.8863 B(  4-C , 11-C ) :   0.9211 B(  6-C ,  7-H ) :   0.8684
B(  6-C ,  8-C ) :   0.9162 B(  8-C ,  9-O ) :   1.9687 B(  8-C , 10-N ) :   0.9889
B( 10-N , 11-C ) :   1.0019 B( 10-N , 13-S ) :   1.0881 B( 11-C , 12-O ) :   1.9614
B( 13-S , 14-C ) :   0.9116 B( 14-C , 15-Cl) :   1.0293 B( 14-C , 16-Cl) :   1.0373
B( 14-C , 17-Cl) :   1.0298

Dispersion correction           -0.012947580
FINAL SINGLE POINT ENERGY     -2331.557577617949

DIPOLE MOMENT
-------------

Method             : SCF
Type of density    : Electron Density
Multiplicity       :   1
Irrep              :   0
Energy             : -2331.5640795070066815 Eh
Relativity type    :
Basis              : AO
                                X                 Y                 Z
Electronic contribution:     36.349633463      -0.063642532       0.708447228
Nuclear contribution   :    -38.343874329       0.100605452      -0.232331025
                        -----------------------------------------
Total Dipole Moment    :     -1.994240867       0.036962920       0.476116202
                        -----------------------------------------
Magnitude (a.u.)       :      2.050621742
Magnitude (Debye)      :      5.212266243

Rotational constants in cm-1:             0.025201             0.007579             0.006892
Rotational constants in MHz :           755.505075           227.213128           206.611383

                             ****ORCA TERMINATED NORMALLY****
TOTAL RUN TIME: 0 days 0 hours 1 minutes 39 seconds 334 msec
