                         Program Version 6.0.0  -   RELEASE  -
|  1> ! pbe def2-sv(p) def2/J RI DEFGRID1 loosescf d4 GCP(DFT/SV(P)) printgap
|  2> %output
|  3>     printlevel normal
|  4> end
|  5> * xyz 0 1
|  6> C -2.5341057943 -1.0334237149 -0.0007410357
|  7> C -1.2297978912 -0.2961354742 0.0012094869
|  8> C -1.2129541661 1.0958854338 0.0005324701
|  9> C -0.0135000524 1.780941209 -0.0003480495
| 10> C 1.1893403562 1.0953948046 -0.0004356283
| 11> C 1.1843312499 -0.2931074703 -0.000153613
| 12> C -0.0260508587 -0.9801574847 0.0005865512
| 13> O 2.3323616724 -1.0275446897 -1.92857e-05
| 14> H -2.3738920354 -2.1065633973 0.0503543171
| 15> H -3.1413314415 -0.7273319214 0.8490956224
| 16> H -3.0919021483 -0.8058882359 -0.907707806
| 17> H -2.1459014221 1.6391931781 0.0008840936
| 18> H -0.0085650225 2.8606568087 -0.0004907953
| 19> H 2.1241776217 1.6369167319 -0.0008763055
| 20> H -0.0002541002 -2.0593570219 0.0013143406
| 21> H 3.1064101132 -0.4449338999 -1.49772e-05
| 22> *
| 23>
| 24>                          ****END OF INPUT****

CARTESIAN COORDINATES (ANGSTROEM)
---------------------------------
  C     -2.534106   -1.033424   -0.000741
  C     -1.229798   -0.296135    0.001209
  C     -1.212954    1.095885    0.000532
  C     -0.013500    1.780941   -0.000348
  C      1.189340    1.095395   -0.000436
  C      1.184331   -0.293107   -0.000154
  C     -0.026051   -0.980157    0.000587
  O      2.332362   -1.027545   -0.000019
  H     -2.373892   -2.106563    0.050354
  H     -3.141331   -0.727332    0.849096
  H     -3.091902   -0.805888   -0.907708
  H     -2.145901    1.639193    0.000884
  H     -0.008565    2.860657   -0.000491
  H      2.124178    1.636917   -0.000876
  H     -0.000254   -2.059357    0.001314
  H      3.106410   -0.444934   -0.000015

 Total Charge           Charge          ....    0
 Multiplicity           Mult            ....    1
 Number of Electrons    NEL             ....   58
 Basis Dimension        Dim             ....  128

ORBITAL ENERGIES
----------------

  NO   OCC          E(Eh)            E(eV)
   0   2.0000     -18.778550      -510.9903
   1   2.0000      -9.948024      -270.6995
   2   2.0000      -9.900047      -269.3940
   3   2.0000      -9.890386      -269.1311
   4   2.0000      -9.886034      -269.0127
   5   2.0000      -9.881063      -268.8774
   6   2.0000      -9.880367      -268.8584
   7   2.0000      -9.879305      -268.8296
   8   2.0000      -0.959326       -26.1046
   9   2.0000      -0.771202       -20.9855
  10   2.0000      -0.692491       -18.8436
  11   2.0000      -0.662692       -18.0328
  12   2.0000      -0.613548       -16.6955
  13   2.0000      -0.550746       -14.9866
  14   2.0000      -0.537393       -14.6232
  15   2.0000      -0.473308       -12.8794
  16   2.0000      -0.442840       -12.0503
  17   2.0000      -0.421283       -11.4637
  18   2.0000      -0.384963       -10.4754
  19   2.0000      -0.378432       -10.2977
  20   2.0000      -0.363926        -9.9029
  21   2.0000      -0.353066        -9.6074
  22   2.0000      -0.348329        -9.4785
  23   2.0000      -0.322385        -8.7725
  24   2.0000      -0.310730        -8.4554
  25   2.0000      -0.289359        -7.8738
  26   2.0000      -0.286120        -7.7857
  27   2.0000      -0.219181        -5.9642
  28   2.0000      -0.191158        -5.2017
  29   0.0000      -0.027765        -0.7555
  30   0.0000      -0.017153        -0.4668
  31   0.0000       0.024976         0.6796
  32   0.0000       0.049866         1.3569
  33   0.0000       0.066323         1.8047

MULLIKEN ATOMIC CHARGES
-----------------------
   0 C :   -0.223502
   1 C :    0.055316
   2 C :   -0.109491
   3 C :   -0.053525
   4 C :   -0.171137
   5 C :    0.254346
   6 C :   -0.196865
   7 O :   -0.337941
   8 H :    0.101642
   9 H :    0.114364
  10 H :    0.116147
  11 H :    0.029916
  12 H :    0.049598
  13 H :    0.024730
  14 H :    0.030539
  15 H :    0.315863
Sum of atomic charges:    0.0000000

LOEWDIN ATOMIC CHARGES
----------------------
   0 C :   -0.320985
   1 C :   -0.039074
   2 C :   -0.150070
   3 C :   -0.113830
   4 C :   -0.185334
   5 C :    0.025497
   6 C :   -0.151934
   7 O :   -0.238071
   8 H :    0.124080
   9 H :    0.131778
  10 H :    0.132790
  11 H :    0.119080
  12 H :    0.123003
  13 H :    0.118489
  14 H :    0.127466
  15 H :    0.297113

  Mayer bond orders larger than 0.100000
B(  0-C ,  1-C ) :   1.0976 B(  0-C ,  8-H ) :   0.9461 B(  0-C ,  9-H ) :   0.9371
B(  0-C , 10-H ) :   0.9358 B(  1-C ,  2-C ) :   1.3658 B(  1-C ,  6-C ) :   1.3909
B(  2-C ,  3-C ) :   1.3855 B(  2-C , 11-H ) :   0.9697 B(  3-C ,  4-C ) :   1.3570
B(  3-C , 12-H ) :   0.9601 B(  4-C ,  5-C ) :   1.3257 B(  4-C , 13-H ) :   0.9589
B(  5-C ,  6-C ) :   1.3326 B(  5-C ,  7-O ) :   1.1833 B(  6-C , 14-H ) :   0.9630
B(  7-O , 15-H ) :   0.8429

Dispersion correction           -0.015374779
FINAL SINGLE POINT ENERGY      -346.022833095575

DIPOLE MOMENT
-------------

Method             : SCF
Type of density    : Electron Density
Multiplicity       :   1
Irrep              :   0
Energy             :  -346.0724895270711841 Eh
Relativity type    :
Basis              : AO
                                X                 Y                 Z
Electronic contribution:      5.398119832       0.357068273       0.003256397
Nuclear contribution   :     -5.154665222      -0.022106685      -0.006981716
                        -----------------------------------------
Total Dipole Moment    :      0.243454610       0.334961588      -0.003725320
                        -----------------------------------------
Magnitude (a.u.)       :      0.414105410
Magnitude (Debye)      :      1.052572302

Rotational constants in cm-1:             0.124304             0.060291             0.040907
Rotational constants in MHz :          3726.539175          1807.491785          1226.353804

                             ****ORCA TERMINATED NORMALLY****
TOTAL RUN TIME: 0 days 0 hours 0 minutes 7 seconds 74 msec
