                         Program Version 6.0.0  -   RELEASE  -
|  1> ! pbe def2-sv(p) def2/J RI DEFGRID1 loosescf d4 GCP(DFT/SV(P)) printgap
|  2> %output
|  3>     printlevel normal
|  4> end
|  5> * xyz 0 1
|  6> C -1.3812967958 -0.5888547678 -1.477e-07
|  7> S 1.3209e-06 0.5922788729 -3.832e-07
|  8> C 1.3812940794 -0.5888616275 -1.39e-07
|  9> H -1.3278782731 -1.2013977725 0.894812584
| 10> H -1.3281197528 -1.2011438301 -0.8950028992
| 11> H -2.2925793093 -0.0014189708 0.0002059179
| 12> H 1.3280948384 -1.2011620631 0.8950070985
| 13> H 2.2925480618 -0.0013808321 -0.0001545736
| 14> H 1.3279247845 -1.2013739383 -0.89485252
| 15> *
| 16>
| 17>                          ****END OF INPUT****

CARTESIAN COORDINATES (ANGSTROEM)
---------------------------------
  C     -1.381297   -0.588855   -0.000000
  S      0.000001    0.592279   -0.000000
  C      1.381294   -0.588862   -0.000000
  H     -1.327878   -1.201398    0.894813
  H     -1.328120   -1.201144   -0.895003
  H     -2.292579   -0.001419    0.000206
  H      1.328095   -1.201162    0.895007
  H      2.292548   -0.001381   -0.000155
  H      1.327925   -1.201374   -0.894853

 Total Charge           Charge          ....    0
 Multiplicity           Mult            ....    1
 Number of Electrons    NEL             ....   34
 Basis Dimension        Dim             ....   58

ORBITAL ENERGIES
----------------

  NO   OCC          E(Eh)            E(eV)
   0   2.0000     -88.010216     -2394.8797
   1   2.0000      -9.904455      -269.5139
   2   2.0000      -9.904409      -269.5127
   3   2.0000      -7.654457      -208.2884
   4   2.0000      -5.683482      -154.6554
   5   2.0000      -5.679209      -154.5391
   6   2.0000      -5.670247      -154.2953
   7   2.0000      -0.720292       -19.6002
   8   2.0000      -0.631841       -17.1933
   9   2.0000      -0.529902       -14.4194
  10   2.0000      -0.397477       -10.8159
  11   2.0000      -0.394082       -10.7235
  12   2.0000      -0.379618       -10.3299
  13   2.0000      -0.364514        -9.9189
  14   2.0000      -0.323532        -8.8037
  15   2.0000      -0.270653        -7.3648
  16   2.0000      -0.175643        -4.7795
  17   0.0000       0.022763         0.6194
  18   0.0000       0.039167         1.0658
  19   0.0000       0.065133         1.7724
  20   0.0000       0.087912         2.3922
  21   0.0000       0.090900         2.4735

MULLIKEN ATOMIC CHARGES
-----------------------
   0 C :   -0.375239
   1 S :   -0.099932
   2 C :   -0.375246
   3 H :    0.138872
   4 H :    0.138879
   5 H :    0.147452
   6 H :    0.138883
   7 H :    0.147452
   8 H :    0.138878
Sum of atomic charges:   -0.0000000

LOEWDIN ATOMIC CHARGES
----------------------
   0 C :   -0.455272
   1 S :    0.168138
   2 C :   -0.455270
   3 H :    0.120124
   4 H :    0.120123
   5 H :    0.130955
   6 H :    0.120123
   7 H :    0.130955
   8 H :    0.120124

  Mayer bond orders larger than 0.100000
B(  0-C ,  1-S ) :   1.0481 B(  0-C ,  3-H ) :   0.9459 B(  0-C ,  4-H ) :   0.9459
B(  0-C ,  5-H ) :   0.9516 B(  1-S ,  2-C ) :   1.0481 B(  2-C ,  6-H ) :   0.9459
B(  2-C ,  7-H ) :   0.9516 B(  2-C ,  8-H ) :   0.9459

Dispersion correction           -0.005142268
FINAL SINGLE POINT ENERGY      -477.487259436425

DIPOLE MOMENT
-------------

Method             : SCF
Type of density    : Electron Density
Multiplicity       :   1
Irrep              :   0
Energy             :  -477.5164912741874446 Eh
Relativity type    :
Basis              : AO
                                X                 Y                 Z
Electronic contribution:      0.000012023       3.933615594      -0.000011254
Nuclear contribution   :     -0.000009092      -4.527473944       0.000014653
                        -----------------------------------------
Total Dipole Moment    :      0.000002931      -0.593858350       0.000003400
                        -----------------------------------------
Magnitude (a.u.)       :      0.593858350
Magnitude (Debye)      :      1.509467967

Rotational constants in cm-1:             0.588940             0.252476             0.189551
Rotational constants in MHz :         17655.974700          7569.053226          5682.597140

                             ****ORCA TERMINATED NORMALLY****
TOTAL RUN TIME: 0 days 0 hours 0 minutes 3 seconds 508 msec
