                         Program Version 6.0.0  -   RELEASE  -
|  1> ! wb97x-v def2-tzvp def2/J RIJCOSX DEFGRID2 scfconv7 GCP(DFT/TZ) printgap
|  2> %output
|  3>     printlevel normal
|  4> end
|  5> * xyz 0 1
|  6> C -3.0723894186159346 0.060513603161063974 0.30964889962212594
|  7> C -2.0104484549769666 -0.25237772977423084 -0.7451623436453331
|  8> H -2.5184321615688625 -0.4027810308178681 -1.705173039529177
|  9> C -1.2082579751845814 -1.5185517381741833 -0.4153166999318678
| 10> C -0.3056255197656465 -1.3297400390442704 0.8044928377234879
| 11> C 0.6669029638828076 -0.13839717258390968 0.6416877647684727
| 12> H 1.154867174599737 0.0706510628732584 1.6022160261115617
| 13> C -0.14479376265280205 1.0834915511420034 0.27796116931297205
| 14> O -0.09281305114025323 2.1193933145637502 0.940081814216885
| 15> C -1.0454132328111463 0.9465936731250211 -0.9183678637258642
| 16> C 1.790703549430675 -0.3809573651639901 -0.4034118346960392
| 17> C 2.6124479379152454 0.8934426207365402 -0.6085322744853923
| 18> C 2.7006976535018823 -1.5275235998398218 0.03696261867757026
| 19> H -3.748402153884355 -0.7910346280803479 0.44087293299102054
| 20> H -2.6278526730872627 0.29009254761251047 1.2845565690770582
| 21> H -3.6714993742652333 0.9269730581844104 0.0102439255680238
| 22> H -1.899595660019899 -2.349488159079019 -0.23250050969099278
| 23> H -0.6021135438858557 -1.7973676760110329 -1.2857544765579434
| 24> H -0.9199484167125549 -1.153623594921819 1.6949814210802476
| 25> H 0.2658277311266343 -2.241160734963255 1.0030019386981421
| 26> H -1.5939720435434603 1.8804310487964628 -1.0708104332511743
| 27> H -0.41263166357407777 0.7655154283730059 -1.7974626786972643
| 28> H 1.329288085908959 -0.6528242219359478 -1.360583293152052
| 29> H 2.0098069862059584 1.712324881351042 -1.0168003703451103
| 30> H 3.4376942774038364 0.7099666285783383 -1.304017154964963
| 31> H 3.0409753042811936 1.233109208964446 0.3424731595236353
| 32> H 3.5268733359113758 -1.6443095586674015 -0.6723551112198795
| 33> H 2.173267100893415 -2.4840660352853643 0.08707160205276633
| 34> H 3.130828114982423 -1.321492314829041 1.0245803188071543
| 35> *
| 36>
| 37>                          ****END OF INPUT****

CARTESIAN COORDINATES (ANGSTROEM)
---------------------------------
  C     -3.072389    0.060514    0.309649
  C     -2.010448   -0.252378   -0.745162
  H     -2.518432   -0.402781   -1.705173
  C     -1.208258   -1.518552   -0.415317
  C     -0.305626   -1.329740    0.804493
  C      0.666903   -0.138397    0.641688
  H      1.154867    0.070651    1.602216
  C     -0.144794    1.083492    0.277961
  O     -0.092813    2.119393    0.940082
  C     -1.045413    0.946594   -0.918368
  C      1.790704   -0.380957   -0.403412
  C      2.612448    0.893443   -0.608532
  C      2.700698   -1.527524    0.036963
  H     -3.748402   -0.791035    0.440873
  H     -2.627853    0.290093    1.284557
  H     -3.671499    0.926973    0.010244
  H     -1.899596   -2.349488   -0.232501
  H     -0.602114   -1.797368   -1.285754
  H     -0.919948   -1.153624    1.694981
  H      0.265828   -2.241161    1.003002
  H     -1.593972    1.880431   -1.070810
  H     -0.412632    0.765515   -1.797463
  H      1.329288   -0.652824   -1.360583
  H      2.009807    1.712325   -1.016800
  H      3.437694    0.709967   -1.304017
  H      3.040975    1.233109    0.342473
  H      3.526873   -1.644310   -0.672355
  H      2.173267   -2.484066    0.087072
  H      3.130828   -1.321492    1.024580

 Total Charge           Charge          ....    0
 Multiplicity           Mult            ....    1
 Number of Electrons    NEL             ....   86
 Basis Dimension        Dim             ....  449

ORBITAL ENERGIES
----------------

  NO   OCC          E(Eh)            E(eV)
   0   2.0000     -21.653614      -589.2248
   1   2.0000     -12.128560      -330.0349
   2   2.0000     -12.062652      -328.2414
   3   2.0000     -12.061262      -328.2036
   4   2.0000     -12.054702      -328.0251
   5   2.0000     -12.051803      -327.9462
   6   2.0000     -12.050431      -327.9089
   7   2.0000     -12.049426      -327.8815
   8   2.0000     -12.040343      -327.6344
   9   2.0000     -12.038779      -327.5918
  10   2.0000     -12.036285      -327.5240
  11   2.0000      -1.693788       -46.0903
  12   2.0000      -1.362158       -37.0662
  13   2.0000      -1.319531       -35.9063
  14   2.0000      -1.262745       -34.3610
  15   2.0000      -1.247114       -33.9357
  16   2.0000      -1.188419       -32.3385
  17   2.0000      -1.181209       -32.1423
  18   2.0000      -1.114056       -30.3150
  19   2.0000      -1.093522       -29.7562
  20   2.0000      -1.056521       -28.7494
  21   2.0000      -1.022388       -27.8206
  22   2.0000      -0.965828       -26.2815
  23   2.0000      -0.947600       -25.7855
  24   2.0000      -0.911053       -24.7910
  25   2.0000      -0.909581       -24.7509
  26   2.0000      -0.889128       -24.1944
  27   2.0000      -0.884618       -24.0717
  28   2.0000      -0.872388       -23.7389
  29   2.0000      -0.860303       -23.4100
  30   2.0000      -0.852626       -23.2011
  31   2.0000      -0.843671       -22.9575
  32   2.0000      -0.826713       -22.4960
  33   2.0000      -0.814802       -22.1719
  34   2.0000      -0.811785       -22.0898
  35   2.0000      -0.801366       -21.8063
  36   2.0000      -0.796831       -21.6829
  37   2.0000      -0.786588       -21.4041
  38   2.0000      -0.782187       -21.2844
  39   2.0000      -0.774672       -21.0799
  40   2.0000      -0.767948       -20.8969
  41   2.0000      -0.753054       -20.4916
  42   2.0000      -0.747242       -20.3335
  43   0.0000      -0.314000        -8.5444
  44   0.0000      -0.068703        -1.8695
  45   0.0000      -0.057346        -1.5605
  46   0.0000      -0.054655        -1.4872
  47   0.0000      -0.039527        -1.0756

MULLIKEN ATOMIC CHARGES
-----------------------
   0 C :   -0.390430
   1 C :    0.029570
   2 H :    0.080214
   3 C :   -0.229524
   4 C :   -0.278734
   5 C :    0.101975
   6 H :    0.083980
   7 C :    0.062124
   8 O :   -0.293040
   9 C :   -0.204020
  10 C :   -0.111234
  11 C :   -0.329767
  12 C :   -0.357303
  13 H :    0.113343
  14 H :    0.126387
  15 H :    0.119271
  16 H :    0.109546
  17 H :    0.110070
  18 H :    0.130920
  19 H :    0.116543
  20 H :    0.116034
  21 H :    0.123551
  22 H :    0.076024
  23 H :    0.123402
  24 H :    0.111691
  25 H :    0.115715
  26 H :    0.117225
  27 H :    0.112935
  28 H :    0.113533
Sum of atomic charges:   -0.0000000

LOEWDIN ATOMIC CHARGES
----------------------
   0 C :   -0.272951
   1 C :   -0.269249
   2 H :    0.147944
   3 C :   -0.233581
   4 C :   -0.219895
   5 C :   -0.192458
   6 H :    0.161450
   7 C :   -0.291096
   8 O :    0.105372
   9 C :   -0.188991
  10 C :   -0.279069
  11 C :   -0.271216
  12 C :   -0.276306
  13 H :    0.119763
  14 H :    0.122561
  15 H :    0.122384
  16 H :    0.137336
  17 H :    0.135223
  18 H :    0.140116
  19 H :    0.135570
  20 H :    0.145561
  21 H :    0.149994
  22 H :    0.144164
  23 H :    0.123202
  24 H :    0.118524
  25 H :    0.125986
  26 H :    0.120967
  27 H :    0.115830
  28 H :    0.122865

  Mayer bond orders larger than 0.100000
B(  0-C ,  1-C ) :   0.9780 B(  0-C , 13-H ) :   0.9811 B(  0-C , 14-H ) :   0.9682
B(  0-C , 15-H ) :   0.9812 B(  1-C ,  2-H ) :   0.9682 B(  1-C ,  3-C ) :   0.9670
B(  1-C ,  9-C ) :   0.9423 B(  3-C ,  4-C ) :   0.9513 B(  3-C , 16-H ) :   0.9739
B(  3-C , 17-H ) :   0.9822 B(  4-C ,  5-C ) :   0.9157 B(  4-C , 18-H ) :   0.9884
B(  4-C , 19-H ) :   0.9811 B(  5-C ,  6-H ) :   0.9481 B(  5-C ,  7-C ) :   0.9106
B(  5-C , 10-C ) :   0.9384 B(  7-C ,  8-O ) :   2.2310 B(  7-C ,  9-C ) :   0.9590
B(  9-C , 20-H ) :   0.9707 B(  9-C , 21-H ) :   0.9543 B( 10-C , 11-C ) :   0.9998
B( 10-C , 12-C ) :   0.9678 B( 10-C , 22-H ) :   0.9599 B( 11-C , 23-H ) :   0.9713
B( 11-C , 24-H ) :   0.9821 B( 11-C , 25-H ) :   0.9697 B( 12-C , 26-H ) :   0.9849
B( 12-C , 27-H ) :   0.9833 B( 12-C , 28-H ) :   0.9745

FINAL SINGLE POINT ENERGY      -467.171846732845

DIPOLE MOMENT
-------------

Method             : SCF
Type of density    : Electron Density
Multiplicity       :   1
Irrep              :   0
Energy             :  -467.1925586869453468 Eh
Relativity type    :
Basis              : AO
                                X                 Y                 Z
Electronic contribution:     -1.979972080       5.705954622       2.059149907
Nuclear contribution   :      1.900140303      -6.836987331      -2.737975475
                        -----------------------------------------
Total Dipole Moment    :     -0.079831777      -1.131032710      -0.678825568
                        -----------------------------------------
Magnitude (a.u.)       :      1.321518920
Magnitude (Debye)      :      3.359034148

Rotational constants in cm-1:             0.056260             0.028539             0.022906
Rotational constants in MHz :          1686.626751           855.578376           686.704606

                             ****ORCA TERMINATED NORMALLY****
TOTAL RUN TIME: 0 days 0 hours 6 minutes 7 seconds 62 msec
