                         Program Version 6.0.0  -   RELEASE  -
|  1> ! wb97x-v def2-tzvp def2/J RIJCOSX DEFGRID2 scfconv7 GCP(DFT/TZ) printgap
|  2> %output
|  3>     printlevel normal
|  4> end
|  5> %cpcm
|  6>     smd true
|  7>     smdsolvent "water"
|  8> end
|  9> * xyz 0 1
| 10> C -3.0723894186159346 0.060513603161063974 0.30964889962212594
| 11> C -2.0104484549769666 -0.25237772977423084 -0.7451623436453331
| 12> H -2.5184321615688625 -0.4027810308178681 -1.705173039529177
| 13> C -1.2082579751845814 -1.5185517381741833 -0.4153166999318678
| 14> C -0.3056255197656465 -1.3297400390442704 0.8044928377234879
| 15> C 0.6669029638828076 -0.13839717258390968 0.6416877647684727
| 16> H 1.154867174599737 0.0706510628732584 1.6022160261115617
| 17> C -0.14479376265280205 1.0834915511420034 0.27796116931297205
| 18> O -0.09281305114025323 2.1193933145637502 0.940081814216885
| 19> C -1.0454132328111463 0.9465936731250211 -0.9183678637258642
| 20> C 1.790703549430675 -0.3809573651639901 -0.4034118346960392
| 21> C 2.6124479379152454 0.8934426207365402 -0.6085322744853923
| 22> C 2.7006976535018823 -1.5275235998398218 0.03696261867757026
| 23> H -3.748402153884355 -0.7910346280803479 0.44087293299102054
| 24> H -2.6278526730872627 0.29009254761251047 1.2845565690770582
| 25> H -3.6714993742652333 0.9269730581844104 0.0102439255680238
| 26> H -1.899595660019899 -2.349488159079019 -0.23250050969099278
| 27> H -0.6021135438858557 -1.7973676760110329 -1.2857544765579434
| 28> H -0.9199484167125549 -1.153623594921819 1.6949814210802476
| 29> H 0.2658277311266343 -2.241160734963255 1.0030019386981421
| 30> H -1.5939720435434603 1.8804310487964628 -1.0708104332511743
| 31> H -0.41263166357407777 0.7655154283730059 -1.7974626786972643
| 32> H 1.329288085908959 -0.6528242219359478 -1.360583293152052
| 33> H 2.0098069862059584 1.712324881351042 -1.0168003703451103
| 34> H 3.4376942774038364 0.7099666285783383 -1.304017154964963
| 35> H 3.0409753042811936 1.233109208964446 0.3424731595236353
| 36> H 3.5268733359113758 -1.6443095586674015 -0.6723551112198795
| 37> H 2.173267100893415 -2.4840660352853643 0.08707160205276633
| 38> H 3.130828114982423 -1.321492314829041 1.0245803188071543
| 39> *
| 40>
| 41>                          ****END OF INPUT****

CARTESIAN COORDINATES (ANGSTROEM)
---------------------------------
  C     -3.072389    0.060514    0.309649
  C     -2.010448   -0.252378   -0.745162
  H     -2.518432   -0.402781   -1.705173
  C     -1.208258   -1.518552   -0.415317
  C     -0.305626   -1.329740    0.804493
  C      0.666903   -0.138397    0.641688
  H      1.154867    0.070651    1.602216
  C     -0.144794    1.083492    0.277961
  O     -0.092813    2.119393    0.940082
  C     -1.045413    0.946594   -0.918368
  C      1.790704   -0.380957   -0.403412
  C      2.612448    0.893443   -0.608532
  C      2.700698   -1.527524    0.036963
  H     -3.748402   -0.791035    0.440873
  H     -2.627853    0.290093    1.284557
  H     -3.671499    0.926973    0.010244
  H     -1.899596   -2.349488   -0.232501
  H     -0.602114   -1.797368   -1.285754
  H     -0.919948   -1.153624    1.694981
  H      0.265828   -2.241161    1.003002
  H     -1.593972    1.880431   -1.070810
  H     -0.412632    0.765515   -1.797463
  H      1.329288   -0.652824   -1.360583
  H      2.009807    1.712325   -1.016800
  H      3.437694    0.709967   -1.304017
  H      3.040975    1.233109    0.342473
  H      3.526873   -1.644310   -0.672355
  H      2.173267   -2.484066    0.087072
  H      3.130828   -1.321492    1.024580

 Total Charge           Charge          ....    0
 Multiplicity           Mult            ....    1
 Number of Electrons    NEL             ....   86
 Basis Dimension        Dim             ....  449

ORBITAL ENERGIES
----------------

  NO   OCC          E(Eh)            E(eV)
   0   2.0000     -21.667574      -589.6047
   1   2.0000     -12.138004      -330.2919
   2   2.0000     -12.049334      -327.8791
   3   2.0000     -12.048708      -327.8620
   4   2.0000     -12.047246      -327.8222
   5   2.0000     -12.041348      -327.6617
   6   2.0000     -12.037460      -327.5560
   7   2.0000     -12.032482      -327.4205
   8   2.0000     -12.025982      -327.2436
   9   2.0000     -12.025469      -327.2296
  10   2.0000     -12.025121      -327.2202
  11   2.0000      -1.710973       -46.5579
  12   2.0000      -1.351987       -36.7894
  13   2.0000      -1.307303       -35.5735
  14   2.0000      -1.250302       -34.0224
  15   2.0000      -1.240212       -33.7479
  16   2.0000      -1.177033       -32.0287
  17   2.0000      -1.169102       -31.8129
  18   2.0000      -1.103525       -30.0284
  19   2.0000      -1.098877       -29.9020
  20   2.0000      -1.045731       -28.4558
  21   2.0000      -1.022561       -27.8253
  22   2.0000      -0.957141       -26.0451
  23   2.0000      -0.953157       -25.9367
  24   2.0000      -0.918466       -24.9927
  25   2.0000      -0.896381       -24.3918
  26   2.0000      -0.879938       -23.9443
  27   2.0000      -0.873187       -23.7606
  28   2.0000      -0.859501       -23.3882
  29   2.0000      -0.856253       -23.2998
  30   2.0000      -0.845587       -23.0096
  31   2.0000      -0.831116       -22.6158
  32   2.0000      -0.815038       -22.1783
  33   2.0000      -0.803431       -21.8625
  34   2.0000      -0.800451       -21.7814
  35   2.0000      -0.789703       -21.4889
  36   2.0000      -0.786219       -21.3941
  37   2.0000      -0.774406       -21.0727
  38   2.0000      -0.769866       -20.9491
  39   2.0000      -0.762312       -20.7436
  40   2.0000      -0.754036       -20.5184
  41   2.0000      -0.742832       -20.2135
  42   2.0000      -0.735611       -20.0170
  43   0.0000      -0.314767        -8.5652
  44   0.0000      -0.063188        -1.7194
  45   0.0000      -0.046689        -1.2705
  46   0.0000      -0.038050        -1.0354
  47   0.0000      -0.026724        -0.7272

MULLIKEN ATOMIC CHARGES
-----------------------
   0 C :   -0.445047
   1 C :    0.031883
   2 H :    0.095754
   3 C :   -0.250559
   4 C :   -0.286215
   5 C :    0.055265
   6 H :    0.091125
   7 C :    0.159146
   8 O :   -0.441656
   9 C :   -0.219712
  10 C :   -0.064264
  11 C :   -0.404884
  12 C :   -0.419933
  13 H :    0.131475
  14 H :    0.135236
  15 H :    0.133836
  16 H :    0.122786
  17 H :    0.126116
  18 H :    0.140488
  19 H :    0.136917
  20 H :    0.123410
  21 H :    0.156606
  22 H :    0.103601
  23 H :    0.135343
  24 H :    0.133218
  25 H :    0.125637
  26 H :    0.133934
  27 H :    0.135068
  28 H :    0.125425
Sum of atomic charges:   -0.0000000

LOEWDIN ATOMIC CHARGES
----------------------
   0 C :   -0.279896
   1 C :   -0.264272
   2 H :    0.153278
   3 C :   -0.232189
   4 C :   -0.217326
   5 C :   -0.190967
   6 H :    0.162119
   7 C :   -0.272227
   8 O :    0.023513
   9 C :   -0.184534
  10 C :   -0.273001
  11 C :   -0.279863
  12 C :   -0.280713
  13 H :    0.123355
  14 H :    0.122778
  15 H :    0.123289
  16 H :    0.140534
  17 H :    0.140511
  18 H :    0.142820
  19 H :    0.141037
  20 H :    0.146096
  21 H :    0.163375
  22 H :    0.153152
  23 H :    0.123290
  24 H :    0.122885
  25 H :    0.124778
  26 H :    0.123490
  27 H :    0.120434
  28 H :    0.124252

  Mayer bond orders larger than 0.100000
B(  0-C ,  1-C ) :   0.9679 B(  0-C , 13-H ) :   0.9799 B(  0-C , 14-H ) :   0.9652
B(  0-C , 15-H ) :   0.9803 B(  1-C ,  2-H ) :   0.9629 B(  1-C ,  3-C ) :   0.9746
B(  1-C ,  9-C ) :   0.9441 B(  3-C ,  4-C ) :   0.9608 B(  3-C , 16-H ) :   0.9699
B(  3-C , 17-H ) :   0.9772 B(  4-C ,  5-C ) :   0.9220 B(  4-C , 18-H ) :   0.9819
B(  4-C , 19-H ) :   0.9740 B(  5-C ,  6-H ) :   0.9499 B(  5-C ,  7-C ) :   0.9341
B(  5-C , 10-C ) :   0.9419 B(  7-C ,  8-O ) :   2.0560 B(  7-C ,  9-C ) :   0.9875
B(  9-C , 20-H ) :   0.9647 B(  9-C , 21-H ) :   0.9378 B( 10-C , 11-C ) :   0.9723
B( 10-C , 12-C ) :   0.9548 B( 10-C , 22-H ) :   0.9564 B( 11-C , 23-H ) :   0.9696
B( 11-C , 24-H ) :   0.9810 B( 11-C , 25-H ) :   0.9729 B( 12-C , 26-H ) :   0.9824
B( 12-C , 27-H ) :   0.9804 B( 12-C , 28-H ) :   0.9734

FINAL SINGLE POINT ENERGY      -467.179269527629

DIPOLE MOMENT
-------------

Method             : SCF
Type of density    : Electron Density
Multiplicity       :   1
Irrep              :   0
Energy             :  -467.1999814817290826 Eh
Relativity type    :
Basis              : AO
                                X                 Y                 Z
Electronic contribution:     -2.014299150       5.124587556       1.660512761
Nuclear contribution   :      1.900140303      -6.836987331      -2.737975475
                        -----------------------------------------
Total Dipole Moment    :     -0.114158848      -1.712399775      -1.077462715
                        -----------------------------------------
Magnitude (a.u.)       :      2.026393628
Magnitude (Debye)      :      5.150683270

Rotational constants in cm-1:             0.056260             0.028539             0.022906
Rotational constants in MHz :          1686.626751           855.578376           686.704606

                             ****ORCA TERMINATED NORMALLY****
TOTAL RUN TIME: 0 days 0 hours 5 minutes 49 seconds 603 msec
