                         Program Version 6.0.0  -   RELEASE  -
|  1> ! pbe def2-sv(p) def2/J RI DEFGRID1 loosescf d4 GCP(DFT/SV(P)) printgap
|  2> %output
|  3>     printlevel normal
|  4> end
|  5> * xyz 0 1
|  6> C -2.540701143 -0.9491308731 0.3048237028
|  7> C -1.1203015302 -0.4575211534 0.6206013586
|  8> H -1.0018939541 -0.368279661 1.7116627735
|  9> C -0.8358619286 0.9204001164 -0.0120298441
| 10> H -1.0359213054 0.8583099664 -1.0893577923
| 11> C 0.6441792025 1.2869695861 0.2029440665
| 12> H 0.7980145177 1.4418639485 1.2781605068
| 13> C 1.5551185674 0.1489155378 -0.2928926017
| 14> H 1.4461898462 0.0221324852 -1.3760523377
| 15> C 1.1270093007 -1.1766117745 0.3682145317
| 16> H 1.2811137282 -1.0987409906 1.4670917832
| 17> O -0.2343046734 -1.4412557482 0.1178032638
| 18> O 1.867520891 -2.2048828483 -0.1720428189
| 19> O 2.9110968794 0.4302139825 -0.0938903796
| 20> O 0.9825063602 2.5161074988 -0.3792599092
| 21> O -1.6205978682 1.9181088085 0.5957717342
| 22> O -2.7988549118 -0.987457195 -1.0742402707
| 23> H -3.2662340596 -0.2624577787 0.7421585429
| 24> H -2.6695099673 -1.9400903104 0.7546496388
| 25> H 1.5065727821 -3.0584392046 0.1167008001
| 26> H 3.0807850383 0.6286369962 0.838435824
| 27> H 0.9057604805 2.4611067597 -1.3428813278
| 28> H -2.473126402 1.9879028089 0.1454254376
| 29> H -2.2007177738 -1.6313397797 -1.4798585852
| 30> *
| 31>
| 32>                          ****END OF INPUT****

CARTESIAN COORDINATES (ANGSTROEM)
---------------------------------
  C     -2.540701   -0.949131    0.304824
  C     -1.120302   -0.457521    0.620601
  H     -1.001894   -0.368280    1.711663
  C     -0.835862    0.920400   -0.012030
  H     -1.035921    0.858310   -1.089358
  C      0.644179    1.286970    0.202944
  H      0.798015    1.441864    1.278161
  C      1.555119    0.148916   -0.292893
  H      1.446190    0.022132   -1.376052
  C      1.127009   -1.176612    0.368215
  H      1.281114   -1.098741    1.467092
  O     -0.234305   -1.441256    0.117803
  O      1.867521   -2.204883   -0.172043
  O      2.911097    0.430214   -0.093890
  O      0.982506    2.516107   -0.379260
  O     -1.620598    1.918109    0.595772
  O     -2.798855   -0.987457   -1.074240
  H     -3.266234   -0.262458    0.742159
  H     -2.669510   -1.940090    0.754650
  H      1.506573   -3.058439    0.116701
  H      3.080785    0.628637    0.838436
  H      0.905760    2.461107   -1.342881
  H     -2.473126    1.987903    0.145425
  H     -2.200718   -1.631340   -1.479859

 Total Charge           Charge          ....    0
 Multiplicity           Mult            ....    1
 Number of Electrons    NEL             ....   96
 Basis Dimension        Dim             ....  192

ORBITAL ENERGIES
----------------

  NO   OCC          E(Eh)            E(eV)
   0   2.0000     -18.781781      -511.0783
   1   2.0000     -18.763120      -510.5704
   2   2.0000     -18.759380      -510.4687
   3   2.0000     -18.756761      -510.3974
   4   2.0000     -18.748362      -510.1689
   5   2.0000     -18.745049      -510.0787
   6   2.0000      -9.991610      -271.8855
   7   2.0000      -9.947347      -270.6811
   8   2.0000      -9.944163      -270.5944
   9   2.0000      -9.942584      -270.5515
  10   2.0000      -9.941716      -270.5278
  11   2.0000      -9.941387      -270.5189
  12   2.0000      -0.990336       -26.9484
  13   2.0000      -0.943102       -25.6631
  14   2.0000      -0.939521       -25.5657
  15   2.0000      -0.929029       -25.2802
  16   2.0000      -0.918247       -24.9868
  17   2.0000      -0.912320       -24.8255
  18   2.0000      -0.703675       -19.1480
  19   2.0000      -0.693570       -18.8730
  20   2.0000      -0.626153       -17.0385
  21   2.0000      -0.578623       -15.7451
  22   2.0000      -0.571515       -15.5517
  23   2.0000      -0.540077       -14.6963
  24   2.0000      -0.506051       -13.7704
  25   2.0000      -0.494947       -13.4682
  26   2.0000      -0.471092       -12.8191
  27   2.0000      -0.465884       -12.6773
  28   2.0000      -0.458252       -12.4697
  29   2.0000      -0.429746       -11.6940
  30   2.0000      -0.417984       -11.3739
  31   2.0000      -0.408990       -11.1292
  32   2.0000      -0.388047       -10.5593
  33   2.0000      -0.376895       -10.2558
  34   2.0000      -0.367346        -9.9960
  35   2.0000      -0.348321        -9.4783
  36   2.0000      -0.328296        -8.9334
  37   2.0000      -0.316735        -8.6188
  38   2.0000      -0.300890        -8.1876
  39   2.0000      -0.292711        -7.9651
  40   2.0000      -0.278842        -7.5877
  41   2.0000      -0.274474        -7.4688
  42   2.0000      -0.260027        -7.0757
  43   2.0000      -0.249597        -6.7919
  44   2.0000      -0.233349        -6.3497
  45   2.0000      -0.230854        -6.2819
  46   2.0000      -0.209509        -5.7010
  47   2.0000      -0.203669        -5.5421
  48   0.0000       0.012297         0.3346
  49   0.0000       0.024140         0.6569
  50   0.0000       0.026176         0.7123
  51   0.0000       0.034189         0.9303
  52   0.0000       0.046007         1.2519

MULLIKEN ATOMIC CHARGES
-----------------------
   0 C :    0.076238
   1 C :   -0.014029
   2 H :    0.054642
   3 C :    0.037900
   4 H :    0.040202
   5 C :    0.089349
   6 H :    0.049972
   7 C :    0.056395
   8 H :    0.054654
   9 C :    0.183734
  10 H :    0.019704
  11 O :   -0.323772
  12 O :   -0.363398
  13 O :   -0.397366
  14 O :   -0.397935
  15 O :   -0.402758
  16 O :   -0.439021
  17 H :    0.079480
  18 H :    0.085023
  19 H :    0.303890
  20 H :    0.297327
  21 H :    0.294641
  22 H :    0.311045
  23 H :    0.304084
Sum of atomic charges:   -0.0000000

LOEWDIN ATOMIC CHARGES
----------------------
   0 C :   -0.126756
   1 C :   -0.083205
   2 H :    0.105663
   3 C :   -0.080244
   4 H :    0.099646
   5 C :   -0.077968
   6 H :    0.112333
   7 C :   -0.090171
   8 H :    0.116167
   9 C :   -0.004452
  10 H :    0.072552
  11 O :   -0.162451
  12 O :   -0.288232
  13 O :   -0.299532
  14 O :   -0.303148
  15 O :   -0.311729
  16 O :   -0.333539
  17 H :    0.112960
  18 H :    0.104573
  19 H :    0.288609
  20 H :    0.285676
  21 H :    0.284181
  22 H :    0.292870
  23 H :    0.286196

  Mayer bond orders larger than 0.100000
B(  0-C ,  1-C ) :   1.0332 B(  0-C , 16-O ) :   1.0675 B(  0-C , 17-H ) :   0.9160
B(  0-C , 18-H ) :   0.9196 B(  1-C ,  2-H ) :   0.8690 B(  1-C ,  3-C ) :   0.9731
B(  1-C , 11-O ) :   0.9793 B(  3-C ,  4-H ) :   0.8677 B(  3-C ,  5-C ) :   0.9845
B(  3-C , 15-O ) :   1.0974 B(  5-C ,  6-H ) :   0.8657 B(  5-C ,  7-C ) :   0.9867
B(  5-C , 14-O ) :   1.0813 B(  7-C ,  8-H ) :   0.8584 B(  7-C ,  9-C ) :   0.9568
B(  7-C , 13-O ) :   1.0671 B(  9-C , 10-H ) :   0.8812 B(  9-C , 11-O ) :   0.9956
B(  9-C , 12-O ) :   1.2005 B( 12-O , 19-H ) :   0.8404 B( 13-O , 20-H ) :   0.8486
B( 14-O , 21-H ) :   0.8504 B( 15-O , 22-H ) :   0.8437 B( 16-O , 23-H ) :   0.8426

Dispersion correction           -0.023908227
FINAL SINGLE POINT ENERGY      -685.692788252190

DIPOLE MOMENT
-------------

Method             : SCF
Type of density    : Electron Density
Multiplicity       :   1
Irrep              :   0
Energy             :  -685.8211953836023440 Eh
Relativity type    :
Basis              : AO
                                X                 Y                 Z
Electronic contribution:      2.758629197       0.098978275      -1.342938564
Nuclear contribution   :     -3.388183389      -0.896655800       1.642034049
                        -----------------------------------------
Total Dipole Moment    :     -0.629554192      -0.797677524       0.299095484
                        -----------------------------------------
Magnitude (a.u.)       :      1.059285619
Magnitude (Debye)      :      2.692490068

Rotational constants in cm-1:             0.039149             0.026878             0.017662
Rotational constants in MHz :          1173.665455           805.773940           529.493243

                             ****ORCA TERMINATED NORMALLY****
TOTAL RUN TIME: 0 days 0 hours 0 minutes 11 seconds 883 msec
