                         Program Version 6.0.0  -   RELEASE  -
|  1> ! wb97x-v def2-tzvp def2/J RIJCOSX DEFGRID2 scfconv7 GCP(DFT/TZ) printgap
|  2> %output
|  3>     printlevel normal
|  4> end
|  5> * xyz 0 1
|  6> C 1.6379598577121781 -0.00017163194470914248 0.00025732867889636
|  7> Br -0.33389390128531665 0.0002554949549067737 -0.0005732337235786257
|  8> H 1.9645347524836227 0.799581774072917 -0.6606067070088665
|  9> H 1.9644933639500854 0.17251089384141824 1.023334378390757
| 10> H 1.964782608042664 -0.9724134192626096 -0.3617077974591953
| 11> *
| 12>
| 13>                          ****END OF INPUT****

CARTESIAN COORDINATES (ANGSTROEM)
---------------------------------
  C      1.637960   -0.000172    0.000257
  Br    -0.333894    0.000255   -0.000573
  H      1.964535    0.799582   -0.660607
  H      1.964493    0.172511    1.023334
  H      1.964783   -0.972413   -0.361708

 Total Charge           Charge          ....    0
 Multiplicity           Mult            ....    1
 Number of Electrons    NEL             ....   44
 Basis Dimension        Dim             ....   97

ORBITAL ENERGIES
----------------

  NO   OCC          E(Eh)            E(eV)
   0   2.0000    -494.713835    -13461.8478
   1   2.0000     -66.883485     -1819.9922
   2   2.0000     -60.940389     -1658.2723
   3   2.0000     -60.938678     -1658.2257
   4   2.0000     -60.938678     -1658.2257
   5   2.0000     -12.105838      -329.4166
   6   2.0000     -10.635337      -289.4022
   7   2.0000      -8.415298      -228.9919
   8   2.0000      -8.408295      -228.8013
   9   2.0000      -8.408292      -228.8012
  10   2.0000      -4.400385      -119.7406
  11   2.0000      -4.397684      -119.6671
  12   2.0000      -4.397683      -119.6670
  13   2.0000      -4.389962      -119.4569
  14   2.0000      -4.389959      -119.4569
  15   2.0000      -1.332484       -36.2587
  16   2.0000      -1.176891       -32.0248
  17   2.0000      -0.873718       -23.7751
  18   2.0000      -0.873680       -23.7740
  19   2.0000      -0.824887       -22.4463
  20   2.0000      -0.715202       -19.4616
  21   2.0000      -0.715200       -19.4616
  22   0.0000      -0.280146        -7.6232
  23   0.0000      -0.000750        -0.0204
  24   0.0000       0.027525         0.7490
  25   0.0000       0.027563         0.7500
  26   0.0000       0.114929         3.1274

MULLIKEN ATOMIC CHARGES
-----------------------
   0 C :   -0.316364
   1 Br:   -0.120924
   2 H :    0.145752
   3 H :    0.145747
   4 H :    0.145788
Sum of atomic charges:   -0.0000000

LOEWDIN ATOMIC CHARGES
----------------------
   0 C :   -0.482767
   1 Br:    0.163849
   2 H :    0.106302
   3 H :    0.106307
   4 H :    0.106308

  Mayer bond orders larger than 0.100000
B(  0-C ,  1-Br) :   1.0603 B(  0-C ,  2-H ) :   0.9691 B(  0-C ,  3-H ) :   0.9691
B(  0-C ,  4-H ) :   0.9691

FINAL SINGLE POINT ENERGY     -2613.827392111985

DIPOLE MOMENT
-------------

Method             : SCF
Type of density    : Electron Density
Multiplicity       :   1
Irrep              :   0
Energy             : -2613.8319512636849140 Eh
Relativity type    :
Basis              : AO
                                X                 Y                 Z
Electronic contribution:     -7.765649935       0.001357439      -0.003187479
Nuclear contribution   :      8.557147140      -0.001444375       0.003438345
                        -----------------------------------------
Total Dipole Moment    :      0.791497205      -0.000086936       0.000250866
                        -----------------------------------------
Magnitude (a.u.)       :      0.791497249
Magnitude (Debye)      :      2.011826126

Rotational constants in cm-1:             5.179066             0.309774             0.309772
Rotational constants in MHz :        155264.506622          9286.785963          9286.741452

                             ****ORCA TERMINATED NORMALLY****
TOTAL RUN TIME: 0 days 0 hours 0 minutes 21 seconds 159 msec
