                         Program Version 6.0.0  -   RELEASE  -
|  1> ! wb97x-v def2-tzvp def2/J RIJCOSX DEFGRID2 scfconv7 GCP(DFT/TZ) printgap
|  2> %output
|  3>     printlevel normal
|  4> end
|  5> %cpcm
|  6>     smd true
|  7>     smdsolvent "water"
|  8> end
|  9> * xyz 0 1
| 10> C 1.6379598577121781 -0.00017163194470914248 0.00025732867889636
| 11> Br -0.33389390128531665 0.0002554949549067737 -0.0005732337235786257
| 12> H 1.9645347524836227 0.799581774072917 -0.6606067070088665
| 13> H 1.9644933639500854 0.17251089384141824 1.023334378390757
| 14> H 1.964782608042664 -0.9724134192626096 -0.3617077974591953
| 15> *
| 16>
| 17>                          ****END OF INPUT****

CARTESIAN COORDINATES (ANGSTROEM)
---------------------------------
  C      1.637960   -0.000172    0.000257
  Br    -0.333894    0.000255   -0.000573
  H      1.964535    0.799582   -0.660607
  H      1.964493    0.172511    1.023334
  H      1.964783   -0.972413   -0.361708

 Total Charge           Charge          ....    0
 Multiplicity           Mult            ....    1
 Number of Electrons    NEL             ....   44
 Basis Dimension        Dim             ....   97

ORBITAL ENERGIES
----------------

  NO   OCC          E(Eh)            E(eV)
   0   2.0000    -494.709186    -13461.7213
   1   2.0000     -66.878923     -1819.8680
   2   2.0000     -60.935770     -1658.1466
   3   2.0000     -60.934168     -1658.1030
   4   2.0000     -60.934168     -1658.1030
   5   2.0000     -12.089792      -328.9800
   6   2.0000     -10.630763      -289.2778
   7   2.0000      -8.410476      -228.8607
   8   2.0000      -8.403954      -228.6832
   9   2.0000      -8.403951      -228.6831
  10   2.0000      -4.395495      -119.6075
  11   2.0000      -4.392995      -119.5395
  12   2.0000      -4.392994      -119.5394
  13   2.0000      -4.385755      -119.3424
  14   2.0000      -4.385752      -119.3424
  15   2.0000      -1.326219       -36.0882
  16   2.0000      -1.162308       -31.6280
  17   2.0000      -0.857117       -23.3234
  18   2.0000      -0.857081       -23.3223
  19   2.0000      -0.815834       -22.2000
  20   2.0000      -0.710636       -19.3374
  21   2.0000      -0.710634       -19.3373
  22   0.0000      -0.268844        -7.3156
  23   0.0000       0.017849         0.4857
  24   0.0000       0.046323         1.2605
  25   0.0000       0.046356         1.2614
  26   0.0000       0.121626         3.3096

MULLIKEN ATOMIC CHARGES
-----------------------
   0 C :   -0.338235
   1 Br:   -0.164103
   2 H :    0.167437
   3 H :    0.167427
   4 H :    0.167473
Sum of atomic charges:    0.0000000

LOEWDIN ATOMIC CHARGES
----------------------
   0 C :   -0.471781
   1 Br:    0.132232
   2 H :    0.113179
   3 H :    0.113186
   4 H :    0.113184

  Mayer bond orders larger than 0.100000
B(  0-C ,  1-Br) :   1.0375 B(  0-C ,  2-H ) :   0.9631 B(  0-C ,  3-H ) :   0.9630
B(  0-C ,  4-H ) :   0.9630

FINAL SINGLE POINT ENERGY     -2613.829268778974

DIPOLE MOMENT
-------------

Method             : SCF
Type of density    : Electron Density
Multiplicity       :   1
Irrep              :   0
Energy             : -2613.8338279306744880 Eh
Relativity type    :
Basis              : AO
                                X                 Y                 Z
Electronic contribution:     -7.528423583       0.001370530      -0.003101411
Nuclear contribution   :      8.557147140      -0.001444375       0.003438345
                        -----------------------------------------
Total Dipole Moment    :      1.028723556      -0.000073845       0.000336934
                        -----------------------------------------
Magnitude (a.u.)       :      1.028723614
Magnitude (Debye)      :      2.614807625

Rotational constants in cm-1:             5.179066             0.309774             0.309772
Rotational constants in MHz :        155264.506622          9286.785963          9286.741452

                             ****ORCA TERMINATED NORMALLY****
TOTAL RUN TIME: 0 days 0 hours 0 minutes 19 seconds 850 msec
