                         Program Version 6.0.0  -   RELEASE  -
|  1> ! pbe def2-sv(p) def2/J RI DEFGRID1 loosescf d4 GCP(DFT/SV(P)) printgap
|  2> %output
|  3>     printlevel normal
|  4> end
|  5> * xyz 0 1
|  6> C -2.7680897586 -0.7620831815 0.0023871112
|  7> O -1.7973899184 0.2610915812 0.0139665564
|  8> C -0.4651570734 -0.1003427201 -0.0014278708
|  9> C 0.002052645 -1.4001590871 -0.0092279984
| 10> C 1.3684906573 -1.6541456379 -0.0082942166
| 11> C 2.2658207201 -0.605690492 0.0056462224
| 12> C 1.8055508851 0.7001348059 0.015653382
| 13> C 0.4436767823 0.9797605411 0.0074110368
| 14> N -0.0311461996 2.2716751751 -0.0612522775
| 15> H -3.7271977932 -0.248547843 0.0111261516
| 16> H -2.6844504657 -1.39934691 0.8876537888
| 17> H -2.6880932556 -1.3740816265 -0.9003657968
| 18> H -0.6856962763 -2.2307946316 -0.0139814274
| 19> H 1.7173708289 -2.6752253916 -0.0155699832
| 20> H 3.3278788128 -0.7986680634 0.0114094679
| 21> H 2.505223222 1.522497503 0.0269856728
| 22> H 0.5903645108 2.9868306827 0.2783448975
| 23> H -0.99841809 2.3774669716 0.1991478306
| 24> *
| 25>
| 26>                          ****END OF INPUT****

CARTESIAN COORDINATES (ANGSTROEM)
---------------------------------
  C     -2.768090   -0.762083    0.002387
  O     -1.797390    0.261092    0.013967
  C     -0.465157   -0.100343   -0.001428
  C      0.002053   -1.400159   -0.009228
  C      1.368491   -1.654146   -0.008294
  C      2.265821   -0.605690    0.005646
  C      1.805551    0.700135    0.015653
  C      0.443677    0.979761    0.007411
  N     -0.031146    2.271675   -0.061252
  H     -3.727198   -0.248548    0.011126
  H     -2.684450   -1.399347    0.887654
  H     -2.688093   -1.374082   -0.900366
  H     -0.685696   -2.230795   -0.013981
  H      1.717371   -2.675225   -0.015570
  H      3.327879   -0.798668    0.011409
  H      2.505223    1.522498    0.026986
  H      0.590365    2.986831    0.278345
  H     -0.998418    2.377467    0.199148

 Total Charge           Charge          ....    0
 Multiplicity           Mult            ....    1
 Number of Electrons    NEL             ....   66
 Basis Dimension        Dim             ....  144

ORBITAL ENERGIES
----------------

  NO   OCC          E(Eh)            E(eV)
   0   2.0000     -18.780787      -511.0512
   1   2.0000     -13.984971      -380.5504
   2   2.0000      -9.938872      -270.4505
   3   2.0000      -9.935580      -270.3609
   4   2.0000      -9.920249      -269.9437
   5   2.0000      -9.879946      -268.8470
   6   2.0000      -9.875232      -268.7187
   7   2.0000      -9.874857      -268.7085
   8   2.0000      -9.872630      -268.6479
   9   2.0000      -0.960150       -26.1270
  10   2.0000      -0.826373       -22.4868
  11   2.0000      -0.748457       -20.3666
  12   2.0000      -0.671706       -18.2780
  13   2.0000      -0.649473       -17.6731
  14   2.0000      -0.614886       -16.7319
  15   2.0000      -0.541345       -14.7308
  16   2.0000      -0.525074       -14.2880
  17   2.0000      -0.481895       -13.1130
  18   2.0000      -0.461898       -12.5689
  19   2.0000      -0.443466       -12.0673
  20   2.0000      -0.416584       -11.3358
  21   2.0000      -0.406472       -11.0607
  22   2.0000      -0.393791       -10.7156
  23   2.0000      -0.377969       -10.2850
  24   2.0000      -0.361816        -9.8455
  25   2.0000      -0.343008        -9.3337
  26   2.0000      -0.321994        -8.7619
  27   2.0000      -0.300984        -8.1902
  28   2.0000      -0.280172        -7.6239
  29   2.0000      -0.272801        -7.4233
  30   2.0000      -0.265806        -7.2330
  31   2.0000      -0.198547        -5.4027
  32   2.0000      -0.157744        -4.2924
  33   0.0000      -0.012528        -0.3409
  34   0.0000      -0.002009        -0.0547
  35   0.0000       0.043447         1.1822
  36   0.0000       0.047211         1.2847
  37   0.0000       0.056968         1.5502

MULLIKEN ATOMIC CHARGES
-----------------------
   0 C :   -0.108115
   1 O :   -0.303552
   2 C :    0.234454
   3 C :   -0.232468
   4 C :   -0.049057
   5 C :   -0.052020
   6 C :   -0.164935
   7 C :    0.085719
   8 N :   -0.322822
   9 H :    0.120389
  10 H :    0.109384
  11 H :    0.111317
  12 H :    0.030791
  13 H :    0.039867
  14 H :    0.041074
  15 H :    0.013484
  16 H :    0.219764
  17 H :    0.226726
Sum of atomic charges:   -0.0000000

LOEWDIN ATOMIC CHARGES
----------------------
   0 C :   -0.201499
   1 O :   -0.111579
   2 C :    0.009330
   3 C :   -0.172949
   4 C :   -0.154094
   5 C :   -0.137426
   6 C :   -0.163875
   7 C :   -0.021606
   8 N :   -0.314931
   9 H :    0.119725
  10 H :    0.108217
  11 H :    0.109643
  12 H :    0.124441
  13 H :    0.118971
  14 H :    0.119930
  15 H :    0.118050
  16 H :    0.224665
  17 H :    0.224987

  Mayer bond orders larger than 0.100000
B(  0-C ,  1-O ) :   0.9909 B(  0-C ,  9-H ) :   0.9592 B(  0-C , 10-H ) :   0.9413
B(  0-C , 11-H ) :   0.9417 B(  1-O ,  2-C ) :   1.1072 B(  2-C ,  3-C ) :   1.3353
B(  2-C ,  7-C ) :   1.3222 B(  3-C ,  4-C ) :   1.3062 B(  3-C , 12-H ) :   0.9674
B(  4-C ,  5-C ) :   1.3818 B(  4-C , 13-H ) :   0.9667 B(  5-C ,  6-C ) :   1.3311
B(  5-C , 14-H ) :   0.9656 B(  6-C ,  7-C ) :   1.3623 B(  6-C , 15-H ) :   0.9699
B(  7-C ,  8-N ) :   1.2770 B(  8-N , 16-H ) :   0.8757 B(  8-N , 17-H ) :   0.8654

Dispersion correction           -0.017968831
FINAL SINGLE POINT ENERGY      -401.251333598711

DIPOLE MOMENT
-------------

Method             : SCF
Type of density    : Electron Density
Multiplicity       :   1
Irrep              :   0
Energy             :  -401.3121154226055296 Eh
Relativity type    :
Basis              : AO
                                X                 Y                 Z
Electronic contribution:      1.909997939       1.965072126      -0.121667685
Nuclear contribution   :     -2.506401881      -1.709778320       0.454649158
                        -----------------------------------------
Total Dipole Moment    :     -0.596403942       0.255293806       0.332981473
                        -----------------------------------------
Magnitude (a.u.)       :      0.729211390
Magnitude (Debye)      :      1.853508052

Rotational constants in cm-1:             0.086744             0.051926             0.032708
Rotational constants in MHz :          2600.527121          1556.713808           980.562648

                             ****ORCA TERMINATED NORMALLY****
TOTAL RUN TIME: 0 days 0 hours 0 minutes 8 seconds 631 msec
