                         Program Version 6.0.0  -   RELEASE  -
|  1> ! r2scan-3c def2/J RI DEFGRID2 scfconv6 printgap
|  2> %output
|  3>     printlevel normal
|  4> end
|  5> * xyz 0 1
|  6> C -2.9959622931 1.2216328426 0.0093725707
|  7> C -1.7523980229 0.3839632422 -0.0069485407
|  8> C -1.8319968492 -0.9998464654 -0.005794415
|  9> C -0.6858972315 -1.7761552964 -0.0016714481
| 10> C 0.5624040083 -1.1788780279 0.0013366178
| 11> C 0.6552970227 0.2215911029 0.0003793867
| 12> C -0.4978558403 0.9859722453 -0.0032710011
| 13> O 1.9420893311 0.7155335559 0.0014473001
| 14> C 2.1232896988 2.1163407596 -0.0032272646
| 15> O 1.6854675854 -1.9543059607 0.0034465925
| 16> H -3.7545659556 0.7909704939 -0.6395264443
| 17> H -3.4033591548 1.26323534 1.0190804656
| 18> H -2.7863952735 2.2366856823 -0.3163942349
| 19> H -2.797773626 -1.4811039908 -0.0086964417
| 20> H -0.7383878472 -2.8531152884 -0.0020108926
| 21> H -0.4351919785 2.0626935924 -0.0039560698
| 22> H 1.6890398176 2.5664445515 -0.8995760275
| 23> H 3.2007274489 2.2655190471 -0.0032830616
| 24> H 1.6881948036 2.572669607 0.8895533673
| 25> H 2.4635717415 -1.3741433415 0.0041960368
| 26> *
| 27>
| 28>                          ****END OF INPUT****

CARTESIAN COORDINATES (ANGSTROEM)
---------------------------------
  C     -2.995962    1.221633    0.009373
  C     -1.752398    0.383963   -0.006949
  C     -1.831997   -0.999846   -0.005794
  C     -0.685897   -1.776155   -0.001671
  C      0.562404   -1.178878    0.001337
  C      0.655297    0.221591    0.000379
  C     -0.497856    0.985972   -0.003271
  O      1.942089    0.715534    0.001447
  C      2.123290    2.116341   -0.003227
  O      1.685468   -1.954306    0.003447
  H     -3.754566    0.790970   -0.639526
  H     -3.403359    1.263235    1.019080
  H     -2.786395    2.236686   -0.316394
  H     -2.797774   -1.481104   -0.008696
  H     -0.738388   -2.853115   -0.002011
  H     -0.435192    2.062694   -0.003956
  H      1.689040    2.566445   -0.899576
  H      3.200727    2.265519   -0.003283
  H      1.688195    2.572670    0.889553
  H      2.463572   -1.374143    0.004196

 Total Charge           Charge          ....    0
 Multiplicity           Mult            ....    1
 Number of Electrons    NEL             ....   74
 Basis Dimension        Dim             ....  250

ORBITAL ENERGIES
----------------

  NO   OCC          E(Eh)            E(eV)
   0   2.0000     -18.995111      -516.8833
   1   2.0000     -18.974647      -516.3264
   2   2.0000     -10.094019      -274.6722
   3   2.0000     -10.091764      -274.6109
   4   2.0000     -10.086908      -274.4787
   5   2.0000     -10.035068      -273.0681
   6   2.0000     -10.030515      -272.9442
   7   2.0000     -10.025499      -272.8077
   8   2.0000     -10.024287      -272.7747
   9   2.0000     -10.022323      -272.7213
  10   2.0000      -1.043883       -28.4055
  11   2.0000      -1.011790       -27.5322
  12   2.0000      -0.821274       -22.3480
  13   2.0000      -0.738328       -20.0909
  14   2.0000      -0.721266       -19.6266
  15   2.0000      -0.678233       -18.4556
  16   2.0000      -0.644677       -17.5426
  17   2.0000      -0.576282       -15.6814
  18   2.0000      -0.557202       -15.1622
  19   2.0000      -0.520128       -14.1534
  20   2.0000      -0.487111       -13.2550
  21   2.0000      -0.456785       -12.4297
  22   2.0000      -0.445449       -12.1213
  23   2.0000      -0.416640       -11.3373
  24   2.0000      -0.413142       -11.2422
  25   2.0000      -0.394513       -10.7353
  26   2.0000      -0.391706       -10.6589
  27   2.0000      -0.372503       -10.1363
  28   2.0000      -0.368656       -10.0316
  29   2.0000      -0.344142        -9.3646
  30   2.0000      -0.338543        -9.2122
  31   2.0000      -0.311997        -8.4899
  32   2.0000      -0.311766        -8.4836
  33   2.0000      -0.304258        -8.2793
  34   2.0000      -0.286520        -7.7966
  35   2.0000      -0.219173        -5.9640
  36   2.0000      -0.183457        -4.9921
  37   0.0000      -0.020108        -0.5472
  38   0.0000      -0.007955        -0.2165
  39   0.0000       0.038689         1.0528
  40   0.0000       0.076156         2.0723
  41   0.0000       0.099437         2.7058

MULLIKEN ATOMIC CHARGES
-----------------------
   0 C :   -0.536419
   1 C :    0.213215
   2 C :   -0.214290
   3 C :   -0.297490
   4 C :    0.212132
   5 C :    0.191816
   6 C :   -0.331778
   7 O :   -0.215299
   8 C :   -0.327228
   9 O :   -0.394431
  10 H :    0.152539
  11 H :    0.166490
  12 H :    0.146055
  13 H :    0.146929
  14 H :    0.157016
  15 H :    0.145076
  16 H :    0.155065
  17 H :    0.153693
  18 H :    0.154892
  19 H :    0.322016
Sum of atomic charges:    0.0000000

LOEWDIN ATOMIC CHARGES
----------------------
   0 C :   -0.389357
   1 C :   -0.110018
   2 C :   -0.172993
   3 C :   -0.134514
   4 C :    0.200598
   5 C :    0.192189
   6 C :   -0.165325
   7 O :   -0.709204
   8 C :   -0.049232
   9 O :   -0.476755
  10 H :    0.161586
  11 H :    0.163318
  12 H :    0.156855
  13 H :    0.168730
  14 H :    0.180243
  15 H :    0.175653
  16 H :    0.166449
  17 H :    0.180227
  18 H :    0.166364
  19 H :    0.295186

  Mayer bond orders larger than 0.100000
B(  0-C ,  1-C ) :   0.7599 B(  0-C , 10-H ) :   0.9874 B(  0-C , 11-H ) :   0.9707
B(  0-C , 12-H ) :   0.9967 B(  1-C ,  2-C ) :   1.4204 B(  1-C ,  6-C ) :   1.3899
B(  2-C ,  3-C ) :   1.3866 B(  2-C , 13-H ) :   0.9401 B(  3-C ,  4-C ) :   1.3797
B(  3-C , 14-H ) :   0.9522 B(  4-C ,  5-C ) :   1.4247 B(  4-C ,  9-O ) :   0.9752
B(  5-C ,  6-C ) :   1.3464 B(  5-C ,  7-O ) :   1.0564 B(  6-C , 15-H ) :   0.9025
B(  7-O ,  8-C ) :   0.8584 B(  8-C , 16-H ) :   0.9606 B(  8-C , 17-H ) :   0.9680
B(  8-C , 18-H ) :   0.9607 B(  9-O , 19-H ) :   0.8530

Dispersion correction           -0.006567976
FINAL SINGLE POINT ENERGY      -461.205205813067

DIPOLE MOMENT
-------------

Method             : SCF
Type of density    : Electron Density
Multiplicity       :   1
Irrep              :   0
Energy             :  -461.2089801020982804 Eh
Relativity type    :
Basis              : AO
                                X                 Y                 Z
Electronic contribution:      4.685401851      -6.486533169      -0.024080360
Nuclear contribution   :     -4.519022162       7.533775608       0.037023913
                        -----------------------------------------
Total Dipole Moment    :      0.166379690       1.047242438       0.012943552
                        -----------------------------------------
Magnitude (a.u.)       :      1.060455780
Magnitude (Debye)      :      2.695464381

Rotational constants in cm-1:             0.063091             0.039182             0.024393
Rotational constants in MHz :          1891.420395          1174.634845           731.281308

                             ****ORCA TERMINATED NORMALLY****
TOTAL RUN TIME: 0 days 0 hours 0 minutes 31 seconds 248 msec
