                         Program Version 6.0.0  -   RELEASE  -
|  1> ! pbe def2-sv(p) def2/J RI DEFGRID1 loosescf d4 GCP(DFT/SV(P)) printgap
|  2> %output
|  3>     printlevel normal
|  4> end
|  5> * xyz 0 1
|  6> C -1.9844263165 -0.9431819298 -0.5796995377
|  7> C -1.4409276988 -0.0162995499 0.5059595248
|  8> C -0.0227719139 0.4153915734 0.2321849793
|  9> O 0.367932462 1.5643606954 0.2887192375
| 10> O 0.7622961664 -0.6136006241 -0.0548091496
| 11> C 2.1450110856 -0.3748312322 -0.3301729844
| 12> H -1.9968696038 -0.435752408 -1.5410670048
| 13> H -1.3643430826 -1.8310848107 -0.6613713087
| 14> H -2.9986554009 -1.2412910002 -0.3313608141
| 15> H -1.4409242573 -0.5390494507 1.464496159
| 16> H -2.0503782812 0.8826307107 0.5982246273
| 17> H 2.2981631592 -0.4082391303 -1.4083856817
| 18> H 2.7020931843 -1.1710528837 0.1570013942
| 19> H 2.4384537842 0.6020516165 0.0558544089
| 20> *
| 21>
| 22>                          ****END OF INPUT****

CARTESIAN COORDINATES (ANGSTROEM)
---------------------------------
  C     -1.984426   -0.943182   -0.579700
  C     -1.440928   -0.016300    0.505960
  C     -0.022772    0.415392    0.232185
  O      0.367932    1.564361    0.288719
  O      0.762296   -0.613601   -0.054809
  C      2.145011   -0.374831   -0.330173
  H     -1.996870   -0.435752   -1.541067
  H     -1.364343   -1.831085   -0.661371
  H     -2.998655   -1.241291   -0.331361
  H     -1.440924   -0.539049    1.464496
  H     -2.050378    0.882631    0.598225
  H      2.298163   -0.408239   -1.408386
  H      2.702093   -1.171053    0.157001
  H      2.438454    0.602052    0.055854

 Total Charge           Charge          ....    0
 Multiplicity           Mult            ....    1
 Number of Electrons    NEL             ....   48
 Basis Dimension        Dim             ....  100

ORBITAL ENERGIES
----------------

  NO   OCC          E(Eh)            E(eV)
   0   2.0000     -18.800249      -511.5808
   1   2.0000     -18.731448      -509.7086
   2   2.0000     -10.003183      -272.2004
   3   2.0000      -9.939773      -270.4750
   4   2.0000      -9.898206      -269.3439
   5   2.0000      -9.884333      -268.9664
   6   2.0000      -1.005132       -27.3510
   7   2.0000      -0.907227       -24.6869
   8   2.0000      -0.716057       -19.4849
   9   2.0000      -0.654899       -17.8207
  10   2.0000      -0.575979       -15.6732
  11   2.0000      -0.507655       -13.8140
  12   2.0000      -0.449208       -12.2236
  13   2.0000      -0.436307       -11.8725
  14   2.0000      -0.416047       -11.3212
  15   2.0000      -0.391841       -10.6625
  16   2.0000      -0.378163       -10.2903
  17   2.0000      -0.362141        -9.8544
  18   2.0000      -0.335949        -9.1416
  19   2.0000      -0.322035        -8.7630
  20   2.0000      -0.310442        -8.4476
  21   2.0000      -0.295433        -8.0391
  22   2.0000      -0.255974        -6.9654
  23   2.0000      -0.215440        -5.8624
  24   0.0000      -0.018517        -0.5039
  25   0.0000       0.045035         1.2255
  26   0.0000       0.060815         1.6549
  27   0.0000       0.087398         2.3782
  28   0.0000       0.093438         2.5426

MULLIKEN ATOMIC CHARGES
-----------------------
   0 C :   -0.296955
   1 C :   -0.156260
   2 C :    0.093364
   3 O :   -0.202259
   4 O :   -0.244915
   5 C :   -0.126654
   6 H :    0.109773
   7 H :    0.118936
   8 H :    0.109305
   9 H :    0.114899
  10 H :    0.105830
  11 H :    0.120861
  12 H :    0.121808
  13 H :    0.132267
Sum of atomic charges:    0.0000000

LOEWDIN ATOMIC CHARGES
----------------------
   0 C :   -0.338387
   1 C :   -0.250570
   2 C :    0.033482
   3 O :   -0.170743
   4 O :   -0.073848
   5 C :   -0.207694
   6 H :    0.122412
   7 H :    0.123719
   8 H :    0.122508
   9 H :    0.140623
  10 H :    0.134294
  11 H :    0.119737
  12 H :    0.120552
  13 H :    0.123916

  Mayer bond orders larger than 0.100000
B(  0-C ,  1-C ) :   1.1364 B(  0-C ,  6-H ) :   0.9583 B(  0-C ,  7-H ) :   0.9490
B(  0-C ,  8-H ) :   0.9508 B(  1-C ,  2-C ) :   1.0296 B(  1-C ,  9-H ) :   0.8990
B(  1-C , 10-H ) :   0.9188 B(  2-C ,  3-O ) :   2.0833 B(  2-C ,  4-O ) :   1.1937
B(  4-O ,  5-C ) :   0.9383 B(  5-C , 11-H ) :   0.9600 B(  5-C , 12-H ) :   0.9610
B(  5-C , 13-H ) :   0.9322

Dispersion correction           -0.009160348
FINAL SINGLE POINT ENERGY      -307.025275868898

DIPOLE MOMENT
-------------

Method             : SCF
Type of density    : Electron Density
Multiplicity       :   1
Irrep              :   0
Energy             :  -307.0797706826275544 Eh
Relativity type    :
Basis              : AO
                                X                 Y                 Z
Electronic contribution:      2.341116520       3.103718640       1.444898817
Nuclear contribution   :     -2.246517461      -3.871591479      -1.560092737
                        -----------------------------------------
Total Dipole Moment    :      0.094599059      -0.767872839      -0.115193920
                        -----------------------------------------
Magnitude (a.u.)       :      0.782206698
Magnitude (Debye)      :      1.988211421

Rotational constants in cm-1:             0.203610             0.087518             0.066412
Rotational constants in MHz :          6104.067815          2623.715547          1990.968070

                             ****ORCA TERMINATED NORMALLY****
TOTAL RUN TIME: 0 days 0 hours 0 minutes 6 seconds 623 msec
