                         Program Version 6.0.0  -   RELEASE  -
|  1> ! pbe def2-sv(p) def2/J RI DEFGRID1 loosescf d4 GCP(DFT/SV(P)) printgap
|  2> %output
|  3>     printlevel normal
|  4> end
|  5> * xyz 0 1
|  6> C 1.2902616589 4.37963e-05 2.12737e-05
|  7> C -0.1549003924 -0.0001499192 -8.60728e-05
|  8> C -1.3517615875 6.48534e-05 4.72506e-05
|  9> H 1.6598493045 -0.958867455 -0.359743891
| 10> H 1.6594986776 0.7912706028 -0.6504697993
| 11> H 1.6594531667 0.1679955895 1.0104474942
| 12> H -2.4001504653 9.30344e-05 -2.46944e-05
| 13> *
| 14>
| 15>                          ****END OF INPUT****

CARTESIAN COORDINATES (ANGSTROEM)
---------------------------------
  C      1.290262    0.000044    0.000021
  C     -0.154900   -0.000150   -0.000086
  C     -1.351762    0.000065    0.000047
  H      1.659849   -0.958867   -0.359744
  H      1.659499    0.791271   -0.650470
  H      1.659453    0.167996    1.010447
  H     -2.400150    0.000093   -0.000025

 Total Charge           Charge          ....    0
 Multiplicity           Mult            ....    1
 Number of Electrons    NEL             ....   22
 Basis Dimension        Dim             ....   50

ORBITAL ENERGIES
----------------

  NO   OCC          E(Eh)            E(eV)
   0   2.0000      -9.905274      -269.5362
   1   2.0000      -9.890010      -269.1209
   2   2.0000      -9.873512      -268.6719
   3   2.0000      -0.700850       -19.0711
   4   2.0000      -0.623299       -16.9608
   5   2.0000      -0.471204       -12.8221
   6   2.0000      -0.403397       -10.9770
   7   2.0000      -0.389734       -10.6052
   8   2.0000      -0.389730       -10.6051
   9   2.0000      -0.232524        -6.3273
  10   2.0000      -0.232521        -6.3272
  11   0.0000       0.023141         0.6297
  12   0.0000       0.023143         0.6298
  13   0.0000       0.051423         1.3993
  14   0.0000       0.087857         2.3907
  15   0.0000       0.121929         3.3178

MULLIKEN ATOMIC CHARGES
-----------------------
   0 C :   -0.233831
   1 C :    0.335238
   2 C :   -0.557684
   3 H :    0.134047
   4 H :    0.134075
   5 H :    0.134060
   6 H :    0.054095
Sum of atomic charges:   -0.0000000

LOEWDIN ATOMIC CHARGES
----------------------
   0 C :   -0.335942
   1 C :   -0.042295
   2 C :   -0.205831
   3 H :    0.147143
   4 H :    0.147157
   5 H :    0.147157
   6 H :    0.142611

  Mayer bond orders larger than 0.100000
B(  0-C ,  1-C ) :   1.1687 B(  0-C ,  3-H ) :   0.9202 B(  0-C ,  4-H ) :   0.9202
B(  0-C ,  5-H ) :   0.9202 B(  1-C ,  2-C ) :   2.2973 B(  1-C ,  6-H ) :  -0.1177
B(  2-C ,  6-H ) :   1.0799

Dispersion correction           -0.002974655
FINAL SINGLE POINT ENERGY      -116.371284422113

DIPOLE MOMENT
-------------

Method             : SCF
Type of density    : Electron Density
Multiplicity       :   1
Irrep              :   0
Energy             :  -116.3906221121053477 Eh
Relativity type    :
Basis              : AO
                                X                 Y                 Z
Electronic contribution:     -2.106823440      -0.000361704      -0.000145328
Nuclear contribution   :      2.419220300       0.000461367       0.000196181
                        -----------------------------------------
Total Dipole Moment    :      0.312396859       0.000099663       0.000050853
                        -----------------------------------------
Magnitude (a.u.)       :      0.312396879
Magnitude (Debye)      :      0.794049763

Rotational constants in cm-1:             5.313732             0.290885             0.290884
Rotational constants in MHz :        159301.677482          8720.525414          8720.490839

                             ****ORCA TERMINATED NORMALLY****
TOTAL RUN TIME: 0 days 0 hours 0 minutes 3 seconds 251 msec
