                         Program Version 6.0.0  -   RELEASE  -
|  1> ! pbe def2-sv(p) def2/J RI DEFGRID1 loosescf d4 GCP(DFT/SV(P)) printgap
|  2> %output
|  3>     printlevel normal
|  4> end
|  5> * xyz 0 1
|  6> C -1.7101196237 -1.3768069765 -0.5189648584
|  7> C -1.120203054 -0.4918640966 0.5984018192
|  8> H -1.8316008065 -0.4318583313 1.4303562665
|  9> C -0.8583274384 0.950981397 0.0903494478
| 10> H -1.1533652699 1.0069134012 -0.9677151045
| 11> C 0.633873147 1.2747870529 0.1996654652
| 12> H 0.8884119014 1.4009049959 1.2578465491
| 13> C 1.457323981 0.1160531556 -0.3825705049
| 14> H 1.159342496 -0.0605913786 -1.4295590976
| 15> C 1.18686781 -1.1688886726 0.414169443
| 16> H 1.9994099832 -1.2914432374 1.1440954003
| 17> O 0.0227552624 -1.0860493821 1.2004515927
| 18> O 1.1436649189 -2.2375430929 -0.47799412
| 19> O 2.8306875309 0.3976931732 -0.3231754963
| 20> O 0.9900128653 2.4821322157 -0.4209204426
| 21> O -1.5618800476 1.9121373285 0.8411634914
| 22> O -2.9165354549 -0.8511868338 -1.0144078911
| 23> H -1.8392851959 -2.3929574389 -0.1342657012
| 24> H -1.0164323758 -1.4159405645 -1.3620057305
| 25> H 1.2074917983 -3.0790531195 -0.0014897374
| 26> H 2.9471785162 1.3489586254 -0.4912503294
| 27> H 0.5827288794 2.5371482609 -1.2985182488
| 28> H -2.4898916629 1.9291391222 0.568519916
| 29> H -3.6362855177 -1.0573751385 -0.4017095672
| 30> *
| 31>
| 32>                          ****END OF INPUT****

CARTESIAN COORDINATES (ANGSTROEM)
---------------------------------
  C     -1.710120   -1.376807   -0.518965
  C     -1.120203   -0.491864    0.598402
  H     -1.831601   -0.431858    1.430356
  C     -0.858327    0.950981    0.090349
  H     -1.153365    1.006913   -0.967715
  C      0.633873    1.274787    0.199665
  H      0.888412    1.400905    1.257847
  C      1.457324    0.116053   -0.382571
  H      1.159342   -0.060591   -1.429559
  C      1.186868   -1.168889    0.414169
  H      1.999410   -1.291443    1.144095
  O      0.022755   -1.086049    1.200452
  O      1.143665   -2.237543   -0.477994
  O      2.830688    0.397693   -0.323175
  O      0.990013    2.482132   -0.420920
  O     -1.561880    1.912137    0.841163
  O     -2.916535   -0.851187   -1.014408
  H     -1.839285   -2.392957   -0.134266
  H     -1.016432   -1.415941   -1.362006
  H      1.207492   -3.079053   -0.001490
  H      2.947179    1.348959   -0.491250
  H      0.582729    2.537148   -1.298518
  H     -2.489892    1.929139    0.568520
  H     -3.636286   -1.057375   -0.401710

 Total Charge           Charge          ....    0
 Multiplicity           Mult            ....    1
 Number of Electrons    NEL             ....   96
 Basis Dimension        Dim             ....  192

ORBITAL ENERGIES
----------------

  NO   OCC          E(Eh)            E(eV)
   0   2.0000     -18.766362      -510.6587
   1   2.0000     -18.762524      -510.5542
   2   2.0000     -18.762073      -510.5419
   3   2.0000     -18.760586      -510.5015
   4   2.0000     -18.751115      -510.2438
   5   2.0000     -18.741738      -509.9886
   6   2.0000      -9.982405      -271.6350
   7   2.0000      -9.945296      -270.6253
   8   2.0000      -9.942445      -270.5477
   9   2.0000      -9.941439      -270.5203
  10   2.0000      -9.937188      -270.4046
  11   2.0000      -9.933225      -270.2968
  12   2.0000      -0.978167       -26.6173
  13   2.0000      -0.947540       -25.7839
  14   2.0000      -0.937437       -25.5090
  15   2.0000      -0.927140       -25.2288
  16   2.0000      -0.912239       -24.8233
  17   2.0000      -0.910886       -24.7865
  18   2.0000      -0.703289       -19.1375
  19   2.0000      -0.688910       -18.7462
  20   2.0000      -0.624801       -17.0017
  21   2.0000      -0.577336       -15.7101
  22   2.0000      -0.574516       -15.6334
  23   2.0000      -0.521919       -14.2021
  24   2.0000      -0.502849       -13.6832
  25   2.0000      -0.495430       -13.4813
  26   2.0000      -0.470662       -12.8074
  27   2.0000      -0.465573       -12.6689
  28   2.0000      -0.443337       -12.0638
  29   2.0000      -0.432317       -11.7640
  30   2.0000      -0.403034       -10.9671
  31   2.0000      -0.391896       -10.6640
  32   2.0000      -0.388308       -10.5664
  33   2.0000      -0.386479       -10.5166
  34   2.0000      -0.360784        -9.8174
  35   2.0000      -0.352697        -9.5974
  36   2.0000      -0.332378        -9.0445
  37   2.0000      -0.307987        -8.3808
  38   2.0000      -0.298141        -8.1128
  39   2.0000      -0.289933        -7.8895
  40   2.0000      -0.274767        -7.4768
  41   2.0000      -0.266212        -7.2440
  42   2.0000      -0.259668        -7.0659
  43   2.0000      -0.247162        -6.7256
  44   2.0000      -0.236732        -6.4418
  45   2.0000      -0.230400        -6.2695
  46   2.0000      -0.211253        -5.7485
  47   2.0000      -0.200252        -5.4491
  48   0.0000       0.007738         0.2106
  49   0.0000       0.018507         0.5036
  50   0.0000       0.027261         0.7418
  51   0.0000       0.041472         1.1285
  52   0.0000       0.049915         1.3583

MULLIKEN ATOMIC CHARGES
-----------------------
   0 C :   -0.000036
   1 C :    0.035381
   2 H :    0.053970
   3 C :    0.028673
   4 H :    0.052313
   5 C :    0.069244
   6 H :    0.077244
   7 C :    0.012351
   8 H :    0.050871
   9 C :    0.216732
  10 H :    0.072503
  11 O :   -0.309085
  12 O :   -0.387616
  13 O :   -0.415181
  14 O :   -0.412740
  15 O :   -0.400409
  16 O :   -0.432556
  17 H :    0.076981
  18 H :    0.112681
  19 H :    0.303085
  20 H :    0.300920
  21 H :    0.298433
  22 H :    0.297624
  23 H :    0.298617
Sum of atomic charges:   -0.0000000

LOEWDIN ATOMIC CHARGES
----------------------
   0 C :   -0.147297
   1 C :   -0.075001
   2 H :    0.111805
   3 C :   -0.077353
   4 H :    0.101182
   5 C :   -0.075801
   6 H :    0.126792
   7 C :   -0.085187
   8 H :    0.098875
   9 C :   -0.000025
  10 H :    0.107341
  11 O :   -0.145076
  12 O :   -0.301764
  13 O :   -0.319976
  14 O :   -0.303129
  15 O :   -0.317677
  16 O :   -0.335223
  17 H :    0.099547
  18 H :    0.116487
  19 H :    0.286972
  20 H :    0.279521
  21 H :    0.285057
  22 H :    0.284304
  23 H :    0.285628

  Mayer bond orders larger than 0.100000
B(  0-C ,  1-C ) :   1.0106 B(  0-C , 16-O ) :   1.0393 B(  0-C , 17-H ) :   0.9195
B(  0-C , 18-H ) :   0.9099 B(  1-C ,  2-H ) :   0.8918 B(  1-C ,  3-C ) :   0.9726
B(  1-C , 11-O ) :   1.0352 B(  3-C ,  4-H ) :   0.8791 B(  3-C ,  5-C ) :   1.0209
B(  3-C , 15-O ) :   1.1055 B(  5-C ,  6-H ) :   0.8547 B(  5-C ,  7-C ) :   1.0034
B(  5-C , 14-O ) :   1.0360 B(  7-C ,  8-H ) :   0.8714 B(  7-C ,  9-C ) :   0.9823
B(  7-C , 13-O ) :   1.0998 B(  9-C , 10-H ) :   0.8866 B(  9-C , 11-O ) :   1.0529
B(  9-C , 12-O ) :   1.1343 B( 12-O , 19-H ) :   0.8414 B( 13-O , 20-H ) :   0.8240
B( 14-O , 21-H ) :   0.8461 B( 15-O , 22-H ) :   0.8481 B( 16-O , 23-H ) :   0.8531

Dispersion correction           -0.024512395
FINAL SINGLE POINT ENERGY      -685.688737994644

DIPOLE MOMENT
-------------

Method             : SCF
Type of density    : Electron Density
Multiplicity       :   1
Irrep              :   0
Energy             :  -685.8182455621233657 Eh
Relativity type    :
Basis              : AO
                                X                 Y                 Z
Electronic contribution:      1.899387734       0.929876267       1.419176644
Nuclear contribution   :     -2.977999984      -1.403886171      -1.584356128
                        -----------------------------------------
Total Dipole Moment    :     -1.078612250      -0.474009904      -0.165179484
                        -----------------------------------------
Magnitude (a.u.)       :      1.189694934
Magnitude (Debye)      :      3.023964204

Rotational constants in cm-1:             0.037252             0.028930             0.019352
Rotational constants in MHz :          1116.790833           867.295234           580.154564

                             ****ORCA TERMINATED NORMALLY****
TOTAL RUN TIME: 0 days 0 hours 0 minutes 11 seconds 829 msec
