                         Program Version 6.0.0  -   RELEASE  -
|  1> ! pbe def2-sv(p) def2/J RI DEFGRID1 loosescf d4 GCP(DFT/SV(P)) printgap
|  2> %output
|  3>     printlevel normal
|  4> end
|  5> * xyz 0 1
|  6> C -3.2061719915 -0.2960423552 -0.9728948156
|  7> C -1.7286134895 -0.226364812 -0.5945006595
|  8> H -1.1480177628 -0.1618720299 -1.5200426385
|  9> C -1.3034014112 -1.477508944 0.1901401715
| 10> C -0.1789172814 -1.198910775 1.1956688914
| 11> C 0.7860760725 -0.1047370772 0.730929402
| 12> H 1.5313123127 0.0849301621 1.5127567423
| 13> C 0.0122667621 1.1844885002 0.5673841739
| 14> O 0.5181363677 2.2753013762 0.7601046141
| 15> C -1.4419588519 1.0349985563 0.2182118213
| 16> C 1.5734036822 -0.4972935332 -0.5462152794
| 17> C 2.1703057033 0.7243044958 -1.2417588841
| 18> C 2.6881222821 -1.4796394506 -0.1900813874
| 19> H -3.8285826868 -0.3085948937 -0.081067953
| 20> H -3.4879988729 0.5633157915 -1.5766689127
| 21> H -3.4052420902 -1.1981688784 -1.5458749035
| 22> H -2.1629978631 -1.8678575549 0.7372768644
| 23> H -0.99386208 -2.2517050485 -0.5126478894
| 24> H -0.610384967 -0.8777112024 2.145974843
| 25> H 0.3720542543 -2.1186985206 1.3902415569
| 26> H -1.9911347583 0.996360215 1.163765546
| 27> H -1.7727395301 1.933288719 -0.3068789036
| 28> H 0.8908256315 -0.9903043722 -1.2416316909
| 29> H 2.806505168 0.4110029462 -2.0659570247
| 30> H 2.7674062107 1.3083428596 -0.5444547906
| 31> H 1.3922440927 1.374001264 -1.6376332184
| 32> H 3.1990519925 -1.8034913796 -1.0934432864
| 33> H 2.2944649467 -2.359563881 0.310496839
| 34> H 3.4165761627 -1.0052142114 0.4638196855
| 35> *
| 36>
| 37>                          ****END OF INPUT****

CARTESIAN COORDINATES (ANGSTROEM)
---------------------------------
  C     -3.206172   -0.296042   -0.972895
  C     -1.728613   -0.226365   -0.594501
  H     -1.148018   -0.161872   -1.520043
  C     -1.303401   -1.477509    0.190140
  C     -0.178917   -1.198911    1.195669
  C      0.786076   -0.104737    0.730929
  H      1.531312    0.084930    1.512757
  C      0.012267    1.184489    0.567384
  O      0.518136    2.275301    0.760105
  C     -1.441959    1.034999    0.218212
  C      1.573404   -0.497294   -0.546215
  C      2.170306    0.724304   -1.241759
  C      2.688122   -1.479639   -0.190081
  H     -3.828583   -0.308595   -0.081068
  H     -3.487999    0.563316   -1.576669
  H     -3.405242   -1.198169   -1.545875
  H     -2.162998   -1.867858    0.737277
  H     -0.993862   -2.251705   -0.512648
  H     -0.610385   -0.877711    2.145975
  H      0.372054   -2.118699    1.390242
  H     -1.991135    0.996360    1.163766
  H     -1.772740    1.933289   -0.306879
  H      0.890826   -0.990304   -1.241632
  H      2.806505    0.411003   -2.065957
  H      2.767406    1.308343   -0.544455
  H      1.392244    1.374001   -1.637633
  H      3.199052   -1.803491   -1.093443
  H      2.294465   -2.359564    0.310497
  H      3.416576   -1.005214    0.463820

 Total Charge           Charge          ....    0
 Multiplicity           Mult            ....    1
 Number of Electrons    NEL             ....   86
 Basis Dimension        Dim             ....  190

ORBITAL ENERGIES
----------------

  NO   OCC          E(Eh)            E(eV)
   0   2.0000     -18.728299      -509.6229
   1   2.0000      -9.965184      -271.1664
   2   2.0000      -9.905547      -269.5436
   3   2.0000      -9.905467      -269.5415
   4   2.0000      -9.896587      -269.2998
   5   2.0000      -9.892395      -269.1858
   6   2.0000      -9.891151      -269.1519
   7   2.0000      -9.888980      -269.0928
   8   2.0000      -9.879943      -268.8469
   9   2.0000      -9.877630      -268.7840
  10   2.0000      -9.869745      -268.5694
  11   2.0000      -0.926812       -25.2198
  12   2.0000      -0.769660       -20.9435
  13   2.0000      -0.729363       -19.8470
  14   2.0000      -0.679719       -18.4961
  15   2.0000      -0.653978       -17.7956
  16   2.0000      -0.614340       -16.7171
  17   2.0000      -0.611911       -16.6509
  18   2.0000      -0.557298       -15.1649
  19   2.0000      -0.516051       -14.0425
  20   2.0000      -0.507318       -13.8048
  21   2.0000      -0.470335       -12.7985
  22   2.0000      -0.445207       -12.1147
  23   2.0000      -0.413982       -11.2650
  24   2.0000      -0.413541       -11.2530
  25   2.0000      -0.399828       -10.8799
  26   2.0000      -0.390404       -10.6234
  27   2.0000      -0.372111       -10.1256
  28   2.0000      -0.368659       -10.0317
  29   2.0000      -0.359231        -9.7752
  30   2.0000      -0.347791        -9.4639
  31   2.0000      -0.344857        -9.3840
  32   2.0000      -0.336061        -9.1447
  33   2.0000      -0.333027        -9.0621
  34   2.0000      -0.326108        -8.8738
  35   2.0000      -0.309433        -8.4201
  36   2.0000      -0.301566        -8.2060
  37   2.0000      -0.299259        -8.1432
  38   2.0000      -0.292772        -7.9667
  39   2.0000      -0.276989        -7.5373
  40   2.0000      -0.275891        -7.5074
  41   2.0000      -0.268255        -7.2996
  42   2.0000      -0.184608        -5.0234
  43   0.0000      -0.049198        -1.3388
  44   0.0000       0.018621         0.5067
  45   0.0000       0.038423         1.0456
  46   0.0000       0.049431         1.3451
  47   0.0000       0.064020         1.7421

MULLIKEN ATOMIC CHARGES
-----------------------
   0 C :   -0.214443
   1 C :   -0.213051
   2 H :    0.083955
   3 C :   -0.136979
   4 C :   -0.089905
   5 C :   -0.093699
   6 H :    0.068647
   7 C :   -0.001096
   8 O :   -0.167876
   9 C :   -0.088697
  10 C :   -0.228464
  11 C :   -0.205541
  12 C :   -0.236351
  13 H :    0.093727
  14 H :    0.100155
  15 H :    0.103154
  16 H :    0.077473
  17 H :    0.089739
  18 H :    0.080951
  19 H :    0.088744
  20 H :    0.100298
  21 H :    0.094778
  22 H :    0.084468
  23 H :    0.095687
  24 H :    0.102715
  25 H :    0.109563
  26 H :    0.102373
  27 H :    0.101058
  28 H :    0.098620
Sum of atomic charges:    0.0000000

LOEWDIN ATOMIC CHARGES
----------------------
   0 C :   -0.325592
   1 C :   -0.154156
   2 H :    0.117984
   3 C :   -0.221379
   4 C :   -0.217187
   5 C :   -0.157881
   6 H :    0.132694
   7 C :    0.052266
   8 O :   -0.131400
   9 C :   -0.237643
  10 C :   -0.142841
  11 C :   -0.330855
  12 C :   -0.327234
  13 H :    0.116711
  14 H :    0.119028
  15 H :    0.119667
  16 H :    0.120184
  17 H :    0.119132
  18 H :    0.119531
  19 H :    0.120880
  20 H :    0.143035
  21 H :    0.133332
  22 H :    0.115936
  23 H :    0.116789
  24 H :    0.124657
  25 H :    0.118380
  26 H :    0.120230
  27 H :    0.115778
  28 H :    0.119955

  Mayer bond orders larger than 0.100000
B(  0-C ,  1-C ) :   1.1180 B(  0-C , 13-H ) :   0.9437 B(  0-C , 14-H ) :   0.9480
B(  0-C , 15-H ) :   0.9506 B(  1-C ,  2-H ) :   0.8855 B(  1-C ,  3-C ) :   1.0865
B(  1-C ,  9-C ) :   1.1160 B(  3-C ,  4-C ) :   1.1449 B(  3-C , 16-H ) :   0.9089
B(  3-C , 17-H ) :   0.9118 B(  4-C ,  5-C ) :   1.1029 B(  4-C , 18-H ) :   0.9004
B(  4-C , 19-H ) :   0.9049 B(  5-C ,  6-H ) :   0.8505 B(  5-C ,  7-C ) :   0.9642
B(  5-C , 10-C ) :   1.0128 B(  7-C ,  8-O ) :   2.1492 B(  7-C ,  9-C ) :   1.0387
B(  9-C , 20-H ) :   0.8615 B(  9-C , 21-H ) :   0.8952 B( 10-C , 11-C ) :   1.1417
B( 10-C , 12-C ) :   1.1131 B( 10-C , 22-H ) :   0.8878 B( 11-C , 23-H ) :   0.9467
B( 11-C , 24-H ) :   0.9385 B( 11-C , 25-H ) :   0.9286 B( 12-C , 26-H ) :   0.9463
B( 12-C , 27-H ) :   0.9445 B( 12-C , 28-H ) :   0.9462

Dispersion correction           -0.030669567
FINAL SINGLE POINT ENERGY      -466.028402772514

DIPOLE MOMENT
-------------

Method             : SCF
Type of density    : Electron Density
Multiplicity       :   1
Irrep              :   0
Energy             :  -466.1245459195299645 Eh
Relativity type    :
Basis              : AO
                                X                 Y                 Z
Electronic contribution:      0.274523474       6.739020595       3.895401274
Nuclear contribution   :     -0.677662898      -7.726698567      -4.118500665
                        -----------------------------------------
Total Dipole Moment    :     -0.403139424      -0.987677972      -0.223099391
                        -----------------------------------------
Magnitude (a.u.)       :      1.089863528
Magnitude (Debye)      :      2.770212935

Rotational constants in cm-1:             0.050580             0.028338             0.023361
Rotational constants in MHz :          1516.354659           849.544622           700.341293

                             ****ORCA TERMINATED NORMALLY****
TOTAL RUN TIME: 0 days 0 hours 0 minutes 13 seconds 142 msec
