                         Program Version 6.0.0  -   RELEASE  -
|  1> ! r2scan-3c def2/J RI DEFGRID2 scfconv6 printgap
|  2> %output
|  3>     printlevel normal
|  4> end
|  5> * xyz 0 1
|  6> C -0.4589895111 -0.9669990795 0.0040580479
|  7> C 0.745918275 -0.0481606754 0.0003223101
|  8> F 0.801064857 0.7565935532 1.0709636913
|  9> F 0.7997193284 0.7478553334 -1.076776002
| 10> F 1.8927535568 -0.7527817603 0.0023521106
| 11> Cl -1.9438605261 0.0309413657 -2.53285e-05
| 12> H -0.4477969184 -1.5841308028 -0.8943150269
| 13> H -0.4473927922 -1.5754018412 0.9082294579
| 14> *
| 15>
| 16>                          ****END OF INPUT****

CARTESIAN COORDINATES (ANGSTROEM)
---------------------------------
  C     -0.458990   -0.966999    0.004058
  C      0.745918   -0.048161    0.000322
  F      0.801065    0.756594    1.070964
  F      0.799719    0.747855   -1.076776
  F      1.892754   -0.752782    0.002352
  Cl    -1.943861    0.030941   -0.000025
  H     -0.447797   -1.584131   -0.894315
  H     -0.447393   -1.575402    0.908229

 Total Charge           Charge          ....    0
 Multiplicity           Mult            ....    1
 Number of Electrons    NEL             ....   58
 Basis Dimension        Dim             ....  147

ORBITAL ENERGIES
----------------

  NO   OCC          E(Eh)            E(eV)
   0   2.0000    -101.232910     -2754.6875
   1   2.0000     -24.530327      -667.5041
   2   2.0000     -24.526616      -667.4032
   3   2.0000     -24.526564      -667.4017
   4   2.0000     -10.299477      -280.2630
   5   2.0000     -10.136316      -275.8232
   6   2.0000      -9.388288      -255.4683
   7   2.0000      -7.135328      -194.1621
   8   2.0000      -7.124072      -193.8559
   9   2.0000      -7.123857      -193.8500
  10   2.0000      -1.288521       -35.0624
  11   2.0000      -1.197469       -32.5848
  12   2.0000      -1.196186       -32.5499
  13   2.0000      -0.855993       -23.2928
  14   2.0000      -0.732765       -19.9396
  15   2.0000      -0.642746       -17.4900
  16   2.0000      -0.570012       -15.5108
  17   2.0000      -0.568739       -15.4762
  18   2.0000      -0.534522       -14.5451
  19   2.0000      -0.462045       -12.5729
  20   2.0000      -0.441955       -12.0262
  21   2.0000      -0.436390       -11.8748
  22   2.0000      -0.427219       -11.6252
  23   2.0000      -0.391706       -10.6589
  24   2.0000      -0.390622       -10.6294
  25   2.0000      -0.381199       -10.3729
  26   2.0000      -0.376579       -10.2472
  27   2.0000      -0.297671        -8.1000
  28   2.0000      -0.294692        -8.0190
  29   0.0000      -0.032306        -0.8791
  30   0.0000       0.073973         2.0129
  31   0.0000       0.081354         2.2138
  32   0.0000       0.108753         2.9593
  33   0.0000       0.133347         3.6286

MULLIKEN ATOMIC CHARGES
-----------------------
   0 C :   -0.168885
   1 C :    0.541864
   2 F :   -0.200713
   3 F :   -0.200745
   4 F :   -0.204811
   5 Cl:   -0.136581
   6 H :    0.184987
   7 H :    0.184884
Sum of atomic charges:    0.0000000

LOEWDIN ATOMIC CHARGES
----------------------
   0 C :   -0.283790
   1 C :    0.471485
   2 F :   -0.207789
   3 F :   -0.207860
   4 F :   -0.213051
   5 Cl:    0.074094
   6 H :    0.183476
   7 H :    0.183435

  Mayer bond orders larger than 0.100000
B(  0-C ,  1-C ) :   0.9950 B(  0-C ,  5-Cl) :   1.0224 B(  0-C ,  6-H ) :   0.9334
B(  0-C ,  7-H ) :   0.9335 B(  1-C ,  2-F ) :   1.0278 B(  1-C ,  3-F ) :   1.0278
B(  1-C ,  4-F ) :   1.0087

Dispersion correction           -0.001682288
FINAL SINGLE POINT ENERGY      -837.115703120844

DIPOLE MOMENT
-------------

Method             : SCF
Type of density    : Electron Density
Multiplicity       :   1
Irrep              :   0
Energy             :  -837.1252683872950229 Eh
Relativity type    :
Basis              : AO
                                X                 Y                 Z
Electronic contribution:      1.324655601       2.896207386      -0.012724250
Nuclear contribution   :     -1.467691082      -3.702188062       0.016294243
                        -----------------------------------------
Total Dipole Moment    :     -0.143035481      -0.805980676       0.003569993
                        -----------------------------------------
Magnitude (a.u.)       :      0.818582154
Magnitude (Debye)      :      2.080670482

Rotational constants in cm-1:             0.179249             0.059899             0.059239
Rotational constants in MHz :          5373.758179          1795.712853          1775.927114

                             ****ORCA TERMINATED NORMALLY****
TOTAL RUN TIME: 0 days 0 hours 0 minutes 14 seconds 200 msec
