                         Program Version 6.0.0  -   RELEASE  -
|  1> ! r2scan-3c def2/J RI DEFGRID2 scfconv6 printgap
|  2> %output
|  3>     printlevel normal
|  4> end
|  5> %cpcm
|  6>     smd true
|  7>     smdsolvent "water"
|  8> end
|  9> * xyz 0 1
| 10> C -0.4589895111 -0.9669990795 0.0040580479
| 11> C 0.745918275 -0.0481606754 0.0003223101
| 12> F 0.801064857 0.7565935532 1.0709636913
| 13> F 0.7997193284 0.7478553334 -1.076776002
| 14> F 1.8927535568 -0.7527817603 0.0023521106
| 15> Cl -1.9438605261 0.0309413657 -2.53285e-05
| 16> H -0.4477969184 -1.5841308028 -0.8943150269
| 17> H -0.4473927922 -1.5754018412 0.9082294579
| 18> *
| 19>
| 20>                          ****END OF INPUT****

CARTESIAN COORDINATES (ANGSTROEM)
---------------------------------
  C     -0.458990   -0.966999    0.004058
  C      0.745918   -0.048161    0.000322
  F      0.801065    0.756594    1.070964
  F      0.799719    0.747855   -1.076776
  F      1.892754   -0.752782    0.002352
  Cl    -1.943861    0.030941   -0.000025
  H     -0.447797   -1.584131   -0.894315
  H     -0.447393   -1.575402    0.908229

 Total Charge           Charge          ....    0
 Multiplicity           Mult            ....    1
 Number of Electrons    NEL             ....   58
 Basis Dimension        Dim             ....  147

ORBITAL ENERGIES
----------------

  NO   OCC          E(Eh)            E(eV)
   0   2.0000    -101.224719     -2754.4646
   1   2.0000     -24.525884      -667.3832
   2   2.0000     -24.525149      -667.3632
   3   2.0000     -24.525099      -667.3619
   4   2.0000     -10.293451      -280.0990
   5   2.0000     -10.115776      -275.2643
   6   2.0000      -9.380394      -255.2535
   7   2.0000      -7.127070      -193.9374
   8   2.0000      -7.116353      -193.6458
   9   2.0000      -7.116098      -193.6389
  10   2.0000      -1.285972       -34.9931
  11   2.0000      -1.195165       -32.5221
  12   2.0000      -1.194181       -32.4953
  13   2.0000      -0.844489       -22.9797
  14   2.0000      -0.722970       -19.6730
  15   2.0000      -0.635585       -17.2952
  16   2.0000      -0.567364       -15.4388
  17   2.0000      -0.565664       -15.3925
  18   2.0000      -0.522569       -14.2198
  19   2.0000      -0.446139       -12.1401
  20   2.0000      -0.438549       -11.9335
  21   2.0000      -0.430651       -11.7186
  22   2.0000      -0.418809       -11.3964
  23   2.0000      -0.387029       -10.5316
  24   2.0000      -0.386359       -10.5134
  25   2.0000      -0.375301       -10.2125
  26   2.0000      -0.374885       -10.2011
  27   2.0000      -0.291137        -7.9222
  28   2.0000      -0.286379        -7.7928
  29   0.0000      -0.019924        -0.5422
  30   0.0000       0.092392         2.5141
  31   0.0000       0.096492         2.6257
  32   0.0000       0.127085         3.4581
  33   0.0000       0.138836         3.7779

MULLIKEN ATOMIC CHARGES
-----------------------
   0 C :   -0.182720
   1 C :    0.536814
   2 F :   -0.210553
   3 F :   -0.210602
   4 F :   -0.209956
   5 Cl:   -0.179316
   6 H :    0.228245
   7 H :    0.228087
Sum of atomic charges:    0.0000000

LOEWDIN ATOMIC CHARGES
----------------------
   0 C :   -0.272288
   1 C :    0.472096
   2 F :   -0.217138
   3 F :   -0.217214
   4 F :   -0.214732
   5 Cl:    0.047766
   6 H :    0.200787
   7 H :    0.200723

  Mayer bond orders larger than 0.100000
B(  0-C ,  1-C ) :   1.0003 B(  0-C ,  5-Cl) :   0.9760 B(  0-C ,  6-H ) :   0.9191
B(  0-C ,  7-H ) :   0.9191 B(  1-C ,  2-F ) :   1.0187 B(  1-C ,  3-F ) :   1.0187
B(  1-C ,  4-F ) :   1.0129

Dispersion correction           -0.001682288
FINAL SINGLE POINT ENERGY      -837.118201592621

DIPOLE MOMENT
-------------

Method             : SCF
Type of density    : Electron Density
Multiplicity       :   1
Irrep              :   0
Energy             :  -837.1277668590723806 Eh
Relativity type    :
Basis              : AO
                                X                 Y                 Z
Electronic contribution:      1.357001552       2.592900830      -0.011455080
Nuclear contribution   :     -1.467691082      -3.702188062       0.016294243
                        -----------------------------------------
Total Dipole Moment    :     -0.110689530      -1.109287232       0.004839164
                        -----------------------------------------
Magnitude (a.u.)       :      1.114806599
Magnitude (Debye)      :      2.833613183

Rotational constants in cm-1:             0.179249             0.059899             0.059239
Rotational constants in MHz :          5373.758179          1795.712853          1775.927114

                             ****ORCA TERMINATED NORMALLY****
TOTAL RUN TIME: 0 days 0 hours 0 minutes 16 seconds 75 msec
