                         Program Version 6.0.0  -   RELEASE  -
|  1> ! r2scan-3c def2/J RI DEFGRID2 scfconv6 printgap
|  2> %output
|  3>     printlevel normal
|  4> end
|  5> * xyz 0 1
|  6> C 1.63346661 1.29861e-05 -1.40593e-05
|  7> Br -0.3197609989 1.2154e-06 -7.0329e-06
|  8> H 1.9620701077 0.7965599866 -0.6582055697
|  9> H 1.9605754904 0.1718564032 1.0193428725
| 10> H 1.9615254718 -0.9686674864 -0.3604122438
| 11> *
| 12>
| 13>                          ****END OF INPUT****

CARTESIAN COORDINATES (ANGSTROEM)
---------------------------------
  C      1.633467    0.000013   -0.000014
  Br    -0.319761    0.000001   -0.000007
  H      1.962070    0.796560   -0.658206
  H      1.960575    0.171856    1.019343
  H      1.961525   -0.968667   -0.360412

 Total Charge           Charge          ....    0
 Multiplicity           Mult            ....    1
 Number of Electrons    NEL             ....   44
 Basis Dimension        Dim             ....   70

ORBITAL ENERGIES
----------------

  NO   OCC          E(Eh)            E(eV)
   0   2.0000    -482.217830    -13121.8143
   1   2.0000     -62.289759     -1694.9905
   2   2.0000     -56.070378     -1525.7525
   3   2.0000     -56.067395     -1525.6714
   4   2.0000     -56.067395     -1525.6714
   5   2.0000     -10.090711      -274.5822
   6   2.0000      -8.621905      -234.6140
   7   2.0000      -6.429912      -174.9668
   8   2.0000      -6.415395      -174.5718
   9   2.0000      -6.415394      -174.5717
  10   2.0000      -2.527311       -68.7716
  11   2.0000      -2.523690       -68.6731
  12   2.0000      -2.523689       -68.6731
  13   2.0000      -2.512894       -68.3793
  14   2.0000      -2.512888       -68.3792
  15   2.0000      -0.771363       -20.9899
  16   2.0000      -0.641158       -17.4468
  17   2.0000      -0.418093       -11.3769
  18   2.0000      -0.418073       -11.3763
  19   2.0000      -0.367078        -9.9887
  20   2.0000      -0.253929        -6.9098
  21   2.0000      -0.253913        -6.9093
  22   0.0000      -0.029249        -0.7959
  23   0.0000       0.099402         2.7049
  24   0.0000       0.158891         4.3236
  25   0.0000       0.158919         4.3244
  26   0.0000       0.189964         5.1692

MULLIKEN ATOMIC CHARGES
-----------------------
   0 C :   -0.329317
   1 Br:   -0.169690
   2 H :    0.166352
   3 H :    0.166321
   4 H :    0.166335
Sum of atomic charges:    0.0000000

LOEWDIN ATOMIC CHARGES
----------------------
   0 C :   -0.506138
   1 Br:    0.045897
   2 H :    0.153409
   3 H :    0.153408
   4 H :    0.153424

  Mayer bond orders larger than 0.100000
B(  0-C ,  1-Br) :   0.9745 B(  0-C ,  2-H ) :   0.9583 B(  0-C ,  3-H ) :   0.9584
B(  0-C ,  4-H ) :   0.9584

Dispersion correction           -0.000608834
FINAL SINGLE POINT ENERGY     -2614.030276196067

DIPOLE MOMENT
-------------

Method             : SCF
Type of density    : Electron Density
Multiplicity       :   1
Irrep              :   0
Energy             : -2614.0327337446683487 Eh
Relativity type    :
Basis              : AO
                                X                 Y                 Z
Electronic contribution:     -7.665876950       0.000212587      -0.000557845
Nuclear contribution   :      8.489502856      -0.000246859       0.000745538
                        -----------------------------------------
Total Dipole Moment    :      0.823625907      -0.000034272       0.000187694
                        -----------------------------------------
Magnitude (a.u.)       :      0.823625929
Magnitude (Debye)      :      2.093490738

Rotational constants in cm-1:             5.218783             0.315297             0.315296
Rotational constants in MHz :        156455.177407          9452.361872          9452.331990

                             ****ORCA TERMINATED NORMALLY****
TOTAL RUN TIME: 0 days 0 hours 0 minutes 6 seconds 3 msec
