                         Program Version 6.0.0  -   RELEASE  -
|  1> ! r2scan-3c def2/J RI DEFGRID2 scfconv6 printgap
|  2> %output
|  3>     printlevel normal
|  4> end
|  5> %cpcm
|  6>     smd true
|  7>     smdsolvent "water"
|  8> end
|  9> * xyz 0 1
| 10> C 1.63346661 1.29861e-05 -1.40593e-05
| 11> Br -0.3197609989 1.2154e-06 -7.0329e-06
| 12> H 1.9620701077 0.7965599866 -0.6582055697
| 13> H 1.9605754904 0.1718564032 1.0193428725
| 14> H 1.9615254718 -0.9686674864 -0.3604122438
| 15> *
| 16>
| 17>                          ****END OF INPUT****

CARTESIAN COORDINATES (ANGSTROEM)
---------------------------------
  C      1.633467    0.000013   -0.000014
  Br    -0.319761    0.000001   -0.000007
  H      1.962070    0.796560   -0.658206
  H      1.960575    0.171856    1.019343
  H      1.961525   -0.968667   -0.360412

 Total Charge           Charge          ....    0
 Multiplicity           Mult            ....    1
 Number of Electrons    NEL             ....   44
 Basis Dimension        Dim             ....   70

ORBITAL ENERGIES
----------------

  NO   OCC          E(Eh)            E(eV)
   0   2.0000    -482.213240    -13121.6894
   1   2.0000     -62.285303     -1694.8693
   2   2.0000     -56.065814     -1525.6284
   3   2.0000     -56.062984     -1525.5513
   4   2.0000     -56.062984     -1525.5513
   5   2.0000     -10.074778      -274.1486
   6   2.0000      -8.617611      -234.4971
   7   2.0000      -6.425051      -174.8345
   8   2.0000      -6.411399      -174.4630
   9   2.0000      -6.411398      -174.4630
  10   2.0000      -2.522630       -68.6442
  11   2.0000      -2.519206       -68.5511
  12   2.0000      -2.519205       -68.5511
  13   2.0000      -2.509037       -68.2744
  14   2.0000      -2.509032       -68.2742
  15   2.0000      -0.763132       -20.7659
  16   2.0000      -0.628295       -17.0968
  17   2.0000      -0.401047       -10.9130
  18   2.0000      -0.401021       -10.9123
  19   2.0000      -0.358204        -9.7472
  20   2.0000      -0.250486        -6.8161
  21   2.0000      -0.250472        -6.8157
  22   0.0000      -0.019986        -0.5439
  23   0.0000       0.114071         3.1040
  24   0.0000       0.177076         4.8185
  25   0.0000       0.177108         4.8194
  26   0.0000       0.209877         5.7111

MULLIKEN ATOMIC CHARGES
-----------------------
   0 C :   -0.345780
   1 Br:   -0.214828
   2 H :    0.186967
   3 H :    0.186794
   4 H :    0.186846
Sum of atomic charges:    0.0000000

LOEWDIN ATOMIC CHARGES
----------------------
   0 C :   -0.499298
   1 Br:    0.013894
   2 H :    0.161829
   3 H :    0.161773
   4 H :    0.161802

  Mayer bond orders larger than 0.100000
B(  0-C ,  1-Br) :   0.9477 B(  0-C ,  2-H ) :   0.9523 B(  0-C ,  3-H ) :   0.9524
B(  0-C ,  4-H ) :   0.9524

Dispersion correction           -0.000608834
FINAL SINGLE POINT ENERGY     -2614.032255002997

DIPOLE MOMENT
-------------

Method             : SCF
Type of density    : Electron Density
Multiplicity       :   1
Irrep              :   0
Energy             : -2614.0347125515986590 Eh
Relativity type    :
Basis              : AO
                                X                 Y                 Z
Electronic contribution:     -7.446391490       0.000307692      -0.000624518
Nuclear contribution   :      8.489502856      -0.000246859       0.000745538
                        -----------------------------------------
Total Dipole Moment    :      1.043111366       0.000060832       0.000121021
                        -----------------------------------------
Magnitude (a.u.)       :      1.043111375
Magnitude (Debye)      :      2.651378407

Rotational constants in cm-1:             5.218783             0.315297             0.315296
Rotational constants in MHz :        156455.177407          9452.361872          9452.331990

                             ****ORCA TERMINATED NORMALLY****
TOTAL RUN TIME: 0 days 0 hours 0 minutes 6 seconds 525 msec
