                         Program Version 6.0.0  -   RELEASE  -
|  1> ! pbe def2-sv(p) def2/J RI DEFGRID1 loosescf d4 GCP(DFT/SV(P)) printgap
|  2> %output
|  3>     printlevel normal
|  4> end
|  5> * xyz 0 1
|  6> C 1.6867199397 -1.0677806787 0.1692100868
|  7> C 1.0384544061 0.2565367449 -0.2198499542
|  8> C -0.459015699 0.3413954107 -0.0411308561
|  9> O -1.0498534984 1.4006290313 -0.0738591899
| 10> O -1.1382183685 -0.7838872511 0.141656924
| 11> H 2.7659316635 -0.9667229111 0.094604775
| 12> H 1.44894631 -1.3325626775 1.1969594254
| 13> H 1.390464189 -1.8731407799 -0.4989309142
| 14> H 1.4643421081 1.0812634568 0.3542678249
| 15> H 1.2323383925 0.4802422751 -1.2722527784
| 16> H -0.5737759593 -1.5800746658 0.1427242388
| 17> *
| 18>
| 19>                          ****END OF INPUT****

CARTESIAN COORDINATES (ANGSTROEM)
---------------------------------
  C      1.686720   -1.067781    0.169210
  C      1.038454    0.256537   -0.219850
  C     -0.459016    0.341395   -0.041131
  O     -1.049853    1.400629   -0.073859
  O     -1.138218   -0.783887    0.141657
  H      2.765932   -0.966723    0.094605
  H      1.448946   -1.332563    1.196959
  H      1.390464   -1.873141   -0.498931
  H      1.464342    1.081263    0.354268
  H      1.232338    0.480242   -1.272253
  H     -0.573776   -1.580075    0.142724

 Total Charge           Charge          ....    0
 Multiplicity           Mult            ....    1
 Number of Electrons    NEL             ....   40
 Basis Dimension        Dim             ....   82

ORBITAL ENERGIES
----------------

  NO   OCC          E(Eh)            E(eV)
   0   2.0000     -18.801281      -511.6089
   1   2.0000     -18.723901      -509.5033
   2   2.0000     -10.011202      -272.4187
   3   2.0000      -9.914421      -269.7851
   4   2.0000      -9.909976      -269.6642
   5   2.0000      -1.004500       -27.3338
   6   2.0000      -0.908038       -24.7090
   7   2.0000      -0.722333       -19.6557
   8   2.0000      -0.606042       -16.4912
   9   2.0000      -0.566421       -15.4131
  10   2.0000      -0.468730       -12.7548
  11   2.0000      -0.442832       -12.0501
  12   2.0000      -0.394464       -10.7339
  13   2.0000      -0.380919       -10.3653
  14   2.0000      -0.365022        -9.9328
  15   2.0000      -0.348925        -9.4947
  16   2.0000      -0.331565        -9.0223
  17   2.0000      -0.318323        -8.6620
  18   2.0000      -0.263707        -7.1758
  19   2.0000      -0.212218        -5.7747
  20   0.0000      -0.020735        -0.5642
  21   0.0000       0.003189         0.0868
  22   0.0000       0.057188         1.5562
  23   0.0000       0.075180         2.0458
  24   0.0000       0.081814         2.2263

MULLIKEN ATOMIC CHARGES
-----------------------
   0 C :   -0.350160
   1 C :   -0.222792
   2 C :    0.096843
   3 O :   -0.189416
   4 O :   -0.276698
   5 H :    0.124292
   6 H :    0.126572
   7 H :    0.116245
   8 H :    0.129018
   9 H :    0.135253
  10 H :    0.310843
Sum of atomic charges:    0.0000000

LOEWDIN ATOMIC CHARGES
----------------------
   0 C :   -0.361321
   1 C :   -0.273495
   2 C :    0.020118
   3 O :   -0.159052
   4 O :   -0.198046
   5 H :    0.136263
   6 H :    0.124914
   7 H :    0.119185
   8 H :    0.147236
   9 H :    0.148882
  10 H :    0.295316

  Mayer bond orders larger than 0.100000
B(  0-C ,  1-C ) :   1.1116 B(  0-C ,  5-H ) :   0.9371 B(  0-C ,  6-H ) :   0.9527
B(  0-C ,  7-H ) :   0.9384 B(  1-C ,  2-C ) :   1.0048 B(  1-C ,  8-H ) :   0.9093
B(  1-C ,  9-H ) :   0.9019 B(  2-C ,  3-O ) :   2.1224 B(  2-C ,  4-O ) :   1.2473
B(  4-O , 10-H ) :   0.8156

Dispersion correction           -0.006600707
FINAL SINGLE POINT ENERGY      -267.810557293407

DIPOLE MOMENT
-------------

Method             : SCF
Type of density    : Electron Density
Multiplicity       :   1
Irrep              :   0
Energy             :  -267.8550078701608186 Eh
Relativity type    :
Basis              : AO
                                X                 Y                 Z
Electronic contribution:     -5.940979894       2.741396159      -0.064432279
Nuclear contribution   :      7.217950378      -3.922724253       0.017305087
                        -----------------------------------------
Total Dipole Moment    :      1.276970485      -1.181328095      -0.047127192
                        -----------------------------------------
Magnitude (a.u.)       :      1.740232932
Magnitude (Debye)      :      4.423320586

Rotational constants in cm-1:             0.324648             0.131998             0.097859
Rotational constants in MHz :          9732.702503          3957.202910          2933.736205

                             ****ORCA TERMINATED NORMALLY****
TOTAL RUN TIME: 0 days 0 hours 0 minutes 5 seconds 442 msec
