                         Program Version 6.0.0  -   RELEASE  -
|  1> ! pbe def2-sv(p) def2/J RI DEFGRID1 loosescf d4 GCP(DFT/SV(P)) printgap
|  2> %output
|  3>     printlevel normal
|  4> end
|  5> * xyz 0 1
|  6> C -2.3222601548 -0.6782693726 -0.7868713484
|  7> C -1.1127914959 -0.5565739053 0.1517020161
|  8> H -1.3520303612 -1.0143740069 1.1258529152
|  9> C -0.7248026896 0.9093672219 0.437055558
| 10> H -1.5630187269 1.5578570085 0.1420703265
| 11> C 0.5145811631 1.2925746408 -0.4002514164
| 12> H 0.8155939971 2.3177108125 -0.1588445796
| 13> C 1.7032806626 0.3679259626 -0.0635117146
| 14> H 2.3423165068 0.3113950733 -0.9591011049
| 15> C 1.1731044721 -1.0503994209 0.2639846197
| 16> H 0.9945066202 -1.1140716547 1.3491623857
| 17> O -0.0364878322 -1.2685786287 -0.4371563422
| 18> O 2.0686648317 -2.053707447 -0.0539539911
| 19> O 2.4134739998 0.9293267944 1.008580313
| 20> O 0.2267834526 1.2894293851 -1.7741668368
| 21> O -0.482116963 1.0129787549 1.8197906979
| 22> O -3.48466147 -0.1227445123 -0.2342780017
| 23> H -2.4567230526 -1.737073355 -1.037671697
| 24> H -2.1364153798 -0.1189713642 -1.7058509769
| 25> H 2.0434031779 -2.2244835713 -1.0081546378
| 26> H 3.1589976793 0.3574337321 1.2410562021
| 27> H 0.0553438567 0.3771253575 -2.053416036
| 28> H -0.1887941003 1.9083080918 2.0393324803
| 29> H -3.7520319221 -0.6268387747 0.5475689953
| 30> *
| 31>
| 32>                          ****END OF INPUT****

CARTESIAN COORDINATES (ANGSTROEM)
---------------------------------
  C     -2.322260   -0.678269   -0.786871
  C     -1.112791   -0.556574    0.151702
  H     -1.352030   -1.014374    1.125853
  C     -0.724803    0.909367    0.437056
  H     -1.563019    1.557857    0.142070
  C      0.514581    1.292575   -0.400251
  H      0.815594    2.317711   -0.158845
  C      1.703281    0.367926   -0.063512
  H      2.342317    0.311395   -0.959101
  C      1.173104   -1.050399    0.263985
  H      0.994507   -1.114072    1.349162
  O     -0.036488   -1.268579   -0.437156
  O      2.068665   -2.053707   -0.053954
  O      2.413474    0.929327    1.008580
  O      0.226783    1.289429   -1.774167
  O     -0.482117    1.012979    1.819791
  O     -3.484661   -0.122745   -0.234278
  H     -2.456723   -1.737073   -1.037672
  H     -2.136415   -0.118971   -1.705851
  H      2.043403   -2.224484   -1.008155
  H      3.158998    0.357434    1.241056
  H      0.055344    0.377125   -2.053416
  H     -0.188794    1.908308    2.039332
  H     -3.752032   -0.626839    0.547569

 Total Charge           Charge          ....    0
 Multiplicity           Mult            ....    1
 Number of Electrons    NEL             ....   96
 Basis Dimension        Dim             ....  192

ORBITAL ENERGIES
----------------

  NO   OCC          E(Eh)            E(eV)
   0   2.0000     -18.783652      -511.1291
   1   2.0000     -18.764900      -510.6189
   2   2.0000     -18.758332      -510.4402
   3   2.0000     -18.755471      -510.3623
   4   2.0000     -18.753462      -510.3077
   5   2.0000     -18.752475      -510.2808
   6   2.0000      -9.986043      -271.7340
   7   2.0000      -9.949251      -270.7329
   8   2.0000      -9.941836      -270.5311
   9   2.0000      -9.940108      -270.4841
  10   2.0000      -9.939368      -270.4639
  11   2.0000      -9.938447      -270.4389
  12   2.0000      -0.991550       -26.9814
  13   2.0000      -0.941618       -25.6227
  14   2.0000      -0.936021       -25.4704
  15   2.0000      -0.930244       -25.3132
  16   2.0000      -0.924949       -25.1692
  17   2.0000      -0.917979       -24.9795
  18   2.0000      -0.698854       -19.0168
  19   2.0000      -0.688032       -18.7223
  20   2.0000      -0.616614       -16.7789
  21   2.0000      -0.598455       -16.2848
  22   2.0000      -0.567229       -15.4351
  23   2.0000      -0.537347       -14.6220
  24   2.0000      -0.493973       -13.4417
  25   2.0000      -0.489638       -13.3237
  26   2.0000      -0.478312       -13.0155
  27   2.0000      -0.463178       -12.6037
  28   2.0000      -0.459631       -12.5072
  29   2.0000      -0.435791       -11.8585
  30   2.0000      -0.417412       -11.3584
  31   2.0000      -0.397555       -10.8180
  32   2.0000      -0.390495       -10.6259
  33   2.0000      -0.374792       -10.1986
  34   2.0000      -0.353865        -9.6292
  35   2.0000      -0.349880        -9.5207
  36   2.0000      -0.328603        -8.9417
  37   2.0000      -0.319448        -8.6926
  38   2.0000      -0.305236        -8.3059
  39   2.0000      -0.301227        -8.1968
  40   2.0000      -0.286229        -7.7887
  41   2.0000      -0.285733        -7.7752
  42   2.0000      -0.256469        -6.9789
  43   2.0000      -0.246100        -6.6967
  44   2.0000      -0.233386        -6.3508
  45   2.0000      -0.227126        -6.1804
  46   2.0000      -0.208340        -5.6692
  47   2.0000      -0.204915        -5.5760
  48   0.0000       0.016699         0.4544
  49   0.0000       0.021679         0.5899
  50   0.0000       0.025614         0.6970
  51   0.0000       0.035591         0.9685
  52   0.0000       0.054879         1.4933

MULLIKEN ATOMIC CHARGES
-----------------------
   0 C :    0.077961
   1 C :   -0.025400
   2 H :    0.072934
   3 C :    0.033357
   4 H :    0.085038
   5 C :    0.030794
   6 H :    0.071196
   7 C :    0.080698
   8 H :    0.045623
   9 C :    0.155572
  10 H :    0.073062
  11 O :   -0.320868
  12 O :   -0.384608
  13 O :   -0.415773
  14 O :   -0.417816
  15 O :   -0.409105
  16 O :   -0.426626
  17 H :    0.087782
  18 H :    0.074595
  19 H :    0.301912
  20 H :    0.304441
  21 H :    0.298922
  22 H :    0.304547
  23 H :    0.301761
Sum of atomic charges:    0.0000000

LOEWDIN ATOMIC CHARGES
----------------------
   0 C :   -0.127150
   1 C :   -0.071518
   2 H :    0.108304
   3 C :   -0.080006
   4 H :    0.109640
   5 C :   -0.070859
   6 H :    0.116270
   7 C :   -0.092622
   8 H :    0.098885
   9 C :   -0.007805
  10 H :    0.105598
  11 O :   -0.162399
  12 O :   -0.297011
  13 O :   -0.317278
  14 O :   -0.310372
  15 O :   -0.314974
  16 O :   -0.323410
  17 H :    0.102611
  18 H :    0.112152
  19 H :    0.286830
  20 H :    0.289015
  21 H :    0.270590
  22 H :    0.288038
  23 H :    0.287473

  Mayer bond orders larger than 0.100000
B(  0-C ,  1-C ) :   1.0366 B(  0-C , 16-O ) :   1.0673 B(  0-C , 17-H ) :   0.9160
B(  0-C , 18-H ) :   0.9045 B(  1-C ,  2-H ) :   0.8925 B(  1-C ,  3-C ) :   0.9520
B(  1-C , 11-O ) :   0.9764 B(  3-C ,  4-H ) :   0.8947 B(  3-C ,  5-C ) :   1.0023
B(  3-C , 15-O ) :   1.0615 B(  5-C ,  6-H ) :   0.8854 B(  5-C ,  7-C ) :   0.9542
B(  5-C , 14-O ) :   1.0469 B(  7-C ,  8-H ) :   0.8866 B(  7-C ,  9-C ) :   0.9960
B(  7-C , 13-O ) :   1.0729 B(  9-C , 10-H ) :   0.8647 B(  9-C , 11-O ) :   1.0190
B(  9-C , 12-O ) :   1.1277 B( 12-O , 19-H ) :   0.8418 B( 13-O , 20-H ) :   0.8432
B( 14-O , 21-H ) :   0.8252 B( 15-O , 22-H ) :   0.8430 B( 16-O , 23-H ) :   0.8491

Dispersion correction           -0.024820652
FINAL SINGLE POINT ENERGY      -685.687312164717

DIPOLE MOMENT
-------------

Method             : SCF
Type of density    : Electron Density
Multiplicity       :   1
Irrep              :   0
Energy             :  -685.8178039865013034 Eh
Relativity type    :
Basis              : AO
                                X                 Y                 Z
Electronic contribution:      2.089656336      -0.496846056       0.542189932
Nuclear contribution   :     -1.902335809      -0.008772611      -0.443570068
                        -----------------------------------------
Total Dipole Moment    :      0.187320527      -0.505618667       0.098619864
                        -----------------------------------------
Magnitude (a.u.)       :      0.548146964
Magnitude (Debye)      :      1.393278857

Rotational constants in cm-1:             0.044720             0.024062             0.021295
Rotational constants in MHz :          1340.679741           721.351199           638.409915

                             ****ORCA TERMINATED NORMALLY****
TOTAL RUN TIME: 0 days 0 hours 0 minutes 11 seconds 982 msec
