                         Program Version 6.0.0  -   RELEASE  -
|  1> ! pbe def2-sv(p) def2/J RI DEFGRID1 loosescf d4 GCP(DFT/SV(P)) printgap
|  2> %output
|  3>     printlevel normal
|  4> end
|  5> * xyz 0 1
|  6> C -2.3330895101 -0.9647039416 -0.3172448213
|  7> C -0.9403536957 -0.5127943351 0.1335763167
|  8> H -0.8487029336 -0.7101730913 1.2136213727
|  9> C -0.712065046 0.996059579 -0.1093138972
| 10> H -1.2768952761 1.32421232 -0.9899312182
| 11> C 0.7847362839 1.2539399631 -0.4058668929
| 12> H 1.0140813317 2.2851969489 -0.1161333473
| 13> C 1.6493390552 0.2956464648 0.432588613
| 14> H 2.7019877362 0.4588512163 0.1760515213
| 15> C 1.3095266255 -1.167190834 0.0489140054
| 16> H 1.2978221818 -1.7772570878 0.9767315017
| 17> O 0.0342052611 -1.2708998343 -0.5607416436
| 18> O 2.2564797472 -1.6195398834 -0.845566684
| 19> O 1.3842342423 0.5562856848 1.7886299696
| 20> O 1.082356961 1.164941437 -1.7717090567
| 21> O -1.1899446205 1.7661631259 0.9627160124
| 22> O -3.3400644975 -0.4606715709 0.521084042
| 23> H -2.3963647862 -2.0534075082 -0.2571618617
| 24> H -2.4957245114 -0.6610982583 -1.3597998401
| 25> H 2.0155949358 -2.5030815901 -1.1661701558
| 26> H 2.1308969873 0.2847236546 2.3402271293
| 27> H 0.9816539196 0.2453670366 -2.0623155427
| 28> H -0.6138168545 1.6241041284 1.7305463285
| 29> H -3.2354069483 0.4995531441 0.6057175244
| 30> *
| 31>
| 32>                          ****END OF INPUT****

CARTESIAN COORDINATES (ANGSTROEM)
---------------------------------
  C     -2.333090   -0.964704   -0.317245
  C     -0.940354   -0.512794    0.133576
  H     -0.848703   -0.710173    1.213621
  C     -0.712065    0.996060   -0.109314
  H     -1.276895    1.324212   -0.989931
  C      0.784736    1.253940   -0.405867
  H      1.014081    2.285197   -0.116133
  C      1.649339    0.295646    0.432589
  H      2.701988    0.458851    0.176052
  C      1.309527   -1.167191    0.048914
  H      1.297822   -1.777257    0.976732
  O      0.034205   -1.270900   -0.560742
  O      2.256480   -1.619540   -0.845567
  O      1.384234    0.556286    1.788630
  O      1.082357    1.164941   -1.771709
  O     -1.189945    1.766163    0.962716
  O     -3.340064   -0.460672    0.521084
  H     -2.396365   -2.053408   -0.257162
  H     -2.495725   -0.661098   -1.359800
  H      2.015595   -2.503082   -1.166170
  H      2.130897    0.284724    2.340227
  H      0.981654    0.245367   -2.062316
  H     -0.613817    1.624104    1.730546
  H     -3.235407    0.499553    0.605718

 Total Charge           Charge          ....    0
 Multiplicity           Mult            ....    1
 Number of Electrons    NEL             ....   96
 Basis Dimension        Dim             ....  192

ORBITAL ENERGIES
----------------

  NO   OCC          E(Eh)            E(eV)
   0   2.0000     -18.783821      -511.1338
   1   2.0000     -18.782159      -511.0885
   2   2.0000     -18.779820      -511.0249
   3   2.0000     -18.753133      -510.2987
   4   2.0000     -18.746904      -510.1292
   5   2.0000     -18.739974      -509.9406
   6   2.0000      -9.999483      -272.0998
   7   2.0000      -9.954154      -270.8663
   8   2.0000      -9.943230      -270.5690
   9   2.0000      -9.942097      -270.5382
  10   2.0000      -9.939406      -270.4650
  11   2.0000      -9.929404      -270.1928
  12   2.0000      -0.998114       -27.1601
  13   2.0000      -0.957600       -26.0576
  14   2.0000      -0.939613       -25.5682
  15   2.0000      -0.926623       -25.2147
  16   2.0000      -0.923760       -25.1368
  17   2.0000      -0.914735       -24.8912
  18   2.0000      -0.697925       -18.9915
  19   2.0000      -0.694540       -18.8994
  20   2.0000      -0.622559       -16.9407
  21   2.0000      -0.593142       -16.1402
  22   2.0000      -0.567588       -15.4449
  23   2.0000      -0.529790       -14.4163
  24   2.0000      -0.520110       -14.1529
  25   2.0000      -0.495253       -13.4765
  26   2.0000      -0.478586       -13.0230
  27   2.0000      -0.471872       -12.8403
  28   2.0000      -0.458233       -12.4692
  29   2.0000      -0.433261       -11.7896
  30   2.0000      -0.421100       -11.4587
  31   2.0000      -0.397024       -10.8036
  32   2.0000      -0.384294       -10.4572
  33   2.0000      -0.375911       -10.2290
  34   2.0000      -0.364814        -9.9271
  35   2.0000      -0.347488        -9.4556
  36   2.0000      -0.341815        -9.3013
  37   2.0000      -0.323326        -8.7982
  38   2.0000      -0.312571        -8.5055
  39   2.0000      -0.290982        -7.9180
  40   2.0000      -0.288103        -7.8397
  41   2.0000      -0.275946        -7.5089
  42   2.0000      -0.263384        -7.1671
  43   2.0000      -0.256592        -6.9822
  44   2.0000      -0.252053        -6.8587
  45   2.0000      -0.221364        -6.0236
  46   2.0000      -0.213868        -5.8196
  47   2.0000      -0.197409        -5.3718
  48   0.0000      -0.001382        -0.0376
  49   0.0000       0.017879         0.4865
  50   0.0000       0.035233         0.9587
  51   0.0000       0.051411         1.3990
  52   0.0000       0.057379         1.5614

MULLIKEN ATOMIC CHARGES
-----------------------
   0 C :    0.093014
   1 C :   -0.016534
   2 H :    0.060770
   3 C :    0.051293
   4 H :    0.069967
   5 C :    0.053605
   6 H :    0.077420
   7 C :   -0.000987
   8 H :    0.092476
   9 C :    0.180462
  10 H :    0.047168
  11 O :   -0.318739
  12 O :   -0.378023
  13 O :   -0.420559
  14 O :   -0.412721
  15 O :   -0.429406
  16 O :   -0.442466
  17 H :    0.083648
  18 H :    0.070638
  19 H :    0.311623
  20 H :    0.317141
  21 H :    0.297233
  22 H :    0.309552
  23 H :    0.303423
Sum of atomic charges:   -0.0000000

LOEWDIN ATOMIC CHARGES
----------------------
   0 C :   -0.116791
   1 C :   -0.083345
   2 H :    0.104983
   3 C :   -0.083220
   4 H :    0.116657
   5 C :   -0.067657
   6 H :    0.120259
   7 C :   -0.091125
   8 H :    0.119312
   9 C :   -0.006753
  10 H :    0.081542
  11 O :   -0.163781
  12 O :   -0.290466
  13 O :   -0.313491
  14 O :   -0.309273
  15 O :   -0.313393
  16 O :   -0.335352
  17 H :    0.112385
  18 H :    0.095390
  19 H :    0.293469
  20 H :    0.297339
  21 H :    0.272816
  22 H :    0.280332
  23 H :    0.280163

  Mayer bond orders larger than 0.100000
B(  0-C ,  1-C ) :   1.0456 B(  0-C , 16-O ) :   1.0844 B(  0-C , 17-H ) :   0.9192
B(  0-C , 18-H ) :   0.9093 B(  1-C ,  2-H ) :   0.8656 B(  1-C ,  3-C ) :   0.9708
B(  1-C , 11-O ) :   0.9963 B(  3-C ,  4-H ) :   0.8829 B(  3-C ,  5-C ) :   0.9775
B(  3-C , 15-O ) :   1.0247 B(  5-C ,  6-H ) :   0.8884 B(  5-C ,  7-C ) :   1.0125
B(  5-C , 14-O ) :   1.0718 B(  7-C ,  8-H ) :   0.8948 B(  7-C ,  9-C ) :   0.9261
B(  7-C , 13-O ) :   1.0490 B(  9-C , 10-H ) :   0.9006 B(  9-C , 11-O ) :   1.0156
B(  9-C , 12-O ) :   1.1594 B( 12-O , 19-H ) :   0.8366 B( 13-O , 20-H ) :   0.8406
B( 14-O , 21-H ) :   0.8325 B( 15-O , 22-H ) :   0.8268 B( 16-O , 23-H ) :   0.8331

Dispersion correction           -0.024993194
FINAL SINGLE POINT ENERGY      -685.693651648657

DIPOLE MOMENT
-------------

Method             : SCF
Type of density    : Electron Density
Multiplicity       :   1
Irrep              :   0
Energy             :  -685.8257131696810802 Eh
Relativity type    :
Basis              : AO
                                X                 Y                 Z
Electronic contribution:      1.827412327       0.140401708      -0.429888391
Nuclear contribution   :     -0.676688484      -0.920210847       1.025301980
                        -----------------------------------------
Total Dipole Moment    :      1.150723843      -0.779809140       0.595413589
                        -----------------------------------------
Magnitude (a.u.)       :      1.512211956
Magnitude (Debye)      :      3.843737325

Rotational constants in cm-1:             0.043221             0.025203             0.021691
Rotational constants in MHz :          1295.744862           755.560324           650.278373

                             ****ORCA TERMINATED NORMALLY****
TOTAL RUN TIME: 0 days 0 hours 0 minutes 12 seconds 388 msec
