                         Program Version 6.0.0  -   RELEASE  -
|  1> ! pbe def2-sv(p) def2/J RI DEFGRID1 loosescf d4 GCP(DFT/SV(P)) printgap
|  2> %output
|  3>     printlevel normal
|  4> end
|  5> * xyz 0 1
|  6> C -2.4343930173 -1.0920690852 -0.310204334
|  7> C -1.0784468838 -0.5953749596 0.2111229039
|  8> H -1.1185174515 -0.5543692231 1.3116081205
|  9> C -0.7377381666 0.8040485867 -0.3201187582
| 10> H -0.712643032 0.756613442 -1.4225486767
| 11> C 0.6523986042 1.2301879631 0.1861989794
| 12> H 0.6260081489 1.3243381925 1.278389772
| 13> C 1.6829615525 0.1638381817 -0.1905069855
| 14> H 1.7752877469 0.1115303216 -1.2877796963
| 15> C 1.1937201724 -1.2165942146 0.2909761806
| 16> H 1.1675095433 -1.210786533 1.4015822779
| 17> O -0.0914956485 -1.5182543106 -0.2020940744
| 18> O 2.0779814333 -2.1628067445 -0.1863720137
| 19> O 2.9133656936 0.4891875055 0.3968262564
| 20> O 0.9703438465 2.5138619388 -0.28695892
| 21> O -1.7240515399 1.7124408372 0.0971667686
| 22> O -3.5133562002 -0.4805078357 0.3409955936
| 23> H -2.5128409399 -2.1629581322 -0.1116799597
| 24> H -2.4828384734 -0.9318224124 -1.3952620956
| 25> H 1.7036974583 -3.0502437575 -0.0729253062
| 26> H 3.5482737033 -0.2189296116 0.2095514257
| 27> H 1.3146956471 2.4636560669 -1.1903665203
| 28> H -1.3583803099 2.6100889246 0.0365456346
| 29> H -3.3971340183 0.4828033882 0.2893380372
| 30> *
| 31>
| 32>                          ****END OF INPUT****

CARTESIAN COORDINATES (ANGSTROEM)
---------------------------------
  C     -2.434393   -1.092069   -0.310204
  C     -1.078447   -0.595375    0.211123
  H     -1.118517   -0.554369    1.311608
  C     -0.737738    0.804049   -0.320119
  H     -0.712643    0.756613   -1.422549
  C      0.652399    1.230188    0.186199
  H      0.626008    1.324338    1.278390
  C      1.682962    0.163838   -0.190507
  H      1.775288    0.111530   -1.287780
  C      1.193720   -1.216594    0.290976
  H      1.167510   -1.210787    1.401582
  O     -0.091496   -1.518254   -0.202094
  O      2.077981   -2.162807   -0.186372
  O      2.913366    0.489188    0.396826
  O      0.970344    2.513862   -0.286959
  O     -1.724052    1.712441    0.097167
  O     -3.513356   -0.480508    0.340996
  H     -2.512841   -2.162958   -0.111680
  H     -2.482838   -0.931822   -1.395262
  H      1.703697   -3.050244   -0.072925
  H      3.548274   -0.218930    0.209551
  H      1.314696    2.463656   -1.190367
  H     -1.358380    2.610089    0.036546
  H     -3.397134    0.482803    0.289338

 Total Charge           Charge          ....    0
 Multiplicity           Mult            ....    1
 Number of Electrons    NEL             ....   96
 Basis Dimension        Dim             ....  192

ORBITAL ENERGIES
----------------

  NO   OCC          E(Eh)            E(eV)
   0   2.0000     -18.781216      -511.0629
   1   2.0000     -18.775763      -510.9145
   2   2.0000     -18.769492      -510.7438
   3   2.0000     -18.767749      -510.6964
   4   2.0000     -18.758440      -510.4431
   5   2.0000     -18.733208      -509.7565
   6   2.0000      -9.995758      -271.9984
   7   2.0000      -9.952515      -270.8217
   8   2.0000      -9.951947      -270.8062
   9   2.0000      -9.950219      -270.7592
  10   2.0000      -9.947205      -270.6772
  11   2.0000      -9.927202      -270.1329
  12   2.0000      -0.995156       -27.0796
  13   2.0000      -0.959023       -26.0963
  14   2.0000      -0.943507       -25.6741
  15   2.0000      -0.929233       -25.2857
  16   2.0000      -0.925749       -25.1909
  17   2.0000      -0.909559       -24.7504
  18   2.0000      -0.712121       -19.3778
  19   2.0000      -0.696185       -18.9442
  20   2.0000      -0.616450       -16.7745
  21   2.0000      -0.594944       -16.1893
  22   2.0000      -0.565153       -15.3786
  23   2.0000      -0.541681       -14.7399
  24   2.0000      -0.515138       -14.0176
  25   2.0000      -0.502298       -13.6682
  26   2.0000      -0.474858       -12.9215
  27   2.0000      -0.456478       -12.4214
  28   2.0000      -0.449461       -12.2305
  29   2.0000      -0.445161       -12.1134
  30   2.0000      -0.431413       -11.7393
  31   2.0000      -0.409984       -11.1562
  32   2.0000      -0.392078       -10.6690
  33   2.0000      -0.372260       -10.1297
  34   2.0000      -0.363811        -9.8998
  35   2.0000      -0.357098        -9.7171
  36   2.0000      -0.334148        -9.0926
  37   2.0000      -0.323216        -8.7951
  38   2.0000      -0.317080        -8.6282
  39   2.0000      -0.307472        -8.3667
  40   2.0000      -0.285986        -7.7821
  41   2.0000      -0.268095        -7.2952
  42   2.0000      -0.262919        -7.1544
  43   2.0000      -0.249492        -6.7890
  44   2.0000      -0.241722        -6.5776
  45   2.0000      -0.225792        -6.1441
  46   2.0000      -0.217959        -5.9310
  47   2.0000      -0.206303        -5.6138
  48   0.0000       0.005885         0.1602
  49   0.0000       0.018990         0.5167
  50   0.0000       0.033346         0.9074
  51   0.0000       0.048665         1.3242
  52   0.0000       0.053449         1.4544

MULLIKEN ATOMIC CHARGES
-----------------------
   0 C :    0.116896
   1 C :   -0.029473
   2 H :    0.062949
   3 C :    0.066918
   4 H :    0.041900
   5 C :    0.071684
   6 H :    0.072637
   7 C :    0.030672
   8 H :    0.045889
   9 C :    0.169689
  10 H :    0.044121
  11 O :   -0.307899
  12 O :   -0.388274
  13 O :   -0.404866
  14 O :   -0.410774
  15 O :   -0.429577
  16 O :   -0.447795
  17 H :    0.086325
  18 H :    0.062743
  19 H :    0.314670
  20 H :    0.309494
  21 H :    0.305305
  22 H :    0.313512
  23 H :    0.303253
Sum of atomic charges:   -0.0000000

LOEWDIN ATOMIC CHARGES
----------------------
   0 C :   -0.116811
   1 C :   -0.070472
   2 H :    0.107151
   3 C :   -0.078141
   4 H :    0.096565
   5 C :   -0.076572
   6 H :    0.122456
   7 C :   -0.088794
   8 H :    0.100450
   9 C :   -0.003645
  10 H :    0.084046
  11 O :   -0.150036
  12 O :   -0.300420
  13 O :   -0.313272
  14 O :   -0.305595
  15 O :   -0.316566
  16 O :   -0.340388
  17 H :    0.114177
  18 H :    0.096676
  19 H :    0.295675
  20 H :    0.290103
  21 H :    0.289728
  22 H :    0.288963
  23 H :    0.274720

  Mayer bond orders larger than 0.100000
B(  0-C ,  1-C ) :   1.0304 B(  0-C , 16-O ) :   1.0926 B(  0-C , 17-H ) :   0.9202
B(  0-C , 18-H ) :   0.9052 B(  1-C ,  2-H ) :   0.8776 B(  1-C ,  3-C ) :   1.0125
B(  1-C , 11-O ) :   0.9806 B(  3-C ,  4-H ) :   0.8626 B(  3-C ,  5-C ) :   0.9981
B(  3-C , 15-O ) :   1.0476 B(  5-C ,  6-H ) :   0.8682 B(  5-C ,  7-C ) :   1.0139
B(  5-C , 14-O ) :   1.0502 B(  7-C ,  8-H ) :   0.8588 B(  7-C ,  9-C ) :   0.9947
B(  7-C , 13-O ) :   1.0973 B(  9-C , 10-H ) :   0.8850 B(  9-C , 11-O ) :   1.0163
B(  9-C , 12-O ) :   1.1639 B( 12-O , 19-H ) :   0.8354 B( 13-O , 20-H ) :   0.8382
B( 14-O , 21-H ) :   0.8450 B( 15-O , 22-H ) :   0.8190 B( 16-O , 23-H ) :   0.8215

Dispersion correction           -0.023841387
FINAL SINGLE POINT ENERGY      -685.702523697607

DIPOLE MOMENT
-------------

Method             : SCF
Type of density    : Electron Density
Multiplicity       :   1
Irrep              :   0
Energy             :  -685.8335234285812021 Eh
Relativity type    :
Basis              : AO
                                X                 Y                 Z
Electronic contribution:      2.162192628       0.200288921       0.313225425
Nuclear contribution   :     -1.348047009      -0.348373010      -0.892225436
                        -----------------------------------------
Total Dipole Moment    :      0.814145618      -0.148084089      -0.579000011
                        -----------------------------------------
Magnitude (a.u.)       :      1.009951978
Magnitude (Debye)      :      2.567093918

Rotational constants in cm-1:             0.043591             0.024515             0.016439
Rotational constants in MHz :          1306.813156           734.942458           492.817393

                             ****ORCA TERMINATED NORMALLY****
TOTAL RUN TIME: 0 days 0 hours 0 minutes 12 seconds 196 msec
