                         Program Version 6.0.0  -   RELEASE  -
|  1> ! r2scan-3c def2/J RI DEFGRID2 scfconv6 printgap
|  2> %output
|  3>     printlevel normal
|  4> end
|  5> * xyz 0 1
|  6> C -2.9235926564 -1.7483e-05 -0.0594815427
|  7> C -1.4501149351 0.000164193 0.3388298423
|  8> C -0.7403988618 -1.2475156572 -0.1879066726
|  9> C 0.7356506172 -1.2457615704 0.1994460551
| 10> C 1.4448156236 0.00016908 -0.3354476594
| 11> C 0.7353754629 1.2456672836 0.19998366
| 12> C -0.7402970988 1.2475042226 -0.188460928
| 13> C 2.9373715339 -0.0001183877 0.0353566634
| 14> H -3.4257842961 -0.8808845615 0.3337829414
| 15> H -3.4244000212 0.8842089548 0.328016485
| 16> H -3.0230527445 -0.0034610318 -1.1429816638
| 17> H -1.3838522424 0.0004451391 1.433113533
| 18> H -1.2241656734 -2.1424384508 0.2098203234
| 19> H -0.8290788597 -1.2767226763 -1.2768139603
| 20> H 0.8244525505 -1.2679036062 1.2885444027
| 21> H 1.2191305778 -2.1420443572 -0.195657024
| 22> H 1.3460060639 0.0005300732 -1.4266241646
| 23> H 0.8232697695 1.2669133987 1.2891153974
| 24> H 1.2191531866 2.1422753279 -0.1939303374
| 25> H -1.2243080907 2.142693343 0.2082943082
| 26> H -0.828177886 1.2758510066 -1.2773860679
| 27> H 3.5641459907 -0.0064042266 -0.8521886765
| 28> H 3.1889704421 -0.8756353712 0.6288729115
| 29> H 3.1918760422 0.8814844915 0.6183814148
| 30> *
| 31>
| 32>                          ****END OF INPUT****

CARTESIAN COORDINATES (ANGSTROEM)
---------------------------------
  C     -2.923593   -0.000017   -0.059482
  C     -1.450115    0.000164    0.338830
  C     -0.740399   -1.247516   -0.187907
  C      0.735651   -1.245762    0.199446
  C      1.444816    0.000169   -0.335448
  C      0.735375    1.245667    0.199984
  C     -0.740297    1.247504   -0.188461
  C      2.937372   -0.000118    0.035357
  H     -3.425784   -0.880885    0.333783
  H     -3.424400    0.884209    0.328016
  H     -3.023053   -0.003461   -1.142982
  H     -1.383852    0.000445    1.433114
  H     -1.224166   -2.142438    0.209820
  H     -0.829079   -1.276723   -1.276814
  H      0.824453   -1.267904    1.288544
  H      1.219131   -2.142044   -0.195657
  H      1.346006    0.000530   -1.426624
  H      0.823270    1.266913    1.289115
  H      1.219153    2.142275   -0.193930
  H     -1.224308    2.142693    0.208294
  H     -0.828178    1.275851   -1.277386
  H      3.564146   -0.006404   -0.852189
  H      3.188970   -0.875635    0.628873
  H      3.191876    0.881484    0.618381

 Total Charge           Charge          ....    0
 Multiplicity           Mult            ....    1
 Number of Electrons    NEL             ....   64
 Basis Dimension        Dim             ....  232

ORBITAL ENERGIES
----------------

  NO   OCC          E(Eh)            E(eV)
   0   2.0000     -10.026545      -272.8362
   1   2.0000     -10.026342      -272.8306
   2   2.0000     -10.017694      -272.5953
   3   2.0000     -10.017665      -272.5945
   4   2.0000     -10.017257      -272.5834
   5   2.0000     -10.017235      -272.5828
   6   2.0000     -10.011501      -272.4268
   7   2.0000     -10.010948      -272.4117
   8   2.0000      -0.803699       -21.8698
   9   2.0000      -0.742296       -20.1989
  10   2.0000      -0.703788       -19.1510
  11   2.0000      -0.668535       -18.1918
  12   2.0000      -0.607254       -16.5242
  13   2.0000      -0.572845       -15.5879
  14   2.0000      -0.534556       -14.5460
  15   2.0000      -0.518499       -14.1091
  16   2.0000      -0.436206       -11.8698
  17   2.0000      -0.411600       -11.2002
  18   2.0000      -0.407412       -11.0863
  19   2.0000      -0.398647       -10.8477
  20   2.0000      -0.393769       -10.7150
  21   2.0000      -0.368474       -10.0267
  22   2.0000      -0.353722        -9.6253
  23   2.0000      -0.341050        -9.2805
  24   2.0000      -0.335121        -9.1191
  25   2.0000      -0.323487        -8.8025
  26   2.0000      -0.308442        -8.3931
  27   2.0000      -0.297206        -8.0874
  28   2.0000      -0.289669        -7.8823
  29   2.0000      -0.283384        -7.7113
  30   2.0000      -0.260824        -7.0974
  31   2.0000      -0.255945        -6.9646
  32   0.0000       0.089586         2.4378
  33   0.0000       0.092198         2.5088
  34   0.0000       0.112760         3.0683
  35   0.0000       0.117132         3.1873
  36   0.0000       0.120300         3.2735

MULLIKEN ATOMIC CHARGES
-----------------------
   0 C :   -0.492973
   1 C :   -0.032522
   2 C :   -0.332627
   3 C :   -0.373746
   4 C :    0.089866
   5 C :   -0.373295
   6 C :   -0.332580
   7 C :   -0.566621
   8 H :    0.145798
   9 H :    0.145680
  10 H :    0.148182
  11 H :    0.153219
  12 H :    0.144172
  13 H :    0.152710
  14 H :    0.154613
  15 H :    0.149023
  16 H :    0.154610
  17 H :    0.154538
  18 H :    0.148989
  19 H :    0.144153
  20 H :    0.152722
  21 H :    0.150758
  22 H :    0.157722
  23 H :    0.157607
Sum of atomic charges:    0.0000000

LOEWDIN ATOMIC CHARGES
----------------------
   0 C :   -0.414838
   1 C :   -0.236817
   2 C :   -0.297035
   3 C :   -0.299415
   4 C :   -0.235222
   5 C :   -0.299423
   6 C :   -0.297025
   7 C :   -0.417429
   8 H :    0.152653
   9 H :    0.152648
  10 H :    0.153327
  11 H :    0.157056
  12 H :    0.156930
  13 H :    0.157616
  14 H :    0.157268
  15 H :    0.156704
  16 H :    0.156444
  17 H :    0.157296
  18 H :    0.156652
  19 H :    0.156908
  20 H :    0.157633
  21 H :    0.154607
  22 H :    0.156747
  23 H :    0.156715

  Mayer bond orders larger than 0.100000
B(  0-C ,  1-C ) :   0.8903 B(  0-C ,  8-H ) :   0.9769 B(  0-C ,  9-H ) :   0.9769
B(  0-C , 10-H ) :   0.9964 B(  1-C ,  2-C ) :   0.9218 B(  1-C ,  6-C ) :   0.9222
B(  1-C , 11-H ) :   0.9520 B(  2-C ,  3-C ) :   0.8815 B(  2-C , 12-H ) :   0.9445
B(  2-C , 13-H ) :   1.0099 B(  3-C ,  4-C ) :   0.9125 B(  3-C , 14-H ) :   1.0081
B(  3-C , 15-H ) :   0.9461 B(  4-C ,  5-C ) :   0.9128 B(  4-C ,  7-C ) :   0.7942
B(  4-C , 16-H ) :   0.9594 B(  5-C ,  6-C ) :   0.8811 B(  5-C , 17-H ) :   1.0081
B(  5-C , 18-H ) :   0.9460 B(  6-C , 19-H ) :   0.9444 B(  6-C , 20-H ) :   1.0101
B(  7-C , 21-H ) :   0.9790 B(  7-C , 22-H ) :   0.9927 B(  7-C , 23-H ) :   0.9926

Dispersion correction           -0.007319723
FINAL SINGLE POINT ENERGY      -314.391528196229

DIPOLE MOMENT
-------------

Method             : SCF
Type of density    : Electron Density
Multiplicity       :   1
Irrep              :   0
Energy             :  -314.3947010924171082 Eh
Relativity type    :
Basis              : AO
                                X                 Y                 Z
Electronic contribution:     -0.008752406       0.000956566       0.020763254
Nuclear contribution   :      0.013307664      -0.001024987      -0.025930992
                        -----------------------------------------
Total Dipole Moment    :      0.004555258      -0.000068421      -0.005167738
                        -----------------------------------------
Magnitude (a.u.)       :      0.006889163
Magnitude (Debye)      :      0.017510861

Rotational constants in cm-1:             0.138871             0.044353             0.036306
Rotational constants in MHz :          4163.251323          1329.680236          1088.431646

                             ****ORCA TERMINATED NORMALLY****
TOTAL RUN TIME: 0 days 0 hours 0 minutes 23 seconds 616 msec
