                         Program Version 6.0.0  -   RELEASE  -
|  1> ! r2scan-3c def2/J RI DEFGRID2 scfconv6 printgap
|  2> %output
|  3>     printlevel normal
|  4> end
|  5> %cpcm
|  6>     smd true
|  7>     smdsolvent "water"
|  8> end
|  9> * xyz 0 1
| 10> C -2.9235926564 -1.7483e-05 -0.0594815427
| 11> C -1.4501149351 0.000164193 0.3388298423
| 12> C -0.7403988618 -1.2475156572 -0.1879066726
| 13> C 0.7356506172 -1.2457615704 0.1994460551
| 14> C 1.4448156236 0.00016908 -0.3354476594
| 15> C 0.7353754629 1.2456672836 0.19998366
| 16> C -0.7402970988 1.2475042226 -0.188460928
| 17> C 2.9373715339 -0.0001183877 0.0353566634
| 18> H -3.4257842961 -0.8808845615 0.3337829414
| 19> H -3.4244000212 0.8842089548 0.328016485
| 20> H -3.0230527445 -0.0034610318 -1.1429816638
| 21> H -1.3838522424 0.0004451391 1.433113533
| 22> H -1.2241656734 -2.1424384508 0.2098203234
| 23> H -0.8290788597 -1.2767226763 -1.2768139603
| 24> H 0.8244525505 -1.2679036062 1.2885444027
| 25> H 1.2191305778 -2.1420443572 -0.195657024
| 26> H 1.3460060639 0.0005300732 -1.4266241646
| 27> H 0.8232697695 1.2669133987 1.2891153974
| 28> H 1.2191531866 2.1422753279 -0.1939303374
| 29> H -1.2243080907 2.142693343 0.2082943082
| 30> H -0.828177886 1.2758510066 -1.2773860679
| 31> H 3.5641459907 -0.0064042266 -0.8521886765
| 32> H 3.1889704421 -0.8756353712 0.6288729115
| 33> H 3.1918760422 0.8814844915 0.6183814148
| 34> *
| 35>
| 36>                          ****END OF INPUT****

CARTESIAN COORDINATES (ANGSTROEM)
---------------------------------
  C     -2.923593   -0.000017   -0.059482
  C     -1.450115    0.000164    0.338830
  C     -0.740399   -1.247516   -0.187907
  C      0.735651   -1.245762    0.199446
  C      1.444816    0.000169   -0.335448
  C      0.735375    1.245667    0.199984
  C     -0.740297    1.247504   -0.188461
  C      2.937372   -0.000118    0.035357
  H     -3.425784   -0.880885    0.333783
  H     -3.424400    0.884209    0.328016
  H     -3.023053   -0.003461   -1.142982
  H     -1.383852    0.000445    1.433114
  H     -1.224166   -2.142438    0.209820
  H     -0.829079   -1.276723   -1.276814
  H      0.824453   -1.267904    1.288544
  H      1.219131   -2.142044   -0.195657
  H      1.346006    0.000530   -1.426624
  H      0.823270    1.266913    1.289115
  H      1.219153    2.142275   -0.193930
  H     -1.224308    2.142693    0.208294
  H     -0.828178    1.275851   -1.277386
  H      3.564146   -0.006404   -0.852189
  H      3.188970   -0.875635    0.628873
  H      3.191876    0.881484    0.618381

 Total Charge           Charge          ....    0
 Multiplicity           Mult            ....    1
 Number of Electrons    NEL             ....   64
 Basis Dimension        Dim             ....  232

ORBITAL ENERGIES
----------------

  NO   OCC          E(Eh)            E(eV)
   0   2.0000     -10.019077      -272.6329
   1   2.0000     -10.018912      -272.6285
   2   2.0000     -10.010019      -272.3865
   3   2.0000     -10.009991      -272.3857
   4   2.0000     -10.009563      -272.3740
   5   2.0000     -10.009541      -272.3735
   6   2.0000     -10.004840      -272.2455
   7   2.0000     -10.004418      -272.2341
   8   2.0000      -0.796258       -21.6673
   9   2.0000      -0.735313       -20.0089
  10   2.0000      -0.696472       -18.9520
  11   2.0000      -0.662202       -18.0194
  12   2.0000      -0.600864       -16.3503
  13   2.0000      -0.565580       -15.3902
  14   2.0000      -0.527604       -14.3568
  15   2.0000      -0.510765       -13.8986
  16   2.0000      -0.428860       -11.6699
  17   2.0000      -0.404706       -11.0126
  18   2.0000      -0.399808       -10.8793
  19   2.0000      -0.391520       -10.6538
  20   2.0000      -0.387182       -10.5358
  21   2.0000      -0.361706        -9.8425
  22   2.0000      -0.347354        -9.4520
  23   2.0000      -0.333720        -9.0810
  24   2.0000      -0.328268        -8.9326
  25   2.0000      -0.316726        -8.6185
  26   2.0000      -0.300672        -8.1817
  27   2.0000      -0.290346        -7.9007
  28   2.0000      -0.281975        -7.6729
  29   2.0000      -0.275297        -7.4912
  30   2.0000      -0.253777        -6.9056
  31   2.0000      -0.248618        -6.7652
  32   0.0000       0.097021         2.6401
  33   0.0000       0.099350         2.7035
  34   0.0000       0.121442         3.3046
  35   0.0000       0.124258         3.3812
  36   0.0000       0.126497         3.4422

MULLIKEN ATOMIC CHARGES
-----------------------
   0 C :   -0.541889
   1 C :   -0.013845
   2 C :   -0.350762
   3 C :   -0.388212
   4 C :    0.093154
   5 C :   -0.387778
   6 C :   -0.350723
   7 C :   -0.607021
   8 H :    0.156502
   9 H :    0.156388
  10 H :    0.160423
  11 H :    0.159699
  12 H :    0.151238
  13 H :    0.160750
  14 H :    0.161667
  15 H :    0.154684
  16 H :    0.163270
  17 H :    0.161558
  18 H :    0.154695
  19 H :    0.151248
  20 H :    0.160747
  21 H :    0.161928
  22 H :    0.166198
  23 H :    0.166080
Sum of atomic charges:    0.0000000

LOEWDIN ATOMIC CHARGES
----------------------
   0 C :   -0.424517
   1 C :   -0.235456
   2 C :   -0.300650
   3 C :   -0.302092
   4 C :   -0.234836
   5 C :   -0.302100
   6 C :   -0.300640
   7 C :   -0.426288
   8 H :    0.154766
   9 H :    0.154763
  10 H :    0.155606
  11 H :    0.159245
  12 H :    0.158151
  13 H :    0.159646
  14 H :    0.159151
  15 H :    0.157733
  16 H :    0.158939
  17 H :    0.159165
  18 H :    0.157694
  19 H :    0.158136
  20 H :    0.159658
  21 H :    0.157073
  22 H :    0.158441
  23 H :    0.158412

  Mayer bond orders larger than 0.100000
B(  0-C ,  1-C ) :   0.8760 B(  0-C ,  8-H ) :   0.9748 B(  0-C ,  9-H ) :   0.9749
B(  0-C , 10-H ) :   0.9949 B(  1-C ,  2-C ) :   0.9194 B(  1-C ,  6-C ) :   0.9197
B(  1-C , 11-H ) :   0.9508 B(  2-C ,  3-C ) :   0.8824 B(  2-C , 12-H ) :   0.9448
B(  2-C , 13-H ) :   1.0071 B(  3-C ,  4-C ) :   0.9123 B(  3-C , 14-H ) :   1.0060
B(  3-C , 15-H ) :   0.9460 B(  4-C ,  5-C ) :   0.9126 B(  4-C ,  7-C ) :   0.7836
B(  4-C , 16-H ) :   0.9588 B(  5-C ,  6-C ) :   0.8819 B(  5-C , 17-H ) :   1.0060
B(  5-C , 18-H ) :   0.9459 B(  6-C , 19-H ) :   0.9447 B(  6-C , 20-H ) :   1.0072
B(  7-C , 21-H ) :   0.9769 B(  7-C , 22-H ) :   0.9908 B(  7-C , 23-H ) :   0.9907

Dispersion correction           -0.007319723
FINAL SINGLE POINT ENERGY      -314.388388120267

DIPOLE MOMENT
-------------

Method             : SCF
Type of density    : Electron Density
Multiplicity       :   1
Irrep              :   0
Energy             :  -314.3915610164553982 Eh
Relativity type    :
Basis              : AO
                                X                 Y                 Z
Electronic contribution:     -0.004186137       0.001017674       0.019839034
Nuclear contribution   :      0.013307664      -0.001024987      -0.025930992
                        -----------------------------------------
Total Dipole Moment    :      0.009121526      -0.000007313      -0.006091958
                        -----------------------------------------
Magnitude (a.u.)       :      0.010968785
Magnitude (Debye)      :      0.027880436

Rotational constants in cm-1:             0.138871             0.044353             0.036306
Rotational constants in MHz :          4163.251323          1329.680236          1088.431646

                             ****ORCA TERMINATED NORMALLY****
TOTAL RUN TIME: 0 days 0 hours 0 minutes 27 seconds 944 msec
