                         Program Version 6.0.0  -   RELEASE  -
|  1> ! pbe def2-sv(p) def2/J RI DEFGRID1 loosescf d4 GCP(DFT/SV(P)) printgap
|  2> %output
|  3>     printlevel normal
|  4> end
|  5> * xyz 0 1
|  6> C -2.1947539095 -0.9604539927 -0.1181506595
|  7> C -1.106896937 -0.3728209967 0.8084356692
|  8> H -1.5474246223 -0.3662367757 1.8136558164
|  9> C -0.7416983914 1.0902394483 0.4819290055
| 10> H -1.6163845429 1.5595412052 0.0165126143
| 11> C 0.4740142327 1.2521389426 -0.4531861049
| 12> H 0.791994199 2.3047342861 -0.3628432153
| 13> C 1.6225811785 0.3386977464 0.0200259918
| 14> H 2.4230750971 0.3628076079 -0.7288871138
| 15> C 1.1061607384 -1.1094950824 0.0832317408
| 16> H 1.8660540077 -1.7538130615 0.5441378456
| 17> O 0.0163322385 -1.2430523336 0.9584108753
| 18> O 0.8508837311 -1.6078603379 -1.1927628176
| 19> O 2.0861445651 0.7052167801 1.2959799799
| 20> O 0.2262831435 0.9428289855 -1.8037316602
| 21> O -0.5132491069 1.8233423239 1.6630867172
| 22> O -1.9222401289 -0.8910241702 -1.4929801186
| 23> H -3.1117322487 -0.3872081672 0.0372474313
| 24> H -2.3666933189 -1.9964124598 0.1953642089
| 25> H 0.6095364005 -0.855063537 -1.7753311209
| 26> H 2.7568867147 1.3987445965 1.2183559043
| 27> H -0.6439259184 1.2704855967 -2.0752306336
| 28> H 0.2733509374 1.4560785246 2.1020197747
| 29> H -1.230213442 -1.538827422 -1.7041836435
| 30> *
| 31>
| 32>                          ****END OF INPUT****

CARTESIAN COORDINATES (ANGSTROEM)
---------------------------------
  C     -2.194754   -0.960454   -0.118151
  C     -1.106897   -0.372821    0.808436
  H     -1.547425   -0.366237    1.813656
  C     -0.741698    1.090239    0.481929
  H     -1.616385    1.559541    0.016513
  C      0.474014    1.252139   -0.453186
  H      0.791994    2.304734   -0.362843
  C      1.622581    0.338698    0.020026
  H      2.423075    0.362808   -0.728887
  C      1.106161   -1.109495    0.083232
  H      1.866054   -1.753813    0.544138
  O      0.016332   -1.243052    0.958411
  O      0.850884   -1.607860   -1.192763
  O      2.086145    0.705217    1.295980
  O      0.226283    0.942829   -1.803732
  O     -0.513249    1.823342    1.663087
  O     -1.922240   -0.891024   -1.492980
  H     -3.111732   -0.387208    0.037247
  H     -2.366693   -1.996412    0.195364
  H      0.609536   -0.855064   -1.775331
  H      2.756887    1.398745    1.218356
  H     -0.643926    1.270486   -2.075231
  H      0.273351    1.456079    2.102020
  H     -1.230213   -1.538827   -1.704184

 Total Charge           Charge          ....    0
 Multiplicity           Mult            ....    1
 Number of Electrons    NEL             ....   96
 Basis Dimension        Dim             ....  192

ORBITAL ENERGIES
----------------

  NO   OCC          E(Eh)            E(eV)
   0   2.0000     -18.784094      -511.1412
   1   2.0000     -18.783764      -511.1322
   2   2.0000     -18.758718      -510.4507
   3   2.0000     -18.756785      -510.3981
   4   2.0000     -18.749030      -510.1870
   5   2.0000     -18.744146      -510.0541
   6   2.0000      -9.984984      -271.7052
   7   2.0000      -9.959707      -271.0174
   8   2.0000      -9.957018      -270.9442
   9   2.0000      -9.949781      -270.7473
  10   2.0000      -9.939811      -270.4760
  11   2.0000      -9.931263      -270.2434
  12   2.0000      -0.982580       -26.7374
  13   2.0000      -0.953677       -25.9509
  14   2.0000      -0.952878       -25.9291
  15   2.0000      -0.926316       -25.2063
  16   2.0000      -0.922944       -25.1146
  17   2.0000      -0.904933       -24.6245
  18   2.0000      -0.705194       -19.1893
  19   2.0000      -0.695752       -18.9324
  20   2.0000      -0.621653       -16.9161
  21   2.0000      -0.600804       -16.3487
  22   2.0000      -0.576572       -15.6893
  23   2.0000      -0.526138       -14.3169
  24   2.0000      -0.501815       -13.6551
  25   2.0000      -0.497810       -13.5461
  26   2.0000      -0.477592       -12.9960
  27   2.0000      -0.460945       -12.5429
  28   2.0000      -0.447183       -12.1685
  29   2.0000      -0.439425       -11.9574
  30   2.0000      -0.435882       -11.8610
  31   2.0000      -0.398451       -10.8424
  32   2.0000      -0.392975       -10.6934
  33   2.0000      -0.380556       -10.3555
  34   2.0000      -0.361308        -9.8317
  35   2.0000      -0.353057        -9.6072
  36   2.0000      -0.339009        -9.2249
  37   2.0000      -0.330486        -8.9930
  38   2.0000      -0.305255        -8.3064
  39   2.0000      -0.294259        -8.0072
  40   2.0000      -0.291231        -7.9248
  41   2.0000      -0.272411        -7.4127
  42   2.0000      -0.266391        -7.2489
  43   2.0000      -0.256741        -6.9863
  44   2.0000      -0.238859        -6.4997
  45   2.0000      -0.227001        -6.1770
  46   2.0000      -0.220681        -6.0050
  47   2.0000      -0.196996        -5.3605
  48   0.0000      -0.001563        -0.0425
  49   0.0000       0.012970         0.3529
  50   0.0000       0.050298         1.3687
  51   0.0000       0.057900         1.5755
  52   0.0000       0.063746         1.7346

MULLIKEN ATOMIC CHARGES
-----------------------
   0 C :    0.030868
   1 C :    0.043881
   2 H :    0.076844
   3 C :    0.059294
   4 H :    0.066525
   5 C :    0.045855
   6 H :    0.065812
   7 C :   -0.046747
   8 H :    0.094878
   9 C :    0.228266
  10 H :    0.073310
  11 O :   -0.309155
  12 O :   -0.422725
  13 O :   -0.407617
  14 O :   -0.420083
  15 O :   -0.436127
  16 O :   -0.451422
  17 H :    0.083268
  18 H :    0.087606
  19 H :    0.307844
  20 H :    0.316624
  21 H :    0.319136
  22 H :    0.301804
  23 H :    0.292065
Sum of atomic charges:    0.0000000

LOEWDIN ATOMIC CHARGES
----------------------
   0 C :   -0.135734
   1 C :   -0.078636
   2 H :    0.125058
   3 C :   -0.068813
   4 H :    0.115312
   5 C :   -0.080886
   6 H :    0.101385
   7 C :   -0.091821
   8 H :    0.115743
   9 C :    0.001229
  10 H :    0.110490
  11 O :   -0.145711
  12 O :   -0.318767
  13 O :   -0.300639
  14 O :   -0.304975
  15 O :   -0.322126
  16 O :   -0.343857
  17 H :    0.114070
  18 H :    0.106878
  19 H :    0.268636
  20 H :    0.297955
  21 H :    0.290861
  22 H :    0.273475
  23 H :    0.270873

  Mayer bond orders larger than 0.100000
B(  0-C ,  1-C ) :   1.0288 B(  0-C , 16-O ) :   1.0972 B(  0-C , 17-H ) :   0.9169
B(  0-C , 18-H ) :   0.9156 B(  1-C ,  2-H ) :   0.8827 B(  1-C ,  3-C ) :   0.9758
B(  1-C , 11-O ) :   0.9950 B(  3-C ,  4-H ) :   0.8907 B(  3-C ,  5-C ) :   0.9798
B(  3-C , 15-O ) :   1.0417 B(  5-C ,  6-H ) :   0.8991 B(  5-C ,  7-C ) :   0.9770
B(  5-C , 14-O ) :   1.0249 B(  7-C ,  8-H ) :   0.9030 B(  7-C ,  9-C ) :   1.0015
B(  7-C , 13-O ) :   1.0579 B(  9-C , 10-H ) :   0.9053 B(  9-C , 11-O ) :   1.0678
B(  9-C , 12-O ) :   1.1003 B( 12-O , 19-H ) :   0.7677 B( 13-O , 20-H ) :   0.8400
B( 14-O , 19-H ) :   0.1273 B( 14-O , 21-H ) :   0.8194 B( 15-O , 22-H ) :   0.8180
B( 16-O , 23-H ) :   0.8074

Dispersion correction           -0.026646548
FINAL SINGLE POINT ENERGY      -685.700454480824

DIPOLE MOMENT
-------------

Method             : SCF
Type of density    : Electron Density
Multiplicity       :   1
Irrep              :   0
Energy             :  -685.8354939284137117 Eh
Relativity type    :
Basis              : AO
                                X                 Y                 Z
Electronic contribution:      2.245292664      -0.533264730       0.461169172
Nuclear contribution   :     -1.673438352       1.360870360      -0.683189030
                        -----------------------------------------
Total Dipole Moment    :      0.571854312       0.827605630      -0.222019858
                        -----------------------------------------
Magnitude (a.u.)       :      1.030165642
Magnitude (Debye)      :      2.618472969

Rotational constants in cm-1:             0.040694             0.031359             0.027281
Rotational constants in MHz :          1219.967792           940.108356           817.857860

                             ****ORCA TERMINATED NORMALLY****
TOTAL RUN TIME: 0 days 0 hours 0 minutes 12 seconds 384 msec
