                         Program Version 6.0.0  -   RELEASE  -
|  1> ! wb97x-v def2-tzvp def2/J RIJCOSX DEFGRID2 scfconv7 GCP(DFT/TZ) printgap
|  2> %output
|  3>     printlevel normal
|  4> end
|  5> * xyz 0 1
|  6> C 2.085813975344684 0.052752851086719385 -0.08647969980536051
|  7> C 0.7610796630358678 0.7113484772181973 0.2883627094735907
|  8> C -0.4563083042213322 0.03888230754117271 -0.3399207326993771
|  9> H -0.3435306136490821 0.0472060478341208 -1.4353485896250584
| 10> C -1.7503950717574326 0.7293995186814334 0.04077581111973127
| 11> O -0.5805505431473874 -1.3392625689507405 0.09858823533763843
| 12> H 2.148157307359453 -0.9766547269937489 0.2839592413186517
| 13> H 2.929596677108667 0.6013257758736897 0.34337137023210434
| 14> H 2.219593326596915 0.03088487573137088 -1.1740933417366852
| 15> H 0.7676232766454665 1.7589070725049285 -0.037714602593808766
| 16> H 0.6331254341324817 0.71588850223377 1.3789374427847123
| 17> H -1.733497856352399 1.7710219003923842 -0.29237582244028726
| 18> H -2.609020803164616 0.2340306629530055 -0.42226535528917714
| 19> H -1.8843712435846978 0.7174366161585278 1.1282019174888145
| 20> H 0.1872861938752501 -1.8224339537163452 -0.23244199624850478
| 21> *
| 22>
| 23>                          ****END OF INPUT****

CARTESIAN COORDINATES (ANGSTROEM)
---------------------------------
  C      2.085814    0.052753   -0.086480
  C      0.761080    0.711348    0.288363
  C     -0.456308    0.038882   -0.339921
  H     -0.343531    0.047206   -1.435349
  C     -1.750395    0.729400    0.040776
  O     -0.580551   -1.339263    0.098588
  H      2.148157   -0.976655    0.283959
  H      2.929597    0.601326    0.343371
  H      2.219593    0.030885   -1.174093
  H      0.767623    1.758907   -0.037715
  H      0.633125    0.715889    1.378937
  H     -1.733498    1.771022   -0.292376
  H     -2.609021    0.234031   -0.422265
  H     -1.884371    0.717437    1.128202
  H      0.187286   -1.822434   -0.232442

 Total Charge           Charge          ....    0
 Multiplicity           Mult            ....    1
 Number of Electrons    NEL             ....   42
 Basis Dimension        Dim             ....  215

ORBITAL ENERGIES
----------------

  NO   OCC          E(Eh)            E(eV)
   0   2.0000     -21.664543      -589.5222
   1   2.0000     -12.095262      -329.1288
   2   2.0000     -12.043528      -327.7211
   3   2.0000     -12.041995      -327.6793
   4   2.0000     -12.031988      -327.4070
   5   2.0000      -1.662015       -45.2257
   6   2.0000      -1.306804       -35.5599
   7   2.0000      -1.236011       -33.6336
   8   2.0000      -1.130647       -30.7665
   9   2.0000      -1.087975       -29.6053
  10   2.0000      -1.014662       -27.6104
  11   2.0000      -0.940473       -25.5916
  12   2.0000      -0.921596       -25.0779
  13   2.0000      -0.870334       -23.6830
  14   2.0000      -0.855122       -23.2691
  15   2.0000      -0.843954       -22.9651
  16   2.0000      -0.818245       -22.2656
  17   2.0000      -0.803238       -21.8572
  18   2.0000      -0.792717       -21.5709
  19   2.0000      -0.774182       -21.0666
  20   2.0000      -0.753418       -20.5015
  21   0.0000      -0.144191        -3.9236
  22   0.0000      -0.052702        -1.4341
  23   0.0000      -0.027207        -0.7403
  24   0.0000      -0.011298        -0.3074
  25   0.0000      -0.003211        -0.0874

MULLIKEN ATOMIC CHARGES
-----------------------
   0 C :   -0.376015
   1 C :   -0.156589
   2 C :    0.095924
   3 H :    0.068580
   4 C :   -0.322344
   5 O :   -0.453676
   6 H :    0.103750
   7 H :    0.119547
   8 H :    0.111233
   9 H :    0.085148
  10 H :    0.096964
  11 H :    0.102196
  12 H :    0.119585
  13 H :    0.110514
  14 H :    0.295183
Sum of atomic charges:    0.0000000

LOEWDIN ATOMIC CHARGES
----------------------
   0 C :   -0.313440
   1 C :   -0.278839
   2 C :   -0.364769
   3 H :    0.128994
   4 C :   -0.281915
   5 O :   -0.039351
   6 H :    0.112195
   7 H :    0.119575
   8 H :    0.116763
   9 H :    0.136676
  10 H :    0.136508
  11 H :    0.120650
  12 H :    0.121840
  13 H :    0.122739
  14 H :    0.162373

  Mayer bond orders larger than 0.100000
B(  0-C ,  1-C ) :   0.9695 B(  0-C ,  6-H ) :   0.9843 B(  0-C ,  7-H ) :   0.9834
B(  0-C ,  8-H ) :   0.9778 B(  1-C ,  2-C ) :   0.9741 B(  1-C ,  9-H ) :   0.9621
B(  1-C , 10-H ) :   0.9679 B(  2-C ,  3-H ) :   0.9724 B(  2-C ,  4-C ) :   0.9851
B(  2-C ,  5-O ) :   0.9903 B(  4-C , 11-H ) :   0.9761 B(  4-C , 12-H ) :   0.9804
B(  4-C , 13-H ) :   0.9770 B(  5-O , 14-H ) :   0.9084

FINAL SINGLE POINT ENERGY      -233.681256590022

DIPOLE MOMENT
-------------

Method             : SCF
Type of density    : Electron Density
Multiplicity       :   1
Irrep              :   0
Energy             :  -233.6919099824218620 Eh
Relativity type    :
Basis              : AO
                                X                 Y                 Z
Electronic contribution:     -1.564636920      -2.532986641       0.103182497
Nuclear contribution   :      2.070134211       2.857290690      -0.422997449
                        -----------------------------------------
Total Dipole Moment    :      0.505497291       0.324304049      -0.319814952
                        -----------------------------------------
Magnitude (a.u.)       :      0.680427977
Magnitude (Debye)      :      1.729510470

Rotational constants in cm-1:             0.267184             0.115024             0.088662
Rotational constants in MHz :          8009.973613          3448.334710          2658.018605

                             ****ORCA TERMINATED NORMALLY****
TOTAL RUN TIME: 0 days 0 hours 1 minutes 0 seconds 763 msec
