                         Program Version 6.0.0  -   RELEASE  -
|  1> ! wb97x-v def2-tzvp def2/J RIJCOSX DEFGRID2 scfconv7 GCP(DFT/TZ) printgap
|  2> %output
|  3>     printlevel normal
|  4> end
|  5> %cpcm
|  6>     smd true
|  7>     smdsolvent "water"
|  8> end
|  9> * xyz 0 1
| 10> C 2.085813975344684 0.052752851086719385 -0.08647969980536051
| 11> C 0.7610796630358678 0.7113484772181973 0.2883627094735907
| 12> C -0.4563083042213322 0.03888230754117271 -0.3399207326993771
| 13> H -0.3435306136490821 0.0472060478341208 -1.4353485896250584
| 14> C -1.7503950717574326 0.7293995186814334 0.04077581111973127
| 15> O -0.5805505431473874 -1.3392625689507405 0.09858823533763843
| 16> H 2.148157307359453 -0.9766547269937489 0.2839592413186517
| 17> H 2.929596677108667 0.6013257758736897 0.34337137023210434
| 18> H 2.219593326596915 0.03088487573137088 -1.1740933417366852
| 19> H 0.7676232766454665 1.7589070725049285 -0.037714602593808766
| 20> H 0.6331254341324817 0.71588850223377 1.3789374427847123
| 21> H -1.733497856352399 1.7710219003923842 -0.29237582244028726
| 22> H -2.609020803164616 0.2340306629530055 -0.42226535528917714
| 23> H -1.8843712435846978 0.7174366161585278 1.1282019174888145
| 24> H 0.1872861938752501 -1.8224339537163452 -0.23244199624850478
| 25> *
| 26>
| 27>                          ****END OF INPUT****

CARTESIAN COORDINATES (ANGSTROEM)
---------------------------------
  C      2.085814    0.052753   -0.086480
  C      0.761080    0.711348    0.288363
  C     -0.456308    0.038882   -0.339921
  H     -0.343531    0.047206   -1.435349
  C     -1.750395    0.729400    0.040776
  O     -0.580551   -1.339263    0.098588
  H      2.148157   -0.976655    0.283959
  H      2.929597    0.601326    0.343371
  H      2.219593    0.030885   -1.174093
  H      0.767623    1.758907   -0.037715
  H      0.633125    0.715889    1.378937
  H     -1.733498    1.771022   -0.292376
  H     -2.609021    0.234031   -0.422265
  H     -1.884371    0.717437    1.128202
  H      0.187286   -1.822434   -0.232442

 Total Charge           Charge          ....    0
 Multiplicity           Mult            ....    1
 Number of Electrons    NEL             ....   42
 Basis Dimension        Dim             ....  215

ORBITAL ENERGIES
----------------

  NO   OCC          E(Eh)            E(eV)
   0   2.0000     -21.669105      -589.6463
   1   2.0000     -12.089547      -328.9733
   2   2.0000     -12.032777      -327.4285
   3   2.0000     -12.027082      -327.2735
   4   2.0000     -12.026345      -327.2535
   5   2.0000      -1.666975       -45.3607
   6   2.0000      -1.299364       -35.3575
   7   2.0000      -1.227283       -33.3961
   8   2.0000      -1.123500       -30.5720
   9   2.0000      -1.084505       -29.5109
  10   2.0000      -1.015055       -27.6210
  11   2.0000      -0.943383       -25.6707
  12   2.0000      -0.922381       -25.0993
  13   2.0000      -0.861576       -23.4447
  14   2.0000      -0.845825       -23.0161
  15   2.0000      -0.838962       -22.8293
  16   2.0000      -0.812321       -22.1044
  17   2.0000      -0.793092       -21.5811
  18   2.0000      -0.784229       -21.3399
  19   2.0000      -0.762428       -20.7467
  20   2.0000      -0.745202       -20.2780
  21   0.0000      -0.139834        -3.8051
  22   0.0000      -0.033311        -0.9064
  23   0.0000      -0.018666        -0.5079
  24   0.0000       0.001221         0.0332
  25   0.0000       0.009299         0.2530

MULLIKEN ATOMIC CHARGES
-----------------------
   0 C :   -0.402881
   1 C :   -0.187130
   2 C :    0.107989
   3 H :    0.094014
   4 C :   -0.373560
   5 O :   -0.564499
   6 H :    0.122309
   7 H :    0.132416
   8 H :    0.123544
   9 H :    0.106160
  10 H :    0.103346
  11 H :    0.130055
  12 H :    0.130027
  13 H :    0.122010
  14 H :    0.356199
Sum of atomic charges:    0.0000000

LOEWDIN ATOMIC CHARGES
----------------------
   0 C :   -0.315622
   1 C :   -0.279916
   2 C :   -0.361668
   3 H :    0.137389
   4 C :   -0.291363
   5 O :   -0.081689
   6 H :    0.117301
   7 H :    0.120640
   8 H :    0.120510
   9 H :    0.142538
  10 H :    0.136337
  11 H :    0.128240
  12 H :    0.121233
  13 H :    0.122895
  14 H :    0.183174

  Mayer bond orders larger than 0.100000
B(  0-C ,  1-C ) :   0.9761 B(  0-C ,  6-H ) :   0.9773 B(  0-C ,  7-H ) :   0.9805
B(  0-C ,  8-H ) :   0.9755 B(  1-C ,  2-C ) :   0.9819 B(  1-C ,  9-H ) :   0.9614
B(  1-C , 10-H ) :   0.9658 B(  2-C ,  3-H ) :   0.9779 B(  2-C ,  4-C ) :   0.9798
B(  2-C ,  5-O ) :   0.9516 B(  4-C , 11-H ) :   0.9739 B(  4-C , 12-H ) :   0.9783
B(  4-C , 13-H ) :   0.9706 B(  5-O , 14-H ) :   0.8731

FINAL SINGLE POINT ENERGY      -233.688467005688

DIPOLE MOMENT
-------------

Method             : SCF
Type of density    : Electron Density
Multiplicity       :   1
Irrep              :   0
Energy             :  -233.6991203980879845 Eh
Relativity type    :
Basis              : AO
                                X                 Y                 Z
Electronic contribution:     -1.372560560      -2.405277887      -0.073283818
Nuclear contribution   :      2.070134211       2.857290690      -0.422997449
                        -----------------------------------------
Total Dipole Moment    :      0.697573651       0.452012803      -0.496281267
                        -----------------------------------------
Magnitude (a.u.)       :      0.968101063
Magnitude (Debye)      :      2.460717346

Rotational constants in cm-1:             0.267184             0.115024             0.088662
Rotational constants in MHz :          8009.973613          3448.334710          2658.018605

                             ****ORCA TERMINATED NORMALLY****
TOTAL RUN TIME: 0 days 0 hours 1 minutes 9 seconds 887 msec
