                         Program Version 6.0.0  -   RELEASE  -
|  1> ! r2scan-3c def2/J RI DEFGRID2 scfconv6 printgap
|  2> %output
|  3>     printlevel normal
|  4> end
|  5> * xyz 0 1
|  6> C -2.8491455199 0.2529121037 0.3588916104
|  7> C -2.1902991462 -0.0629977215 -0.9768216915
|  8> C -0.9571994546 -0.9307080298 -0.8394857163
|  9> I 0.6914051288 0.0842816833 0.1623368746
| 10> H -2.1730595916 0.8190312668 0.996534649
| 11> H -3.7466901967 0.8453769319 0.205097588
| 12> H -3.1240795086 -0.6634724626 0.8768256013
| 13> H -1.9382317092 0.8651135535 -1.4939696244
| 14> H -2.8952790437 -0.6131531079 -1.6065234133
| 15> H -0.5614854097 -1.2208608155 -1.8088508792
| 16> H -1.1556367407 -1.8161140893 -0.2413571058
| 17> *
| 18>
| 19>                          ****END OF INPUT****

CARTESIAN COORDINATES (ANGSTROEM)
---------------------------------
  C     -2.849146    0.252912    0.358892
  C     -2.190299   -0.062998   -0.976822
  C     -0.957199   -0.930708   -0.839486
  I      0.691405    0.084282    0.162337
  H     -2.173060    0.819031    0.996535
  H     -3.746690    0.845377    0.205098
  H     -3.124080   -0.663472    0.876826
  H     -1.938232    0.865114   -1.493970
  H     -2.895279   -0.613153   -1.606523
  H     -0.561485   -1.220861   -1.808851
  H     -1.155637   -1.816114   -0.241357

 Total Charge           Charge          ....    0
 Multiplicity           Mult            ....    1
 Number of Electrons    NEL             ....   50
 Basis Dimension        Dim             ....  128

ORBITAL ENERGIES
----------------

  NO   OCC          E(Eh)            E(eV)
   0   2.0000     -10.085486      -274.4400
   1   2.0000     -10.048004      -273.4201
   2   2.0000     -10.025312      -272.8026
   3   2.0000      -6.803559      -185.1342
   4   2.0000      -4.821886      -131.2102
   5   2.0000      -4.806139      -130.7817
   6   2.0000      -4.805821      -130.7730
   7   2.0000      -1.857304       -50.5398
   8   2.0000      -1.853244       -50.4293
   9   2.0000      -1.852963       -50.4217
  10   2.0000      -1.840215       -50.0748
  11   2.0000      -1.840183       -50.0739
  12   2.0000      -0.777507       -21.1570
  13   2.0000      -0.685998       -18.6670
  14   2.0000      -0.625245       -17.0138
  15   2.0000      -0.557458       -15.1692
  16   2.0000      -0.442236       -12.0338
  17   2.0000      -0.433741       -11.8027
  18   2.0000      -0.393986       -10.7209
  19   2.0000      -0.349846        -9.5198
  20   2.0000      -0.333443        -9.0734
  21   2.0000      -0.327557        -8.9133
  22   2.0000      -0.303100        -8.2478
  23   2.0000      -0.232755        -6.3336
  24   2.0000      -0.230449        -6.2708
  25   0.0000      -0.055433        -1.5084
  26   0.0000       0.086319         2.3489
  27   0.0000       0.115049         3.1306
  28   0.0000       0.119253         3.2450
  29   0.0000       0.128742         3.5033

MULLIKEN ATOMIC CHARGES
-----------------------
   0 C :   -0.446625
   1 C :   -0.221259
   2 C :   -0.268649
   3 I :   -0.151794
   4 H :    0.161241
   5 H :    0.148567
   6 H :    0.140580
   7 H :    0.153991
   8 H :    0.141748
   9 H :    0.176505
  10 H :    0.165694
Sum of atomic charges:    0.0000000

LOEWDIN ATOMIC CHARGES
----------------------
   0 C :   -0.427118
   1 C :   -0.329998
   2 C :   -0.410410
   3 I :    0.052462
   4 H :    0.160012
   5 H :    0.153359
   6 H :    0.150995
   7 H :    0.160429
   8 H :    0.161021
   9 H :    0.164854
  10 H :    0.164395

  Mayer bond orders larger than 0.100000
B(  0-C ,  1-C ) :   0.9240 B(  0-C ,  4-H ) :   0.9674 B(  0-C ,  5-H ) :   0.9695
B(  0-C ,  6-H ) :   0.9785 B(  1-C ,  2-C ) :   0.9124 B(  1-C ,  7-H ) :   0.9647
B(  1-C ,  8-H ) :   0.9438 B(  2-C ,  3-I ) :   0.9540 B(  2-C ,  9-H ) :   0.9488
B(  2-C , 10-H ) :   0.9569

Dispersion correction           -0.002555957
FINAL SINGLE POINT ENERGY      -416.230315644415

DIPOLE MOMENT
-------------

Method             : SCF
Type of density    : Electron Density
Multiplicity       :   1
Irrep              :   0
Energy             :  -416.2327466587830713 Eh
Relativity type    :
Basis              : AO
                                X                 Y                 Z
Electronic contribution:     64.057637380       7.503450501      14.294160389
Nuclear contribution   :    -64.794082441      -7.788693400     -14.660374062
                        -----------------------------------------
Total Dipole Moment    :     -0.736445061      -0.285242900      -0.366213673
                        -----------------------------------------
Magnitude (a.u.)       :      0.870532764
Magnitude (Debye)      :      2.212718439

Rotational constants in cm-1:             0.356760             0.058894             0.053530
Rotational constants in MHz :         10695.409218          1765.607186          1604.778728

                             ****ORCA TERMINATED NORMALLY****
TOTAL RUN TIME: 0 days 0 hours 0 minutes 11 seconds 50 msec
