                         Program Version 6.0.0  -   RELEASE  -
|  1> ! r2scan-3c def2/J RI DEFGRID2 scfconv6 printgap
|  2> %output
|  3>     printlevel normal
|  4> end
|  5> %cpcm
|  6>     smd true
|  7>     smdsolvent "water"
|  8> end
|  9> * xyz 0 1
| 10> C -2.8491455199 0.2529121037 0.3588916104
| 11> C -2.1902991462 -0.0629977215 -0.9768216915
| 12> C -0.9571994546 -0.9307080298 -0.8394857163
| 13> I 0.6914051288 0.0842816833 0.1623368746
| 14> H -2.1730595916 0.8190312668 0.996534649
| 15> H -3.7466901967 0.8453769319 0.205097588
| 16> H -3.1240795086 -0.6634724626 0.8768256013
| 17> H -1.9382317092 0.8651135535 -1.4939696244
| 18> H -2.8952790437 -0.6131531079 -1.6065234133
| 19> H -0.5614854097 -1.2208608155 -1.8088508792
| 20> H -1.1556367407 -1.8161140893 -0.2413571058
| 21> *
| 22>
| 23>                          ****END OF INPUT****

CARTESIAN COORDINATES (ANGSTROEM)
---------------------------------
  C     -2.849146    0.252912    0.358892
  C     -2.190299   -0.062998   -0.976822
  C     -0.957199   -0.930708   -0.839486
  I      0.691405    0.084282    0.162337
  H     -2.173060    0.819031    0.996535
  H     -3.746690    0.845377    0.205098
  H     -3.124080   -0.663472    0.876826
  H     -1.938232    0.865114   -1.493970
  H     -2.895279   -0.613153   -1.606523
  H     -0.561485   -1.220861   -1.808851
  H     -1.155637   -1.816114   -0.241357

 Total Charge           Charge          ....    0
 Multiplicity           Mult            ....    1
 Number of Electrons    NEL             ....   50
 Basis Dimension        Dim             ....  128

ORBITAL ENERGIES
----------------

  NO   OCC          E(Eh)            E(eV)
   0   2.0000     -10.071357      -274.0555
   1   2.0000     -10.031404      -272.9684
   2   2.0000     -10.011012      -272.4135
   3   2.0000      -6.800785      -185.0588
   4   2.0000      -4.818142      -131.1083
   5   2.0000      -4.803848      -130.7194
   6   2.0000      -4.803566      -130.7117
   7   2.0000      -1.853760       -50.4434
   8   2.0000      -1.850068       -50.3429
   9   2.0000      -1.849820       -50.3362
  10   2.0000      -1.838307       -50.0229
  11   2.0000      -1.838284       -50.0223
  12   2.0000      -0.762394       -20.7458
  13   2.0000      -0.675350       -18.3772
  14   2.0000      -0.616263       -16.7694
  15   2.0000      -0.542514       -14.7625
  16   2.0000      -0.425921       -11.5899
  17   2.0000      -0.418172       -11.3790
  18   2.0000      -0.378252       -10.2928
  19   2.0000      -0.337413        -9.1815
  20   2.0000      -0.318490        -8.6666
  21   2.0000      -0.311915        -8.4876
  22   2.0000      -0.290203        -7.8968
  23   2.0000      -0.232907        -6.3377
  24   2.0000      -0.230505        -6.2724
  25   0.0000      -0.045107        -1.2274
  26   0.0000       0.102903         2.8001
  27   0.0000       0.125586         3.4174
  28   0.0000       0.132947         3.6177
  29   0.0000       0.141117         3.8400

MULLIKEN ATOMIC CHARGES
-----------------------
   0 C :   -0.488126
   1 C :   -0.224519
   2 C :   -0.251128
   3 I :   -0.219297
   4 H :    0.156724
   5 H :    0.160043
   6 H :    0.156794
   7 H :    0.160349
   8 H :    0.162734
   9 H :    0.197834
  10 H :    0.188593
Sum of atomic charges:    0.0000000

LOEWDIN ATOMIC CHARGES
----------------------
   0 C :   -0.435172
   1 C :   -0.327349
   2 C :   -0.396221
   3 I :    0.013113
   4 H :    0.155937
   5 H :    0.156100
   6 H :    0.155248
   7 H :    0.161631
   8 H :    0.170095
   9 H :    0.173411
  10 H :    0.173206

  Mayer bond orders larger than 0.100000
B(  0-C ,  1-C ) :   0.9100 B(  0-C ,  4-H ) :   0.9698 B(  0-C ,  5-H ) :   0.9673
B(  0-C ,  6-H ) :   0.9761 B(  1-C ,  2-C ) :   0.9101 B(  1-C ,  7-H ) :   0.9671
B(  1-C ,  8-H ) :   0.9399 B(  2-C ,  3-I ) :   0.9028 B(  2-C ,  9-H ) :   0.9427
B(  2-C , 10-H ) :   0.9520

Dispersion correction           -0.002555957
FINAL SINGLE POINT ENERGY      -416.232503837395

DIPOLE MOMENT
-------------

Method             : SCF
Type of density    : Electron Density
Multiplicity       :   1
Irrep              :   0
Energy             :  -416.2349348517625458 Eh
Relativity type    :
Basis              : AO
                                X                 Y                 Z
Electronic contribution:     63.834741999       7.351057403      14.134181488
Nuclear contribution   :    -64.794082441      -7.788693400     -14.660374062
                        -----------------------------------------
Total Dipole Moment    :     -0.959340442      -0.437635998      -0.526192574
                        -----------------------------------------
Magnitude (a.u.)       :      1.178447273
Magnitude (Debye)      :      2.995374921

Rotational constants in cm-1:             0.356760             0.058894             0.053530
Rotational constants in MHz :         10695.409218          1765.607186          1604.778728

                             ****ORCA TERMINATED NORMALLY****
TOTAL RUN TIME: 0 days 0 hours 0 minutes 11 seconds 887 msec
