                         Program Version 6.0.0  -   RELEASE  -
|  1> ! pbe def2-sv(p) def2/J RI DEFGRID1 loosescf d4 GCP(DFT/SV(P)) printgap
|  2> %output
|  3>     printlevel normal
|  4> end
|  5> * xyz 0 1
|  6> C -2.1703783481 -1.0106589467 -0.4716893871
|  7> C -1.1777054435 -0.2206055622 0.3892697828
|  8> H -1.7212096787 0.1756714305 1.2545907033
|  9> C -0.6004565396 0.9547487793 -0.4091645651
| 10> H -0.4271398942 0.6420334587 -1.4491449435
| 11> C 0.7582325663 1.3238806678 0.2110871279
| 12> H 0.6454189374 1.4164217657 1.2996716724
| 13> C 1.717707189 0.1681314981 -0.0856112367
| 14> H 1.9597946936 0.188565463 -1.1586623043
| 15> C 1.0278747717 -1.1781061253 0.2172316438
| 16> H 1.6888044461 -1.7392357735 0.8927047095
| 17> O -0.15880022 -1.038829103 0.9547055189
| 18> O 0.8330420967 -1.8500678926 -0.9882040398
| 19> O 2.8876650959 0.2401090167 0.6847626934
| 20> O 1.3039108643 2.4984769004 -0.3412717958
| 21> O -1.5262100583 2.01119881 -0.3592889208
| 22> O -2.8575977976 -1.9339632837 0.3404531033
| 23> H -1.6235423306 -1.5197199709 -1.2742433989
| 24> H -2.8660218851 -0.2817781049 -0.9073564057
| 25> H 0.6111737553 -2.7780748572 -0.8140724794
| 26> H 3.3209207748 1.0899495308 0.5087077595
| 27> H 0.8491893085 3.267815721 0.0305900615
| 28> H -1.2922604721 2.6710801451 -1.0291559234
| 29> H -3.4968181553 -2.4183028072 -0.201305805
| 30> *
| 31>
| 32>                          ****END OF INPUT****

CARTESIAN COORDINATES (ANGSTROEM)
---------------------------------
  C     -2.170378   -1.010659   -0.471689
  C     -1.177705   -0.220606    0.389270
  H     -1.721210    0.175671    1.254591
  C     -0.600457    0.954749   -0.409165
  H     -0.427140    0.642033   -1.449145
  C      0.758233    1.323881    0.211087
  H      0.645419    1.416422    1.299672
  C      1.717707    0.168131   -0.085611
  H      1.959795    0.188565   -1.158662
  C      1.027875   -1.178106    0.217232
  H      1.688804   -1.739236    0.892705
  O     -0.158800   -1.038829    0.954706
  O      0.833042   -1.850068   -0.988204
  O      2.887665    0.240109    0.684763
  O      1.303911    2.498477   -0.341272
  O     -1.526210    2.011199   -0.359289
  O     -2.857598   -1.933963    0.340453
  H     -1.623542   -1.519720   -1.274243
  H     -2.866022   -0.281778   -0.907356
  H      0.611174   -2.778075   -0.814072
  H      3.320921    1.089950    0.508708
  H      0.849189    3.267816    0.030590
  H     -1.292260    2.671080   -1.029156
  H     -3.496818   -2.418303   -0.201306

 Total Charge           Charge          ....    0
 Multiplicity           Mult            ....    1
 Number of Electrons    NEL             ....   96
 Basis Dimension        Dim             ....  192

ORBITAL ENERGIES
----------------

  NO   OCC          E(Eh)            E(eV)
   0   2.0000     -18.764966      -510.6207
   1   2.0000     -18.762071      -510.5419
   2   2.0000     -18.761794      -510.5344
   3   2.0000     -18.755906      -510.3742
   4   2.0000     -18.745766      -510.0982
   5   2.0000     -18.739753      -509.9346
   6   2.0000      -9.979900      -271.5669
   7   2.0000      -9.941286      -270.5161
   8   2.0000      -9.937331      -270.4085
   9   2.0000      -9.937179      -270.4044
  10   2.0000      -9.935874      -270.3689
  11   2.0000      -9.922496      -270.0048
  12   2.0000      -0.974643       -26.5214
  13   2.0000      -0.950264       -25.8580
  14   2.0000      -0.931940       -25.3594
  15   2.0000      -0.917503       -24.9665
  16   2.0000      -0.916906       -24.9503
  17   2.0000      -0.904371       -24.6092
  18   2.0000      -0.706199       -19.2166
  19   2.0000      -0.689329       -18.7576
  20   2.0000      -0.615224       -16.7411
  21   2.0000      -0.579519       -15.7695
  22   2.0000      -0.555830       -15.1249
  23   2.0000      -0.515243       -14.0205
  24   2.0000      -0.502861       -13.6835
  25   2.0000      -0.489116       -13.3095
  26   2.0000      -0.465966       -12.6796
  27   2.0000      -0.458415       -12.4741
  28   2.0000      -0.448877       -12.2146
  29   2.0000      -0.423058       -11.5120
  30   2.0000      -0.398755       -10.8507
  31   2.0000      -0.397096       -10.8055
  32   2.0000      -0.389555       -10.6003
  33   2.0000      -0.371023       -10.0961
  34   2.0000      -0.359374        -9.7791
  35   2.0000      -0.346969        -9.4415
  36   2.0000      -0.327010        -8.8984
  37   2.0000      -0.314448        -8.5566
  38   2.0000      -0.304475        -8.2852
  39   2.0000      -0.284291        -7.7360
  40   2.0000      -0.274176        -7.4607
  41   2.0000      -0.260296        -7.0830
  42   2.0000      -0.253993        -6.9115
  43   2.0000      -0.242917        -6.6101
  44   2.0000      -0.230138        -6.2624
  45   2.0000      -0.219957        -5.9853
  46   2.0000      -0.207348        -5.6422
  47   2.0000      -0.200128        -5.4458
  48   0.0000       0.001935         0.0527
  49   0.0000       0.024261         0.6602
  50   0.0000       0.038167         1.0386
  51   0.0000       0.042465         1.1555
  52   0.0000       0.053640         1.4596

MULLIKEN ATOMIC CHARGES
-----------------------
   0 C :    0.028101
   1 C :    0.100379
   2 H :    0.079336
   3 C :   -0.026157
   4 H :    0.064576
   5 C :    0.042416
   6 H :    0.061839
   7 C :    0.066320
   8 H :    0.069035
   9 C :    0.181267
  10 H :    0.076031
  11 O :   -0.310253
  12 O :   -0.399351
  13 O :   -0.415894
  14 O :   -0.421014
  15 O :   -0.408523
  16 O :   -0.428713
  17 H :    0.062408
  18 H :    0.072192
  19 H :    0.309222
  20 H :    0.304361
  21 H :    0.299192
  22 H :    0.295657
  23 H :    0.297573
Sum of atomic charges:   -0.0000000

LOEWDIN ATOMIC CHARGES
----------------------
   0 C :   -0.140568
   1 C :   -0.050767
   2 H :    0.124327
   3 C :   -0.081737
   4 H :    0.105566
   5 C :   -0.087763
   6 H :    0.110083
   7 C :   -0.074181
   8 H :    0.109649
   9 C :    0.003203
  10 H :    0.107480
  11 O :   -0.139127
  12 O :   -0.308483
  13 O :   -0.317053
  14 O :   -0.322590
  15 O :   -0.315259
  16 O :   -0.344493
  17 H :    0.094140
  18 H :    0.099578
  19 H :    0.289521
  20 H :    0.287100
  21 H :    0.284504
  22 H :    0.282247
  23 H :    0.284622

  Mayer bond orders larger than 0.100000
B(  0-C ,  1-C ) :   1.0816 B(  0-C , 16-O ) :   1.1090 B(  0-C , 17-H ) :   0.8938
B(  0-C , 18-H ) :   0.9102 B(  1-C ,  2-H ) :   0.8796 B(  1-C ,  3-C ) :   0.9726
B(  1-C , 11-O ) :   0.9851 B(  3-C ,  4-H ) :   0.8867 B(  3-C ,  5-C ) :   0.9874
B(  3-C , 15-O ) :   1.0666 B(  5-C ,  6-H ) :   0.8678 B(  5-C ,  7-C ) :   1.0351
B(  5-C , 14-O ) :   1.0903 B(  7-C ,  8-H ) :   0.8827 B(  7-C ,  9-C ) :   0.9827
B(  7-C , 13-O ) :   1.0843 B(  9-C , 10-H ) :   0.8939 B(  9-C , 11-O ) :   1.0888
B(  9-C , 12-O ) :   1.1000 B( 12-O , 19-H ) :   0.8366 B( 13-O , 20-H ) :   0.8424
B( 14-O , 21-H ) :   0.8422 B( 15-O , 22-H ) :   0.8414 B( 16-O , 23-H ) :   0.8534

Dispersion correction           -0.024286756
FINAL SINGLE POINT ENERGY      -685.689801436035

DIPOLE MOMENT
-------------

Method             : SCF
Type of density    : Electron Density
Multiplicity       :   1
Irrep              :   0
Energy             :  -685.8188475441252194 Eh
Relativity type    :
Basis              : AO
                                X                 Y                 Z
Electronic contribution:      1.918282788      -0.163736150       1.788940426
Nuclear contribution   :     -2.199145022       0.669170548      -2.667291525
                        -----------------------------------------
Total Dipole Moment    :     -0.280862234       0.505434399      -0.878351099
                        -----------------------------------------
Magnitude (a.u.)       :      1.051593162
Magnitude (Debye)      :      2.672937397

Rotational constants in cm-1:             0.042837             0.025915             0.018268
Rotational constants in MHz :          1284.233538           776.907610           547.660171

                             ****ORCA TERMINATED NORMALLY****
TOTAL RUN TIME: 0 days 0 hours 0 minutes 11 seconds 829 msec
