                         Program Version 6.0.0  -   RELEASE  -
|  1> ! pbe def2-sv(p) def2/J RI DEFGRID1 loosescf d4 GCP(DFT/SV(P)) printgap
|  2> %output
|  3>     printlevel normal
|  4> end
|  5> * xyz 0 1
|  6> C -2.1034664978 -1.0430722393 -0.1740899234
|  7> C -1.0928205848 -0.424403566 0.8091209599
|  8> H -1.5685495946 -0.438348705 1.7972475009
|  9> C -0.7622740807 1.0525055805 0.496793956
| 10> H -1.6418881521 1.4966034026 0.0176575389
| 11> C 0.4649938522 1.2532991242 -0.4210126361
| 12> H 0.8100394776 2.2867322885 -0.2475146389
| 13> C 1.6078224699 0.3167509576 -0.0040619278
| 14> H 2.3863834822 0.3671359495 -0.7782680911
| 15> C 1.1019024939 -1.1386811717 0.0708777375
| 16> H 1.8838989422 -1.7838413495 0.4935224112
| 17> O 0.05354879 -1.2470863487 1.005561972
| 18> O 0.8066956054 -1.6669218192 -1.1738380453
| 19> O 2.0807231359 0.7616215483 1.2438092429
| 20> O 0.2231752355 1.0393058031 -1.7846866828
| 21> O -0.5790843513 1.7814102451 1.6882052511
| 22> O -1.8092722395 -0.6950901604 -1.5089393483
| 23> H -3.100577247 -0.675422416 0.0971588413
| 24> H -2.0679646258 -2.1299436844 -0.0346326071
| 25> H 0.1378513845 -1.1035473902 -1.6179463922
| 26> H 2.8363709562 0.2261385324 1.5238597302
| 27> H -0.4959270544 1.6116377631 -2.0865200095
| 28> H 0.2721286267 1.5231638474 2.0787485602
| 29> H -2.4256553853 -1.150929289 -2.0987628594
| 30> *
| 31>
| 32>                          ****END OF INPUT****

CARTESIAN COORDINATES (ANGSTROEM)
---------------------------------
  C     -2.103466   -1.043072   -0.174090
  C     -1.092821   -0.424404    0.809121
  H     -1.568550   -0.438349    1.797248
  C     -0.762274    1.052506    0.496794
  H     -1.641888    1.496603    0.017658
  C      0.464994    1.253299   -0.421013
  H      0.810039    2.286732   -0.247515
  C      1.607822    0.316751   -0.004062
  H      2.386383    0.367136   -0.778268
  C      1.101902   -1.138681    0.070878
  H      1.883899   -1.783841    0.493522
  O      0.053549   -1.247086    1.005562
  O      0.806696   -1.666922   -1.173838
  O      2.080723    0.761622    1.243809
  O      0.223175    1.039306   -1.784687
  O     -0.579084    1.781410    1.688205
  O     -1.809272   -0.695090   -1.508939
  H     -3.100577   -0.675422    0.097159
  H     -2.067965   -2.129944   -0.034633
  H      0.137851   -1.103547   -1.617946
  H      2.836371    0.226139    1.523860
  H     -0.495927    1.611638   -2.086520
  H      0.272129    1.523164    2.078749
  H     -2.425655   -1.150929   -2.098763

 Total Charge           Charge          ....    0
 Multiplicity           Mult            ....    1
 Number of Electrons    NEL             ....   96
 Basis Dimension        Dim             ....  192

ORBITAL ENERGIES
----------------

  NO   OCC          E(Eh)            E(eV)
   0   2.0000     -18.770983      -510.7844
   1   2.0000     -18.768517      -510.7173
   2   2.0000     -18.758939      -510.4567
   3   2.0000     -18.751618      -510.2575
   4   2.0000     -18.735241      -509.8118
   5   2.0000     -18.731682      -509.7150
   6   2.0000      -9.971967      -271.3510
   7   2.0000      -9.943599      -270.5791
   8   2.0000      -9.940743      -270.5014
   9   2.0000      -9.940521      -270.4953
  10   2.0000      -9.940161      -270.4855
  11   2.0000      -9.939518      -270.4680
  12   2.0000      -0.969261       -26.3749
  13   2.0000      -0.944081       -25.6898
  14   2.0000      -0.937534       -25.5116
  15   2.0000      -0.933111       -25.3912
  16   2.0000      -0.915304       -24.9067
  17   2.0000      -0.889025       -24.1916
  18   2.0000      -0.697761       -18.9870
  19   2.0000      -0.688222       -18.7275
  20   2.0000      -0.615347       -16.7445
  21   2.0000      -0.591690       -16.1007
  22   2.0000      -0.560531       -15.2528
  23   2.0000      -0.519842       -14.1456
  24   2.0000      -0.502115       -13.6632
  25   2.0000      -0.485874       -13.2213
  26   2.0000      -0.469522       -12.7763
  27   2.0000      -0.458802       -12.4846
  28   2.0000      -0.432204       -11.7609
  29   2.0000      -0.421776       -11.4771
  30   2.0000      -0.418227       -11.3805
  31   2.0000      -0.410462       -11.1692
  32   2.0000      -0.390464       -10.6251
  33   2.0000      -0.373385       -10.1603
  34   2.0000      -0.356921        -9.7123
  35   2.0000      -0.341907        -9.3038
  36   2.0000      -0.322482        -8.7752
  37   2.0000      -0.313383        -8.5276
  38   2.0000      -0.306307        -8.3350
  39   2.0000      -0.295711        -8.0467
  40   2.0000      -0.278549        -7.5797
  41   2.0000      -0.266154        -7.2424
  42   2.0000      -0.245499        -6.6804
  43   2.0000      -0.240241        -6.5373
  44   2.0000      -0.229726        -6.2512
  45   2.0000      -0.219970        -5.9857
  46   2.0000      -0.204576        -5.5668
  47   2.0000      -0.196558        -5.3486
  48   0.0000       0.005029         0.1368
  49   0.0000       0.015666         0.4263
  50   0.0000       0.035008         0.9526
  51   0.0000       0.059459         1.6180
  52   0.0000       0.065305         1.7770

MULLIKEN ATOMIC CHARGES
-----------------------
   0 C :    0.014914
   1 C :    0.038915
   2 H :    0.080291
   3 C :    0.073700
   4 H :    0.058008
   5 C :    0.007816
   6 H :    0.077441
   7 C :    0.041331
   8 H :    0.080752
   9 C :    0.177877
  10 H :    0.049432
  11 O :   -0.306419
  12 O :   -0.418661
  13 O :   -0.423778
  14 O :   -0.400900
  15 O :   -0.435322
  16 O :   -0.438114
  17 H :    0.076800
  18 H :    0.092414
  19 H :    0.320703
  20 H :    0.311242
  21 H :    0.305807
  22 H :    0.305117
  23 H :    0.310632
Sum of atomic charges:    0.0000000

LOEWDIN ATOMIC CHARGES
----------------------
   0 C :   -0.140954
   1 C :   -0.069075
   2 H :    0.126915
   3 C :   -0.068326
   4 H :    0.111878
   5 C :   -0.075285
   6 H :    0.106727
   7 C :   -0.087388
   8 H :    0.111260
   9 C :   -0.012641
  10 H :    0.098814
  11 O :   -0.150402
  12 O :   -0.316036
  13 O :   -0.310741
  14 O :   -0.300560
  15 O :   -0.323132
  16 O :   -0.328238
  17 H :    0.103538
  18 H :    0.109432
  19 H :    0.266493
  20 H :    0.293368
  21 H :    0.286522
  22 H :    0.276464
  23 H :    0.291366

  Mayer bond orders larger than 0.100000
B(  0-C ,  1-C ) :   1.0606 B(  0-C , 16-O ) :   1.0416 B(  0-C , 17-H ) :   0.9102
B(  0-C , 18-H ) :   0.9116 B(  1-C ,  2-H ) :   0.8909 B(  1-C ,  3-C ) :   0.9738
B(  1-C , 11-O ) :   1.0275 B(  3-C ,  4-H ) :   0.8917 B(  3-C ,  5-C ) :   0.9736
B(  3-C , 15-O ) :   1.0481 B(  5-C ,  6-H ) :   0.8981 B(  5-C ,  7-C ) :   1.0017
B(  5-C , 14-O ) :   1.0730 B(  7-C ,  8-H ) :   0.8934 B(  7-C ,  9-C ) :   0.9704
B(  7-C , 13-O ) :   1.0230 B(  9-C , 10-H ) :   0.9078 B(  9-C , 11-O ) :   1.0353
B(  9-C , 12-O ) :   1.1705 B( 12-O , 19-H ) :   0.7701 B( 13-O , 20-H ) :   0.8421
B( 14-O , 21-H ) :   0.8387 B( 15-O , 22-H ) :   0.8206 B( 16-O , 23-H ) :   0.8417

Dispersion correction           -0.026595255
FINAL SINGLE POINT ENERGY      -685.695077057211

DIPOLE MOMENT
-------------

Method             : SCF
Type of density    : Electron Density
Multiplicity       :   1
Irrep              :   0
Energy             :  -685.8284723805367094 Eh
Relativity type    :
Basis              : AO
                                X                 Y                 Z
Electronic contribution:      2.268145267      -0.173296582       0.388796689
Nuclear contribution   :     -2.778521094       0.214800029      -0.810407657
                        -----------------------------------------
Total Dipole Moment    :     -0.510375828       0.041503448      -0.421610968
                        -----------------------------------------
Magnitude (a.u.)       :      0.663296186
Magnitude (Debye)      :      1.685964919

Rotational constants in cm-1:             0.040106             0.031572             0.027973
Rotational constants in MHz :          1202.354699           946.499360           838.611767

                             ****ORCA TERMINATED NORMALLY****
TOTAL RUN TIME: 0 days 0 hours 0 minutes 12 seconds 150 msec
