                         Program Version 6.0.0  -   RELEASE  -
|  1> ! r2scan-3c def2/J RI DEFGRID2 scfconv6 printgap
|  2> %output
|  3>     printlevel normal
|  4> end
|  5> %cpcm
|  6>     smd true
|  7>     smdsolvent "water"
|  8> end
|  9> * xyz 0 1
| 10> C -1.6686254083 -1.3907050737 0.6095682752
| 11> C -1.423887254 0.1103201085 0.4723169444
| 12> C -2.7192398752 0.7884358462 0.0180308126
| 13> C -0.3146393608 0.4699262769 -0.5274367588
| 14> C 1.1493251799 0.0957548536 -0.2051176692
| 15> C 2.0489482365 1.0127611761 -1.0467730578
| 16> C 1.4802755924 0.3164334307 1.2722514475
| 17> C 1.4673422419 -1.3508417192 -0.594983539
| 18> H -2.5805514954 -1.5675104913 1.1767281426
| 19> H -1.7811848229 -1.8502735153 -0.3698239976
| 20> H -0.8542224131 -1.8814513209 1.1343150005
| 21> H -1.1630910326 0.5137424483 1.4552630099
| 22> H -2.5885096012 1.865763445 -0.0547924047
| 23> H -3.0206846794 0.4129436563 -0.9576883969
| 24> H -3.522259769 0.5898446085 0.7241793371
| 25> H -0.5722999594 0.0357665448 -1.49698746
| 26> H -0.3483112087 1.5564541151 -0.6454966793
| 27> H 1.922037002 2.0527146855 -0.7538574106
| 28> H 1.8049011456 0.9213374262 -2.1029194509
| 29> H 3.0954355607 0.7473510739 -0.91391626
| 30> H 1.2158041521 1.3266573807 1.5765615052
| 31> H 2.5467987064 0.1789782878 1.4377270665
| 32> H 0.9481633428 -0.3887061155 1.9048557644
| 33> H 1.246017191 -1.5184110912 -1.6467872631
| 34> H 0.8954439853 -2.0610271439 -0.0079775245
| 35> H 2.5241429046 -1.554862281 -0.4338386563
| 36> *
| 37>
| 38>                          ****END OF INPUT****

CARTESIAN COORDINATES (ANGSTROEM)
---------------------------------
  C     -1.668625   -1.390705    0.609568
  C     -1.423887    0.110320    0.472317
  C     -2.719240    0.788436    0.018031
  C     -0.314639    0.469926   -0.527437
  C      1.149325    0.095755   -0.205118
  C      2.048948    1.012761   -1.046773
  C      1.480276    0.316433    1.272251
  C      1.467342   -1.350842   -0.594984
  H     -2.580551   -1.567510    1.176728
  H     -1.781185   -1.850274   -0.369824
  H     -0.854222   -1.881451    1.134315
  H     -1.163091    0.513742    1.455263
  H     -2.588510    1.865763   -0.054792
  H     -3.020685    0.412944   -0.957688
  H     -3.522260    0.589845    0.724179
  H     -0.572300    0.035767   -1.496987
  H     -0.348311    1.556454   -0.645497
  H      1.922037    2.052715   -0.753857
  H      1.804901    0.921337   -2.102919
  H      3.095436    0.747351   -0.913916
  H      1.215804    1.326657    1.576562
  H      2.546799    0.178978    1.437727
  H      0.948163   -0.388706    1.904856
  H      1.246017   -1.518411   -1.646787
  H      0.895444   -2.061027   -0.007978
  H      2.524143   -1.554862   -0.433839

 Total Charge           Charge          ....    0
 Multiplicity           Mult            ....    1
 Number of Electrons    NEL             ....   66
 Basis Dimension        Dim             ....  242

ORBITAL ENERGIES
----------------

  NO   OCC          E(Eh)            E(eV)
   0   2.0000     -10.031548      -272.9723
   1   2.0000     -10.022129      -272.7160
   2   2.0000     -10.008760      -272.3522
   3   2.0000     -10.004693      -272.2415
   4   2.0000     -10.003930      -272.2208
   5   2.0000     -10.003674      -272.2138
   6   2.0000     -10.003408      -272.2066
   7   2.0000     -10.002061      -272.1699
   8   2.0000      -0.786933       -21.4135
   9   2.0000      -0.744445       -20.2574
  10   2.0000      -0.646217       -17.5845
  11   2.0000      -0.642248       -17.4765
  12   2.0000      -0.635396       -17.2900
  13   2.0000      -0.631617       -17.1872
  14   2.0000      -0.526048       -14.3145
  15   2.0000      -0.485789       -13.2190
  16   2.0000      -0.430750       -11.7213
  17   2.0000      -0.413381       -11.2487
  18   2.0000      -0.409024       -11.1301
  19   2.0000      -0.393835       -10.7168
  20   2.0000      -0.374738       -10.1971
  21   2.0000      -0.360881        -9.8201
  22   2.0000      -0.351887        -9.5753
  23   2.0000      -0.346084        -9.4174
  24   2.0000      -0.338955        -9.2234
  25   2.0000      -0.322395        -8.7728
  26   2.0000      -0.319323        -8.6892
  27   2.0000      -0.309084        -8.4106
  28   2.0000      -0.291830        -7.9411
  29   2.0000      -0.289074        -7.8661
  30   2.0000      -0.273435        -7.4405
  31   2.0000      -0.268717        -7.3121
  32   2.0000      -0.258664        -7.0386
  33   0.0000       0.081826         2.2266
  34   0.0000       0.108637         2.9562
  35   0.0000       0.121350         3.3021
  36   0.0000       0.127918         3.4808
  37   0.0000       0.132790         3.6134

MULLIKEN ATOMIC CHARGES
-----------------------
   0 C :   -0.569417
   1 C :    0.024383
   2 C :   -0.534563
   3 C :   -0.386582
   4 C :    0.220820
   5 C :   -0.551161
   6 C :   -0.563277
   7 C :   -0.559057
   8 H :    0.152590
   9 H :    0.168859
  10 H :    0.161018
  11 H :    0.159435
  12 H :    0.155372
  13 H :    0.157820
  14 H :    0.158388
  15 H :    0.166697
  16 H :    0.155160
  17 H :    0.163771
  18 H :    0.163228
  19 H :    0.164548
  20 H :    0.169674
  21 H :    0.163271
  22 H :    0.168002
  23 H :    0.166628
  24 H :    0.162455
  25 H :    0.161938
Sum of atomic charges:    0.0000000

LOEWDIN ATOMIC CHARGES
----------------------
   0 C :   -0.426572
   1 C :   -0.240142
   2 C :   -0.427174
   3 C :   -0.292195
   4 C :   -0.204270
   5 C :   -0.419890
   6 C :   -0.415823
   7 C :   -0.416285
   8 H :    0.154483
   9 H :    0.156361
  10 H :    0.153390
  11 H :    0.158795
  12 H :    0.154035
  13 H :    0.156086
  14 H :    0.153669
  15 H :    0.165772
  16 H :    0.166205
  17 H :    0.157152
  18 H :    0.158916
  19 H :    0.156571
  20 H :    0.159766
  21 H :    0.158686
  22 H :    0.158664
  23 H :    0.158540
  24 H :    0.158077
  25 H :    0.157181

  Mayer bond orders larger than 0.100000
B(  0-C ,  1-C ) :   0.8637 B(  0-C ,  8-H ) :   0.9717 B(  0-C ,  9-H ) :   0.9851
B(  0-C , 10-H ) :   0.9697 B(  1-C ,  2-C ) :   0.8968 B(  1-C ,  3-C ) :   0.8986
B(  1-C , 11-H ) :   0.9593 B(  2-C , 12-H ) :   0.9760 B(  2-C , 13-H ) :   0.9848
B(  2-C , 14-H ) :   0.9749 B(  3-C ,  4-C ) :   0.8566 B(  3-C , 15-H ) :   0.9904
B(  3-C , 16-H ) :   0.9854 B(  4-C ,  5-C ) :   0.9182 B(  4-C ,  6-C ) :   0.8848
B(  4-C ,  7-C ) :   0.9314 B(  5-C , 17-H ) :   0.9751 B(  5-C , 18-H ) :   0.9754
B(  5-C , 19-H ) :   0.9784 B(  6-C , 20-H ) :   0.9775 B(  6-C , 21-H ) :   0.9724
B(  6-C , 22-H ) :   0.9693 B(  7-C , 23-H ) :   0.9782 B(  7-C , 24-H ) :   0.9616
B(  7-C , 25-H ) :   0.9794

Dispersion correction           -0.008032282
FINAL SINGLE POINT ENERGY      -315.582728192532

DIPOLE MOMENT
-------------

Method             : SCF
Type of density    : Electron Density
Multiplicity       :   1
Irrep              :   0
Energy             :  -315.5876157097899863 Eh
Relativity type    :
Basis              : AO
                                X                 Y                 Z
Electronic contribution:      0.213932208       0.605625652       0.031371443
Nuclear contribution   :     -0.218001549      -0.582305937       0.023964703
                        -----------------------------------------
Total Dipole Moment    :     -0.004069340       0.023319715       0.055336146
                        -----------------------------------------
Magnitude (a.u.)       :      0.060186857
Magnitude (Debye)      :      0.152982832

Rotational constants in cm-1:             0.099831             0.040925             0.037110
Rotational constants in MHz :          2992.852607          1226.893763          1112.538849

                             ****ORCA TERMINATED NORMALLY****
TOTAL RUN TIME: 0 days 0 hours 0 minutes 34 seconds 978 msec
