                         Program Version 6.0.0  -   RELEASE  -
|  1> ! wb97x-v def2-tzvp def2/J RIJCOSX DEFGRID2 scfconv7 GCP(DFT/TZ) printgap
|  2> %output
|  3>     printlevel normal
|  4> end
|  5> * xyz 0 1
|  6> C -3.4015248746918956 0.605877376354334 0.000908570466444724
|  7> O -1.9613525249894388 0.7776391351207492 0.0012645993547774183
|  8> C -1.2382145257984198 -0.3568503450792182 -0.0006452351719880006
|  9> O -1.7449640602808867 -1.4689580784404563 -0.002275473175869982
| 10> C 0.2226801506687805 -0.10645813320433958 -0.00016076056145246934
| 11> C 1.08159747118133 -1.211204722842733 0.00033580092724614307
| 12> C 2.4574508846293694 -1.023156069990629 0.000573481010359342
| 13> C 2.9851907763508296 0.2668621709449209 0.00023754695178977025
| 14> C 2.1332840691694845 1.3694569632282 -0.00028532902981873544
| 15> C 0.7554763426357995 1.18828059552227 -0.000428997608361684
| 16> H -3.810064195833968 1.615571035249135 0.00600917512086511
| 17> H -3.716023141197844 0.061141619677157 0.8941193316652629
| 18> H -3.716405482601033 0.07005845589517119 -0.8975724206943618
| 19> H 0.6648588005407922 -2.2122419021583477 0.0005462749056347517
| 20> H 3.1199143147781245 -1.8823689545126325 0.0010049280331454991
| 21> H 4.060590291262633 0.4128674701533047 0.00037668205138326297
| 22> H 2.5433957136498244 2.3738943943775523 -0.0005965185498596506
| 23> H 0.09817950329236765 2.049357468910383 -0.0008697967836380431
| 24> *
| 25>
| 26>                          ****END OF INPUT****

CARTESIAN COORDINATES (ANGSTROEM)
---------------------------------
  C     -3.401525    0.605877    0.000909
  O     -1.961353    0.777639    0.001265
  C     -1.238215   -0.356850   -0.000645
  O     -1.744964   -1.468958   -0.002275
  C      0.222680   -0.106458   -0.000161
  C      1.081597   -1.211205    0.000336
  C      2.457451   -1.023156    0.000573
  C      2.985191    0.266862    0.000238
  C      2.133284    1.369457   -0.000285
  C      0.755476    1.188281   -0.000429
  H     -3.810064    1.615571    0.006009
  H     -3.716023    0.061142    0.894119
  H     -3.716405    0.070058   -0.897572
  H      0.664859   -2.212242    0.000546
  H      3.119914   -1.882369    0.001005
  H      4.060590    0.412867    0.000377
  H      2.543396    2.373894   -0.000597
  H      0.098180    2.049357   -0.000870

 Total Charge           Charge          ....    0
 Multiplicity           Mult            ....    1
 Number of Electrons    NEL             ....   72
 Basis Dimension        Dim             ....  358

ORBITAL ENERGIES
----------------

  NO   OCC          E(Eh)            E(eV)
   0   2.0000     -21.721866      -591.0820
   1   2.0000     -21.656139      -589.2935
   2   2.0000     -12.180074      -331.4367
   3   2.0000     -12.105210      -329.3995
   4   2.0000     -12.071141      -328.4725
   5   2.0000     -12.066084      -328.3348
   6   2.0000     -12.065486      -328.3186
   7   2.0000     -12.063002      -328.2510
   8   2.0000     -12.060879      -328.1932
   9   2.0000     -12.059864      -328.1656
  10   2.0000      -1.760642       -47.9095
  11   2.0000      -1.692082       -46.0439
  12   2.0000      -1.398158       -38.0458
  13   2.0000      -1.315693       -35.8018
  14   2.0000      -1.285782       -34.9879
  15   2.0000      -1.266738       -34.4697
  16   2.0000      -1.155825       -31.4516
  17   2.0000      -1.118403       -30.4333
  18   2.0000      -1.112994       -30.2861
  19   2.0000      -1.061609       -28.8879
  20   2.0000      -1.037622       -28.2351
  21   2.0000      -0.998105       -27.1598
  22   2.0000      -0.973286       -26.4845
  23   2.0000      -0.961547       -26.1650
  24   2.0000      -0.951181       -25.8830
  25   2.0000      -0.909350       -24.7447
  26   2.0000      -0.899360       -24.4728
  27   2.0000      -0.886120       -24.1126
  28   2.0000      -0.871226       -23.7073
  29   2.0000      -0.845535       -23.0082
  30   2.0000      -0.831557       -22.6278
  31   2.0000      -0.827125       -22.5072
  32   2.0000      -0.817952       -22.2576
  33   2.0000      -0.783269       -21.3138
  34   2.0000      -0.659850       -17.9554
  35   2.0000      -0.648902       -17.6575
  36   0.0000      -0.339723        -9.2443
  37   0.0000      -0.243998        -6.6395
  38   0.0000      -0.210929        -5.7397
  39   0.0000      -0.185992        -5.0611
  40   0.0000      -0.108391        -2.9495

MULLIKEN ATOMIC CHARGES
-----------------------
   0 C :   -0.192949
   1 O :   -0.241164
   2 C :    0.343580
   3 O :   -0.361668
   4 C :    0.090605
   5 C :   -0.188198
   6 C :   -0.090489
   7 C :   -0.112863
   8 C :   -0.096785
   9 C :   -0.204465
  10 H :    0.128093
  11 H :    0.132040
  12 H :    0.131871
  13 H :    0.152365
  14 H :    0.123902
  15 H :    0.124392
  16 H :    0.122179
  17 H :    0.139553
Sum of atomic charges:    0.0000000

LOEWDIN ATOMIC CHARGES
----------------------
   0 C :   -0.284599
   1 O :    0.231279
   2 C :   -0.423562
   3 O :    0.086300
   4 C :   -0.125652
   5 C :   -0.074111
   6 C :   -0.134455
   7 C :   -0.123095
   8 C :   -0.136689
   9 C :   -0.087230
  10 H :    0.109790
  11 H :    0.112348
  12 H :    0.112299
  13 H :    0.156041
  14 H :    0.143848
  15 H :    0.143440
  16 H :    0.143360
  17 H :    0.150690

  Mayer bond orders larger than 0.100000
B(  0-C ,  1-O ) :   0.9042 B(  0-C , 10-H ) :   0.9736 B(  0-C , 11-H ) :   0.9776
B(  0-C , 12-H ) :   0.9776 B(  1-O ,  2-C ) :   1.2336 B(  1-O ,  4-C ) :  -0.1166
B(  2-C ,  3-O ) :   2.0358 B(  2-C ,  4-C ) :   0.9619 B(  4-C ,  5-C ) :   1.4058
B(  4-C ,  9-C ) :   1.3912 B(  5-C ,  6-C ) :   1.4298 B(  5-C , 13-H ) :   0.9510
B(  6-C ,  7-C ) :   1.4099 B(  6-C , 14-H ) :   0.9760 B(  7-C ,  8-C ) :   1.4166
B(  7-C , 15-H ) :   0.9710 B(  8-C ,  9-C ) :   1.4394 B(  8-C , 16-H ) :   0.9751
B(  9-C , 17-H ) :   0.9572

FINAL SINGLE POINT ENERGY      -460.154513028300

DIPOLE MOMENT
-------------

Method             : SCF
Type of density    : Electron Density
Multiplicity       :   1
Irrep              :   0
Energy             :  -460.1645873291004136 Eh
Relativity type    :
Basis              : AO
                                X                 Y                 Z
Electronic contribution:      1.003548607      -1.546961729      -0.002029410
Nuclear contribution   :     -0.760739316       2.310411349       0.003187185
                        -----------------------------------------
Total Dipole Moment    :      0.242809292       0.763449621       0.001157775
                        -----------------------------------------
Magnitude (a.u.)       :      0.801132334
Magnitude (Debye)      :      2.036316563

Rotational constants in cm-1:             0.117348             0.028055             0.022741
Rotational constants in MHz :          3518.001103           841.063661           681.747118

                             ****ORCA TERMINATED NORMALLY****
TOTAL RUN TIME: 0 days 0 hours 3 minutes 22 seconds 582 msec
