                         Program Version 6.0.0  -   RELEASE  -
|  1> ! wb97x-v def2-tzvp def2/J RIJCOSX DEFGRID2 scfconv7 GCP(DFT/TZ) printgap
|  2> %output
|  3>     printlevel normal
|  4> end
|  5> %cpcm
|  6>     smd true
|  7>     smdsolvent "water"
|  8> end
|  9> * xyz 0 1
| 10> C -3.4015248746918956 0.605877376354334 0.000908570466444724
| 11> O -1.9613525249894388 0.7776391351207492 0.0012645993547774183
| 12> C -1.2382145257984198 -0.3568503450792182 -0.0006452351719880006
| 13> O -1.7449640602808867 -1.4689580784404563 -0.002275473175869982
| 14> C 0.2226801506687805 -0.10645813320433958 -0.00016076056145246934
| 15> C 1.08159747118133 -1.211204722842733 0.00033580092724614307
| 16> C 2.4574508846293694 -1.023156069990629 0.000573481010359342
| 17> C 2.9851907763508296 0.2668621709449209 0.00023754695178977025
| 18> C 2.1332840691694845 1.3694569632282 -0.00028532902981873544
| 19> C 0.7554763426357995 1.18828059552227 -0.000428997608361684
| 20> H -3.810064195833968 1.615571035249135 0.00600917512086511
| 21> H -3.716023141197844 0.061141619677157 0.8941193316652629
| 22> H -3.716405482601033 0.07005845589517119 -0.8975724206943618
| 23> H 0.6648588005407922 -2.2122419021583477 0.0005462749056347517
| 24> H 3.1199143147781245 -1.8823689545126325 0.0010049280331454991
| 25> H 4.060590291262633 0.4128674701533047 0.00037668205138326297
| 26> H 2.5433957136498244 2.3738943943775523 -0.0005965185498596506
| 27> H 0.09817950329236765 2.049357468910383 -0.0008697967836380431
| 28> *
| 29>
| 30>                          ****END OF INPUT****

CARTESIAN COORDINATES (ANGSTROEM)
---------------------------------
  C     -3.401525    0.605877    0.000909
  O     -1.961353    0.777639    0.001265
  C     -1.238215   -0.356850   -0.000645
  O     -1.744964   -1.468958   -0.002275
  C      0.222680   -0.106458   -0.000161
  C      1.081597   -1.211205    0.000336
  C      2.457451   -1.023156    0.000573
  C      2.985191    0.266862    0.000238
  C      2.133284    1.369457   -0.000285
  C      0.755476    1.188281   -0.000429
  H     -3.810064    1.615571    0.006009
  H     -3.716023    0.061142    0.894119
  H     -3.716405    0.070058   -0.897572
  H      0.664859   -2.212242    0.000546
  H      3.119914   -1.882369    0.001005
  H      4.060590    0.412867    0.000377
  H      2.543396    2.373894   -0.000597
  H      0.098180    2.049357   -0.000870

 Total Charge           Charge          ....    0
 Multiplicity           Mult            ....    1
 Number of Electrons    NEL             ....   72
 Basis Dimension        Dim             ....  358

ORBITAL ENERGIES
----------------

  NO   OCC          E(Eh)            E(eV)
   0   2.0000     -21.726234      -591.2009
   1   2.0000     -21.670265      -589.6779
   2   2.0000     -12.191786      -331.7554
   3   2.0000     -12.093861      -329.0907
   4   2.0000     -12.071691      -328.4874
   5   2.0000     -12.063009      -328.2512
   6   2.0000     -12.061953      -328.2224
   7   2.0000     -12.060656      -328.1871
   8   2.0000     -12.055732      -328.0532
   9   2.0000     -12.055104      -328.0360
  10   2.0000      -1.767829       -48.1051
  11   2.0000      -1.704612       -46.3848
  12   2.0000      -1.397112       -38.0173
  13   2.0000      -1.315342       -35.7923
  14   2.0000      -1.283258       -34.9192
  15   2.0000      -1.264386       -34.4057
  16   2.0000      -1.156849       -31.4795
  17   2.0000      -1.117382       -30.4055
  18   2.0000      -1.114586       -30.3294
  19   2.0000      -1.071924       -29.1685
  20   2.0000      -1.038517       -28.2595
  21   2.0000      -1.001244       -27.2452
  22   2.0000      -0.972922       -26.4746
  23   2.0000      -0.958714       -26.0879
  24   2.0000      -0.949501       -25.8372
  25   2.0000      -0.915900       -24.9229
  26   2.0000      -0.908843       -24.7309
  27   2.0000      -0.882444       -24.0125
  28   2.0000      -0.878779       -23.9128
  29   2.0000      -0.835783       -22.7428
  30   2.0000      -0.826934       -22.5020
  31   2.0000      -0.819024       -22.2868
  32   2.0000      -0.813063       -22.1246
  33   2.0000      -0.782877       -21.3032
  34   2.0000      -0.659449       -17.9445
  35   2.0000      -0.647247       -17.6125
  36   0.0000      -0.344544        -9.3755
  37   0.0000      -0.242031        -6.5860
  38   0.0000      -0.211645        -5.7591
  39   0.0000      -0.180521        -4.9122
  40   0.0000      -0.112033        -3.0486

MULLIKEN ATOMIC CHARGES
-----------------------
   0 C :   -0.232911
   1 O :   -0.254985
   2 C :    0.422794
   3 O :   -0.470605
   4 C :    0.124417
   5 C :   -0.217915
   6 C :   -0.143270
   7 C :   -0.142937
   8 C :   -0.142749
   9 C :   -0.237217
  10 H :    0.158048
  11 H :    0.151316
  12 H :    0.151395
  13 H :    0.164815
  14 H :    0.166250
  15 H :    0.168189
  16 H :    0.166049
  17 H :    0.169315
Sum of atomic charges:    0.0000000

LOEWDIN ATOMIC CHARGES
----------------------
   0 C :   -0.280405
   1 O :    0.231483
   2 C :   -0.410106
   3 O :    0.028420
   4 C :   -0.135090
   5 C :   -0.084377
   6 C :   -0.136526
   7 C :   -0.120574
   8 C :   -0.136790
   9 C :   -0.089517
  10 H :    0.120013
  11 H :    0.116917
  12 H :    0.116930
  13 H :    0.158067
  14 H :    0.154439
  15 H :    0.154934
  16 H :    0.154528
  17 H :    0.157654

  Mayer bond orders larger than 0.100000
B(  0-C ,  1-O ) :   0.8775 B(  0-C , 10-H ) :   0.9681 B(  0-C , 11-H ) :   0.9721
B(  0-C , 12-H ) :   0.9721 B(  1-O ,  2-C ) :   1.2588 B(  1-O ,  4-C ) :  -0.1118
B(  2-C ,  3-O ) :   1.9235 B(  2-C ,  4-C ) :   0.9793 B(  4-C ,  5-C ) :   1.3486
B(  4-C ,  9-C ) :   1.3520 B(  5-C ,  6-C ) :   1.4370 B(  5-C , 13-H ) :   0.9631
B(  6-C ,  7-C ) :   1.3934 B(  6-C , 14-H ) :   0.9762 B(  7-C ,  8-C ) :   1.3960
B(  7-C , 15-H ) :   0.9710 B(  8-C ,  9-C ) :   1.4346 B(  8-C , 16-H ) :   0.9761
B(  9-C , 17-H ) :   0.9654

FINAL SINGLE POINT ENERGY      -460.160391867341

DIPOLE MOMENT
-------------

Method             : SCF
Type of density    : Electron Density
Multiplicity       :   1
Irrep              :   0
Energy             :  -460.1704661681405923 Eh
Relativity type    :
Basis              : AO
                                X                 Y                 Z
Electronic contribution:      1.225306894      -1.183354946      -0.001624577
Nuclear contribution   :     -0.760739316       2.310411349       0.003187185
                        -----------------------------------------
Total Dipole Moment    :      0.464567578       1.127056403       0.001562608
                        -----------------------------------------
Magnitude (a.u.)       :      1.219049471
Magnitude (Debye)      :      3.098577508

Rotational constants in cm-1:             0.117348             0.028055             0.022741
Rotational constants in MHz :          3518.001103           841.063661           681.747118

                             ****ORCA TERMINATED NORMALLY****
TOTAL RUN TIME: 0 days 0 hours 3 minutes 26 seconds 559 msec
