                         Program Version 6.0.0  -   RELEASE  -
|  1> ! r2scan-3c def2/J RI DEFGRID2 scfconv6 printgap
|  2> %output
|  3>     printlevel normal
|  4> end
|  5> * xyz 0 1
|  6> C 0.0005826034 1.4257992571 -7.60449e-05
|  7> C 0.7879998508 0.3272712952 -1.01345e-05
|  8> C 0.20512789 -1.0061978692 -0.0001075094
|  9> O 0.8225307409 -2.0568801142 -1.98733e-05
| 10> N -1.1769793769 -0.9923990148 1.18244e-05
| 11> C -2.0033726788 0.10650527 0.0001207446
| 12> O -3.2146807246 0.014699765 1.84105e-05
| 13> N -1.351912656 1.3126814556 -2.55103e-05
| 14> Cl 2.5104314297 0.4301461233 4.3191e-05
| 15> H 0.4166781827 2.420920638 -0.0002081073
| 16> H -1.6383653728 -1.8983223949 -5.064e-05
| 17> H -1.9342173151 2.1441541026 -0.0001778219
| 18> *
| 19>
| 20>                          ****END OF INPUT****

CARTESIAN COORDINATES (ANGSTROEM)
---------------------------------
  C      0.000583    1.425799   -0.000076
  C      0.788000    0.327271   -0.000010
  C      0.205128   -1.006198   -0.000108
  O      0.822531   -2.056880   -0.000020
  N     -1.176979   -0.992399    0.000012
  C     -2.003373    0.106505    0.000121
  O     -3.214681    0.014700    0.000018
  N     -1.351913    1.312681   -0.000026
  Cl     2.510431    0.430146    0.000043
  H      0.416678    2.420921   -0.000208
  H     -1.638365   -1.898322   -0.000051
  H     -1.934217    2.144154   -0.000178

 Total Charge           Charge          ....    0
 Multiplicity           Mult            ....    1
 Number of Electrons    NEL             ....   74
 Basis Dimension        Dim             ....  214

ORBITAL ENERGIES
----------------

  NO   OCC          E(Eh)            E(eV)
   0   2.0000    -101.238444     -2754.8381
   1   2.0000     -18.945096      -515.5223
   2   2.0000     -18.941654      -515.4286
   3   2.0000     -14.256453      -387.9378
   4   2.0000     -14.236557      -387.3964
   5   2.0000     -10.197257      -277.4815
   6   2.0000     -10.166516      -276.6450
   7   2.0000     -10.132917      -275.7307
   8   2.0000     -10.122178      -275.4385
   9   2.0000      -9.393630      -255.6137
  10   2.0000      -7.140459      -194.3018
  11   2.0000      -7.129649      -194.0076
  12   2.0000      -7.129171      -193.9946
  13   2.0000      -1.065494       -28.9936
  14   2.0000      -1.026493       -27.9323
  15   2.0000      -0.971577       -26.4380
  16   2.0000      -0.919690       -25.0260
  17   2.0000      -0.861101       -23.4317
  18   2.0000      -0.754405       -20.5284
  19   2.0000      -0.681898       -18.5554
  20   2.0000      -0.656990       -17.8776
  21   2.0000      -0.571303       -15.5459
  22   2.0000      -0.560459       -15.2509
  23   2.0000      -0.514740       -14.0068
  24   2.0000      -0.475955       -12.9514
  25   2.0000      -0.462021       -12.5722
  26   2.0000      -0.435808       -11.8590
  27   2.0000      -0.412929       -11.2364
  28   2.0000      -0.404006       -10.9936
  29   2.0000      -0.401094       -10.9143
  30   2.0000      -0.376183       -10.2364
  31   2.0000      -0.323427        -8.8009
  32   2.0000      -0.303049        -8.2464
  33   2.0000      -0.278638        -7.5821
  34   2.0000      -0.277326        -7.5464
  35   2.0000      -0.248950        -6.7743
  36   2.0000      -0.233701        -6.3593
  37   0.0000      -0.090790        -2.4705
  38   0.0000      -0.035130        -0.9559
  39   0.0000      -0.014675        -0.3993
  40   0.0000       0.041217         1.1216
  41   0.0000       0.062505         1.7008

MULLIKEN ATOMIC CHARGES
-----------------------
   0 C :   -0.149754
   1 C :    0.097888
   2 C :    0.138685
   3 O :   -0.375401
   4 N :   -0.086408
   5 C :    0.240860
   6 O :   -0.419596
   7 N :   -0.080020
   8 Cl:   -0.082865
   9 H :    0.156532
  10 H :    0.281044
  11 H :    0.279034
Sum of atomic charges:   -0.0000000

LOEWDIN ATOMIC CHARGES
----------------------
   0 C :    0.120653
   1 C :   -0.142011
   2 C :    0.341176
   3 O :   -0.420780
   4 N :   -0.437349
   5 C :    0.438832
   6 O :   -0.386166
   7 N :   -0.512837
   8 Cl:    0.189740
   9 H :    0.206174
  10 H :    0.304520
  11 H :    0.298047

  Mayer bond orders larger than 0.100000
B(  0-C ,  1-C ) :   1.5169 B(  0-C ,  7-N ) :   1.1678 B(  0-C ,  9-H ) :   0.9505
B(  1-C ,  2-C ) :   0.9707 B(  1-C ,  8-Cl) :   1.0209 B(  2-C ,  3-O ) :   2.0322
B(  2-C ,  4-N ) :   1.0615 B(  4-N ,  5-C ) :   1.0819 B(  4-N , 10-H ) :   0.8988
B(  5-C ,  6-O ) :   1.9775 B(  5-C ,  7-N ) :   1.0810 B(  7-N , 11-H ) :   0.9026

Dispersion correction           -0.004385677
FINAL SINGLE POINT ENERGY      -874.323891003068

DIPOLE MOMENT
-------------

Method             : SCF
Type of density    : Electron Density
Multiplicity       :   1
Irrep              :   0
Energy             :  -874.3329015515923857 Eh
Relativity type    :
Basis              : AO
                                X                 Y                 Z
Electronic contribution:      6.118568031      -0.275911853       0.000304592
Nuclear contribution   :     -6.379618076       1.896086345      -0.000467647
                        -----------------------------------------
Total Dipole Moment    :     -0.261050045       1.620174492      -0.000163055
                        -----------------------------------------
Magnitude (a.u.)       :      1.641070546
Magnitude (Debye)      :      4.171269832

Rotational constants in cm-1:             0.102568             0.033222             0.025094
Rotational constants in MHz :          3074.898829           995.978182           752.302794

                             ****ORCA TERMINATED NORMALLY****
TOTAL RUN TIME: 0 days 0 hours 0 minutes 26 seconds 847 msec
