                         Program Version 6.0.0  -   RELEASE  -
|  1> ! r2scan-3c def2/J RI DEFGRID2 scfconv6 printgap
|  2> %output
|  3>     printlevel normal
|  4> end
|  5> %cpcm
|  6>     smd true
|  7>     smdsolvent "water"
|  8> end
|  9> * xyz 0 1
| 10> C 0.0005826034 1.4257992571 -7.60449e-05
| 11> C 0.7879998508 0.3272712952 -1.01345e-05
| 12> C 0.20512789 -1.0061978692 -0.0001075094
| 13> O 0.8225307409 -2.0568801142 -1.98733e-05
| 14> N -1.1769793769 -0.9923990148 1.18244e-05
| 15> C -2.0033726788 0.10650527 0.0001207446
| 16> O -3.2146807246 0.014699765 1.84105e-05
| 17> N -1.351912656 1.3126814556 -2.55103e-05
| 18> Cl 2.5104314297 0.4301461233 4.3191e-05
| 19> H 0.4166781827 2.420920638 -0.0002081073
| 20> H -1.6383653728 -1.8983223949 -5.064e-05
| 21> H -1.9342173151 2.1441541026 -0.0001778219
| 22> *
| 23>
| 24>                          ****END OF INPUT****

CARTESIAN COORDINATES (ANGSTROEM)
---------------------------------
  C      0.000583    1.425799   -0.000076
  C      0.788000    0.327271   -0.000010
  C      0.205128   -1.006198   -0.000108
  O      0.822531   -2.056880   -0.000020
  N     -1.176979   -0.992399    0.000012
  C     -2.003373    0.106505    0.000121
  O     -3.214681    0.014700    0.000018
  N     -1.351913    1.312681   -0.000026
  Cl     2.510431    0.430146    0.000043
  H      0.416678    2.420921   -0.000208
  H     -1.638365   -1.898322   -0.000051
  H     -1.934217    2.144154   -0.000178

 Total Charge           Charge          ....    0
 Multiplicity           Mult            ....    1
 Number of Electrons    NEL             ....   74
 Basis Dimension        Dim             ....  214

ORBITAL ENERGIES
----------------

  NO   OCC          E(Eh)            E(eV)
   0   2.0000    -101.235149     -2754.7485
   1   2.0000     -18.946382      -515.5573
   2   2.0000     -18.945725      -515.5394
   3   2.0000     -14.237840      -387.4313
   4   2.0000     -14.227649      -387.1540
   5   2.0000     -10.192560      -277.3537
   6   2.0000     -10.166935      -276.6564
   7   2.0000     -10.116033      -275.2713
   8   2.0000     -10.110240      -275.1136
   9   2.0000      -9.390585      -255.5308
  10   2.0000      -7.137190      -194.2128
  11   2.0000      -7.126636      -193.9256
  12   2.0000      -7.126270      -193.9157
  13   2.0000      -1.060791       -28.8656
  14   2.0000      -1.030978       -28.0543
  15   2.0000      -0.960205       -26.1285
  16   2.0000      -0.909668       -24.7533
  17   2.0000      -0.855219       -23.2717
  18   2.0000      -0.743254       -20.2250
  19   2.0000      -0.666154       -18.1270
  20   2.0000      -0.646037       -17.5796
  21   2.0000      -0.555535       -15.1169
  22   2.0000      -0.549754       -14.9596
  23   2.0000      -0.493561       -13.4305
  24   2.0000      -0.465574       -12.6689
  25   2.0000      -0.454265       -12.3612
  26   2.0000      -0.436398       -11.8750
  27   2.0000      -0.414786       -11.2869
  28   2.0000      -0.406600       -11.0641
  29   2.0000      -0.399420       -10.8688
  30   2.0000      -0.364926        -9.9301
  31   2.0000      -0.319592        -8.6965
  32   2.0000      -0.301651        -8.2083
  33   2.0000      -0.281692        -7.6652
  34   2.0000      -0.279479        -7.6050
  35   2.0000      -0.257444        -7.0054
  36   2.0000      -0.225672        -6.1408
  37   0.0000      -0.078431        -2.1342
  38   0.0000      -0.030727        -0.8361
  39   0.0000      -0.003548        -0.0965
  40   0.0000       0.066697         1.8149
  41   0.0000       0.077302         2.1035

MULLIKEN ATOMIC CHARGES
-----------------------
   0 C :   -0.122318
   1 C :    0.095866
   2 C :    0.155704
   3 O :   -0.476418
   4 N :   -0.087887
   5 C :    0.271228
   6 O :   -0.503467
   7 N :   -0.086551
   8 Cl:   -0.119276
   9 H :    0.211727
  10 H :    0.326044
  11 H :    0.335347
Sum of atomic charges:   -0.0000000

LOEWDIN ATOMIC CHARGES
----------------------
   0 C :    0.160944
   1 C :   -0.153343
   2 C :    0.345963
   3 O :   -0.502390
   4 N :   -0.413570
   5 C :    0.448068
   6 O :   -0.447969
   7 N :   -0.466826
   8 Cl:    0.165066
   9 H :    0.228831
  10 H :    0.317540
  11 H :    0.317686

  Mayer bond orders larger than 0.100000
B(  0-C ,  1-C ) :   1.4673 B(  0-C ,  7-N ) :   1.2089 B(  0-C ,  9-H ) :   0.9416
B(  1-C ,  2-C ) :   0.9895 B(  1-C ,  8-Cl) :   0.9722 B(  2-C ,  3-O ) :   1.9675
B(  2-C ,  4-N ) :   1.0881 B(  4-N ,  5-C ) :   1.0940 B(  4-N , 10-H ) :   0.8787
B(  5-C ,  6-O ) :   1.9138 B(  5-C ,  7-N ) :   1.1071 B(  7-N , 11-H ) :   0.8757

Dispersion correction           -0.004385677
FINAL SINGLE POINT ENERGY      -874.347462257450

DIPOLE MOMENT
-------------

Method             : SCF
Type of density    : Electron Density
Multiplicity       :   1
Irrep              :   0
Energy             :  -874.3564728059749314 Eh
Relativity type    :
Basis              : AO
                                X                 Y                 Z
Electronic contribution:      5.895109238       0.546949015       0.000243648
Nuclear contribution   :     -6.379618076       1.896086345      -0.000467647
                        -----------------------------------------
Total Dipole Moment    :     -0.484508838       2.443035360      -0.000223998
                        -----------------------------------------
Magnitude (a.u.)       :      2.490616517
Magnitude (Debye)      :      6.330644082

Rotational constants in cm-1:             0.102568             0.033222             0.025094
Rotational constants in MHz :          3074.898829           995.978182           752.302794

                             ****ORCA TERMINATED NORMALLY****
TOTAL RUN TIME: 0 days 0 hours 0 minutes 31 seconds 306 msec
