                         Program Version 6.0.0  -   RELEASE  -
|  1> ! pbe def2-sv(p) def2/J RI DEFGRID1 loosescf d4 GCP(DFT/SV(P)) printgap
|  2> %output
|  3>     printlevel normal
|  4> end
|  5> * xyz 0 1
|  6> C 2.4762604496 0.582635026 -1.0485913398
|  7> C 1.6952200338 -0.0211438632 0.0804768509
|  8> O 2.2416140453 -0.5892848749 1.012169215
|  9> C 0.2150255108 0.042588297 0.0043238027
| 10> C -0.4921873496 1.1244282107 -0.5176646632
| 11> C -1.8756282716 1.073704171 -0.5262908248
| 12> C -2.5022174765 -0.0514728664 -0.0104976245
| 13> N -1.8427239961 -1.0857419439 0.4922372827
| 14> C -0.5255612297 -1.0338768502 0.5019993677
| 15> H 3.3065997105 1.1592794237 -0.6478527087
| 16> H 1.864448487 1.1906013729 -1.7033468242
| 17> H 2.9047630327 -0.2364604495 -1.6248795385
| 18> H 0.0221255201 2.0023269885 -0.8774527612
| 19> H -2.4575494501 1.8927331387 -0.9158797812
| 20> H -3.5795990615 -0.1348183577 0.0122510959
| 21> H -0.0111729258 -1.8901988628 0.9180712899
| 22> *
| 23>
| 24>                          ****END OF INPUT****

CARTESIAN COORDINATES (ANGSTROEM)
---------------------------------
  C      2.476260    0.582635   -1.048591
  C      1.695220   -0.021144    0.080477
  O      2.241614   -0.589285    1.012169
  C      0.215026    0.042588    0.004324
  C     -0.492187    1.124428   -0.517665
  C     -1.875628    1.073704   -0.526291
  C     -2.502217   -0.051473   -0.010498
  N     -1.842724   -1.085742    0.492237
  C     -0.525561   -1.033877    0.501999
  H      3.306600    1.159279   -0.647853
  H      1.864448    1.190601   -1.703347
  H      2.904763   -0.236460   -1.624880
  H      0.022126    2.002327   -0.877453
  H     -2.457549    1.892733   -0.915880
  H     -3.579599   -0.134818    0.012251
  H     -0.011173   -1.890199    0.918071

 Total Charge           Charge          ....    0
 Multiplicity           Mult            ....    1
 Number of Electrons    NEL             ....   64
 Basis Dimension        Dim             ....  140

ORBITAL ENERGIES
----------------

  NO   OCC          E(Eh)            E(eV)
   0   2.0000     -18.747237      -510.1383
   1   2.0000     -13.994313      -380.8046
   2   2.0000      -9.985032      -271.7065
   3   2.0000      -9.937560      -270.4147
   4   2.0000      -9.935132      -270.3487
   5   2.0000      -9.928808      -270.1766
   6   2.0000      -9.919390      -269.9203
   7   2.0000      -9.916541      -269.8428
   8   2.0000      -9.896684      -269.3025
   9   2.0000      -0.943444       -25.6724
  10   2.0000      -0.872349       -23.7378
  11   2.0000      -0.748559       -20.3693
  12   2.0000      -0.707741       -19.2586
  13   2.0000      -0.675548       -18.3826
  14   2.0000      -0.594497       -16.1771
  15   2.0000      -0.578224       -15.7343
  16   2.0000      -0.512412       -13.9434
  17   2.0000      -0.474194       -12.9035
  18   2.0000      -0.453894       -12.3511
  19   2.0000      -0.424534       -11.5522
  20   2.0000      -0.409025       -11.1301
  21   2.0000      -0.404089       -10.9958
  22   2.0000      -0.383732       -10.4419
  23   2.0000      -0.374691       -10.1959
  24   2.0000      -0.369117       -10.0442
  25   2.0000      -0.359276        -9.7764
  26   2.0000      -0.335559        -9.1310
  27   2.0000      -0.322875        -8.7859
  28   2.0000      -0.276991        -7.5373
  29   2.0000      -0.253292        -6.8924
  30   2.0000      -0.221059        -6.0153
  31   2.0000      -0.202749        -5.5171
  32   0.0000      -0.096014        -2.6127
  33   0.0000      -0.066695        -1.8149
  34   0.0000      -0.022273        -0.6061
  35   0.0000       0.032253         0.8776
  36   0.0000       0.059810         1.6275

MULLIKEN ATOMIC CHARGES
-----------------------
   0 C :   -0.255238
   1 C :    0.017220
   2 O :   -0.167105
   3 C :    0.009138
   4 C :   -0.049897
   5 C :   -0.069841
   6 C :   -0.047513
   7 N :   -0.046156
   8 C :   -0.069460
   9 H :    0.129549
  10 H :    0.114045
  11 H :    0.139443
  12 H :    0.070436
  13 H :    0.068096
  14 H :    0.078406
  15 H :    0.078877
Sum of atomic charges:    0.0000000

LOEWDIN ATOMIC CHARGES
----------------------
   0 C :   -0.360254
   1 C :    0.048392
   2 O :   -0.127057
   3 C :   -0.089511
   4 C :   -0.086342
   5 C :   -0.138283
   6 C :   -0.066657
   7 N :   -0.066219
   8 C :   -0.047078
   9 H :    0.146173
  10 H :    0.126611
  11 H :    0.155424
  12 H :    0.130046
  13 H :    0.131786
  14 H :    0.118771
  15 H :    0.124198

  Mayer bond orders larger than 0.100000
B(  0-C ,  1-C ) :   1.0794 B(  0-C ,  9-H ) :   0.9240 B(  0-C , 10-H ) :   0.9305
B(  0-C , 11-H ) :   0.9188 B(  1-C ,  2-O ) :   2.1534 B(  1-C ,  3-C ) :   0.9301
B(  3-C ,  4-C ) :   1.3868 B(  3-C ,  8-C ) :   1.3436 B(  4-C ,  5-C ) :   1.4151
B(  4-C , 12-H ) :   0.9480 B(  5-C ,  6-C ) :   1.3800 B(  5-C , 13-H ) :   0.9463
B(  6-C ,  7-N ) :   1.5317 B(  6-C , 14-H ) :   0.9530 B(  7-N ,  8-C ) :   1.5575
B(  8-C , 15-H ) :   0.9491

Dispersion correction           -0.016384965
FINAL SINGLE POINT ENERGY      -400.081003551692

DIPOLE MOMENT
-------------

Method             : SCF
Type of density    : Electron Density
Multiplicity       :   1
Irrep              :   0
Energy             :  -400.1262004157537149 Eh
Relativity type    :
Basis              : AO
                                X                 Y                 Z
Electronic contribution:     -2.130953192      -2.698137103       3.473342194
Nuclear contribution   :      1.945992393       3.722464421      -4.522187828
                        -----------------------------------------
Total Dipole Moment    :     -0.184960800       1.024327318      -1.048845634
                        -----------------------------------------
Magnitude (a.u.)       :      1.477678624
Magnitude (Debye)      :      3.755960570

Rotational constants in cm-1:             0.126484             0.040646             0.032208
Rotational constants in MHz :          3791.903300          1218.539612           965.585410

                             ****ORCA TERMINATED NORMALLY****
TOTAL RUN TIME: 0 days 0 hours 0 minutes 8 seconds 951 msec
