                         Program Version 6.0.0  -   RELEASE  -
|  1> ! pbe def2-sv(p) def2/J RI DEFGRID1 loosescf d4 GCP(DFT/SV(P)) printgap
|  2> %output
|  3>     printlevel normal
|  4> end
|  5> * xyz 0 1
|  6> C -2.7300774166 0.9451542237 1.3127214223
|  7> C -1.6568843491 0.5025309003 0.3706759523
|  8> C -0.8647009141 1.3197536652 -0.3126021656
|  9> C 0.18499405 0.7682673519 -1.2210712327
| 10> C 0.9557659907 -0.4245438678 -0.5979615125
| 11> H 1.24509052 -1.0820854613 -1.4220507356
| 12> C 0.0927091798 -1.2372627526 0.3851631552
| 13> C -1.4096526005 -0.9806396618 0.216088422
| 14> H -1.9504341249 -1.5365791989 0.9995229669
| 15> O -1.8069569104 -1.4802981909 -1.0549954335
| 16> C 2.217726292 0.0781428093 0.059335004
| 17> C 3.4123881067 -0.247302677 -0.4108296366
| 18> C 2.0609894798 0.9833575675 1.2462176291
| 19> H -2.8008412141 2.0292860586 1.3302649619
| 20> H -2.5114942436 0.5899606737 2.3195827074
| 21> H -3.6953211636 0.5341989987 1.0201374301
| 22> H -0.9756025442 2.3932703632 -0.2512053014
| 23> H -0.3020588709 0.4085403527 -2.1306981567
| 24> H 0.8955023508 1.5440853343 -1.5096136569
| 25> H 0.2838427243 -2.3011102603 0.2428320269
| 26> H 0.344795085 -0.9810960707 1.4133341218
| 27> H -2.7439674295 -1.2900702514 -1.1896475034
| 28> H 4.3196793501 0.1252074392 0.0349526589
| 29> H 3.5344551401 -0.9027769741 -1.2565862311
| 30> H 1.1458025838 1.5647589988 1.1684221658
| 31> H 2.0127337661 0.3987142039 2.1645266888
| 32> H 2.9105244195 1.6564152491 1.3274862795
| 33> *
| 34>
| 35>                          ****END OF INPUT****

CARTESIAN COORDINATES (ANGSTROEM)
---------------------------------
  C     -2.730077    0.945154    1.312721
  C     -1.656884    0.502531    0.370676
  C     -0.864701    1.319754   -0.312602
  C      0.184994    0.768267   -1.221071
  C      0.955766   -0.424544   -0.597962
  H      1.245091   -1.082085   -1.422051
  C      0.092709   -1.237263    0.385163
  C     -1.409653   -0.980640    0.216088
  H     -1.950434   -1.536579    0.999523
  O     -1.806957   -1.480298   -1.054995
  C      2.217726    0.078143    0.059335
  C      3.412388   -0.247303   -0.410830
  C      2.060989    0.983358    1.246218
  H     -2.800841    2.029286    1.330265
  H     -2.511494    0.589961    2.319583
  H     -3.695321    0.534199    1.020137
  H     -0.975603    2.393270   -0.251205
  H     -0.302059    0.408540   -2.130698
  H      0.895502    1.544085   -1.509614
  H      0.283843   -2.301110    0.242832
  H      0.344795   -0.981096    1.413334
  H     -2.743967   -1.290070   -1.189648
  H      4.319679    0.125207    0.034953
  H      3.534455   -0.902777   -1.256586
  H      1.145803    1.564759    1.168422
  H      2.012734    0.398714    2.164527
  H      2.910524    1.656415    1.327486

 Total Charge           Charge          ....    0
 Multiplicity           Mult            ....    1
 Number of Electrons    NEL             ....   84
 Basis Dimension        Dim             ....  186

ORBITAL ENERGIES
----------------

  NO   OCC          E(Eh)            E(eV)
   0   2.0000     -18.742933      -510.0211
   1   2.0000      -9.937452      -270.4118
   2   2.0000      -9.892816      -269.1972
   3   2.0000      -9.892692      -269.1938
   4   2.0000      -9.888321      -269.0749
   5   2.0000      -9.885439      -268.9965
   6   2.0000      -9.882934      -268.9283
   7   2.0000      -9.881596      -268.8919
   8   2.0000      -9.881263      -268.8828
   9   2.0000      -9.875271      -268.7198
  10   2.0000      -9.860601      -268.3206
  11   2.0000      -0.919673       -25.0256
  12   2.0000      -0.761244       -20.7145
  13   2.0000      -0.719430       -19.5767
  14   2.0000      -0.672729       -18.3059
  15   2.0000      -0.660527       -17.9739
  16   2.0000      -0.615611       -16.7516
  17   2.0000      -0.601789       -16.3755
  18   2.0000      -0.550969       -14.9926
  19   2.0000      -0.526325       -14.3220
  20   2.0000      -0.481437       -13.1006
  21   2.0000      -0.472038       -12.8448
  22   2.0000      -0.440099       -11.9757
  23   2.0000      -0.420844       -11.4518
  24   2.0000      -0.399512       -10.8713
  25   2.0000      -0.394026       -10.7220
  26   2.0000      -0.384899       -10.4736
  27   2.0000      -0.373188       -10.1550
  28   2.0000      -0.372464       -10.1353
  29   2.0000      -0.355096        -9.6626
  30   2.0000      -0.345698        -9.4069
  31   2.0000      -0.340692        -9.2707
  32   2.0000      -0.331040        -9.0081
  33   2.0000      -0.328635        -8.9426
  34   2.0000      -0.316621        -8.6157
  35   2.0000      -0.301141        -8.1945
  36   2.0000      -0.290057        -7.8928
  37   2.0000      -0.273443        -7.4408
  38   2.0000      -0.254882        -6.9357
  39   2.0000      -0.219271        -5.9667
  40   2.0000      -0.215643        -5.8679
  41   2.0000      -0.197655        -5.3785
  42   0.0000      -0.023049        -0.6272
  43   0.0000      -0.003336        -0.0908
  44   0.0000       0.024183         0.6581
  45   0.0000       0.051545         1.4026
  46   0.0000       0.059052         1.6069

MULLIKEN ATOMIC CHARGES
-----------------------
   0 C :   -0.199159
   1 C :   -0.067668
   2 C :   -0.258125
   3 C :    0.025362
   4 C :   -0.133572
   5 H :    0.055069
   6 C :   -0.046766
   7 C :    0.058073
   8 H :    0.041885
   9 O :   -0.426288
  10 C :   -0.072652
  11 C :   -0.231014
  12 C :   -0.229203
  13 H :    0.098386
  14 H :    0.109203
  15 H :    0.097489
  16 H :    0.043880
  17 H :    0.093635
  18 H :    0.085968
  19 H :    0.082365
  20 H :    0.081437
  21 H :    0.296847
  22 H :    0.075779
  23 H :    0.082224
  24 H :    0.115557
  25 H :    0.119403
  26 H :    0.101884
Sum of atomic charges:    0.0000000

LOEWDIN ATOMIC CHARGES
----------------------
   0 C :   -0.322821
   1 C :   -0.094189
   2 C :   -0.143542
   3 C :   -0.213306
   4 C :   -0.118829
   5 H :    0.124167
   6 C :   -0.206633
   7 C :   -0.038709
   8 H :    0.096078
   9 O :   -0.329426
  10 C :   -0.050245
  11 C :   -0.271749
  12 C :   -0.329954
  13 H :    0.124211
  14 H :    0.127721
  15 H :    0.122113
  16 H :    0.115490
  17 H :    0.136164
  18 H :    0.122392
  19 H :    0.126465
  20 H :    0.123250
  21 H :    0.284299
  22 H :    0.113585
  23 H :    0.115677
  24 H :    0.128274
  25 H :    0.132013
  26 H :    0.127506

  Mayer bond orders larger than 0.100000
B(  0-C ,  1-C ) :   1.1399 B(  0-C , 13-H ) :   0.9420 B(  0-C , 14-H ) :   0.9271
B(  0-C , 15-H ) :   0.9300 B(  1-C ,  2-C ) :   1.8585 B(  1-C ,  7-C ) :   0.9980
B(  2-C ,  3-C ) :   1.0918 B(  2-C , 16-H ) :   0.9372 B(  3-C ,  4-C ) :   1.0757
B(  3-C , 17-H ) :   0.8593 B(  3-C , 18-H ) :   0.9124 B(  4-C ,  5-H ) :   0.8676
B(  4-C ,  6-C ) :   1.0794 B(  4-C , 10-C ) :   1.0322 B(  6-C ,  7-C ) :   1.0963
B(  6-C , 19-H ) :   0.8905 B(  6-C , 20-H ) :   0.9044 B(  7-C ,  8-H ) :   0.8992
B(  7-C ,  9-O ) :   1.0251 B(  9-O , 21-H ) :   0.8532 B( 10-C , 11-C ) :   2.0342
B( 10-C , 12-C ) :   1.1073 B( 11-C , 22-H ) :   0.9114 B( 11-C , 23-H ) :   0.9087
B( 12-C , 24-H ) :   0.9219 B( 12-C , 25-H ) :   0.9222 B( 12-C , 26-H ) :   0.9353

Dispersion correction           -0.029413758
FINAL SINGLE POINT ENERGY      -464.784507911134

DIPOLE MOMENT
-------------

Method             : SCF
Type of density    : Electron Density
Multiplicity       :   1
Irrep              :   0
Energy             :  -464.8732105891540414 Eh
Relativity type    :
Basis              : AO
                                X                 Y                 Z
Electronic contribution:     -2.216153541      -2.685377236      -3.636396678
Nuclear contribution   :      1.580008839       2.933948578       3.982127682
                        -----------------------------------------
Total Dipole Moment    :     -0.636144702       0.248571342       0.345731004
                        -----------------------------------------
Magnitude (a.u.)       :      0.765504880
Magnitude (Debye)      :      1.945758773

Rotational constants in cm-1:             0.062781             0.026095             0.022765
Rotational constants in MHz :          1882.115666           782.311440           682.476037

                             ****ORCA TERMINATED NORMALLY****
TOTAL RUN TIME: 0 days 0 hours 0 minutes 12 seconds 518 msec
