                         Program Version 6.0.0  -   RELEASE  -
|  1> ! wb97x-v def2-tzvp def2/J RIJCOSX DEFGRID2 scfconv7 GCP(DFT/TZ) printgap
|  2> %output
|  3>     printlevel normal
|  4> end
|  5> * xyz 0 1
|  6> C -0.7370524559248217 -3.096802450980666e-05 9.534915121964908e-06
|  7> F 0.674839394146895 5.309527537790244e-05 6.779453745921079e-06
|  8> H -1.0797781008119245 0.979360963898613 0.3430794152738554
|  9> H -1.079763414925427 -0.19257316180293826 -1.0197651405943244
| 10> H -1.079744960021925 -0.7868799466595162 0.6766410887945228
| 11> *
| 12>
| 13>                          ****END OF INPUT****

CARTESIAN COORDINATES (ANGSTROEM)
---------------------------------
  C     -0.737052   -0.000031    0.000010
  F      0.674839    0.000053    0.000007
  H     -1.079778    0.979361    0.343079
  H     -1.079763   -0.192573   -1.019765
  H     -1.079745   -0.786880    0.676641

 Total Charge           Charge          ....    0
 Multiplicity           Mult            ....    1
 Number of Electrons    NEL             ....   18
 Basis Dimension        Dim             ....   80

ORBITAL ENERGIES
----------------

  NO   OCC          E(Eh)            E(eV)
   0   2.0000     -27.539933      -749.3997
   1   2.0000     -12.121172      -329.8339
   2   2.0000      -1.946673       -52.9717
   3   2.0000      -1.262612       -34.3574
   4   2.0000      -1.104688       -30.0601
   5   2.0000      -1.104686       -30.0600
   6   2.0000      -1.060305       -28.8524
   7   2.0000      -0.847034       -23.0490
   8   2.0000      -0.847015       -23.0485
   9   0.0000      -0.215530        -5.8649
  10   0.0000       0.005572         0.1516
  11   0.0000       0.038824         1.0564
  12   0.0000       0.038837         1.0568
  13   0.0000       0.192354         5.2342

MULLIKEN ATOMIC CHARGES
-----------------------
   0 C :   -0.080036
   1 F :   -0.256061
   2 H :    0.112042
   3 H :    0.112028
   4 H :    0.112027
Sum of atomic charges:   -0.0000000

LOEWDIN ATOMIC CHARGES
----------------------
   0 C :   -0.310894
   1 F :    0.015670
   2 H :    0.098403
   3 H :    0.098413
   4 H :    0.098407

  Mayer bond orders larger than 0.100000
B(  0-C ,  1-F ) :   0.9841 B(  0-C ,  2-H ) :   0.9771 B(  0-C ,  3-H ) :   0.9771
B(  0-C ,  4-H ) :   0.9771

FINAL SINGLE POINT ENERGY      -139.750308047017

DIPOLE MOMENT
-------------

Method             : SCF
Type of density    : Electron Density
Multiplicity       :   1
Irrep              :   0
Energy             :  -139.7535265277174119 Eh
Relativity type    :
Basis              : AO
                                X                 Y                 Z
Electronic contribution:      2.925289074       0.000092898       0.000088520
Nuclear contribution   :     -3.703264095      -0.000165814      -0.000059161
                        -----------------------------------------
Total Dipole Moment    :     -0.777975020      -0.000072916       0.000029360
                        -----------------------------------------
Magnitude (a.u.)       :      0.777975024
Magnitude (Debye)      :      1.977455360

Rotational constants in cm-1:             5.176254             0.829763             0.829758
Rotational constants in MHz :        155180.179399         24875.678430         24875.521373

                             ****ORCA TERMINATED NORMALLY****
TOTAL RUN TIME: 0 days 0 hours 0 minutes 9 seconds 397 msec
