                         Program Version 6.0.0  -   RELEASE  -
|  1> ! wb97x-v def2-tzvp def2/J RIJCOSX DEFGRID2 scfconv7 GCP(DFT/TZ) printgap
|  2> %output
|  3>     printlevel normal
|  4> end
|  5> %cpcm
|  6>     smd true
|  7>     smdsolvent "water"
|  8> end
|  9> * xyz 0 1
| 10> C -0.7370524559248217 -3.096802450980666e-05 9.534915121964908e-06
| 11> F 0.674839394146895 5.309527537790244e-05 6.779453745921079e-06
| 12> H -1.0797781008119245 0.979360963898613 0.3430794152738554
| 13> H -1.079763414925427 -0.19257316180293826 -1.0197651405943244
| 14> H -1.079744960021925 -0.7868799466595162 0.6766410887945228
| 15> *
| 16>
| 17>                          ****END OF INPUT****

CARTESIAN COORDINATES (ANGSTROEM)
---------------------------------
  C     -0.737052   -0.000031    0.000010
  F      0.674839    0.000053    0.000007
  H     -1.079778    0.979361    0.343079
  H     -1.079763   -0.192573   -1.019765
  H     -1.079745   -0.786880    0.676641

 Total Charge           Charge          ....    0
 Multiplicity           Mult            ....    1
 Number of Electrons    NEL             ....   18
 Basis Dimension        Dim             ....   80

ORBITAL ENERGIES
----------------

  NO   OCC          E(Eh)            E(eV)
   0   2.0000     -27.543066      -749.4849
   1   2.0000     -12.105803      -329.4157
   2   2.0000      -1.951069       -53.0913
   3   2.0000      -1.259045       -34.2604
   4   2.0000      -1.109209       -30.1831
   5   2.0000      -1.109209       -30.1831
   6   2.0000      -1.052467       -28.6391
   7   2.0000      -0.831943       -22.6383
   8   2.0000      -0.831928       -22.6379
   9   0.0000      -0.203495        -5.5374
  10   0.0000       0.025134         0.6839
  11   0.0000       0.059493         1.6189
  12   0.0000       0.059513         1.6194
  13   0.0000       0.195724         5.3259

MULLIKEN ATOMIC CHARGES
-----------------------
   0 C :   -0.112994
   1 F :   -0.300344
   2 H :    0.137746
   3 H :    0.137781
   4 H :    0.137810
Sum of atomic charges:   -0.0000000

LOEWDIN ATOMIC CHARGES
----------------------
   0 C :   -0.305618
   1 F :   -0.012442
   2 H :    0.105995
   3 H :    0.106024
   4 H :    0.106041

  Mayer bond orders larger than 0.100000
B(  0-C ,  1-F ) :   0.9294 B(  0-C ,  2-H ) :   0.9740 B(  0-C ,  3-H ) :   0.9739
B(  0-C ,  4-H ) :   0.9740

FINAL SINGLE POINT ENERGY      -139.751314219943

DIPOLE MOMENT
-------------

Method             : SCF
Type of density    : Electron Density
Multiplicity       :   1
Irrep              :   0
Energy             :  -139.7545327006433808 Eh
Relativity type    :
Basis              : AO
                                X                 Y                 Z
Electronic contribution:      2.756357463      -0.000141103       0.000183055
Nuclear contribution   :     -3.703264095      -0.000165814      -0.000059161
                        -----------------------------------------
Total Dipole Moment    :     -0.946906632      -0.000306916       0.000123895
                        -----------------------------------------
Magnitude (a.u.)       :      0.946906690
Magnitude (Debye)      :      2.406845530

Rotational constants in cm-1:             5.176254             0.829763             0.829758
Rotational constants in MHz :        155180.179399         24875.678430         24875.521373

                             ****ORCA TERMINATED NORMALLY****
TOTAL RUN TIME: 0 days 0 hours 0 minutes 9 seconds 892 msec
