                         Program Version 6.0.0  -   RELEASE  -
|  1> ! pbe def2-sv(p) def2/J RI DEFGRID1 loosescf d4 GCP(DFT/SV(P)) printgap
|  2> %output
|  3>     printlevel normal
|  4> end
|  5> * xyz 0 1
|  6> C -3.3901611623 -0.6762111078 -0.3608059198
|  7> C -1.8927346971 -0.3915124122 -0.4441904213
|  8> H -1.5968158541 -0.4354994707 -1.4983274593
|  9> C -1.077735001 -1.4257629417 0.3531651517
| 10> C -0.034584607 -0.8034143677 1.2875358924
| 11> C 0.7593775688 0.3646103505 0.6909953356
| 12> H 1.1003846942 0.9890625383 1.5290910841
| 13> C -0.1290235719 1.288087376 -0.1094544691
| 14> O 0.3124733436 2.1620183793 -0.8336167601
| 15> C -1.5982738235 1.0348031493 0.0480183358
| 16> C 2.0407459876 0.0135637467 -0.0986137142
| 17> C 3.1382777143 -0.5185513548 0.8195712406
| 18> C 1.7867044203 -0.9633530323 -1.2427935419
| 19> H -3.7329881365 -0.6076362747 0.6687543865
| 20> H -3.949975874 0.0384941768 -0.9592174161
| 21> H -3.602332431 -1.6753003522 -0.7330089609
| 22> H -1.7551566243 -2.0201821498 0.9687166736
| 23> H -0.5958335312 -2.1108751108 -0.3420953717
| 24> H -0.5465720087 -0.4404229725 2.180611389
| 25> H 0.6569257731 -1.5795243495 1.6141727953
| 26> H -1.8783443488 1.1253643165 1.0974799164
| 27> H -2.1595475694 1.7648407725 -0.5368054142
| 28> H 2.3849757692 0.9594945544 -0.5348342715
| 29> H 4.0499122448 -0.6785140881 0.2494223627
| 30> H 2.8485723682 -1.4670089054 1.2648772259
| 31> H 3.3535927259 0.1882586423 1.6172703686
| 32> H 2.6813888419 -1.050601068 -1.8552359824
| 33> H 0.9771821886 -0.6085308924 -1.8767201815
| 34> H 1.5402757111 -1.9511520617 -0.8640175907
| 35> *
| 36>
| 37>                          ****END OF INPUT****

CARTESIAN COORDINATES (ANGSTROEM)
---------------------------------
  C     -3.390161   -0.676211   -0.360806
  C     -1.892735   -0.391512   -0.444190
  H     -1.596816   -0.435499   -1.498327
  C     -1.077735   -1.425763    0.353165
  C     -0.034585   -0.803414    1.287536
  C      0.759378    0.364610    0.690995
  H      1.100385    0.989063    1.529091
  C     -0.129024    1.288087   -0.109454
  O      0.312473    2.162018   -0.833617
  C     -1.598274    1.034803    0.048018
  C      2.040746    0.013564   -0.098614
  C      3.138278   -0.518551    0.819571
  C      1.786704   -0.963353   -1.242794
  H     -3.732988   -0.607636    0.668754
  H     -3.949976    0.038494   -0.959217
  H     -3.602332   -1.675300   -0.733009
  H     -1.755157   -2.020182    0.968717
  H     -0.595834   -2.110875   -0.342095
  H     -0.546572   -0.440423    2.180611
  H      0.656926   -1.579524    1.614173
  H     -1.878344    1.125364    1.097480
  H     -2.159548    1.764841   -0.536805
  H      2.384976    0.959495   -0.534834
  H      4.049912   -0.678514    0.249422
  H      2.848572   -1.467009    1.264877
  H      3.353593    0.188259    1.617270
  H      2.681389   -1.050601   -1.855236
  H      0.977182   -0.608531   -1.876720
  H      1.540276   -1.951152   -0.864018

 Total Charge           Charge          ....    0
 Multiplicity           Mult            ....    1
 Number of Electrons    NEL             ....   86
 Basis Dimension        Dim             ....  190

ORBITAL ENERGIES
----------------

  NO   OCC          E(Eh)            E(eV)
   0   2.0000     -18.730565      -509.6846
   1   2.0000      -9.965900      -271.1859
   2   2.0000      -9.907715      -269.6026
   3   2.0000      -9.898166      -269.3428
   4   2.0000      -9.895346      -269.2661
   5   2.0000      -9.893458      -269.2147
   6   2.0000      -9.889242      -269.1000
   7   2.0000      -9.888234      -269.0725
   8   2.0000      -9.880383      -268.8589
   9   2.0000      -9.873912      -268.6828
  10   2.0000      -9.873614      -268.6747
  11   2.0000      -0.928722       -25.2718
  12   2.0000      -0.767188       -20.8762
  13   2.0000      -0.728886       -19.8340
  14   2.0000      -0.677244       -18.4288
  15   2.0000      -0.656062       -17.8523
  16   2.0000      -0.617922       -16.8145
  17   2.0000      -0.611066       -16.6280
  18   2.0000      -0.561339       -15.2748
  19   2.0000      -0.511492       -13.9184
  20   2.0000      -0.503527       -13.7017
  21   2.0000      -0.456875       -12.4322
  22   2.0000      -0.450070       -12.2470
  23   2.0000      -0.425193       -11.5701
  24   2.0000      -0.411353       -11.1935
  25   2.0000      -0.395293       -10.7565
  26   2.0000      -0.388016       -10.5584
  27   2.0000      -0.377014       -10.2591
  28   2.0000      -0.364469        -9.9177
  29   2.0000      -0.361963        -9.8495
  30   2.0000      -0.349228        -9.5030
  31   2.0000      -0.343032        -9.3344
  32   2.0000      -0.339271        -9.2320
  33   2.0000      -0.335992        -9.1428
  34   2.0000      -0.322535        -8.7766
  35   2.0000      -0.317904        -8.6506
  36   2.0000      -0.295730        -8.0472
  37   2.0000      -0.294736        -8.0202
  38   2.0000      -0.292166        -7.9503
  39   2.0000      -0.280643        -7.6367
  40   2.0000      -0.269957        -7.3459
  41   2.0000      -0.264278        -7.1914
  42   2.0000      -0.187460        -5.1010
  43   0.0000      -0.048395        -1.3169
  44   0.0000       0.021583         0.5873
  45   0.0000       0.040174         1.0932
  46   0.0000       0.048700         1.3252
  47   0.0000       0.061389         1.6705

MULLIKEN ATOMIC CHARGES
-----------------------
   0 C :   -0.212030
   1 C :   -0.262100
   2 H :    0.086015
   3 C :   -0.095530
   4 C :   -0.104424
   5 C :   -0.135955
   6 H :    0.093027
   7 C :   -0.003348
   8 O :   -0.164407
   9 C :   -0.032049
  10 C :   -0.166165
  11 C :   -0.235654
  12 C :   -0.256594
  13 H :    0.094746
  14 H :    0.100766
  15 H :    0.106567
  16 H :    0.076182
  17 H :    0.088074
  18 H :    0.069292
  19 H :    0.091002
  20 H :    0.082768
  21 H :    0.082343
  22 H :    0.088891
  23 H :    0.100290
  24 H :    0.095877
  25 H :    0.096490
  26 H :    0.102382
  27 H :    0.111588
  28 H :    0.101957
Sum of atomic charges:   -0.0000000

LOEWDIN ATOMIC CHARGES
----------------------
   0 C :   -0.326419
   1 C :   -0.145150
   2 H :    0.120152
   3 C :   -0.221724
   4 C :   -0.220628
   5 C :   -0.163434
   6 H :    0.145921
   7 C :    0.052777
   8 O :   -0.132947
   9 C :   -0.234608
  10 C :   -0.144536
  11 C :   -0.329827
  12 C :   -0.330757
  13 H :    0.116787
  14 H :    0.119513
  15 H :    0.120516
  16 H :    0.120426
  17 H :    0.120485
  18 H :    0.120033
  19 H :    0.122226
  20 H :    0.132505
  21 H :    0.128162
  22 H :    0.124019
  23 H :    0.120546
  24 H :    0.113190
  25 H :    0.117044
  26 H :    0.122110
  27 H :    0.118746
  28 H :    0.114872

  Mayer bond orders larger than 0.100000
B(  0-C ,  1-C ) :   1.1178 B(  0-C , 13-H ) :   0.9441 B(  0-C , 14-H ) :   0.9464
B(  0-C , 15-H ) :   0.9481 B(  1-C ,  2-H ) :   0.8929 B(  1-C ,  3-C ) :   1.0657
B(  1-C ,  9-C ) :   1.1177 B(  3-C ,  4-C ) :   1.1866 B(  3-C , 16-H ) :   0.9059
B(  3-C , 17-H ) :   0.9035 B(  4-C ,  5-C ) :   1.0868 B(  4-C , 18-H ) :   0.8805
B(  4-C , 19-H ) :   0.9072 B(  5-C ,  6-H ) :   0.8448 B(  5-C ,  7-C ) :   0.9158
B(  5-C , 10-C ) :   1.0570 B(  7-C ,  8-O ) :   2.1713 B(  7-C ,  9-C ) :   1.0935
B(  9-C , 20-H ) :   0.8578 B(  9-C , 21-H ) :   0.8900 B( 10-C , 11-C ) :   1.1153
B( 10-C , 12-C ) :   1.1287 B( 10-C , 22-H ) :   0.8808 B( 11-C , 23-H ) :   0.9487
B( 11-C , 24-H ) :   0.9386 B( 11-C , 25-H ) :   0.9488 B( 12-C , 26-H ) :   0.9448
B( 12-C , 27-H ) :   0.9407 B( 12-C , 28-H ) :   0.9343

Dispersion correction           -0.030688675
FINAL SINGLE POINT ENERGY      -466.028570717532

DIPOLE MOMENT
-------------

Method             : SCF
Type of density    : Electron Density
Multiplicity       :   1
Irrep              :   0
Energy             :  -466.1245191396614018 Eh
Relativity type    :
Basis              : AO
                                X                 Y                 Z
Electronic contribution:     -0.121093068       8.146066984      -1.300081147
Nuclear contribution   :     -0.205848150      -8.936541519       1.854709416
                        -----------------------------------------
Total Dipole Moment    :     -0.326941218      -0.790474535       0.554628269
                        -----------------------------------------
Magnitude (a.u.)       :      1.019486668
Magnitude (Debye)      :      2.591329174

Rotational constants in cm-1:             0.058490             0.026266             0.022320
Rotational constants in MHz :          1753.496676           787.438132           669.141729

                             ****ORCA TERMINATED NORMALLY****
TOTAL RUN TIME: 0 days 0 hours 0 minutes 12 seconds 980 msec
