                         Program Version 6.0.0  -   RELEASE  -
|  1> ! r2scan-3c def2/J RI DEFGRID2 scfconv6 printgap
|  2> %output
|  3>     printlevel normal
|  4> end
|  5> * xyz 0 1
|  6> C -3.7682080245 0.9161059752 -0.0275293056
|  7> O -2.3405139451 0.9123043926 -0.029594663
|  8> C -1.716848079 -0.2677919879 0.012545965
|  9> O -2.31747579 -1.3296788076 0.0458612557
| 10> C -0.2526033441 -0.1453451246 0.0060644159
| 11> C 0.3845917186 1.0975704807 -0.0191275429
| 12> C 1.758321603 1.1712051695 -0.0233358405
| 13> C 2.5278380474 0.0047375667 -0.0029898859
| 14> C 1.8939251466 -1.237845073 0.0221130062
| 15> C 0.5181958416 -1.3081539437 0.0271266669
| 16> O 3.8677132834 0.133735555 -0.0083415736
| 17> H -4.0686687452 1.8161781197 -0.556446082
| 18> H -4.1281189866 0.9370525674 1.0017186483
| 19> H -4.1453605221 0.0214479663 -0.5249619567
| 20> H -0.2097513081 1.9965877988 -0.034666572
| 21> H 2.2672249842 2.1213334429 -0.0421633996
| 22> H 2.4794893485 -2.1446360124 0.0377885241
| 23> H 0.0112977434 -2.2609888923 0.0467220469
| 24> H 4.3080226225 -0.7311266833 0.0073705918
| 25> *
| 26>
| 27>                          ****END OF INPUT****

CARTESIAN COORDINATES (ANGSTROEM)
---------------------------------
  C     -3.768208    0.916106   -0.027529
  O     -2.340514    0.912304   -0.029595
  C     -1.716848   -0.267792    0.012546
  O     -2.317476   -1.329679    0.045861
  C     -0.252603   -0.145345    0.006064
  C      0.384592    1.097570   -0.019128
  C      1.758322    1.171205   -0.023336
  C      2.527838    0.004738   -0.002990
  C      1.893925   -1.237845    0.022113
  C      0.518196   -1.308154    0.027127
  O      3.867713    0.133736   -0.008342
  H     -4.068669    1.816178   -0.556446
  H     -4.128119    0.937053    1.001719
  H     -4.145361    0.021448   -0.524962
  H     -0.209751    1.996588   -0.034667
  H      2.267225    2.121333   -0.042163
  H      2.479489   -2.144636    0.037789
  H      0.011298   -2.260989    0.046722
  H      4.308023   -0.731127    0.007371

 Total Charge           Charge          ....    0
 Multiplicity           Mult            ....    1
 Number of Electrons    NEL             ....   80
 Basis Dimension        Dim             ....  264

ORBITAL ENERGIES
----------------

  NO   OCC          E(Eh)            E(eV)
   0   2.0000     -19.002985      -517.0975
   1   2.0000     -18.996358      -516.9172
   2   2.0000     -18.924231      -514.9545
   3   2.0000     -10.151812      -276.2449
   4   2.0000     -10.114605      -275.2324
   5   2.0000     -10.084046      -274.4008
   6   2.0000     -10.049415      -273.4585
   7   2.0000     -10.049369      -273.4572
   8   2.0000     -10.047661      -273.4108
   9   2.0000     -10.047074      -273.3948
  10   2.0000     -10.041965      -273.2558
  11   2.0000      -1.068632       -29.0789
  12   2.0000      -1.049894       -28.5691
  13   2.0000      -0.970921       -26.4201
  14   2.0000      -0.836925       -22.7739
  15   2.0000      -0.743442       -20.2301
  16   2.0000      -0.733036       -19.9469
  17   2.0000      -0.691195       -18.8084
  18   2.0000      -0.618156       -16.8209
  19   2.0000      -0.592882       -16.1331
  20   2.0000      -0.540789       -14.7156
  21   2.0000      -0.531531       -14.4637
  22   2.0000      -0.503310       -13.6958
  23   2.0000      -0.456109       -12.4114
  24   2.0000      -0.449392       -12.2286
  25   2.0000      -0.435161       -11.8413
  26   2.0000      -0.418171       -11.3790
  27   2.0000      -0.405677       -11.0390
  28   2.0000      -0.402022       -10.9396
  29   2.0000      -0.400304       -10.8928
  30   2.0000      -0.374515       -10.1911
  31   2.0000      -0.371322       -10.1042
  32   2.0000      -0.353085        -9.6079
  33   2.0000      -0.324829        -8.8390
  34   2.0000      -0.318685        -8.6719
  35   2.0000      -0.311063        -8.4644
  36   2.0000      -0.270958        -7.3731
  37   2.0000      -0.250766        -6.8237
  38   2.0000      -0.237420        -6.4605
  39   2.0000      -0.219607        -5.9758
  40   0.0000      -0.065430        -1.7804
  41   0.0000      -0.042972        -1.1693
  42   0.0000       0.035004         0.9525
  43   0.0000       0.045304         1.2328
  44   0.0000       0.063701         1.7334

MULLIKEN ATOMIC CHARGES
-----------------------
   0 C :   -0.295225
   1 O :   -0.174406
   2 C :    0.358165
   3 O :   -0.442810
   4 C :    0.076998
   5 C :   -0.173245
   6 C :   -0.301517
   7 C :    0.449296
   8 C :   -0.327166
   9 C :   -0.222597
  10 O :   -0.400378
  11 H :    0.148345
  12 H :    0.151797
  13 H :    0.178855
  14 H :    0.173619
  15 H :    0.157517
  16 H :    0.140395
  17 H :    0.182755
  18 H :    0.319601
Sum of atomic charges:   -0.0000000

LOEWDIN ATOMIC CHARGES
----------------------
   0 C :   -0.042519
   1 O :   -0.614474
   2 C :    0.382976
   3 O :   -0.448972
   4 C :   -0.054152
   5 C :   -0.099831
   6 C :   -0.139928
   7 C :    0.198204
   8 C :   -0.167759
   9 C :   -0.092162
  10 O :   -0.479926
  11 H :    0.174774
  12 H :    0.172397
  13 H :    0.188159
  14 H :    0.189530
  15 H :    0.181788
  16 H :    0.171029
  17 H :    0.191692
  18 H :    0.289174

  Mayer bond orders larger than 0.100000
B(  0-C ,  1-O ) :   0.8333 B(  0-C , 11-H ) :   0.9717 B(  0-C , 12-H ) :   0.9590
B(  0-C , 13-H ) :   0.9675 B(  1-O ,  2-C ) :   1.1554 B(  1-O ,  4-C ) :  -0.1261
B(  2-C ,  3-O ) :   1.8553 B(  2-C ,  4-C ) :   1.0571 B(  4-C ,  5-C ) :   1.3519
B(  4-C ,  9-C ) :   1.4801 B(  5-C ,  6-C ) :   1.3607 B(  5-C , 14-H ) :   0.9505
B(  6-C ,  7-C ) :   1.3835 B(  6-C , 10-O ) :   0.1034 B(  6-C , 15-H ) :   0.9541
B(  7-C ,  8-C ) :   1.3000 B(  7-C , 10-O ) :   0.9414 B(  8-C ,  9-C ) :   1.3795
B(  8-C , 16-H ) :   0.9312 B(  9-C , 17-H ) :   0.9331 B( 10-O , 18-H ) :   0.8769

Dispersion correction           -0.006359812
FINAL SINGLE POINT ENERGY      -535.248624655446

DIPOLE MOMENT
-------------

Method             : SCF
Type of density    : Electron Density
Multiplicity       :   1
Irrep              :   0
Energy             :  -535.2520471203886245 Eh
Relativity type    :
Basis              : AO
                                X                 Y                 Z
Electronic contribution:      3.894309330      -1.383490967       0.038224263
Nuclear contribution   :     -3.282042228       1.643086310      -0.060524351
                        -----------------------------------------
Total Dipole Moment    :      0.612267103       0.259595344      -0.022300088
                        -----------------------------------------
Magnitude (a.u.)       :      0.665400662
Magnitude (Debye)      :      1.691314073

Rotational constants in cm-1:             0.115334             0.019463             0.016706
Rotational constants in MHz :          3457.612036           583.497788           500.835642

                             ****ORCA TERMINATED NORMALLY****
TOTAL RUN TIME: 0 days 0 hours 0 minutes 24 seconds 380 msec
