                         Program Version 6.0.0  -   RELEASE  -
|  1> ! r2scan-3c def2/J RI DEFGRID2 scfconv6 printgap
|  2> %output
|  3>     printlevel normal
|  4> end
|  5> %cpcm
|  6>     smd true
|  7>     smdsolvent "water"
|  8> end
|  9> * xyz 0 1
| 10> C -3.7682080245 0.9161059752 -0.0275293056
| 11> O -2.3405139451 0.9123043926 -0.029594663
| 12> C -1.716848079 -0.2677919879 0.012545965
| 13> O -2.31747579 -1.3296788076 0.0458612557
| 14> C -0.2526033441 -0.1453451246 0.0060644159
| 15> C 0.3845917186 1.0975704807 -0.0191275429
| 16> C 1.758321603 1.1712051695 -0.0233358405
| 17> C 2.5278380474 0.0047375667 -0.0029898859
| 18> C 1.8939251466 -1.237845073 0.0221130062
| 19> C 0.5181958416 -1.3081539437 0.0271266669
| 20> O 3.8677132834 0.133735555 -0.0083415736
| 21> H -4.0686687452 1.8161781197 -0.556446082
| 22> H -4.1281189866 0.9370525674 1.0017186483
| 23> H -4.1453605221 0.0214479663 -0.5249619567
| 24> H -0.2097513081 1.9965877988 -0.034666572
| 25> H 2.2672249842 2.1213334429 -0.0421633996
| 26> H 2.4794893485 -2.1446360124 0.0377885241
| 27> H 0.0112977434 -2.2609888923 0.0467220469
| 28> H 4.3080226225 -0.7311266833 0.0073705918
| 29> *
| 30>
| 31>                          ****END OF INPUT****

CARTESIAN COORDINATES (ANGSTROEM)
---------------------------------
  C     -3.768208    0.916106   -0.027529
  O     -2.340514    0.912304   -0.029595
  C     -1.716848   -0.267792    0.012546
  O     -2.317476   -1.329679    0.045861
  C     -0.252603   -0.145345    0.006064
  C      0.384592    1.097570   -0.019128
  C      1.758322    1.171205   -0.023336
  C      2.527838    0.004738   -0.002990
  C      1.893925   -1.237845    0.022113
  C      0.518196   -1.308154    0.027127
  O      3.867713    0.133736   -0.008342
  H     -4.068669    1.816178   -0.556446
  H     -4.128119    0.937053    1.001719
  H     -4.145361    0.021448   -0.524962
  H     -0.209751    1.996588   -0.034667
  H      2.267225    2.121333   -0.042163
  H      2.479489   -2.144636    0.037789
  H      0.011298   -2.260989    0.046722
  H      4.308023   -0.731127    0.007371

 Total Charge           Charge          ....    0
 Multiplicity           Mult            ....    1
 Number of Electrons    NEL             ....   80
 Basis Dimension        Dim             ....  264

ORBITAL ENERGIES
----------------

  NO   OCC          E(Eh)            E(eV)
   0   2.0000     -19.002240      -517.0772
   1   2.0000     -18.993288      -516.8337
   2   2.0000     -18.940918      -515.4086
   3   2.0000     -10.164835      -276.5992
   4   2.0000     -10.112003      -275.1616
   5   2.0000     -10.076132      -274.1855
   6   2.0000     -10.048649      -273.4376
   7   2.0000     -10.048065      -273.4218
   8   2.0000     -10.047909      -273.4175
   9   2.0000     -10.040953      -273.2282
  10   2.0000     -10.038731      -273.1678
  11   2.0000      -1.077177       -29.3115
  12   2.0000      -1.039997       -28.2998
  13   2.0000      -0.985974       -26.8297
  14   2.0000      -0.836238       -22.7552
  15   2.0000      -0.743177       -20.2229
  16   2.0000      -0.730285       -19.8721
  17   2.0000      -0.688258       -18.7285
  18   2.0000      -0.613263       -16.6877
  19   2.0000      -0.589432       -16.0393
  20   2.0000      -0.539129       -14.6705
  21   2.0000      -0.524196       -14.2641
  22   2.0000      -0.504729       -13.7344
  23   2.0000      -0.458602       -12.4792
  24   2.0000      -0.452045       -12.3008
  25   2.0000      -0.440258       -11.9800
  26   2.0000      -0.420268       -11.4361
  27   2.0000      -0.402249       -10.9457
  28   2.0000      -0.397140       -10.8067
  29   2.0000      -0.396958       -10.8018
  30   2.0000      -0.375490       -10.2176
  31   2.0000      -0.371894       -10.1197
  32   2.0000      -0.349993        -9.5238
  33   2.0000      -0.324995        -8.8436
  34   2.0000      -0.319756        -8.7010
  35   2.0000      -0.309633        -8.4256
  36   2.0000      -0.279936        -7.6175
  37   2.0000      -0.256069        -6.9680
  38   2.0000      -0.250398        -6.8137
  39   2.0000      -0.219803        -5.9811
  40   0.0000      -0.070772        -1.9258
  41   0.0000      -0.041822        -1.1380
  42   0.0000       0.030277         0.8239
  43   0.0000       0.066205         1.8015
  44   0.0000       0.079791         2.1712

MULLIKEN ATOMIC CHARGES
-----------------------
   0 C :   -0.319635
   1 O :   -0.184556
   2 C :    0.396701
   3 O :   -0.520530
   4 C :    0.076591
   5 C :   -0.200011
   6 C :   -0.337645
   7 C :    0.412635
   8 C :   -0.342593
   9 C :   -0.234315
  10 O :   -0.431625
  11 H :    0.176340
  12 H :    0.178863
  13 H :    0.179670
  14 H :    0.197051
  15 H :    0.188414
  16 H :    0.189479
  17 H :    0.196442
  18 H :    0.378723
Sum of atomic charges:   -0.0000000

LOEWDIN ATOMIC CHARGES
----------------------
   0 C :   -0.038569
   1 O :   -0.614453
   2 C :    0.386835
   3 O :   -0.510528
   4 C :   -0.069399
   5 C :   -0.105123
   6 C :   -0.145813
   7 C :    0.196320
   8 C :   -0.155181
   9 C :   -0.104951
  10 O :   -0.483465
  11 H :    0.187179
  12 H :    0.182014
  13 H :    0.188330
  14 H :    0.197182
  15 H :    0.191854
  16 H :    0.191037
  17 H :    0.194451
  18 H :    0.312278

  Mayer bond orders larger than 0.100000
B(  0-C ,  1-O ) :   0.8175 B(  0-C , 11-H ) :   0.9612 B(  0-C , 12-H ) :   0.9516
B(  0-C , 13-H ) :   0.9636 B(  1-O ,  2-C ) :   1.1683 B(  1-O ,  4-C ) :  -0.1104
B(  2-C ,  3-O ) :   1.7960 B(  2-C ,  4-C ) :   1.0650 B(  4-C ,  5-C ) :   1.3027
B(  4-C ,  9-C ) :   1.3867 B(  5-C ,  6-C ) :   1.3818 B(  5-C , 14-H ) :   0.9583
B(  6-C ,  7-C ) :   1.3297 B(  6-C , 15-H ) :   0.9580 B(  7-C ,  8-C ) :   1.3001
B(  7-C , 10-O ) :   0.9621 B(  8-C ,  9-C ) :   1.3695 B(  8-C , 16-H ) :   0.9519
B(  9-C , 17-H ) :   0.9488 B( 10-O , 18-H ) :   0.8442

Dispersion correction           -0.006359812
FINAL SINGLE POINT ENERGY      -535.261550988756

DIPOLE MOMENT
-------------

Method             : SCF
Type of density    : Electron Density
Multiplicity       :   1
Irrep              :   0
Energy             :  -535.2649734536989854 Eh
Relativity type    :
Basis              : AO
                                X                 Y                 Z
Electronic contribution:      4.308305920      -1.264012010       0.033168124
Nuclear contribution   :     -3.282042228       1.643086310      -0.060524351
                        -----------------------------------------
Total Dipole Moment    :      1.026263693       0.379074300      -0.027356227
                        -----------------------------------------
Magnitude (a.u.)       :      1.094377839
Magnitude (Debye)      :      2.781687402

Rotational constants in cm-1:             0.115334             0.019463             0.016706
Rotational constants in MHz :          3457.612036           583.497788           500.835642

                             ****ORCA TERMINATED NORMALLY****
TOTAL RUN TIME: 0 days 0 hours 0 minutes 31 seconds 348 msec
