                         Program Version 6.0.0  -   RELEASE  -
|  1> ! r2scan-3c def2/J RI DEFGRID2 scfconv6 printgap
|  2> %output
|  3>     printlevel normal
|  4> end
|  5> * xyz 0 1
|  6> C -2.5309135546 -0.9604348606 0.3570135093
|  7> C -1.0981904129 -0.4743306584 0.621096427
|  8> H -0.9307470904 -0.408043833 1.7075000707
|  9> C -0.8220556219 0.9029340282 -0.0062304027
| 10> H -1.0177257356 0.8441310805 -1.0852982308
| 11> C 0.6524030678 1.2894075948 0.1927061323
| 12> H 0.8298740753 1.4662996123 1.2647300202
| 13> C 1.5850582119 0.1676047202 -0.267402468
| 14> H 1.5474390566 0.1105363296 -1.3642598859
| 15> C 1.130096236 -1.1858539542 0.3088931799
| 16> H 1.3002556616 -1.1639002609 1.4069577754
| 17> O -0.2295771308 -1.4432101088 0.0605242634
| 18> O 1.8776283997 -2.1748715068 -0.2980181598
| 19> O 2.8823489767 0.4633122159 0.1773051142
| 20> O 0.9620229569 2.4420534501 -0.5474569426
| 21> O -1.5908868007 1.9194451008 0.5912933762
| 22> O -2.8665636627 -0.9369036564 -1.005295864
| 23> H -3.2371649916 -0.3027006055 0.8651483223
| 24> H -2.6285958301 -1.9722571305 0.7670936883
| 25> H 1.5261182249 -3.0477743176 -0.061579354
| 26> H 3.4946721016 -0.1969731173 -0.1806639575
| 27> H 0.3816013149 3.1587154056 -0.2481826585
| 28> H -2.4953993518 1.8867120772 0.2501358088
| 29> H -2.2863491963 -1.5515495439 -1.4765820543
| 30> *
| 31>
| 32>                          ****END OF INPUT****

CARTESIAN COORDINATES (ANGSTROEM)
---------------------------------
  C     -2.530914   -0.960435    0.357014
  C     -1.098190   -0.474331    0.621096
  H     -0.930747   -0.408044    1.707500
  C     -0.822056    0.902934   -0.006230
  H     -1.017726    0.844131   -1.085298
  C      0.652403    1.289408    0.192706
  H      0.829874    1.466300    1.264730
  C      1.585058    0.167605   -0.267402
  H      1.547439    0.110536   -1.364260
  C      1.130096   -1.185854    0.308893
  H      1.300256   -1.163900    1.406958
  O     -0.229577   -1.443210    0.060524
  O      1.877628   -2.174872   -0.298018
  O      2.882349    0.463312    0.177305
  O      0.962023    2.442053   -0.547457
  O     -1.590887    1.919445    0.591293
  O     -2.866564   -0.936904   -1.005296
  H     -3.237165   -0.302701    0.865148
  H     -2.628596   -1.972257    0.767094
  H      1.526118   -3.047774   -0.061579
  H      3.494672   -0.196973   -0.180664
  H      0.381601    3.158715   -0.248183
  H     -2.495399    1.886712    0.250136
  H     -2.286349   -1.551550   -1.476582

 Total Charge           Charge          ....    0
 Multiplicity           Mult            ....    1
 Number of Electrons    NEL             ....   96
 Basis Dimension        Dim             ....  318

ORBITAL ENERGIES
----------------

  NO   OCC          E(Eh)            E(eV)
   0   2.0000     -18.978437      -516.4295
   1   2.0000     -18.976520      -516.3774
   2   2.0000     -18.970763      -516.2207
   3   2.0000     -18.963222      -516.0155
   4   2.0000     -18.953353      -515.7470
   5   2.0000     -18.947958      -515.6001
   6   2.0000     -10.142448      -275.9901
   7   2.0000     -10.097270      -274.7607
   8   2.0000     -10.092296      -274.6253
   9   2.0000     -10.090548      -274.5778
  10   2.0000     -10.088492      -274.5218
  11   2.0000     -10.088327      -274.5173
  12   2.0000      -1.059657       -28.8347
  13   2.0000      -1.015340       -27.6288
  14   2.0000      -1.006452       -27.3869
  15   2.0000      -0.996709       -27.1218
  16   2.0000      -0.988586       -26.9008
  17   2.0000      -0.979066       -26.6417
  18   2.0000      -0.751975       -20.4623
  19   2.0000      -0.739536       -20.1238
  20   2.0000      -0.666214       -18.1286
  21   2.0000      -0.621065       -16.9000
  22   2.0000      -0.594936       -16.1890
  23   2.0000      -0.552931       -15.0460
  24   2.0000      -0.525767       -14.3069
  25   2.0000      -0.514696       -14.0056
  26   2.0000      -0.498401       -13.5622
  27   2.0000      -0.492740       -13.4081
  28   2.0000      -0.483073       -13.1451
  29   2.0000      -0.468553       -12.7500
  30   2.0000      -0.433616       -11.7993
  31   2.0000      -0.416050       -11.3213
  32   2.0000      -0.412033       -11.2120
  33   2.0000      -0.391423       -10.6512
  34   2.0000      -0.385813       -10.4985
  35   2.0000      -0.381307       -10.3759
  36   2.0000      -0.357382        -9.7248
  37   2.0000      -0.347652        -9.4601
  38   2.0000      -0.327497        -8.9117
  39   2.0000      -0.317662        -8.6440
  40   2.0000      -0.305480        -8.3125
  41   2.0000      -0.293871        -7.9966
  42   2.0000      -0.286411        -7.7936
  43   2.0000      -0.271041        -7.3754
  44   2.0000      -0.255832        -6.9615
  45   2.0000      -0.249137        -6.7794
  46   2.0000      -0.242440        -6.5971
  47   2.0000      -0.222209        -6.0466
  48   0.0000       0.035338         0.9616
  49   0.0000       0.041228         1.1219
  50   0.0000       0.049923         1.3585
  51   0.0000       0.071938         1.9575
  52   0.0000       0.083897         2.2829

MULLIKEN ATOMIC CHARGES
-----------------------
   0 C :   -0.263251
   1 C :    0.066019
   2 H :    0.168619
   3 C :   -0.070888
   4 H :    0.193416
   5 C :   -0.076618
   6 H :    0.167061
   7 C :   -0.000090
   8 H :    0.173380
   9 C :   -0.046486
  10 H :    0.143640
  11 O :   -0.212589
  12 O :   -0.401554
  13 O :   -0.413135
  14 O :   -0.413786
  15 O :   -0.444779
  16 O :   -0.420841
  17 H :    0.144834
  18 H :    0.145609
  19 H :    0.308957
  20 H :    0.309990
  21 H :    0.310601
  22 H :    0.315679
  23 H :    0.316214
Sum of atomic charges:    0.0000000

LOEWDIN ATOMIC CHARGES
----------------------
   0 C :    0.037129
   1 C :    0.103150
   2 H :    0.186276
   3 C :    0.106555
   4 H :    0.193482
   5 C :    0.120208
   6 H :    0.188827
   7 C :    0.129352
   8 H :    0.192038
   9 C :    0.297437
  10 H :    0.180848
  11 O :   -0.694319
  12 O :   -0.502080
  13 O :   -0.554088
  14 O :   -0.558635
  15 O :   -0.581505
  16 O :   -0.596604
  17 H :    0.182056
  18 H :    0.171910
  19 H :    0.284433
  20 H :    0.280337
  21 H :    0.280815
  22 H :    0.277328
  23 H :    0.275051

  Mayer bond orders larger than 0.100000
B(  0-C ,  1-C ) :   0.9000 B(  0-C , 16-O ) :   1.0187 B(  0-C , 17-H ) :   0.9788
B(  0-C , 18-H ) :   0.9834 B(  1-C ,  2-H ) :   0.9384 B(  1-C ,  3-C ) :   0.7387
B(  1-C , 11-O ) :   0.7592 B(  1-C , 16-O ) :  -0.1214 B(  3-C ,  4-H ) :   1.0237
B(  3-C ,  5-C ) :   0.8137 B(  3-C , 15-O ) :   0.9066 B(  5-C ,  6-H ) :   0.9905
B(  5-C ,  7-C ) :   0.9480 B(  5-C , 14-O ) :   0.9263 B(  7-C ,  8-H ) :   0.9816
B(  7-C ,  9-C ) :   0.7897 B(  7-C , 13-O ) :   0.9329 B(  9-C , 10-H ) :   1.0167
B(  9-C , 11-O ) :   0.9446 B(  9-C , 12-O ) :   1.0540 B( 12-O , 19-H ) :   0.8797
B( 13-O , 20-H ) :   0.8844 B( 14-O , 21-H ) :   0.8779 B( 15-O , 22-H ) :   0.8863
B( 16-O , 23-H ) :   0.8777

Dispersion correction           -0.008029609
FINAL SINGLE POINT ENERGY      -687.076341837476

DIPOLE MOMENT
-------------

Method             : SCF
Type of density    : Electron Density
Multiplicity       :   1
Irrep              :   0
Energy             :  -687.0875905835117692 Eh
Relativity type    :
Basis              : AO
                                X                 Y                 Z
Electronic contribution:      2.631392479       0.171126134      -1.329764399
Nuclear contribution   :     -3.283293956      -1.100045305       1.715788242
                        -----------------------------------------
Total Dipole Moment    :     -0.651901477      -0.928919171       0.386023843
                        -----------------------------------------
Magnitude (a.u.)       :      1.198699616
Magnitude (Debye)      :      3.046852286

Rotational constants in cm-1:             0.039705             0.026791             0.017677
Rotational constants in MHz :          1190.339180           803.187997           529.955788

                             ****ORCA TERMINATED NORMALLY****
TOTAL RUN TIME: 0 days 0 hours 0 minutes 49 seconds 319 msec
