                         Program Version 6.0.0  -   RELEASE  -
|  1> ! r2scan-3c def2/J RI DEFGRID2 scfconv6 printgap
|  2> %output
|  3>     printlevel normal
|  4> end
|  5> * xyz 0 1
|  6> C -3.3192774143 0.7657313672 -0.121784057
|  7> C -2.4710797884 -0.4832849853 0.0919076594
|  8> C -0.9812922625 -0.258720093 0.0491386091
|  9> C -0.395759135 0.9800979117 0.2650524411
| 10> C 0.9793225851 1.1386955117 0.2323050813
| 11> C 1.8035953144 0.0501745953 -0.014978531
| 12> C 1.2296683238 -1.1994168428 -0.2293203119
| 13> C -0.1418872539 -1.3421619539 -0.197388198
| 14> O 3.1628774554 0.1523015534 -0.0586293034
| 15> H -4.3676488833 0.4881256039 -0.1998824062
| 16> H -3.0282206469 1.2729603405 -1.0387072129
| 17> H -3.2165367742 1.4577032676 0.7099782824
| 18> H -2.7259488855 -1.2222116759 -0.6717590623
| 19> H -2.7251181477 -0.9250542601 1.0608403745
| 20> H -1.0081544284 1.8454349694 0.4613640597
| 21> H 1.409574234 2.1158450861 0.4005022038
| 22> H 1.8761673252 -2.0415299859 -0.4211832529
| 23> H -0.5725852553 -2.3183528768 -0.3675311986
| 24> H 3.4373858544 1.0670518754 0.1040973312
| 25> *
| 26>
| 27>                          ****END OF INPUT****

CARTESIAN COORDINATES (ANGSTROEM)
---------------------------------
  C     -3.319277    0.765731   -0.121784
  C     -2.471080   -0.483285    0.091908
  C     -0.981292   -0.258720    0.049139
  C     -0.395759    0.980098    0.265052
  C      0.979323    1.138696    0.232305
  C      1.803595    0.050175   -0.014979
  C      1.229668   -1.199417   -0.229320
  C     -0.141887   -1.342162   -0.197388
  O      3.162877    0.152302   -0.058629
  H     -4.367649    0.488126   -0.199882
  H     -3.028221    1.272960   -1.038707
  H     -3.216537    1.457703    0.709978
  H     -2.725949   -1.222212   -0.671759
  H     -2.725118   -0.925054    1.060840
  H     -1.008154    1.845435    0.461364
  H      1.409574    2.115845    0.400502
  H      1.876167   -2.041530   -0.421183
  H     -0.572585   -2.318353   -0.367531
  H      3.437386    1.067052    0.104097

 Total Charge           Charge          ....    0
 Multiplicity           Mult            ....    1
 Number of Electrons    NEL             ....   66
 Basis Dimension        Dim             ....  226

ORBITAL ENERGIES
----------------

  NO   OCC          E(Eh)            E(eV)
   0   2.0000     -18.982538      -516.5411
   1   2.0000     -10.092180      -274.6222
   2   2.0000     -10.032887      -273.0087
   3   2.0000     -10.032412      -272.9958
   4   2.0000     -10.032038      -272.9856
   5   2.0000     -10.031312      -272.9659
   6   2.0000     -10.030355      -272.9398
   7   2.0000     -10.027567      -272.8640
   8   2.0000     -10.020769      -272.6790
   9   2.0000      -1.025344       -27.9010
  10   2.0000      -0.824190       -22.4273
  11   2.0000      -0.751735       -20.4557
  12   2.0000      -0.716945       -19.5091
  13   2.0000      -0.687225       -18.7003
  14   2.0000      -0.604173       -16.4404
  15   2.0000      -0.590540       -16.0694
  16   2.0000      -0.545108       -14.8331
  17   2.0000      -0.514787       -14.0081
  18   2.0000      -0.459276       -12.4975
  19   2.0000      -0.430673       -11.7192
  20   2.0000      -0.418628       -11.3914
  21   2.0000      -0.407797       -11.0967
  22   2.0000      -0.389359       -10.5950
  23   2.0000      -0.379841       -10.3360
  24   2.0000      -0.377472       -10.2715
  25   2.0000      -0.347491        -9.4557
  26   2.0000      -0.336052        -9.1444
  27   2.0000      -0.326388        -8.8815
  28   2.0000      -0.307451        -8.3662
  29   2.0000      -0.299824        -8.1586
  30   2.0000      -0.295483        -8.0405
  31   2.0000      -0.235658        -6.4126
  32   2.0000      -0.197039        -5.3617
  33   0.0000      -0.031405        -0.8546
  34   0.0000      -0.011220        -0.3053
  35   0.0000       0.058237         1.5847
  36   0.0000       0.083158         2.2628
  37   0.0000       0.101081         2.7505

MULLIKEN ATOMIC CHARGES
-----------------------
   0 C :   -0.485029
   1 C :   -0.300957
   2 C :    0.123588
   3 C :   -0.167986
   4 C :   -0.357904
   5 C :    0.427027
   6 C :   -0.307456
   7 C :   -0.171040
   8 O :   -0.416157
   9 H :    0.149436
  10 H :    0.164559
  11 H :    0.140844
  12 H :    0.147637
  13 H :    0.162553
  14 H :    0.143380
  15 H :    0.136325
  16 H :    0.155092
  17 H :    0.146294
  18 H :    0.309795
Sum of atomic charges:   -0.0000000

LOEWDIN ATOMIC CHARGES
----------------------
   0 C :   -0.419557
   1 C :   -0.286393
   2 C :   -0.112182
   3 C :   -0.152520
   4 C :   -0.171684
   5 C :    0.176952
   6 C :   -0.140091
   7 C :   -0.148234
   8 O :   -0.500136
   9 H :    0.152681
  10 H :    0.155370
  11 H :    0.149320
  12 H :    0.161139
  13 H :    0.164602
  14 H :    0.170955
  15 H :    0.167370
  16 H :    0.179313
  17 H :    0.169819
  18 H :    0.283276

  Mayer bond orders larger than 0.100000
B(  0-C ,  1-C ) :   0.8723 B(  0-C ,  9-H ) :   0.9724 B(  0-C , 10-H ) :   0.9926
B(  0-C , 11-H ) :   0.9635 B(  1-C ,  2-C ) :   0.8343 B(  1-C , 12-H ) :   1.0130
B(  1-C , 13-H ) :   0.9607 B(  2-C ,  3-C ) :   1.4650 B(  2-C ,  7-C ) :   1.3814
B(  3-C ,  4-C ) :   1.4329 B(  3-C , 14-H ) :   0.9345 B(  4-C ,  5-C ) :   1.3521
B(  4-C , 15-H ) :   0.9256 B(  5-C ,  6-C ) :   1.4220 B(  5-C ,  8-O ) :   0.9189
B(  6-C ,  7-C ) :   1.4230 B(  6-C , 16-H ) :   0.9471 B(  7-C , 17-H ) :   0.9509
B(  8-O , 18-H ) :   0.8841

Dispersion correction           -0.006061354
FINAL SINGLE POINT ENERGY      -385.999381836910

DIPOLE MOMENT
-------------

Method             : SCF
Type of density    : Electron Density
Multiplicity       :   1
Irrep              :   0
Energy             :  -386.0001403420189945 Eh
Relativity type    :
Basis              : AO
                                X                 Y                 Z
Electronic contribution:      9.999161331      -1.184850586       0.070339118
Nuclear contribution   :    -10.198946911       1.634644754       0.034518008
                        -----------------------------------------
Total Dipole Moment    :     -0.199785580       0.449794168       0.104857126
                        -----------------------------------------
Magnitude (a.u.)       :      0.503213760
Magnitude (Debye)      :      1.279067728

Rotational constants in cm-1:             0.155226             0.032034             0.026972
Rotational constants in MHz :          4653.552364           960.361443           808.603897

                             ****ORCA TERMINATED NORMALLY****
TOTAL RUN TIME: 0 days 0 hours 0 minutes 28 seconds 936 msec
