                         Program Version 6.0.0  -   RELEASE  -
|  1> ! r2scan-3c def2/J RI DEFGRID2 scfconv6 printgap
|  2> %output
|  3>     printlevel normal
|  4> end
|  5> %cpcm
|  6>     smd true
|  7>     smdsolvent "water"
|  8> end
|  9> * xyz 0 1
| 10> C -3.3192774143 0.7657313672 -0.121784057
| 11> C -2.4710797884 -0.4832849853 0.0919076594
| 12> C -0.9812922625 -0.258720093 0.0491386091
| 13> C -0.395759135 0.9800979117 0.2650524411
| 14> C 0.9793225851 1.1386955117 0.2323050813
| 15> C 1.8035953144 0.0501745953 -0.014978531
| 16> C 1.2296683238 -1.1994168428 -0.2293203119
| 17> C -0.1418872539 -1.3421619539 -0.197388198
| 18> O 3.1628774554 0.1523015534 -0.0586293034
| 19> H -4.3676488833 0.4881256039 -0.1998824062
| 20> H -3.0282206469 1.2729603405 -1.0387072129
| 21> H -3.2165367742 1.4577032676 0.7099782824
| 22> H -2.7259488855 -1.2222116759 -0.6717590623
| 23> H -2.7251181477 -0.9250542601 1.0608403745
| 24> H -1.0081544284 1.8454349694 0.4613640597
| 25> H 1.409574234 2.1158450861 0.4005022038
| 26> H 1.8761673252 -2.0415299859 -0.4211832529
| 27> H -0.5725852553 -2.3183528768 -0.3675311986
| 28> H 3.4373858544 1.0670518754 0.1040973312
| 29> *
| 30>
| 31>                          ****END OF INPUT****

CARTESIAN COORDINATES (ANGSTROEM)
---------------------------------
  C     -3.319277    0.765731   -0.121784
  C     -2.471080   -0.483285    0.091908
  C     -0.981292   -0.258720    0.049139
  C     -0.395759    0.980098    0.265052
  C      0.979323    1.138696    0.232305
  C      1.803595    0.050175   -0.014979
  C      1.229668   -1.199417   -0.229320
  C     -0.141887   -1.342162   -0.197388
  O      3.162877    0.152302   -0.058629
  H     -4.367649    0.488126   -0.199882
  H     -3.028221    1.272960   -1.038707
  H     -3.216537    1.457703    0.709978
  H     -2.725949   -1.222212   -0.671759
  H     -2.725118   -0.925054    1.060840
  H     -1.008154    1.845435    0.461364
  H      1.409574    2.115845    0.400502
  H      1.876167   -2.041530   -0.421183
  H     -0.572585   -2.318353   -0.367531
  H      3.437386    1.067052    0.104097

 Total Charge           Charge          ....    0
 Multiplicity           Mult            ....    1
 Number of Electrons    NEL             ....   66
 Basis Dimension        Dim             ....  226

ORBITAL ENERGIES
----------------

  NO   OCC          E(Eh)            E(eV)
   0   2.0000     -18.980916      -516.4970
   1   2.0000     -10.092871      -274.6410
   2   2.0000     -10.032718      -273.0041
   3   2.0000     -10.029907      -272.9276
   4   2.0000     -10.029603      -272.9194
   5   2.0000     -10.028828      -272.8983
   6   2.0000     -10.028606      -272.8923
   7   2.0000     -10.024886      -272.7910
   8   2.0000     -10.011156      -272.4174
   9   2.0000      -1.023719       -27.8568
  10   2.0000      -0.824900       -22.4467
  11   2.0000      -0.747594       -20.3431
  12   2.0000      -0.716525       -19.4976
  13   2.0000      -0.683697       -18.6043
  14   2.0000      -0.599003       -16.2997
  15   2.0000      -0.587894       -15.9974
  16   2.0000      -0.541580       -14.7371
  17   2.0000      -0.511172       -13.9097
  18   2.0000      -0.456161       -12.4128
  19   2.0000      -0.427033       -11.6202
  20   2.0000      -0.412151       -11.2152
  21   2.0000      -0.403937       -10.9917
  22   2.0000      -0.386276       -10.5111
  23   2.0000      -0.381118       -10.3708
  24   2.0000      -0.374817       -10.1993
  25   2.0000      -0.344611        -9.3773
  26   2.0000      -0.331245        -9.0136
  27   2.0000      -0.321226        -8.7410
  28   2.0000      -0.302084        -8.2201
  29   2.0000      -0.297701        -8.1009
  30   2.0000      -0.293266        -7.9802
  31   2.0000      -0.238979        -6.5029
  32   2.0000      -0.199472        -5.4279
  33   0.0000      -0.033337        -0.9072
  34   0.0000      -0.013456        -0.3662
  35   0.0000       0.080718         2.1964
  36   0.0000       0.094244         2.5645
  37   0.0000       0.108557         2.9540

MULLIKEN ATOMIC CHARGES
-----------------------
   0 C :   -0.513854
   1 C :   -0.294601
   2 C :    0.077371
   3 C :   -0.182013
   4 C :   -0.366637
   5 C :    0.380261
   6 C :   -0.347279
   7 C :   -0.203790
   8 O :   -0.463171
   9 H :    0.162032
  10 H :    0.169056
  11 H :    0.156215
  12 H :    0.165522
  13 H :    0.175288
  14 H :    0.174961
  15 H :    0.181572
  16 H :    0.181987
  17 H :    0.177835
  18 H :    0.369244
Sum of atomic charges:   -0.0000000

LOEWDIN ATOMIC CHARGES
----------------------
   0 C :   -0.424986
   1 C :   -0.287796
   2 C :   -0.121252
   3 C :   -0.163395
   4 C :   -0.169666
   5 C :    0.162303
   6 C :   -0.158650
   7 C :   -0.159630
   8 O :   -0.519086
   9 H :    0.156200
  10 H :    0.156222
  11 H :    0.154246
  12 H :    0.166778
  13 H :    0.169524
  14 H :    0.181633
  15 H :    0.185132
  16 H :    0.186848
  17 H :    0.180615
  18 H :    0.304960

  Mayer bond orders larger than 0.100000
B(  0-C ,  1-C ) :   0.8609 B(  0-C ,  9-H ) :   0.9694 B(  0-C , 10-H ) :   0.9913
B(  0-C , 11-H ) :   0.9598 B(  1-C ,  2-C ) :   0.8454 B(  1-C , 12-H ) :   1.0122
B(  1-C , 13-H ) :   0.9550 B(  2-C ,  3-C ) :   1.4155 B(  2-C ,  7-C ) :   1.3571
B(  3-C ,  4-C ) :   1.3815 B(  3-C , 14-H ) :   0.9477 B(  4-C ,  5-C ) :   1.3419
B(  4-C , 15-H ) :   0.9528 B(  5-C ,  6-C ) :   1.3614 B(  5-C ,  8-O ) :   0.9242
B(  6-C ,  7-C ) :   1.4066 B(  6-C , 16-H ) :   0.9575 B(  7-C , 17-H ) :   0.9587
B(  8-O , 18-H ) :   0.8525

Dispersion correction           -0.006061354
FINAL SINGLE POINT ENERGY      -386.007805759250

DIPOLE MOMENT
-------------

Method             : SCF
Type of density    : Electron Density
Multiplicity       :   1
Irrep              :   0
Energy             :  -386.0085642643584833 Eh
Relativity type    :
Basis              : AO
                                X                 Y                 Z
Electronic contribution:      9.911326455      -0.947748148       0.135604871
Nuclear contribution   :    -10.198946911       1.634644754       0.034518008
                        -----------------------------------------
Total Dipole Moment    :     -0.287620456       0.686896606       0.170122879
                        -----------------------------------------
Magnitude (a.u.)       :      0.763867965
Magnitude (Debye)      :      1.941598066

Rotational constants in cm-1:             0.155226             0.032034             0.026972
Rotational constants in MHz :          4653.552364           960.361443           808.603897

                             ****ORCA TERMINATED NORMALLY****
TOTAL RUN TIME: 0 days 0 hours 0 minutes 35 seconds 254 msec
