                         Program Version 6.0.0  -   RELEASE  -
|  1> ! wb97x-v def2-tzvp def2/J RIJCOSX DEFGRID2 scfconv7 GCP(DFT/TZ) printgap
|  2> %output
|  3>     printlevel normal
|  4> end
|  5> * xyz 0 1
|  6> C -2.491548959702962 0.23054538576688716 0.3989246335615967
|  7> C -1.7651345336611153 0.043163696453854365 -0.9271192806636986
|  8> C -0.5205160508552492 -0.8067068819249704 -0.8416982705718199
|  9> Br 0.9093150978891558 0.05366849589939868 0.2692587248938498
| 10> H -2.74577277006745 -0.7374566376805641 0.8446971170963432
| 11> H -1.8722868027843687 0.7811913945983038 1.1137948495895316
| 12> H -3.4193111439736765 0.791877529411256 0.2542653955780498
| 13> H -1.5249407964182795 1.011989517546032 -1.3784314651238552
| 14> H -2.4232730420629696 -0.47850601503037193 -1.63689644800636
| 15> H -0.05076229246911617 -0.9599445066887564 -1.812311945501882
| 16> H -0.7022302219444149 -1.7664230458963528 -0.35663446511000246
| 17> *
| 18>
| 19>                          ****END OF INPUT****

CARTESIAN COORDINATES (ANGSTROEM)
---------------------------------
  C     -2.491549    0.230545    0.398925
  C     -1.765135    0.043164   -0.927119
  C     -0.520516   -0.806707   -0.841698
  Br     0.909315    0.053668    0.269259
  H     -2.745773   -0.737457    0.844697
  H     -1.872287    0.781191    1.113795
  H     -3.419311    0.791878    0.254265
  H     -1.524941    1.011990   -1.378431
  H     -2.423273   -0.478506   -1.636896
  H     -0.050762   -0.959945   -1.812312
  H     -0.702230   -1.766423   -0.356634

 Total Charge           Charge          ....    0
 Multiplicity           Mult            ....    1
 Number of Electrons    NEL             ....   60
 Basis Dimension        Dim             ....  183

ORBITAL ENERGIES
----------------

  NO   OCC          E(Eh)            E(eV)
   0   2.0000    -494.706120    -13461.6379
   1   2.0000     -66.875705     -1819.7805
   2   2.0000     -60.932532     -1658.0585
   3   2.0000     -60.931001     -1658.0168
   4   2.0000     -60.930926     -1658.0148
   5   2.0000     -12.108765      -329.4962
   6   2.0000     -12.062093      -328.2262
   7   2.0000     -12.042221      -327.6855
   8   2.0000     -10.627408      -289.1865
   9   2.0000      -8.407007      -228.7663
  10   2.0000      -8.400582      -228.5915
  11   2.0000      -8.400510      -228.5895
  12   2.0000      -4.392046      -119.5136
  13   2.0000      -4.389585      -119.4467
  14   2.0000      -4.389525      -119.4450
  15   2.0000      -4.382402      -119.2512
  16   2.0000      -4.382398      -119.2511
  17   2.0000      -1.339388       -36.4466
  18   2.0000      -1.282418       -34.8964
  19   2.0000      -1.180989       -32.1363
  20   2.0000      -1.070059       -29.1178
  21   2.0000      -0.906583       -24.6694
  22   2.0000      -0.894769       -24.3479
  23   2.0000      -0.869130       -23.6502
  24   2.0000      -0.822148       -22.3718
  25   2.0000      -0.808504       -22.0005
  26   2.0000      -0.791663       -21.5422
  27   2.0000      -0.767332       -20.8802
  28   2.0000      -0.711655       -19.3651
  29   2.0000      -0.708639       -19.2831
  30   0.0000      -0.283283        -7.7085
  31   0.0000      -0.027518        -0.7488
  32   0.0000      -0.025957        -0.7063
  33   0.0000      -0.005989        -0.1630
  34   0.0000       0.013475         0.3667

MULLIKEN ATOMIC CHARGES
-----------------------
   0 C :   -0.346887
   1 C :   -0.159800
   2 C :   -0.166414
   3 Br:   -0.161968
   4 H :    0.103512
   5 H :    0.130955
   6 H :    0.116719
   7 H :    0.111266
   8 H :    0.098315
   9 H :    0.142959
  10 H :    0.131341
Sum of atomic charges:    0.0000000

LOEWDIN ATOMIC CHARGES
----------------------
   0 C :   -0.308670
   1 C :   -0.325149
   2 C :   -0.415954
   3 Br:    0.166775
   4 H :    0.117704
   5 H :    0.119309
   6 H :    0.118570
   7 H :    0.136900
   8 H :    0.141181
   9 H :    0.124371
  10 H :    0.124962

  Mayer bond orders larger than 0.100000
B(  0-C ,  1-C ) :   0.9857 B(  0-C ,  4-H ) :   0.9763 B(  0-C ,  5-H ) :   0.9739
B(  0-C ,  6-H ) :   0.9790 B(  1-C ,  2-C ) :   1.0000 B(  1-C ,  7-H ) :   0.9703
B(  1-C ,  8-H ) :   0.9560 B(  2-C ,  3-Br) :   1.0205 B(  2-C ,  9-H ) :   0.9686
B(  2-C , 10-H ) :   0.9674

FINAL SINGLE POINT ENERGY     -2692.459638378026

DIPOLE MOMENT
-------------

Method             : SCF
Type of density    : Electron Density
Multiplicity       :   1
Irrep              :   0
Energy             : -2692.4687211201262471 Eh
Relativity type    :
Basis              : AO
                                X                 Y                 Z
Electronic contribution:     19.608686760       1.553785365       4.764868766
Nuclear contribution   :    -20.340222839      -1.848613409      -5.242250551
                        -----------------------------------------
Total Dipole Moment    :     -0.731536079      -0.294828044      -0.477381785
                        -----------------------------------------
Magnitude (a.u.)       :      0.921933826
Magnitude (Debye)      :      2.343369554

Rotational constants in cm-1:             0.365604             0.073894             0.065773
Rotational constants in MHz :         10960.534030          2215.286143          1971.812739

                             ****ORCA TERMINATED NORMALLY****
TOTAL RUN TIME: 0 days 0 hours 0 minutes 49 seconds 571 msec
