                         Program Version 6.0.0  -   RELEASE  -
|  1> ! wb97x-v def2-tzvp def2/J RIJCOSX DEFGRID2 scfconv7 GCP(DFT/TZ) printgap
|  2> %output
|  3>     printlevel normal
|  4> end
|  5> %cpcm
|  6>     smd true
|  7>     smdsolvent "water"
|  8> end
|  9> * xyz 0 1
| 10> C -2.491548959702962 0.23054538576688716 0.3989246335615967
| 11> C -1.7651345336611153 0.043163696453854365 -0.9271192806636986
| 12> C -0.5205160508552492 -0.8067068819249704 -0.8416982705718199
| 13> Br 0.9093150978891558 0.05366849589939868 0.2692587248938498
| 14> H -2.74577277006745 -0.7374566376805641 0.8446971170963432
| 15> H -1.8722868027843687 0.7811913945983038 1.1137948495895316
| 16> H -3.4193111439736765 0.791877529411256 0.2542653955780498
| 17> H -1.5249407964182795 1.011989517546032 -1.3784314651238552
| 18> H -2.4232730420629696 -0.47850601503037193 -1.63689644800636
| 19> H -0.05076229246911617 -0.9599445066887564 -1.812311945501882
| 20> H -0.7022302219444149 -1.7664230458963528 -0.35663446511000246
| 21> *
| 22>
| 23>                          ****END OF INPUT****

CARTESIAN COORDINATES (ANGSTROEM)
---------------------------------
  C     -2.491549    0.230545    0.398925
  C     -1.765135    0.043164   -0.927119
  C     -0.520516   -0.806707   -0.841698
  Br     0.909315    0.053668    0.269259
  H     -2.745773   -0.737457    0.844697
  H     -1.872287    0.781191    1.113795
  H     -3.419311    0.791878    0.254265
  H     -1.524941    1.011990   -1.378431
  H     -2.423273   -0.478506   -1.636896
  H     -0.050762   -0.959945   -1.812312
  H     -0.702230   -1.766423   -0.356634

 Total Charge           Charge          ....    0
 Multiplicity           Mult            ....    1
 Number of Electrons    NEL             ....   60
 Basis Dimension        Dim             ....  183

ORBITAL ENERGIES
----------------

  NO   OCC          E(Eh)            E(eV)
   0   2.0000    -494.701894    -13461.5229
   1   2.0000     -66.871617     -1819.6692
   2   2.0000     -60.928385     -1657.9457
   3   2.0000     -60.926952     -1657.9066
   4   2.0000     -60.926883     -1657.9048
   5   2.0000     -12.095158      -329.1260
   6   2.0000     -12.045568      -327.7766
   7   2.0000     -12.028224      -327.3046
   8   2.0000     -10.623405      -289.0775
   9   2.0000      -8.402771      -228.6510
  10   2.0000      -8.396801      -228.4886
  11   2.0000      -8.396727      -228.4866
  12   2.0000      -4.387743      -119.3965
  13   2.0000      -4.385471      -119.3347
  14   2.0000      -4.385406      -119.3330
  15   2.0000      -4.378744      -119.1517
  16   2.0000      -4.378741      -119.1516
  17   2.0000      -1.330334       -36.2002
  18   2.0000      -1.271541       -34.6004
  19   2.0000      -1.167623       -31.7726
  20   2.0000      -1.055257       -28.7150
  21   2.0000      -0.891425       -24.2569
  22   2.0000      -0.879953       -23.9448
  23   2.0000      -0.854864       -23.2620
  24   2.0000      -0.809660       -22.0320
  25   2.0000      -0.795873       -21.6568
  26   2.0000      -0.777512       -21.1572
  27   2.0000      -0.753626       -20.5072
  28   2.0000      -0.707972       -19.2649
  29   2.0000      -0.704780       -19.1781
  30   0.0000      -0.273136        -7.4324
  31   0.0000      -0.013393        -0.3645
  32   0.0000      -0.009185        -0.2499
  33   0.0000       0.009306         0.2532
  34   0.0000       0.030363         0.8262

MULLIKEN ATOMIC CHARGES
-----------------------
   0 C :   -0.389383
   1 C :   -0.165275
   2 C :   -0.176741
   3 Br:   -0.208247
   4 H :    0.123880
   5 H :    0.122169
   6 H :    0.133586
   7 H :    0.117400
   8 H :    0.121392
   9 H :    0.165687
  10 H :    0.155532
Sum of atomic charges:    0.0000000

LOEWDIN ATOMIC CHARGES
----------------------
   0 C :   -0.315217
   1 C :   -0.321592
   2 C :   -0.404690
   3 Br:    0.134017
   4 H :    0.121375
   5 H :    0.114853
   6 H :    0.121396
   7 H :    0.137856
   8 H :    0.149458
   9 H :    0.130814
  10 H :    0.131730

  Mayer bond orders larger than 0.100000
B(  0-C ,  1-C ) :   0.9792 B(  0-C ,  4-H ) :   0.9751 B(  0-C ,  5-H ) :   0.9740
B(  0-C ,  6-H ) :   0.9772 B(  1-C ,  2-C ) :   1.0025 B(  1-C ,  7-H ) :   0.9698
B(  1-C ,  8-H ) :   0.9521 B(  2-C ,  3-Br) :   0.9874 B(  2-C ,  9-H ) :   0.9623
B(  2-C , 10-H ) :   0.9629

FINAL SINGLE POINT ENERGY     -2692.461847691161

DIPOLE MOMENT
-------------

Method             : SCF
Type of density    : Electron Density
Multiplicity       :   1
Irrep              :   0
Energy             : -2692.4709304332604916 Eh
Relativity type    :
Basis              : AO
                                X                 Y                 Z
Electronic contribution:     19.394249087       1.407012495       4.570846820
Nuclear contribution   :    -20.340222839      -1.848613409      -5.242250551
                        -----------------------------------------
Total Dipole Moment    :     -0.945973751      -0.441600914      -0.671403731
                        -----------------------------------------
Magnitude (a.u.)       :      1.241233530
Magnitude (Debye)      :      3.154964903

Rotational constants in cm-1:             0.365604             0.073894             0.065773
Rotational constants in MHz :         10960.534030          2215.286143          1971.812739

                             ****ORCA TERMINATED NORMALLY****
TOTAL RUN TIME: 0 days 0 hours 0 minutes 49 seconds 919 msec
