                         Program Version 6.0.0  -   RELEASE  -
|  1> ! r2scan-3c def2/J RI DEFGRID2 scfconv6 printgap
|  2> %output
|  3>     printlevel normal
|  4> end
|  5> %cpcm
|  6>     smd true
|  7>     smdsolvent "water"
|  8> end
|  9> * xyz 0 1
| 10> C 2.1061848461 -2.1032084584 0.3917734335
| 11> C 1.1627093359 -0.9762917564 0.1274720653
| 12> C 1.4749199625 0.2845401664 0.4727346982
| 13> C 0.6205894779 1.4190124228 0.1894237209
| 14> O 0.8941796063 2.5577044189 0.5644952016
| 15> C -0.6059830301 1.1344718989 -0.6421574178
| 16> C -1.2121616131 -0.2421340731 -0.3512148769
| 17> C -0.1228760339 -1.3039043693 -0.5557260645
| 18> C -2.3738306818 -0.5063825975 -1.3111089517
| 19> C -1.727506289 -0.2896930711 1.0891693639
| 20> H 3.0233480494 -1.9583691478 -0.1764470719
| 21> H 1.6711056156 -3.0588652442 0.1168732648
| 22> H 2.3805160155 -2.1262861523 1.444250082
| 23> H 2.3998295199 0.5080048282 0.9865651823
| 24> H -1.3330695669 1.9328550752 -0.48228023
| 25> H -0.2885469836 1.1807002431 -1.6885967909
| 26> H -0.4846918458 -2.2732195096 -0.2074268889
| 27> H 0.0869441588 -1.4050334131 -1.6258949409
| 28> H -3.1564775017 0.234940217 -1.1707948859
| 29> H -2.7982408842 -1.490472517 -1.1289170676
| 30> H -2.0405534062 -0.4596239935 -2.3450959793
| 31> H -0.9195348743 -0.1132013879 1.7957717065
| 32> H -2.1707785771 -1.2591573831 1.3029877767
| 33> H -2.4849716502 0.4750103165 1.2447958968
| 34> *
| 35>
| 36>                          ****END OF INPUT****

CARTESIAN COORDINATES (ANGSTROEM)
---------------------------------
  C      2.106185   -2.103208    0.391773
  C      1.162709   -0.976292    0.127472
  C      1.474920    0.284540    0.472735
  C      0.620589    1.419012    0.189424
  O      0.894180    2.557704    0.564495
  C     -0.605983    1.134472   -0.642157
  C     -1.212162   -0.242134   -0.351215
  C     -0.122876   -1.303904   -0.555726
  C     -2.373831   -0.506383   -1.311109
  C     -1.727506   -0.289693    1.089169
  H      3.023348   -1.958369   -0.176447
  H      1.671106   -3.058865    0.116873
  H      2.380516   -2.126286    1.444250
  H      2.399830    0.508005    0.986565
  H     -1.333070    1.932855   -0.482280
  H     -0.288547    1.180700   -1.688597
  H     -0.484692   -2.273220   -0.207427
  H      0.086944   -1.405033   -1.625895
  H     -3.156478    0.234940   -1.170795
  H     -2.798241   -1.490473   -1.128917
  H     -2.040553   -0.459624   -2.345096
  H     -0.919535   -0.113201    1.795772
  H     -2.170779   -1.259157    1.302988
  H     -2.484972    0.475010    1.244796

 Total Charge           Charge          ....    0
 Multiplicity           Mult            ....    1
 Number of Electrons    NEL             ....   76
 Basis Dimension        Dim             ....  265

ORBITAL ENERGIES
----------------

  NO   OCC          E(Eh)            E(eV)
   0   2.0000     -18.936309      -515.2832
   1   2.0000     -10.113880      -275.2127
   2   2.0000     -10.066432      -273.9215
   3   2.0000     -10.045788      -273.3598
   4   2.0000     -10.030161      -272.9346
   5   2.0000     -10.024840      -272.7898
   6   2.0000     -10.023156      -272.7440
   7   2.0000     -10.022732      -272.7324
   8   2.0000     -10.009552      -272.3737
   9   2.0000     -10.008818      -272.3538
  10   2.0000      -1.000704       -27.2305
  11   2.0000      -0.822683       -22.3863
  12   2.0000      -0.763641       -20.7797
  13   2.0000      -0.705540       -19.1987
  14   2.0000      -0.659307       -17.9407
  15   2.0000      -0.654003       -17.7963
  16   2.0000      -0.646559       -17.5938
  17   2.0000      -0.544651       -14.8207
  18   2.0000      -0.525382       -14.2964
  19   2.0000      -0.469865       -12.7857
  20   2.0000      -0.442488       -12.0407
  21   2.0000      -0.441460       -12.0127
  22   2.0000      -0.416603       -11.3363
  23   2.0000      -0.408870       -11.1259
  24   2.0000      -0.400108       -10.8875
  25   2.0000      -0.378714       -10.3053
  26   2.0000      -0.369681       -10.0595
  27   2.0000      -0.363344        -9.8871
  28   2.0000      -0.355268        -9.6673
  29   2.0000      -0.347980        -9.4690
  30   2.0000      -0.342157        -9.3106
  31   2.0000      -0.328399        -8.9362
  32   2.0000      -0.324997        -8.8436
  33   2.0000      -0.297847        -8.1048
  34   2.0000      -0.290805        -7.9132
  35   2.0000      -0.280810        -7.6412
  36   2.0000      -0.236096        -6.4245
  37   2.0000      -0.218469        -5.9449
  38   0.0000      -0.079097        -2.1523
  39   0.0000       0.030206         0.8220
  40   0.0000       0.079647         2.1673
  41   0.0000       0.109432         2.9778
  42   0.0000       0.114091         3.1046

MULLIKEN ATOMIC CHARGES
-----------------------
   0 C :   -0.567335
   1 C :    0.186878
   2 C :   -0.313015
   3 C :    0.250182
   4 O :   -0.469834
   5 C :   -0.366835
   6 C :    0.163698
   7 C :   -0.377358
   8 C :   -0.539550
   9 C :   -0.549030
  10 H :    0.194895
  11 H :    0.174769
  12 H :    0.191768
  13 H :    0.188022
  14 H :    0.189706
  15 H :    0.202987
  16 H :    0.194473
  17 H :    0.214119
  18 H :    0.173114
  19 H :    0.171570
  20 H :    0.169430
  21 H :    0.174584
  22 H :    0.170365
  23 H :    0.172398
Sum of atomic charges:    0.0000000

LOEWDIN ATOMIC CHARGES
----------------------
   0 C :   -0.390551
   1 C :   -0.024967
   2 C :   -0.197553
   3 C :    0.224247
   4 O :   -0.573852
   5 C :   -0.251441
   6 C :   -0.182492
   7 C :   -0.261585
   8 C :   -0.405566
   9 C :   -0.398743
  10 H :    0.183480
  11 H :    0.167866
  12 H :    0.182800
  13 H :    0.187900
  14 H :    0.185663
  15 H :    0.196682
  16 H :    0.183974
  17 H :    0.196041
  18 H :    0.162459
  19 H :    0.162543
  20 H :    0.161135
  21 H :    0.165478
  22 H :    0.163032
  23 H :    0.163450

  Mayer bond orders larger than 0.100000
B(  0-C ,  1-C ) :   0.8471 B(  0-C , 10-H ) :   0.9582 B(  0-C , 11-H ) :   0.9780
B(  0-C , 12-H ) :   0.9685 B(  1-C ,  2-C ) :   1.6134 B(  1-C ,  7-C ) :   0.8705
B(  2-C ,  3-C ) :   1.1034 B(  2-C , 13-H ) :   0.9393 B(  3-C ,  4-O ) :   1.8379
B(  3-C ,  5-C ) :   0.9484 B(  5-C ,  6-C ) :   0.8709 B(  5-C , 14-H ) :   0.9717
B(  5-C , 15-H ) :   0.9255 B(  6-C ,  7-C ) :   0.8959 B(  6-C ,  8-C ) :   0.9204
B(  6-C ,  9-C ) :   0.9453 B(  7-C , 16-H ) :   0.9817 B(  7-C , 17-H ) :   0.9508
B(  8-C , 18-H ) :   0.9754 B(  8-C , 19-H ) :   0.9735 B(  8-C , 20-H ) :   0.9803
B(  9-C , 21-H ) :   0.9596 B(  9-C , 22-H ) :   0.9707 B(  9-C , 23-H ) :   0.9725

Dispersion correction           -0.008487572
FINAL SINGLE POINT ENERGY      -426.505620533471

DIPOLE MOMENT
-------------

Method             : SCF
Type of density    : Electron Density
Multiplicity       :   1
Irrep              :   0
Energy             :  -426.5072693560105108 Eh
Relativity type    :
Basis              : AO
                                X                 Y                 Z
Electronic contribution:      5.332289581       6.495012499       1.055083427
Nuclear contribution   :     -5.723746682      -9.168043326      -1.806241784
                        -----------------------------------------
Total Dipole Moment    :     -0.391457101      -2.673030826      -0.751158357
                        -----------------------------------------
Magnitude (a.u.)       :      2.804027699
Magnitude (Debye)      :      7.127271998

Rotational constants in cm-1:             0.050987             0.044913             0.028636
Rotational constants in MHz :          1528.556603          1346.460956           858.472696

                             ****ORCA TERMINATED NORMALLY****
TOTAL RUN TIME: 0 days 0 hours 0 minutes 57 seconds 902 msec
