                         Program Version 6.0.0  -   RELEASE  -
|  1> ! wb97x-v def2-tzvp def2/J RIJCOSX DEFGRID2 scfconv7 GCP(DFT/TZ) printgap
|  2> %output
|  3>     printlevel normal
|  4> end
|  5> * xyz 0 1
|  6> C -2.512554485103767 -0.19577918660417884 6.122173012344367e-05
|  7> C -1.1514403046582413 0.3813112492906426 -2.9594925897767655e-05
|  8> C -0.005106893378484631 -0.3245989821424729 -7.055634317258397e-05
|  9> C 1.2651526758281957 0.36297346063172015 -0.0010998653772257346
| 10> O 2.362149650444168 -0.1997676973833871 0.00012679740830272353
| 11> H -3.070934730813863 0.1616267712888251 0.8745659306163527
| 12> H -2.4999428042924663 -1.287737521813833 0.0003297420070588456
| 13> H -3.0707957480662036 0.16116852748816315 -0.8747269177150818
| 14> H -1.0817236547054596 1.4700013582150282 0.00010191395440084786
| 15> H -0.00179579337096683 -1.4125100762738692 0.00032499847511565017
| 16> H 1.2096595490428137 1.4700990250181292 0.0008706584854148577
| 17> *
| 18>
| 19>                          ****END OF INPUT****

CARTESIAN COORDINATES (ANGSTROEM)
---------------------------------
  C     -2.512554   -0.195779    0.000061
  C     -1.151440    0.381311   -0.000030
  C     -0.005107   -0.324599   -0.000071
  C      1.265153    0.362973   -0.001100
  O      2.362150   -0.199768    0.000127
  H     -3.070935    0.161627    0.874566
  H     -2.499943   -1.287738    0.000330
  H     -3.070796    0.161169   -0.874727
  H     -1.081724    1.470001    0.000102
  H     -0.001796   -1.412510    0.000325
  H      1.209660    1.470099    0.000871

 Total Charge           Charge          ....    0
 Multiplicity           Mult            ....    1
 Number of Electrons    NEL             ....   38
 Basis Dimension        Dim             ....  191

ORBITAL ENERGIES
----------------

  NO   OCC          E(Eh)            E(eV)
   0   2.0000     -21.662223      -589.4591
   1   2.0000     -12.134435      -330.1948
   2   2.0000     -12.091552      -329.0279
   3   2.0000     -12.066218      -328.3385
   4   2.0000     -12.062586      -328.2397
   5   2.0000      -1.697266       -46.1849
   6   2.0000      -1.352589       -36.8058
   7   2.0000      -1.249130       -33.9906
   8   2.0000      -1.139278       -31.0013
   9   2.0000      -1.053609       -28.6701
  10   2.0000      -1.005249       -27.3542
  11   2.0000      -0.975871       -26.5548
  12   2.0000      -0.906538       -24.6682
  13   2.0000      -0.891057       -24.2469
  14   2.0000      -0.874791       -23.8043
  15   2.0000      -0.856172       -23.2976
  16   2.0000      -0.822638       -22.3851
  17   2.0000      -0.786122       -21.3915
  18   2.0000      -0.688719       -18.7410
  19   0.0000      -0.343109        -9.3365
  20   0.0000      -0.173237        -4.7140
  21   0.0000      -0.055822        -1.5190
  22   0.0000      -0.025765        -0.7011
  23   0.0000      -0.012285        -0.3343

MULLIKEN ATOMIC CHARGES
-----------------------
   0 C :   -0.314987
   1 C :   -0.068035
   2 C :   -0.121823
   3 C :    0.111046
   4 O :   -0.314961
   5 H :    0.130049
   6 H :    0.124758
   7 H :    0.130084
   8 H :    0.127274
   9 H :    0.128594
  10 H :    0.068001
Sum of atomic charges:    0.0000000

LOEWDIN ATOMIC CHARGES
----------------------
   0 C :   -0.278453
   1 C :   -0.139834
   2 C :   -0.172736
   3 C :   -0.282922
   4 O :    0.072479
   5 H :    0.133692
   6 H :    0.128155
   7 H :    0.133716
   8 H :    0.144902
   9 H :    0.147307
  10 H :    0.113694

  Mayer bond orders larger than 0.100000
B(  0-C ,  1-C ) :   0.9716 B(  0-C ,  5-H ) :   0.9622 B(  0-C ,  6-H ) :   0.9863
B(  0-C ,  7-H ) :   0.9622 B(  1-C ,  2-C ) :   1.7907 B(  1-C ,  8-H ) :   0.9499
B(  2-C ,  3-C ) :   1.0132 B(  2-C ,  9-H ) :   0.9468 B(  3-C ,  4-O ) :   2.0709
B(  3-C , 10-H ) :   0.9965

FINAL SINGLE POINT ENERGY      -231.240687249327

DIPOLE MOMENT
-------------

Method             : SCF
Type of density    : Electron Density
Multiplicity       :   1
Irrep              :   0
Energy             :  -231.2467439301270247 Eh
Relativity type    :
Basis              : AO
                                X                 Y                 Z
Electronic contribution:      6.316931617      -0.117793777      -0.002449666
Nuclear contribution   :     -7.981075869       0.520044636       0.002196564
                        -----------------------------------------
Total Dipole Moment    :     -1.664144252       0.402250858      -0.000253102
                        -----------------------------------------
Magnitude (a.u.)       :      1.712069481
Magnitude (Debye)      :      4.351734783

Rotational constants in cm-1:             1.100220             0.073372             0.069662
Rotational constants in MHz :         32983.772462          2199.635191          2088.400378

                             ****ORCA TERMINATED NORMALLY****
TOTAL RUN TIME: 0 days 0 hours 1 minutes 0 seconds 28 msec
