                         Program Version 6.0.0  -   RELEASE  -
|  1> ! wb97x-v def2-tzvp def2/J RIJCOSX DEFGRID2 scfconv7 GCP(DFT/TZ) printgap
|  2> %output
|  3>     printlevel normal
|  4> end
|  5> %cpcm
|  6>     smd true
|  7>     smdsolvent "water"
|  8> end
|  9> * xyz 0 1
| 10> C -2.512554485103767 -0.19577918660417884 6.122173012344367e-05
| 11> C -1.1514403046582413 0.3813112492906426 -2.9594925897767655e-05
| 12> C -0.005106893378484631 -0.3245989821424729 -7.055634317258397e-05
| 13> C 1.2651526758281957 0.36297346063172015 -0.0010998653772257346
| 14> O 2.362149650444168 -0.1997676973833871 0.00012679740830272353
| 15> H -3.070934730813863 0.1616267712888251 0.8745659306163527
| 16> H -2.4999428042924663 -1.287737521813833 0.0003297420070588456
| 17> H -3.0707957480662036 0.16116852748816315 -0.8747269177150818
| 18> H -1.0817236547054596 1.4700013582150282 0.00010191395440084786
| 19> H -0.00179579337096683 -1.4125100762738692 0.00032499847511565017
| 20> H 1.2096595490428137 1.4700990250181292 0.0008706584854148577
| 21> *
| 22>
| 23>                          ****END OF INPUT****

CARTESIAN COORDINATES (ANGSTROEM)
---------------------------------
  C     -2.512554   -0.195779    0.000061
  C     -1.151440    0.381311   -0.000030
  C     -0.005107   -0.324599   -0.000071
  C      1.265153    0.362973   -0.001100
  O      2.362150   -0.199768    0.000127
  H     -3.070935    0.161627    0.874566
  H     -2.499943   -1.287738    0.000330
  H     -3.070796    0.161169   -0.874727
  H     -1.081724    1.470001    0.000102
  H     -0.001796   -1.412510    0.000325
  H      1.209660    1.470099    0.000871

 Total Charge           Charge          ....    0
 Multiplicity           Mult            ....    1
 Number of Electrons    NEL             ....   38
 Basis Dimension        Dim             ....  191

ORBITAL ENERGIES
----------------

  NO   OCC          E(Eh)            E(eV)
   0   2.0000     -21.670918      -589.6956
   1   2.0000     -12.138918      -330.3167
   2   2.0000     -12.080664      -328.7316
   3   2.0000     -12.048766      -327.8636
   4   2.0000     -12.041851      -327.6754
   5   2.0000      -1.710650       -46.5492
   6   2.0000      -1.339756       -36.4566
   7   2.0000      -1.234531       -33.5933
   8   2.0000      -1.136954       -30.9381
   9   2.0000      -1.050578       -28.5877
  10   2.0000      -1.006137       -27.3784
  11   2.0000      -0.971346       -26.4317
  12   2.0000      -0.909658       -24.7531
  13   2.0000      -0.893114       -24.3029
  14   2.0000      -0.861074       -23.4310
  15   2.0000      -0.832660       -22.6578
  16   2.0000      -0.804134       -21.8816
  17   2.0000      -0.782721       -21.2989
  18   2.0000      -0.678364       -18.4592
  19   0.0000      -0.335729        -9.1356
  20   0.0000      -0.163382        -4.4459
  21   0.0000      -0.045833        -1.2472
  22   0.0000       0.000146         0.0040
  23   0.0000       0.009465         0.2576

MULLIKEN ATOMIC CHARGES
-----------------------
   0 C :   -0.349247
   1 C :   -0.064131
   2 C :   -0.212325
   3 C :    0.187025
   4 O :   -0.463925
   5 H :    0.152593
   6 H :    0.143803
   7 H :    0.152638
   8 H :    0.170231
   9 H :    0.159230
  10 H :    0.124107
Sum of atomic charges:    0.0000000

LOEWDIN ATOMIC CHARGES
----------------------
   0 C :   -0.273506
   1 C :   -0.108275
   2 C :   -0.189348
   3 C :   -0.266996
   4 O :   -0.021521
   5 H :    0.141964
   6 H :    0.132291
   7 H :    0.141992
   8 H :    0.159191
   9 H :    0.152315
  10 H :    0.131895

  Mayer bond orders larger than 0.100000
B(  0-C ,  1-C ) :   0.9762 B(  0-C ,  5-H ) :   0.9525 B(  0-C ,  6-H ) :   0.9813
B(  0-C ,  7-H ) :   0.9525 B(  1-C ,  2-C ) :   1.7798 B(  1-C ,  8-H ) :   0.9442
B(  2-C ,  3-C ) :   1.0622 B(  2-C ,  9-H ) :   0.9333 B(  3-C ,  4-O ) :   1.9190
B(  3-C , 10-H ) :   0.9793

FINAL SINGLE POINT ENERGY      -231.249176363880

DIPOLE MOMENT
-------------

Method             : SCF
Type of density    : Electron Density
Multiplicity       :   1
Irrep              :   0
Energy             :  -231.2552330446800397 Eh
Relativity type    :
Basis              : AO
                                X                 Y                 Z
Electronic contribution:      5.597926859       0.169693461      -0.002586654
Nuclear contribution   :     -7.981075869       0.520044636       0.002196564
                        -----------------------------------------
Total Dipole Moment    :     -2.383149011       0.689738097      -0.000390089
                        -----------------------------------------
Magnitude (a.u.)       :      2.480955058
Magnitude (Debye)      :      6.306086605

Rotational constants in cm-1:             1.100220             0.073372             0.069662
Rotational constants in MHz :         32983.772462          2199.635191          2088.400378

                             ****ORCA TERMINATED NORMALLY****
TOTAL RUN TIME: 0 days 0 hours 0 minutes 57 seconds 1 msec
