                         Program Version 6.0.0  -   RELEASE  -
|  1> ! r2scan-3c def2/J RI DEFGRID2 scfconv6 printgap
|  2> %output
|  3>     printlevel normal
|  4> end
|  5> * xyz 0 1
|  6> C 0.5319929884 0.8894016652 -1.2592615932
|  7> C 0.4079333292 0.0225424433 -3.3685e-06
|  8> C 0.5308268127 0.8936950179 1.256385362
|  9> C 1.5037829448 -1.0480751097 0.002329958
| 10> O -0.8108927305 -0.7393347833 0.0005215042
| 11> C -2.0294808903 -0.0300418895 5.36174e-05
| 12> H 1.5388530234 1.290155475 -1.324119467
| 13> H 0.3346939823 0.2875035983 -2.1433634637
| 14> H -0.1671325565 1.7217030282 -1.2356290755
| 15> H 0.3341187459 0.2945646647 2.1424917772
| 16> H -0.1691490686 1.7251961105 1.229845917
| 17> H 1.5372712138 1.295679103 1.3198820367
| 18> H 1.4002952914 -1.6739033427 0.8842450444
| 19> H 1.4006566541 -1.6773830001 -0.8771497902
| 20> H 2.4856021918 -0.5860232184 0.0016300587
| 21> H -2.1399749027 0.5919928612 -0.8927896061
| 22> H -2.1409649439 0.5914013495 0.893189111
| 23> H -2.804249463 -0.7944666844 -0.0005998489
| 24> *
| 25>
| 26>                          ****END OF INPUT****

CARTESIAN COORDINATES (ANGSTROEM)
---------------------------------
  C      0.531993    0.889402   -1.259262
  C      0.407933    0.022542   -0.000003
  C      0.530827    0.893695    1.256385
  C      1.503783   -1.048075    0.002330
  O     -0.810893   -0.739335    0.000522
  C     -2.029481   -0.030042    0.000054
  H      1.538853    1.290155   -1.324119
  H      0.334694    0.287504   -2.143363
  H     -0.167133    1.721703   -1.235629
  H      0.334119    0.294565    2.142492
  H     -0.169149    1.725196    1.229846
  H      1.537271    1.295679    1.319882
  H      1.400295   -1.673903    0.884245
  H      1.400657   -1.677383   -0.877150
  H      2.485602   -0.586023    0.001630
  H     -2.139975    0.591993   -0.892790
  H     -2.140965    0.591401    0.893189
  H     -2.804249   -0.794467   -0.000600

 Total Charge           Charge          ....    0
 Multiplicity           Mult            ....    1
 Number of Electrons    NEL             ....   50
 Basis Dimension        Dim             ....  179

ORBITAL ENERGIES
----------------

  NO   OCC          E(Eh)            E(eV)
   0   2.0000     -18.941886      -515.4349
   1   2.0000     -10.088062      -274.5101
   2   2.0000     -10.064178      -273.8602
   3   2.0000     -10.016584      -272.5651
   4   2.0000     -10.016563      -272.5645
   5   2.0000     -10.012144      -272.4443
   6   2.0000      -0.986141       -26.8342
   7   2.0000      -0.763043       -20.7635
   8   2.0000      -0.662375       -18.0241
   9   2.0000      -0.656966       -17.8770
  10   2.0000      -0.635675       -17.2976
  11   2.0000      -0.514600       -14.0030
  12   2.0000      -0.451290       -12.2802
  13   2.0000      -0.428878       -11.6704
  14   2.0000      -0.424520       -11.5518
  15   2.0000      -0.397628       -10.8200
  16   2.0000      -0.382967       -10.4211
  17   2.0000      -0.368000       -10.0138
  18   2.0000      -0.352194        -9.5837
  19   2.0000      -0.343276        -9.3410
  20   2.0000      -0.333694        -9.0803
  21   2.0000      -0.309792        -8.4299
  22   2.0000      -0.308799        -8.4029
  23   2.0000      -0.264861        -7.2072
  24   2.0000      -0.215709        -5.8697
  25   0.0000       0.072418         1.9706
  26   0.0000       0.091801         2.4980
  27   0.0000       0.120169         3.2700
  28   0.0000       0.130641         3.5549
  29   0.0000       0.136197         3.7061

MULLIKEN ATOMIC CHARGES
-----------------------
   0 C :   -0.486765
   1 C :    0.148669
   2 C :   -0.486666
   3 C :   -0.458920
   4 O :   -0.221008
   5 C :   -0.301945
   6 H :    0.151025
   7 H :    0.166292
   8 H :    0.148650
   9 H :    0.166261
  10 H :    0.148710
  11 H :    0.151023
  12 H :    0.156191
  13 H :    0.156210
  14 H :    0.142803
  15 H :    0.136082
  16 H :    0.136120
  17 H :    0.147269
Sum of atomic charges:   -0.0000000

LOEWDIN ATOMIC CHARGES
----------------------
   0 C :   -0.389750
   1 C :    0.059084
   2 C :   -0.389733
   3 C :   -0.368164
   4 O :   -0.783374
   5 C :   -0.066956
   6 H :    0.161722
   7 H :    0.165829
   8 H :    0.156588
   9 H :    0.165800
  10 H :    0.156614
  11 H :    0.161738
  12 H :    0.165383
  13 H :    0.165407
  14 H :    0.155779
  15 H :    0.153984
  16 H :    0.153976
  17 H :    0.176074

  Mayer bond orders larger than 0.100000
B(  0-C ,  1-C ) :   0.9231 B(  0-C ,  6-H ) :   0.9686 B(  0-C ,  7-H ) :   0.9732
B(  0-C ,  8-H ) :   0.9657 B(  1-C ,  2-C ) :   0.9230 B(  1-C ,  3-C ) :   0.9521
B(  1-C ,  4-O ) :   0.8343 B(  2-C ,  9-H ) :   0.9732 B(  2-C , 10-H ) :   0.9658
B(  2-C , 11-H ) :   0.9686 B(  3-C , 12-H ) :   0.9737 B(  3-C , 13-H ) :   0.9736
B(  3-C , 14-H ) :   0.9750 B(  4-O ,  5-C ) :   0.9087 B(  5-C , 15-H ) :   0.9640
B(  5-C , 16-H ) :   0.9640 B(  5-C , 17-H ) :   0.9713

Dispersion correction           -0.004527735
FINAL SINGLE POINT ENERGY      -272.890123963135

DIPOLE MOMENT
-------------

Method             : SCF
Type of density    : Electron Density
Multiplicity       :   1
Irrep              :   0
Energy             :  -272.8969586885573904 Eh
Relativity type    :
Basis              : AO
                                X                 Y                 Z
Electronic contribution:     -1.449836148      -2.396734018       0.001907860
Nuclear contribution   :      1.498428348       2.865831599      -0.002213181
                        -----------------------------------------
Total Dipole Moment    :      0.048592200       0.469097580      -0.000305321
                        -----------------------------------------
Magnitude (a.u.)       :      0.471607713
Magnitude (Debye)      :      1.198731542

Rotational constants in cm-1:             0.146653             0.090949             0.090507
Rotational constants in MHz :          4396.534747          2726.578871          2713.318490

                             ****ORCA TERMINATED NORMALLY****
TOTAL RUN TIME: 0 days 0 hours 0 minutes 18 seconds 334 msec
