                         Program Version 6.0.0  -   RELEASE  -
|  1> ! r2scan-3c def2/J RI DEFGRID2 scfconv6 printgap
|  2> %output
|  3>     printlevel normal
|  4> end
|  5> %cpcm
|  6>     smd true
|  7>     smdsolvent "water"
|  8> end
|  9> * xyz 0 1
| 10> C 0.5319929884 0.8894016652 -1.2592615932
| 11> C 0.4079333292 0.0225424433 -3.3685e-06
| 12> C 0.5308268127 0.8936950179 1.256385362
| 13> C 1.5037829448 -1.0480751097 0.002329958
| 14> O -0.8108927305 -0.7393347833 0.0005215042
| 15> C -2.0294808903 -0.0300418895 5.36174e-05
| 16> H 1.5388530234 1.290155475 -1.324119467
| 17> H 0.3346939823 0.2875035983 -2.1433634637
| 18> H -0.1671325565 1.7217030282 -1.2356290755
| 19> H 0.3341187459 0.2945646647 2.1424917772
| 20> H -0.1691490686 1.7251961105 1.229845917
| 21> H 1.5372712138 1.295679103 1.3198820367
| 22> H 1.4002952914 -1.6739033427 0.8842450444
| 23> H 1.4006566541 -1.6773830001 -0.8771497902
| 24> H 2.4856021918 -0.5860232184 0.0016300587
| 25> H -2.1399749027 0.5919928612 -0.8927896061
| 26> H -2.1409649439 0.5914013495 0.893189111
| 27> H -2.804249463 -0.7944666844 -0.0005998489
| 28> *
| 29>
| 30>                          ****END OF INPUT****

CARTESIAN COORDINATES (ANGSTROEM)
---------------------------------
  C      0.531993    0.889402   -1.259262
  C      0.407933    0.022542   -0.000003
  C      0.530827    0.893695    1.256385
  C      1.503783   -1.048075    0.002330
  O     -0.810893   -0.739335    0.000522
  C     -2.029481   -0.030042    0.000054
  H      1.538853    1.290155   -1.324119
  H      0.334694    0.287504   -2.143363
  H     -0.167133    1.721703   -1.235629
  H      0.334119    0.294565    2.142492
  H     -0.169149    1.725196    1.229846
  H      1.537271    1.295679    1.319882
  H      1.400295   -1.673903    0.884245
  H      1.400657   -1.677383   -0.877150
  H      2.485602   -0.586023    0.001630
  H     -2.139975    0.591993   -0.892790
  H     -2.140965    0.591401    0.893189
  H     -2.804249   -0.794467   -0.000600

 Total Charge           Charge          ....    0
 Multiplicity           Mult            ....    1
 Number of Electrons    NEL             ....   50
 Basis Dimension        Dim             ....  179

ORBITAL ENERGIES
----------------

  NO   OCC          E(Eh)            E(eV)
   0   2.0000     -18.949556      -515.6436
   1   2.0000     -10.085359      -274.4366
   2   2.0000     -10.059413      -273.7305
   3   2.0000     -10.008617      -272.3483
   4   2.0000     -10.008580      -272.3473
   5   2.0000     -10.008568      -272.3470
   6   2.0000      -0.992331       -27.0027
   7   2.0000      -0.759388       -20.6640
   8   2.0000      -0.658371       -17.9152
   9   2.0000      -0.649866       -17.6837
  10   2.0000      -0.632733       -17.2175
  11   2.0000      -0.512287       -13.9400
  12   2.0000      -0.447347       -12.1729
  13   2.0000      -0.427002       -11.6193
  14   2.0000      -0.422913       -11.5080
  15   2.0000      -0.392435       -10.6787
  16   2.0000      -0.378502       -10.2996
  17   2.0000      -0.361753        -9.8438
  18   2.0000      -0.344312        -9.3692
  19   2.0000      -0.339368        -9.2347
  20   2.0000      -0.327264        -8.9053
  21   2.0000      -0.306536        -8.3413
  22   2.0000      -0.304178        -8.2771
  23   2.0000      -0.268709        -7.3120
  24   2.0000      -0.221453        -6.0260
  25   0.0000       0.076297         2.0761
  26   0.0000       0.099944         2.7196
  27   0.0000       0.125682         3.4200
  28   0.0000       0.139039         3.7834
  29   0.0000       0.140043         3.8108

MULLIKEN ATOMIC CHARGES
-----------------------
   0 C :   -0.525155
   1 C :    0.185933
   2 C :   -0.525027
   3 C :   -0.511201
   4 O :   -0.298339
   5 C :   -0.314560
   6 H :    0.171818
   7 H :    0.170037
   8 H :    0.168148
   9 H :    0.170042
  10 H :    0.168186
  11 H :    0.171813
  12 H :    0.164821
  13 H :    0.164811
  14 H :    0.168713
  15 H :    0.154777
  16 H :    0.154777
  17 H :    0.160407
Sum of atomic charges:   -0.0000000

LOEWDIN ATOMIC CHARGES
----------------------
   0 C :   -0.393814
   1 C :    0.060745
   2 C :   -0.393791
   3 C :   -0.377590
   4 O :   -0.825126
   5 C :   -0.067811
   6 H :    0.168583
   7 H :    0.166045
   8 H :    0.162997
   9 H :    0.166032
  10 H :    0.163017
  11 H :    0.168597
  12 H :    0.165244
  13 H :    0.165258
  14 H :    0.165629
  15 H :    0.162965
  16 H :    0.162943
  17 H :    0.180076

  Mayer bond orders larger than 0.100000
B(  0-C ,  1-C ) :   0.9240 B(  0-C ,  6-H ) :   0.9646 B(  0-C ,  7-H ) :   0.9681
B(  0-C ,  8-H ) :   0.9611 B(  1-C ,  2-C ) :   0.9240 B(  1-C ,  3-C ) :   0.9412
B(  1-C ,  4-O ) :   0.8233 B(  2-C ,  9-H ) :   0.9680 B(  2-C , 10-H ) :   0.9611
B(  2-C , 11-H ) :   0.9646 B(  3-C , 12-H ) :   0.9725 B(  3-C , 13-H ) :   0.9725
B(  3-C , 14-H ) :   0.9686 B(  4-O ,  5-C ) :   0.9023 B(  5-C , 15-H ) :   0.9584
B(  5-C , 16-H ) :   0.9584 B(  5-C , 17-H ) :   0.9646

Dispersion correction           -0.004527735
FINAL SINGLE POINT ENERGY      -272.891795278903

DIPOLE MOMENT
-------------

Method             : SCF
Type of density    : Electron Density
Multiplicity       :   1
Irrep              :   0
Energy             :  -272.8986300043251845 Eh
Relativity type    :
Basis              : AO
                                X                 Y                 Z
Electronic contribution:     -1.402557221      -2.090491840       0.001682960
Nuclear contribution   :      1.498428348       2.865831599      -0.002213181
                        -----------------------------------------
Total Dipole Moment    :      0.095871127       0.775339759      -0.000530221
                        -----------------------------------------
Magnitude (a.u.)       :      0.781244709
Magnitude (Debye)      :      1.985766239

Rotational constants in cm-1:             0.146653             0.090949             0.090507
Rotational constants in MHz :          4396.534747          2726.578871          2713.318490

                             ****ORCA TERMINATED NORMALLY****
TOTAL RUN TIME: 0 days 0 hours 0 minutes 24 seconds 177 msec
