                         Program Version 6.0.0  -   RELEASE  -
|  1> ! pbe def2-sv(p) def2/J RI DEFGRID1 loosescf d4 GCP(DFT/SV(P)) printgap
|  2> %output
|  3>     printlevel normal
|  4> end
|  5> * xyz 0 1
|  6> C -2.2829652483 -0.9482630137 -0.3310638843
|  7> C -1.1456472674 -0.2224332238 0.3979404829
|  8> H -1.5506336905 0.229815274 1.3115242145
|  9> C -0.5523830776 0.8890073631 -0.4683086305
| 10> H -0.3873960891 0.5116234419 -1.4918198243
| 11> C 0.7972546477 1.3128507983 0.1307746447
| 12> H 0.6633318948 1.5632216631 1.1890862872
| 13> C 1.7894252719 0.1472078474 0.0388714425
| 14> H 2.2809185241 0.176408821 -0.9443899571
| 15> C 1.0416715776 -1.2090270818 0.1095546571
| 16> H 1.6522560611 -1.9144007055 0.692128938
| 17> O -0.1573384753 -1.1596990903 0.8344847937
| 18> O 0.8630884288 -1.6531219267 -1.2019819892
| 19> O 2.7225780567 0.2916459109 1.0762978085
| 20> O 1.2600569864 2.4907988762 -0.4749605761
| 21> O -1.4543991408 1.9637560275 -0.5037539806
| 22> O -2.9787373176 -1.8313998684 0.5120832989
| 23> H -1.8739157517 -1.4836344242 -1.198517068
| 24> H -3.0044727072 -0.2057501277 -0.6764047039
| 25> H 0.5912021322 -2.583515495 -1.2124395985
| 26> H 3.4960735048 -0.2694436954 0.9205932727
| 27> H 1.5535101888 2.3063285989 -1.3802702505
| 28> H -0.9388358895 2.7843224732 -0.5899098432
| 29> H -2.3314431024 -2.3684659773 0.9928360479
| 30> *
| 31>
| 32>                          ****END OF INPUT****

CARTESIAN COORDINATES (ANGSTROEM)
---------------------------------
  C     -2.282965   -0.948263   -0.331064
  C     -1.145647   -0.222433    0.397940
  H     -1.550634    0.229815    1.311524
  C     -0.552383    0.889007   -0.468309
  H     -0.387396    0.511623   -1.491820
  C      0.797255    1.312851    0.130775
  H      0.663332    1.563222    1.189086
  C      1.789425    0.147208    0.038871
  H      2.280919    0.176409   -0.944390
  C      1.041672   -1.209027    0.109555
  H      1.652256   -1.914401    0.692129
  O     -0.157338   -1.159699    0.834485
  O      0.863088   -1.653122   -1.201982
  O      2.722578    0.291646    1.076298
  O      1.260057    2.490799   -0.474961
  O     -1.454399    1.963756   -0.503754
  O     -2.978737   -1.831400    0.512083
  H     -1.873916   -1.483634   -1.198517
  H     -3.004473   -0.205750   -0.676405
  H      0.591202   -2.583515   -1.212440
  H      3.496074   -0.269444    0.920593
  H      1.553510    2.306329   -1.380270
  H     -0.938836    2.784322   -0.589910
  H     -2.331443   -2.368466    0.992836

 Total Charge           Charge          ....    0
 Multiplicity           Mult            ....    1
 Number of Electrons    NEL             ....   96
 Basis Dimension        Dim             ....  192

ORBITAL ENERGIES
----------------

  NO   OCC          E(Eh)            E(eV)
   0   2.0000     -18.777286      -510.9559
   1   2.0000     -18.774322      -510.8753
   2   2.0000     -18.767828      -510.6986
   3   2.0000     -18.763289      -510.5751
   4   2.0000     -18.746102      -510.1074
   5   2.0000     -18.736294      -509.8405
   6   2.0000      -9.996036      -272.0060
   7   2.0000      -9.954152      -270.8663
   8   2.0000      -9.948432      -270.7106
   9   2.0000      -9.940535      -270.4957
  10   2.0000      -9.939756      -270.4745
  11   2.0000      -9.921360      -269.9739
  12   2.0000      -0.989021       -26.9126
  13   2.0000      -0.954816       -25.9819
  14   2.0000      -0.937957       -25.5231
  15   2.0000      -0.926979       -25.2244
  16   2.0000      -0.916542       -24.9404
  17   2.0000      -0.908770       -24.7289
  18   2.0000      -0.708987       -19.2925
  19   2.0000      -0.696089       -18.9415
  20   2.0000      -0.619333       -16.8529
  21   2.0000      -0.589804       -16.0494
  22   2.0000      -0.571205       -15.5433
  23   2.0000      -0.533549       -14.5186
  24   2.0000      -0.515619       -14.0307
  25   2.0000      -0.482228       -13.1221
  26   2.0000      -0.473770       -12.8919
  27   2.0000      -0.461780       -12.5657
  28   2.0000      -0.448475       -12.2036
  29   2.0000      -0.430913       -11.7257
  30   2.0000      -0.418422       -11.3858
  31   2.0000      -0.400807       -10.9065
  32   2.0000      -0.389735       -10.6052
  33   2.0000      -0.379031       -10.3140
  34   2.0000      -0.366442        -9.9714
  35   2.0000      -0.353257        -9.6126
  36   2.0000      -0.330533        -8.9943
  37   2.0000      -0.318181        -8.6581
  38   2.0000      -0.304524        -8.2865
  39   2.0000      -0.289089        -7.8665
  40   2.0000      -0.286116        -7.7856
  41   2.0000      -0.272291        -7.4094
  42   2.0000      -0.263966        -7.1829
  43   2.0000      -0.243305        -6.6207
  44   2.0000      -0.239294        -6.5115
  45   2.0000      -0.225848        -6.1456
  46   2.0000      -0.214130        -5.8268
  47   2.0000      -0.202350        -5.5062
  48   0.0000       0.009103         0.2477
  49   0.0000       0.013113         0.3568
  50   0.0000       0.021323         0.5802
  51   0.0000       0.044287         1.2051
  52   0.0000       0.057943         1.5767

MULLIKEN ATOMIC CHARGES
-----------------------
   0 C :    0.086222
   1 C :    0.042453
   2 H :    0.075203
   3 C :    0.015974
   4 H :    0.053200
   5 C :    0.045930
   6 H :    0.079940
   7 C :    0.069764
   8 H :    0.053096
   9 C :    0.162096
  10 H :    0.049442
  11 O :   -0.327281
  12 O :   -0.396416
  13 O :   -0.401109
  14 O :   -0.413316
  15 O :   -0.414109
  16 O :   -0.435509
  17 H :    0.051582
  18 H :    0.097387
  19 H :    0.307781
  20 H :    0.303312
  21 H :    0.300988
  22 H :    0.300434
  23 H :    0.292937
Sum of atomic charges:   -0.0000000

LOEWDIN ATOMIC CHARGES
----------------------
   0 C :   -0.131722
   1 C :   -0.066323
   2 H :    0.120490
   3 C :   -0.083712
   4 H :    0.099322
   5 C :   -0.071648
   6 H :    0.129363
   7 C :   -0.080882
   8 H :    0.103724
   9 C :   -0.011018
  10 H :    0.095619
  11 O :   -0.149778
  12 O :   -0.313232
  13 O :   -0.308554
  14 O :   -0.302353
  15 O :   -0.321024
  16 O :   -0.339919
  17 H :    0.090777
  18 H :    0.122919
  19 H :    0.288119
  20 H :    0.287877
  21 H :    0.285048
  22 H :    0.279807
  23 H :    0.277101

  Mayer bond orders larger than 0.100000
B(  0-C ,  1-C ) :   1.0811 B(  0-C , 16-O ) :   1.0723 B(  0-C , 17-H ) :   0.8985
B(  0-C , 18-H ) :   0.9121 B(  1-C ,  2-H ) :   0.8731 B(  1-C ,  3-C ) :   0.9698
B(  1-C , 11-O ) :   0.9409 B(  3-C ,  4-H ) :   0.8673 B(  3-C ,  5-C ) :   1.0337
B(  3-C , 15-O ) :   1.0890 B(  5-C ,  6-H ) :   0.8486 B(  5-C ,  7-C ) :   1.0155
B(  5-C , 14-O ) :   1.0248 B(  7-C ,  8-H ) :   0.8736 B(  7-C ,  9-C ) :   0.9774
B(  7-C , 13-O ) :   1.1059 B(  9-C , 10-H ) :   0.8967 B(  9-C , 11-O ) :   1.0949
B(  9-C , 12-O ) :   1.0899 B( 12-O , 19-H ) :   0.8337 B( 13-O , 20-H ) :   0.8462
B( 14-O , 21-H ) :   0.8455 B( 15-O , 22-H ) :   0.8200 B( 16-O , 23-H ) :   0.8456

Dispersion correction           -0.024326884
FINAL SINGLE POINT ENERGY      -685.691013823527

DIPOLE MOMENT
-------------

Method             : SCF
Type of density    : Electron Density
Multiplicity       :   1
Irrep              :   0
Energy             :  -685.8211463383905766 Eh
Relativity type    :
Basis              : AO
                                X                 Y                 Z
Electronic contribution:      1.378745163       0.410153592       1.517502058
Nuclear contribution   :      0.145065177      -1.174476224      -2.236370926
                        -----------------------------------------
Total Dipole Moment    :      1.523810340      -0.764322631      -0.718868868
                        -----------------------------------------
Magnitude (a.u.)       :      1.850124181
Magnitude (Debye)      :      4.702641944

Rotational constants in cm-1:             0.042399             0.025530             0.018746
Rotational constants in MHz :          1271.102358           765.381692           561.984758

                             ****ORCA TERMINATED NORMALLY****
TOTAL RUN TIME: 0 days 0 hours 0 minutes 12 seconds 205 msec
