                         Program Version 6.0.0  -   RELEASE  -
|  1> ! r2scan-3c def2/J RI DEFGRID2 scfconv6 printgap
|  2> %output
|  3>     printlevel normal
|  4> end
|  5> * xyz 0 1
|  6> C -2.8218025491 -0.2620923322 -0.4014379255
|  7> O -1.3980258214 -0.4860780461 -0.4348432719
|  8> C -0.6140400981 0.3396211263 0.1796382117
|  9> O -0.8937609906 1.3230163849 0.8124356578
| 10> C 0.8747813905 -0.0941040873 0.007055295
| 11> F 1.5881282854 0.8716310091 -0.5870114624
| 12> F 1.4451045375 -0.3306342744 1.1958470292
| 13> F 1.0182221927 -1.199886208 -0.727091806
| 14> H -3.2689362253 -1.1164283192 0.1023936726
| 15> H -3.155782002 -0.2154982097 -1.4354249582
| 16> H -3.0438147174 0.6636471109 0.1272706616
| 17> *
| 18>
| 19>                          ****END OF INPUT****

CARTESIAN COORDINATES (ANGSTROEM)
---------------------------------
  C     -2.821803   -0.262092   -0.401438
  O     -1.398026   -0.486078   -0.434843
  C     -0.614040    0.339621    0.179638
  O     -0.893761    1.323016    0.812436
  C      0.874781   -0.094104    0.007055
  F      1.588128    0.871631   -0.587011
  F      1.445105   -0.330634    1.195847
  F      1.018222   -1.199886   -0.727092
  H     -3.268936   -1.116428    0.102394
  H     -3.155782   -0.215498   -1.435425
  H     -3.043815    0.663647    0.127271

 Total Charge           Charge          ....    0
 Multiplicity           Mult            ....    1
 Number of Electrons    NEL             ....   64
 Basis Dimension        Dim             ....  192

ORBITAL ENERGIES
----------------

  NO   OCC          E(Eh)            E(eV)
   0   2.0000     -24.528757      -667.4614
   1   2.0000     -24.528713      -667.4602
   2   2.0000     -24.528521      -667.4550
   3   2.0000     -19.043082      -518.1886
   4   2.0000     -18.969966      -516.1990
   5   2.0000     -10.298632      -280.2400
   6   2.0000     -10.198036      -277.5027
   7   2.0000     -10.116305      -275.2787
   8   2.0000      -1.289142       -35.0793
   9   2.0000      -1.198892       -32.6235
  10   2.0000      -1.197658       -32.5899
  11   2.0000      -1.119996       -30.4766
  12   2.0000      -1.023992       -27.8642
  13   2.0000      -0.761366       -20.7178
  14   2.0000      -0.690996       -18.8030
  15   2.0000      -0.604110       -16.4387
  16   2.0000      -0.569381       -15.4936
  17   2.0000      -0.568582       -15.4719
  18   2.0000      -0.551538       -15.0081
  19   2.0000      -0.486530       -13.2392
  20   2.0000      -0.475102       -12.9282
  21   2.0000      -0.449302       -12.2261
  22   2.0000      -0.438775       -11.9397
  23   2.0000      -0.435422       -11.8484
  24   2.0000      -0.412157       -11.2154
  25   2.0000      -0.399098       -10.8600
  26   2.0000      -0.388983       -10.5848
  27   2.0000      -0.388172       -10.5627
  28   2.0000      -0.376678       -10.2499
  29   2.0000      -0.351361        -9.5610
  30   2.0000      -0.310443        -8.4476
  31   2.0000      -0.278088        -7.5671
  32   0.0000      -0.063557        -1.7295
  33   0.0000       0.035698         0.9714
  34   0.0000       0.075222         2.0469
  35   0.0000       0.109935         2.9915
  36   0.0000       0.126330         3.4376

MULLIKEN ATOMIC CHARGES
-----------------------
   0 C :   -0.273970
   1 O :   -0.178898
   2 C :    0.382713
   3 O :   -0.394887
   4 C :    0.530046
   5 F :   -0.193931
   6 F :   -0.193938
   7 F :   -0.193273
   8 H :    0.162247
   9 H :    0.161911
  10 H :    0.191982
Sum of atomic charges:   -0.0000000

LOEWDIN ATOMIC CHARGES
----------------------
   0 C :   -0.024171
   1 O :   -0.550791
   2 C :    0.368386
   3 O :   -0.367314
   4 C :    0.564500
   5 F :   -0.185609
   6 F :   -0.185801
   7 F :   -0.177277
   8 H :    0.182153
   9 H :    0.182568
  10 H :    0.193357

  Mayer bond orders larger than 0.100000
B(  0-C ,  1-O ) :   0.8178 B(  0-C ,  8-H ) :   0.9585 B(  0-C ,  9-H ) :   0.9600
B(  0-C , 10-H ) :   0.9672 B(  1-O ,  2-C ) :   1.1377 B(  2-C ,  3-O ) :   1.8516
B(  2-C ,  4-C ) :   0.9838 B(  4-C ,  5-F ) :   1.0239 B(  4-C ,  6-F ) :   1.0236
B(  4-C ,  7-F ) :   1.0472

Dispersion correction           -0.002393129
FINAL SINGLE POINT ENERGY      -566.062872769137

DIPOLE MOMENT
-------------

Method             : SCF
Type of density    : Electron Density
Multiplicity       :   1
Irrep              :   0
Energy             :  -566.0735600991773708 Eh
Relativity type    :
Basis              : AO
                                X                 Y                 Z
Electronic contribution:     11.421543843      -0.483508991       0.590292517
Nuclear contribution   :    -12.670857165      -0.004102847      -1.016063337
                        -----------------------------------------
Total Dipole Moment    :     -1.249313322      -0.487611838      -0.425770820
                        -----------------------------------------
Magnitude (a.u.)       :      1.407064275
Magnitude (Debye)      :      3.576473160

Rotational constants in cm-1:             0.120115             0.049918             0.043605
Rotational constants in MHz :          3600.960565          1496.512310          1307.240598

                             ****ORCA TERMINATED NORMALLY****
TOTAL RUN TIME: 0 days 0 hours 0 minutes 17 seconds 710 msec
