                         Program Version 6.0.0  -   RELEASE  -
|  1> ! r2scan-3c def2/J RI DEFGRID2 scfconv6 printgap
|  2> %output
|  3>     printlevel normal
|  4> end
|  5> %cpcm
|  6>     smd true
|  7>     smdsolvent "water"
|  8> end
|  9> * xyz 0 1
| 10> C -2.8218025491 -0.2620923322 -0.4014379255
| 11> O -1.3980258214 -0.4860780461 -0.4348432719
| 12> C -0.6140400981 0.3396211263 0.1796382117
| 13> O -0.8937609906 1.3230163849 0.8124356578
| 14> C 0.8747813905 -0.0941040873 0.007055295
| 15> F 1.5881282854 0.8716310091 -0.5870114624
| 16> F 1.4451045375 -0.3306342744 1.1958470292
| 17> F 1.0182221927 -1.199886208 -0.727091806
| 18> H -3.2689362253 -1.1164283192 0.1023936726
| 19> H -3.155782002 -0.2154982097 -1.4354249582
| 20> H -3.0438147174 0.6636471109 0.1272706616
| 21> *
| 22>
| 23>                          ****END OF INPUT****

CARTESIAN COORDINATES (ANGSTROEM)
---------------------------------
  C     -2.821803   -0.262092   -0.401438
  O     -1.398026   -0.486078   -0.434843
  C     -0.614040    0.339621    0.179638
  O     -0.893761    1.323016    0.812436
  C      0.874781   -0.094104    0.007055
  F      1.588128    0.871631   -0.587011
  F      1.445105   -0.330634    1.195847
  F      1.018222   -1.199886   -0.727092
  H     -3.268936   -1.116428    0.102394
  H     -3.155782   -0.215498   -1.435425
  H     -3.043815    0.663647    0.127271

 Total Charge           Charge          ....    0
 Multiplicity           Mult            ....    1
 Number of Electrons    NEL             ....   64
 Basis Dimension        Dim             ....  192

ORBITAL ENERGIES
----------------

  NO   OCC          E(Eh)            E(eV)
   0   2.0000     -24.535226      -667.6374
   1   2.0000     -24.535197      -667.6367
   2   2.0000     -24.533864      -667.6004
   3   2.0000     -19.034722      -517.9611
   4   2.0000     -18.972783      -516.2757
   5   2.0000     -10.301898      -280.3289
   6   2.0000     -10.198707      -277.5209
   7   2.0000     -10.088516      -274.5225
   8   2.0000      -1.294631       -35.2287
   9   2.0000      -1.204338       -32.7717
  10   2.0000      -1.203935       -32.7607
  11   2.0000      -1.112679       -30.2775
  12   2.0000      -1.024471       -27.8773
  13   2.0000      -0.750498       -20.4221
  14   2.0000      -0.686204       -18.6725
  15   2.0000      -0.601922       -16.3791
  16   2.0000      -0.574285       -15.6271
  17   2.0000      -0.572559       -15.5801
  18   2.0000      -0.541412       -14.7326
  19   2.0000      -0.475165       -12.9299
  20   2.0000      -0.472994       -12.8708
  21   2.0000      -0.445808       -12.1310
  22   2.0000      -0.443825       -12.0771
  23   2.0000      -0.440003       -11.9731
  24   2.0000      -0.408777       -11.1234
  25   2.0000      -0.405217       -11.0265
  26   2.0000      -0.383831       -10.4446
  27   2.0000      -0.382459       -10.4072
  28   2.0000      -0.381931       -10.3929
  29   2.0000      -0.340118        -9.2551
  30   2.0000      -0.301970        -8.2170
  31   2.0000      -0.283126        -7.7042
  32   0.0000      -0.062095        -1.6897
  33   0.0000       0.054249         1.4762
  34   0.0000       0.086555         2.3553
  35   0.0000       0.116800         3.1783
  36   0.0000       0.128740         3.5032

MULLIKEN ATOMIC CHARGES
-----------------------
   0 C :   -0.287225
   1 O :   -0.173790
   2 C :    0.419765
   3 O :   -0.456726
   4 C :    0.522698
   5 F :   -0.198326
   6 F :   -0.198311
   7 F :   -0.198745
   8 H :    0.189420
   9 H :    0.188625
  10 H :    0.192614
Sum of atomic charges:   -0.0000000

LOEWDIN ATOMIC CHARGES
----------------------
   0 C :   -0.013583
   1 O :   -0.541313
   2 C :    0.378434
   3 O :   -0.412640
   4 C :    0.565132
   5 F :   -0.190130
   6 F :   -0.190278
   7 F :   -0.179078
   8 H :    0.193971
   9 H :    0.194358
  10 H :    0.195127

  Mayer bond orders larger than 0.100000
B(  0-C ,  1-O ) :   0.8052 B(  0-C ,  8-H ) :   0.9476 B(  0-C ,  9-H ) :   0.9492
B(  0-C , 10-H ) :   0.9617 B(  1-O ,  2-C ) :   1.1802 B(  2-C ,  3-O ) :   1.8059
B(  2-C ,  4-C ) :   0.9853 B(  4-C ,  5-F ) :   1.0205 B(  4-C ,  6-F ) :   1.0202
B(  4-C ,  7-F ) :   1.0475

Dispersion correction           -0.002393129
FINAL SINGLE POINT ENERGY      -566.064140584737

DIPOLE MOMENT
-------------

Method             : SCF
Type of density    : Electron Density
Multiplicity       :   1
Irrep              :   0
Energy             :  -566.0748279147777566 Eh
Relativity type    :
Basis              : AO
                                X                 Y                 Z
Electronic contribution:     11.138960491      -0.692963719       0.428575792
Nuclear contribution   :    -12.670857165      -0.004102847      -1.016063337
                        -----------------------------------------
Total Dipole Moment    :     -1.531896675      -0.697066567      -0.587487545
                        -----------------------------------------
Magnitude (a.u.)       :      1.782624704
Magnitude (Debye)      :      4.531071908

Rotational constants in cm-1:             0.120115             0.049918             0.043605
Rotational constants in MHz :          3600.960565          1496.512310          1307.240598

                             ****ORCA TERMINATED NORMALLY****
TOTAL RUN TIME: 0 days 0 hours 0 minutes 21 seconds 752 msec
