                         Program Version 6.0.0  -   RELEASE  -
|  1> ! r2scan-3c def2/J RI DEFGRID2 scfconv6 printgap
|  2> %output
|  3>     printlevel normal
|  4> end
|  5> * xyz 0 1
|  6> C -2.5750349391 -0.694017749 -0.2712247515
|  7> C -1.1854468214 -0.2855520891 0.235553728
|  8> H -1.2048521583 -0.2052984043 1.3340712719
|  9> C -0.7158855693 1.0554484812 -0.3549243529
| 10> H -0.6824805085 0.9687728079 -1.4496634084
| 11> C 0.7033404025 1.3410685802 0.1526583251
| 12> H 0.6568300652 1.4753764875 1.2453577201
| 13> C 1.6437670693 0.1715931815 -0.1558080024
| 14> H 1.7979591597 0.1107265428 -1.242852308
| 15> C 1.0311267248 -1.15705999 0.3084010139
| 16> H 1.040300673 -1.164318679 1.4175993264
| 17> O -0.2942236832 -1.3195948137 -0.1497851691
| 18> O 1.7866446389 -2.1802935727 -0.2170430179
| 19> O 2.8664276913 0.3224110787 0.5138104637
| 20> O 1.2483802435 2.4877549113 -0.451028343
| 21> O -1.5112054987 2.1434250091 0.0481328412
| 22> O -3.0428297409 -1.8646431037 0.3435516017
| 23> H -2.5273409156 -0.8198270419 -1.3602157312
| 24> H -3.2987283202 0.081114008 -0.0162518931
| 25> H 1.4385785506 -3.039983371 0.067466751
| 26> H 3.2639811263 1.1610365771 0.2322466931
| 27> H 0.6374143453 3.2269136751 -0.3100126029
| 28> H -2.3373195694 2.1660257389 -0.4529697785
| 29> H -2.4164383286 -2.5791611905 0.1610854756
| 30> *
| 31>
| 32>                          ****END OF INPUT****

CARTESIAN COORDINATES (ANGSTROEM)
---------------------------------
  C     -2.575035   -0.694018   -0.271225
  C     -1.185447   -0.285552    0.235554
  H     -1.204852   -0.205298    1.334071
  C     -0.715886    1.055448   -0.354924
  H     -0.682481    0.968773   -1.449663
  C      0.703340    1.341069    0.152658
  H      0.656830    1.475376    1.245358
  C      1.643767    0.171593   -0.155808
  H      1.797959    0.110727   -1.242852
  C      1.031127   -1.157060    0.308401
  H      1.040301   -1.164319    1.417599
  O     -0.294224   -1.319595   -0.149785
  O      1.786645   -2.180294   -0.217043
  O      2.866428    0.322411    0.513810
  O      1.248380    2.487755   -0.451028
  O     -1.511205    2.143425    0.048133
  O     -3.042830   -1.864643    0.343552
  H     -2.527341   -0.819827   -1.360216
  H     -3.298728    0.081114   -0.016252
  H      1.438579   -3.039983    0.067467
  H      3.263981    1.161037    0.232247
  H      0.637414    3.226914   -0.310013
  H     -2.337320    2.166026   -0.452970
  H     -2.416438   -2.579161    0.161085

 Total Charge           Charge          ....    0
 Multiplicity           Mult            ....    1
 Number of Electrons    NEL             ....   96
 Basis Dimension        Dim             ....  318

ORBITAL ENERGIES
----------------

  NO   OCC          E(Eh)            E(eV)
   0   2.0000     -18.979572      -516.4604
   1   2.0000     -18.976236      -516.3696
   2   2.0000     -18.967722      -516.1380
   3   2.0000     -18.963541      -516.0242
   4   2.0000     -18.957625      -515.8632
   5   2.0000     -18.954048      -515.7659
   6   2.0000     -10.142682      -275.9964
   7   2.0000     -10.100050      -274.8363
   8   2.0000     -10.097278      -274.7609
   9   2.0000     -10.093946      -274.6702
  10   2.0000     -10.091198      -274.5955
  11   2.0000     -10.090464      -274.5755
  12   2.0000      -1.054699       -28.6998
  13   2.0000      -1.023863       -27.8607
  14   2.0000      -1.006637       -27.3920
  15   2.0000      -0.999422       -27.1957
  16   2.0000      -0.987363       -26.8675
  17   2.0000      -0.981797       -26.7160
  18   2.0000      -0.758593       -20.6424
  19   2.0000      -0.740436       -20.1483
  20   2.0000      -0.668141       -18.1810
  21   2.0000      -0.618360       -16.8264
  22   2.0000      -0.598948       -16.2982
  23   2.0000      -0.558324       -15.1928
  24   2.0000      -0.526930       -14.3385
  25   2.0000      -0.520256       -14.1569
  26   2.0000      -0.502121       -13.6634
  27   2.0000      -0.493269       -13.4225
  28   2.0000      -0.481312       -13.0972
  29   2.0000      -0.464014       -12.6265
  30   2.0000      -0.437645       -11.9089
  31   2.0000      -0.423455       -11.5228
  32   2.0000      -0.409081       -11.1317
  33   2.0000      -0.402451       -10.9512
  34   2.0000      -0.388381       -10.5684
  35   2.0000      -0.383869       -10.4456
  36   2.0000      -0.356664        -9.7053
  37   2.0000      -0.336156        -9.1473
  38   2.0000      -0.332646        -9.0517
  39   2.0000      -0.321489        -8.7482
  40   2.0000      -0.306905        -8.3513
  41   2.0000      -0.305867        -8.3231
  42   2.0000      -0.282406        -7.6847
  43   2.0000      -0.267547        -7.2803
  44   2.0000      -0.258162        -7.0249
  45   2.0000      -0.248238        -6.7549
  46   2.0000      -0.240741        -6.5509
  47   2.0000      -0.233687        -6.3590
  48   0.0000       0.018754         0.5103
  49   0.0000       0.048454         1.3185
  50   0.0000       0.053656         1.4601
  51   0.0000       0.071409         1.9431
  52   0.0000       0.083830         2.2811

MULLIKEN ATOMIC CHARGES
-----------------------
   0 C :   -0.298203
   1 C :    0.037184
   2 H :    0.184954
   3 C :   -0.033925
   4 H :    0.164471
   5 C :   -0.027916
   6 H :    0.168868
   7 C :    0.025253
   8 H :    0.173002
   9 C :   -0.096708
  10 H :    0.145320
  11 O :   -0.201838
  12 O :   -0.375892
  13 O :   -0.421007
  14 O :   -0.440302
  15 O :   -0.433981
  16 O :   -0.405189
  17 H :    0.147911
  18 H :    0.139350
  19 H :    0.305545
  20 H :    0.313802
  21 H :    0.313430
  22 H :    0.305749
  23 H :    0.310121
Sum of atomic charges:   -0.0000000

LOEWDIN ATOMIC CHARGES
----------------------
   0 C :    0.035606
   1 C :    0.104909
   2 H :    0.187536
   3 C :    0.104365
   4 H :    0.184064
   5 C :    0.109415
   6 H :    0.187236
   7 C :    0.129177
   8 H :    0.192197
   9 C :    0.308066
  10 H :    0.182811
  11 O :   -0.691130
  12 O :   -0.478496
  13 O :   -0.555892
  14 O :   -0.576047
  15 O :   -0.585894
  16 O :   -0.585888
  17 H :    0.169114
  18 H :    0.182235
  19 H :    0.281661
  20 H :    0.283174
  21 H :    0.283092
  22 H :    0.274440
  23 H :    0.274249

  Mayer bond orders larger than 0.100000
B(  0-C ,  1-C ) :   0.8603 B(  0-C , 16-O ) :   1.0180 B(  0-C , 17-H ) :   1.0009
B(  0-C , 18-H ) :   0.9771 B(  1-C ,  2-H ) :   0.9562 B(  1-C ,  3-C ) :   0.7849
B(  1-C , 11-O ) :   0.7751 B(  3-C ,  4-H ) :   0.9793 B(  3-C ,  5-C ) :   0.8644
B(  3-C , 15-O ) :   0.9068 B(  5-C ,  6-H ) :   0.9911 B(  5-C ,  7-C ) :   0.8604
B(  5-C , 14-O ) :   0.9158 B(  7-C ,  8-H ) :   0.9698 B(  7-C ,  9-C ) :   0.8843
B(  7-C , 13-O ) :   0.9025 B(  9-C , 10-H ) :   1.0093 B(  9-C , 11-O ) :   0.9175
B(  9-C , 12-O ) :   1.0977 B( 12-O , 19-H ) :   0.8830 B( 13-O , 20-H ) :   0.8802
B( 14-O , 21-H ) :   0.8758 B( 15-O , 22-H ) :   0.8921 B( 16-O , 23-H ) :   0.8773

Dispersion correction           -0.007945156
FINAL SINGLE POINT ENERGY      -687.075038317842

DIPOLE MOMENT
-------------

Method             : SCF
Type of density    : Electron Density
Multiplicity       :   1
Irrep              :   0
Energy             :  -687.0863690898154346 Eh
Relativity type    :
Basis              : AO
                                X                 Y                 Z
Electronic contribution:      2.733737239      -0.939353502       0.090827309
Nuclear contribution   :     -3.391921292       1.289878890      -0.349707228
                        -----------------------------------------
Total Dipole Moment    :     -0.658184053       0.350525388      -0.258879919
                        -----------------------------------------
Magnitude (a.u.)       :      0.789362469
Magnitude (Debye)      :      2.006399945

Rotational constants in cm-1:             0.039024             0.026102             0.016412
Rotational constants in MHz :          1169.909343           782.532156           492.032908

                             ****ORCA TERMINATED NORMALLY****
TOTAL RUN TIME: 0 days 0 hours 0 minutes 47 seconds 627 msec
