                         Program Version 6.0.0  -   RELEASE  -
|  1> ! r2scan-3c def2/J RI DEFGRID2 scfconv6 printgap
|  2> %output
|  3>     printlevel normal
|  4> end
|  5> %cpcm
|  6>     smd true
|  7>     smdsolvent "water"
|  8> end
|  9> * xyz 0 1
| 10> C -2.5750349391 -0.694017749 -0.2712247515
| 11> C -1.1854468214 -0.2855520891 0.235553728
| 12> H -1.2048521583 -0.2052984043 1.3340712719
| 13> C -0.7158855693 1.0554484812 -0.3549243529
| 14> H -0.6824805085 0.9687728079 -1.4496634084
| 15> C 0.7033404025 1.3410685802 0.1526583251
| 16> H 0.6568300652 1.4753764875 1.2453577201
| 17> C 1.6437670693 0.1715931815 -0.1558080024
| 18> H 1.7979591597 0.1107265428 -1.242852308
| 19> C 1.0311267248 -1.15705999 0.3084010139
| 20> H 1.040300673 -1.164318679 1.4175993264
| 21> O -0.2942236832 -1.3195948137 -0.1497851691
| 22> O 1.7866446389 -2.1802935727 -0.2170430179
| 23> O 2.8664276913 0.3224110787 0.5138104637
| 24> O 1.2483802435 2.4877549113 -0.451028343
| 25> O -1.5112054987 2.1434250091 0.0481328412
| 26> O -3.0428297409 -1.8646431037 0.3435516017
| 27> H -2.5273409156 -0.8198270419 -1.3602157312
| 28> H -3.2987283202 0.081114008 -0.0162518931
| 29> H 1.4385785506 -3.039983371 0.067466751
| 30> H 3.2639811263 1.1610365771 0.2322466931
| 31> H 0.6374143453 3.2269136751 -0.3100126029
| 32> H -2.3373195694 2.1660257389 -0.4529697785
| 33> H -2.4164383286 -2.5791611905 0.1610854756
| 34> *
| 35>
| 36>                          ****END OF INPUT****

CARTESIAN COORDINATES (ANGSTROEM)
---------------------------------
  C     -2.575035   -0.694018   -0.271225
  C     -1.185447   -0.285552    0.235554
  H     -1.204852   -0.205298    1.334071
  C     -0.715886    1.055448   -0.354924
  H     -0.682481    0.968773   -1.449663
  C      0.703340    1.341069    0.152658
  H      0.656830    1.475376    1.245358
  C      1.643767    0.171593   -0.155808
  H      1.797959    0.110727   -1.242852
  C      1.031127   -1.157060    0.308401
  H      1.040301   -1.164319    1.417599
  O     -0.294224   -1.319595   -0.149785
  O      1.786645   -2.180294   -0.217043
  O      2.866428    0.322411    0.513810
  O      1.248380    2.487755   -0.451028
  O     -1.511205    2.143425    0.048133
  O     -3.042830   -1.864643    0.343552
  H     -2.527341   -0.819827   -1.360216
  H     -3.298728    0.081114   -0.016252
  H      1.438579   -3.039983    0.067467
  H      3.263981    1.161037    0.232247
  H      0.637414    3.226914   -0.310013
  H     -2.337320    2.166026   -0.452970
  H     -2.416438   -2.579161    0.161085

 Total Charge           Charge          ....    0
 Multiplicity           Mult            ....    1
 Number of Electrons    NEL             ....   96
 Basis Dimension        Dim             ....  318

ORBITAL ENERGIES
----------------

  NO   OCC          E(Eh)            E(eV)
   0   2.0000     -18.973288      -516.2894
   1   2.0000     -18.969709      -516.1920
   2   2.0000     -18.963920      -516.0345
   3   2.0000     -18.961713      -515.9744
   4   2.0000     -18.960338      -515.9370
   5   2.0000     -18.956522      -515.8332
   6   2.0000     -10.138940      -275.8946
   7   2.0000     -10.088694      -274.5273
   8   2.0000     -10.087294      -274.4892
   9   2.0000     -10.086616      -274.4708
  10   2.0000     -10.086564      -274.4693
  11   2.0000     -10.077110      -274.2121
  12   2.0000      -1.053075       -28.6556
  13   2.0000      -1.014732       -27.6123
  14   2.0000      -1.004960       -27.3464
  15   2.0000      -0.996177       -27.1074
  16   2.0000      -0.985623       -26.8202
  17   2.0000      -0.981217       -26.7003
  18   2.0000      -0.749648       -20.3990
  19   2.0000      -0.734611       -19.9898
  20   2.0000      -0.659858       -17.9557
  21   2.0000      -0.611498       -16.6397
  22   2.0000      -0.592148       -16.1132
  23   2.0000      -0.550127       -14.9697
  24   2.0000      -0.520677       -14.1684
  25   2.0000      -0.514641       -14.0041
  26   2.0000      -0.494062       -13.4441
  27   2.0000      -0.486799       -13.2465
  28   2.0000      -0.473780       -12.8922
  29   2.0000      -0.459361       -12.4998
  30   2.0000      -0.430935       -11.7263
  31   2.0000      -0.420429       -11.4405
  32   2.0000      -0.405180       -11.0255
  33   2.0000      -0.395399       -10.7594
  34   2.0000      -0.384020       -10.4497
  35   2.0000      -0.378770       -10.3068
  36   2.0000      -0.354238        -9.6393
  37   2.0000      -0.339117        -9.2278
  38   2.0000      -0.330100        -8.9825
  39   2.0000      -0.318998        -8.6804
  40   2.0000      -0.307751        -8.3743
  41   2.0000      -0.302636        -8.2351
  42   2.0000      -0.282776        -7.6947
  43   2.0000      -0.263182        -7.1615
  44   2.0000      -0.254812        -6.9338
  45   2.0000      -0.251607        -6.8466
  46   2.0000      -0.242558        -6.6003
  47   2.0000      -0.228582        -6.2200
  48   0.0000       0.038047         1.0353
  49   0.0000       0.063184         1.7193
  50   0.0000       0.077748         2.1156
  51   0.0000       0.087053         2.3688
  52   0.0000       0.096313         2.6208

MULLIKEN ATOMIC CHARGES
-----------------------
   0 C :   -0.276163
   1 C :    0.006401
   2 H :    0.199155
   3 C :   -0.052104
   4 H :    0.190004
   5 C :   -0.011366
   6 H :    0.181503
   7 C :    0.041261
   8 H :    0.183989
   9 C :   -0.087975
  10 H :    0.168936
  11 O :   -0.241353
  12 O :   -0.449035
  13 O :   -0.492033
  14 O :   -0.497149
  15 O :   -0.489557
  16 O :   -0.484384
  17 H :    0.160837
  18 H :    0.169556
  19 H :    0.360834
  20 H :    0.354452
  21 H :    0.352080
  22 H :    0.357911
  23 H :    0.354200
Sum of atomic charges:    0.0000000

LOEWDIN ATOMIC CHARGES
----------------------
   0 C :    0.039023
   1 C :    0.108693
   2 H :    0.194023
   3 C :    0.110682
   4 H :    0.193033
   5 C :    0.110391
   6 H :    0.193862
   7 C :    0.124650
   8 H :    0.196743
   9 C :    0.306944
  10 H :    0.193621
  11 O :   -0.701663
  12 O :   -0.510085
  13 O :   -0.589423
  14 O :   -0.597871
  15 O :   -0.597718
  16 O :   -0.623415
  17 H :    0.177422
  18 H :    0.194787
  19 H :    0.301816
  20 H :    0.297201
  21 H :    0.295590
  22 H :    0.293968
  23 H :    0.287726

  Mayer bond orders larger than 0.100000
B(  0-C ,  1-C ) :   0.9017 B(  0-C , 16-O ) :   0.9929 B(  0-C , 17-H ) :   0.9864
B(  0-C , 18-H ) :   0.9644 B(  1-C ,  2-H ) :   0.9467 B(  1-C ,  3-C ) :   0.8139
B(  1-C , 11-O ) :   0.7664 B(  3-C ,  4-H ) :   0.9821 B(  3-C ,  5-C ) :   0.8742
B(  3-C , 15-O ) :   0.9030 B(  5-C ,  6-H ) :   0.9701 B(  5-C ,  7-C ) :   0.8947
B(  5-C , 14-O ) :   0.9012 B(  7-C ,  8-H ) :   0.9481 B(  7-C ,  9-C ) :   0.8802
B(  7-C , 13-O ) :   0.8774 B(  9-C , 10-H ) :   1.0035 B(  9-C , 11-O ) :   0.9429
B(  9-C , 12-O ) :   1.0753 B( 12-O , 19-H ) :   0.8556 B( 13-O , 20-H ) :   0.8604
B( 14-O , 21-H ) :   0.8564 B( 15-O , 22-H ) :   0.8652 B( 16-O , 23-H ) :   0.8558

Dispersion correction           -0.007945156
FINAL SINGLE POINT ENERGY      -687.111600451942

DIPOLE MOMENT
-------------

Method             : SCF
Type of density    : Electron Density
Multiplicity       :   1
Irrep              :   0
Energy             :  -687.1229312239153160 Eh
Relativity type    :
Basis              : AO
                                X                 Y                 Z
Electronic contribution:      2.341271034      -0.764675569       0.013557761
Nuclear contribution   :     -3.391921292       1.289878890      -0.349707228
                        -----------------------------------------
Total Dipole Moment    :     -1.050650258       0.525203321      -0.336149467
                        -----------------------------------------
Magnitude (a.u.)       :      1.221761416
Magnitude (Debye)      :      3.105470724

Rotational constants in cm-1:             0.039024             0.026102             0.016412
Rotational constants in MHz :          1169.909343           782.532156           492.032908

                             ****ORCA TERMINATED NORMALLY****
TOTAL RUN TIME: 0 days 0 hours 0 minutes 57 seconds 8 msec
