                         Program Version 6.0.0  -   RELEASE  -
|  1> ! pbe def2-sv(p) def2/J RI DEFGRID1 loosescf d4 GCP(DFT/SV(P)) printgap
|  2> %output
|  3>     printlevel normal
|  4> end
|  5> * xyz 0 1
|  6> C -2.6900853488 0.4261976952 1.2343722965
|  7> C -1.4622779546 0.4244883615 0.3722692642
|  8> C -0.887020078 1.5429958152 -0.048800314
|  9> C 0.3327566924 1.6165057633 -0.9136452651
| 10> C 1.0789849784 0.2838698903 -1.0127404929
| 11> H 1.6958624717 0.2992927382 -1.9183285941
| 12> C 0.0432178518 -0.8338796057 -1.1834179405
| 13> C -0.8758742739 -0.930961702 0.0325154257
| 14> H -0.2850824792 -1.2841438975 0.8975309055
| 15> O -1.8653345827 -1.9026487389 -0.2736383987
| 16> C 2.0019953718 -0.022180614 0.1517514519
| 17> C 2.9068943394 -0.9837643331 0.0362069167
| 18> C 1.8835510712 0.7781601545 1.4130492237
| 19> H -2.9576165593 1.4421824384 1.5113712475
| 20> H -2.5191534255 -0.1502946886 2.1434541011
| 21> H -3.5290440815 -0.0155082464 0.6977473419
| 22> H -1.3202123895 2.4980597296 0.2202286487
| 23> H 0.0141665082 1.9143111704 -1.9185137165
| 24> H 0.9954549204 2.4035033467 -0.5499310681
| 25> H -0.5802436298 -0.6324323028 -2.0565824858
| 26> H 0.5320369583 -1.7972881113 -1.3316559948
| 27> H -2.3995034361 -2.0702488416 0.5136308853
| 28> H 3.5686020267 -1.2446115841 0.8446021507
| 29> H 3.0234681858 -1.5517215264 -0.8717745775
| 30> H 2.4372691483 0.2997319105 2.216595661
| 31> H 2.2983017176 1.7744597642 1.2637367903
| 32> H 0.8441966497 0.8915166976 1.7096778066
| 33> *
| 34>
| 35>                          ****END OF INPUT****

CARTESIAN COORDINATES (ANGSTROEM)
---------------------------------
  C     -2.690085    0.426198    1.234372
  C     -1.462278    0.424488    0.372269
  C     -0.887020    1.542996   -0.048800
  C      0.332757    1.616506   -0.913645
  C      1.078985    0.283870   -1.012740
  H      1.695862    0.299293   -1.918329
  C      0.043218   -0.833880   -1.183418
  C     -0.875874   -0.930962    0.032515
  H     -0.285082   -1.284144    0.897531
  O     -1.865335   -1.902649   -0.273638
  C      2.001995   -0.022181    0.151751
  C      2.906894   -0.983764    0.036207
  C      1.883551    0.778160    1.413049
  H     -2.957617    1.442182    1.511371
  H     -2.519153   -0.150295    2.143454
  H     -3.529044   -0.015508    0.697747
  H     -1.320212    2.498060    0.220229
  H      0.014167    1.914311   -1.918514
  H      0.995455    2.403503   -0.549931
  H     -0.580244   -0.632432   -2.056582
  H      0.532037   -1.797288   -1.331656
  H     -2.399503   -2.070249    0.513631
  H      3.568602   -1.244612    0.844602
  H      3.023468   -1.551722   -0.871775
  H      2.437269    0.299732    2.216596
  H      2.298302    1.774460    1.263737
  H      0.844197    0.891517    1.709678

 Total Charge           Charge          ....    0
 Multiplicity           Mult            ....    1
 Number of Electrons    NEL             ....   84
 Basis Dimension        Dim             ....  186

ORBITAL ENERGIES
----------------

  NO   OCC          E(Eh)            E(eV)
   0   2.0000     -18.741671      -509.9868
   1   2.0000      -9.936163      -270.3767
   2   2.0000      -9.898135      -269.3419
   3   2.0000      -9.897255      -269.3180
   4   2.0000      -9.891742      -269.1680
   5   2.0000      -9.889454      -269.1057
   6   2.0000      -9.885466      -268.9972
   7   2.0000      -9.883876      -268.9539
   8   2.0000      -9.880135      -268.8521
   9   2.0000      -9.876691      -268.7584
  10   2.0000      -9.864143      -268.4170
  11   2.0000      -0.918594       -24.9962
  12   2.0000      -0.766709       -20.8632
  13   2.0000      -0.718382       -19.5482
  14   2.0000      -0.678700       -18.4684
  15   2.0000      -0.660574       -17.9751
  16   2.0000      -0.619037       -16.8449
  17   2.0000      -0.602897       -16.4057
  18   2.0000      -0.547104       -14.8875
  19   2.0000      -0.537138       -14.6163
  20   2.0000      -0.485006       -13.1977
  21   2.0000      -0.462628       -12.5888
  22   2.0000      -0.443979       -12.0813
  23   2.0000      -0.424701       -11.5567
  24   2.0000      -0.410068       -11.1585
  25   2.0000      -0.401175       -10.9165
  26   2.0000      -0.380986       -10.3672
  27   2.0000      -0.374733       -10.1970
  28   2.0000      -0.372631       -10.1398
  29   2.0000      -0.353186        -9.6107
  30   2.0000      -0.351081        -9.5534
  31   2.0000      -0.346521        -9.4293
  32   2.0000      -0.336544        -9.1578
  33   2.0000      -0.324368        -8.8265
  34   2.0000      -0.318977        -8.6798
  35   2.0000      -0.299693        -8.1551
  36   2.0000      -0.288213        -7.8427
  37   2.0000      -0.279288        -7.5998
  38   2.0000      -0.263226        -7.1627
  39   2.0000      -0.214973        -5.8497
  40   2.0000      -0.214508        -5.8371
  41   2.0000      -0.202695        -5.5156
  42   0.0000      -0.016362        -0.4452
  43   0.0000      -0.010340        -0.2814
  44   0.0000       0.025511         0.6942
  45   0.0000       0.037001         1.0069
  46   0.0000       0.063408         1.7254

MULLIKEN ATOMIC CHARGES
-----------------------
   0 C :   -0.256436
   1 C :   -0.032178
   2 C :   -0.225481
   3 C :   -0.026351
   4 C :   -0.143844
   5 H :    0.072903
   6 C :   -0.090613
   7 C :    0.056966
   8 H :    0.076283
   9 O :   -0.419329
  10 C :   -0.067816
  11 C :   -0.237882
  12 C :   -0.213887
  13 H :    0.103514
  14 H :    0.101247
  15 H :    0.116430
  16 H :    0.042080
  17 H :    0.096029
  18 H :    0.083938
  19 H :    0.086805
  20 H :    0.086039
  21 H :    0.297148
  22 H :    0.081300
  23 H :    0.085362
  24 H :    0.096374
  25 H :    0.110859
  26 H :    0.120540
Sum of atomic charges:    0.0000000

LOEWDIN ATOMIC CHARGES
----------------------
   0 C :   -0.331471
   1 C :   -0.081755
   2 C :   -0.148778
   3 C :   -0.212743
   4 C :   -0.129888
   5 H :    0.127985
   6 C :   -0.201589
   7 C :   -0.041095
   8 H :    0.105833
   9 O :   -0.325229
  10 C :   -0.050621
  11 C :   -0.267103
  12 C :   -0.329437
  13 H :    0.127255
  14 H :    0.121543
  15 H :    0.127761
  16 H :    0.115461
  17 H :    0.131773
  18 H :    0.122204
  19 H :    0.121600
  20 H :    0.120672
  21 H :    0.281071
  22 H :    0.116159
  23 H :    0.115681
  24 H :    0.124514
  25 H :    0.130653
  26 H :    0.129543

  Mayer bond orders larger than 0.100000
B(  0-C ,  1-C ) :   1.1133 B(  0-C , 13-H ) :   0.9388 B(  0-C , 14-H ) :   0.9322
B(  0-C , 15-H ) :   0.9237 B(  1-C ,  2-C ) :   1.9139 B(  1-C ,  7-C ) :   0.9566
B(  2-C ,  3-C ) :   1.0511 B(  2-C , 16-H ) :   0.9202 B(  3-C ,  4-C ) :   1.0960
B(  3-C , 17-H ) :   0.8845 B(  3-C , 18-H ) :   0.8976 B(  4-C ,  5-H ) :   0.8763
B(  4-C ,  6-C ) :   1.0484 B(  4-C , 10-C ) :   1.0002 B(  6-C ,  7-C ) :   1.1006
B(  6-C , 19-H ) :   0.9099 B(  6-C , 20-H ) :   0.9037 B(  7-C ,  8-H ) :   0.8727
B(  7-C ,  9-O ) :   1.0839 B(  9-O , 21-H ) :   0.8432 B( 10-C , 11-C ) :   2.0280
B( 10-C , 12-C ) :   1.1503 B( 11-C , 22-H ) :   0.9080 B( 11-C , 23-H ) :   0.9116
B( 12-C , 24-H ) :   0.9339 B( 12-C , 25-H ) :   0.9171 B( 12-C , 26-H ) :   0.9152

Dispersion correction           -0.029875615
FINAL SINGLE POINT ENERGY      -464.787751883740

DIPOLE MOMENT
-------------

Method             : SCF
Type of density    : Electron Density
Multiplicity       :   1
Irrep              :   0
Energy             :  -464.8769194005383270 Eh
Relativity type    :
Basis              : AO
                                X                 Y                 Z
Electronic contribution:     -1.827899081      -2.219775821      -2.665284569
Nuclear contribution   :      1.678397659       2.576894977       3.159242014
                        -----------------------------------------
Total Dipole Moment    :     -0.149501421       0.357119156       0.493957445
                        -----------------------------------------
Magnitude (a.u.)       :      0.627597582
Magnitude (Debye)      :      1.595226278

Rotational constants in cm-1:             0.054095             0.028998             0.025041
Rotational constants in MHz :          1621.724103           869.336124           750.707354

                             ****ORCA TERMINATED NORMALLY****
TOTAL RUN TIME: 0 days 0 hours 0 minutes 12 seconds 611 msec
