                         Program Version 6.0.0  -   RELEASE  -
|  1> ! r2scan-3c def2/J RI DEFGRID2 scfconv6 printgap
|  2> %output
|  3>     printlevel normal
|  4> end
|  5> * xyz 0 1
|  6> C 2.1855665103 1.0365069796 -0.4085562668
|  7> C 1.1659096245 -0.0804270026 -0.2458254825
|  8> C 1.610966213 -1.1306737448 0.7653229264
|  9> O -0.0599358922 0.5377391769 0.2089566928
| 10> C -1.2166724929 -0.036335427 -0.0852677011
| 11> O -1.3166655551 -1.0624143002 -0.7283408476
| 12> C -2.3721184417 0.7422098722 0.4715249834
| 13> H 3.1200806283 0.624376469 -0.7745525916
| 14> H 1.8219859419 1.7776426862 -1.1147975004
| 15> H 2.3552104669 1.5192768457 0.54957368
| 16> H 0.9531487772 -0.5625065069 -1.2089998915
| 17> H 1.7644521471 -0.6684945978 1.736900308
| 18> H 2.5381925878 -1.585980029 0.4330688746
| 19> H 0.8525177768 -1.9054056787 0.8556135267
| 20> H -3.3044353684 0.310519771 0.1232195063
| 21> H -2.2897650115 1.7801471754 0.1625314365
| 22> H -2.3288300818 0.7079186078 1.5571014977
| 23> *
| 24>
| 25>                          ****END OF INPUT****

CARTESIAN COORDINATES (ANGSTROEM)
---------------------------------
  C      2.185567    1.036507   -0.408556
  C      1.165910   -0.080427   -0.245825
  C      1.610966   -1.130674    0.765323
  O     -0.059936    0.537739    0.208957
  C     -1.216672   -0.036335   -0.085268
  O     -1.316666   -1.062414   -0.728341
  C     -2.372118    0.742210    0.471525
  H      3.120081    0.624376   -0.774553
  H      1.821986    1.777643   -1.114798
  H      2.355210    1.519277    0.549574
  H      0.953149   -0.562507   -1.209000
  H      1.764452   -0.668495    1.736900
  H      2.538193   -1.585980    0.433069
  H      0.852518   -1.905406    0.855614
  H     -3.304435    0.310520    0.123220
  H     -2.289765    1.780147    0.162531
  H     -2.328830    0.707919    1.557101

 Total Charge           Charge          ....    0
 Multiplicity           Mult            ....    1
 Number of Electrons    NEL             ....   56
 Basis Dimension        Dim             ....  193

ORBITAL ENERGIES
----------------

  NO   OCC          E(Eh)            E(eV)
   0   2.0000     -18.993565      -516.8412
   1   2.0000     -18.926192      -515.0079
   2   2.0000     -10.153968      -276.3035
   3   2.0000     -10.096821      -274.7485
   4   2.0000     -10.037791      -273.1422
   5   2.0000     -10.028802      -272.8976
   6   2.0000     -10.025605      -272.8106
   7   2.0000      -1.069920       -29.1140
   8   2.0000      -0.973437       -26.4886
   9   2.0000      -0.772356       -21.0169
  10   2.0000      -0.711165       -19.3518
  11   2.0000      -0.666422       -18.1343
  12   2.0000      -0.598846       -16.2954
  13   2.0000      -0.521489       -14.1904
  14   2.0000      -0.460545       -12.5321
  15   2.0000      -0.447894       -12.1878
  16   2.0000      -0.436996       -11.8913
  17   2.0000      -0.413973       -11.2648
  18   2.0000      -0.392951       -10.6927
  19   2.0000      -0.388063       -10.5597
  20   2.0000      -0.367634       -10.0038
  21   2.0000      -0.367385        -9.9970
  22   2.0000      -0.352185        -9.5834
  23   2.0000      -0.333979        -9.0880
  24   2.0000      -0.324589        -8.8325
  25   2.0000      -0.301779        -8.2118
  26   2.0000      -0.269236        -7.3263
  27   2.0000      -0.233702        -6.3593
  28   0.0000      -0.011769        -0.3202
  29   0.0000       0.076113         2.0711
  30   0.0000       0.095360         2.5949
  31   0.0000       0.114729         3.1219
  32   0.0000       0.130372         3.5476

MULLIKEN ATOMIC CHARGES
-----------------------
   0 C :   -0.448950
   1 C :    0.005047
   2 C :   -0.485098
   3 O :   -0.155898
   4 C :    0.433506
   5 O :   -0.435120
   6 C :   -0.528049
   7 H :    0.147548
   8 H :    0.153411
   9 H :    0.153162
  10 H :    0.175753
  11 H :    0.153762
  12 H :    0.148190
  13 H :    0.170867
  14 H :    0.177557
  15 H :    0.166329
  16 H :    0.167982
Sum of atomic charges:   -0.0000000

LOEWDIN ATOMIC CHARGES
----------------------
   0 C :   -0.376294
   1 C :    0.071469
   2 C :   -0.379435
   3 O :   -0.593217
   4 C :    0.356185
   5 O :   -0.438422
   6 C :   -0.336344
   7 H :    0.160671
   8 H :    0.162204
   9 H :    0.161773
  10 H :    0.192526
  11 H :    0.159706
  12 H :    0.160420
  13 H :    0.168840
  14 H :    0.174259
  15 H :    0.177042
  16 H :    0.178616

  Mayer bond orders larger than 0.100000
B(  0-C ,  1-C ) :   0.9325 B(  0-C ,  7-H ) :   0.9727 B(  0-C ,  8-H ) :   0.9718
B(  0-C ,  9-H ) :   0.9754 B(  1-C ,  2-C ) :   0.9401 B(  1-C ,  3-O ) :   0.7222
B(  1-C , 10-H ) :   0.9507 B(  2-C , 11-H ) :   0.9775 B(  2-C , 12-H ) :   0.9697
B(  2-C , 13-H ) :   0.9639 B(  3-O ,  4-C ) :   1.0735 B(  4-C ,  5-O ) :   1.8294
B(  4-C ,  6-C ) :   0.9497 B(  6-C , 14-H ) :   0.9911 B(  6-C , 15-H ) :   0.9578
B(  6-C , 16-H ) :   0.9469

Dispersion correction           -0.004089709
FINAL SINGLE POINT ENERGY      -346.943175453316

DIPOLE MOMENT
-------------

Method             : SCF
Type of density    : Electron Density
Multiplicity       :   1
Irrep              :   0
Energy             :  -346.9493977599283880 Eh
Relativity type    :
Basis              : AO
                                X                 Y                 Z
Electronic contribution:     -4.665488618      -1.256438706      -1.778209216
Nuclear contribution   :      5.123146260       1.866205137       2.168527377
                        -----------------------------------------
Total Dipole Moment    :      0.457657642       0.609766432       0.390318162
                        -----------------------------------------
Magnitude (a.u.)       :      0.856512630
Magnitude (Debye)      :      2.177082090

Rotational constants in cm-1:             0.158857             0.055891             0.048985
Rotational constants in MHz :          4762.423353          1675.567931          1468.529344

                             ****ORCA TERMINATED NORMALLY****
TOTAL RUN TIME: 0 days 0 hours 0 minutes 20 seconds 452 msec
