                         Program Version 6.0.0  -   RELEASE  -
|  1> ! wb97x-v def2-tzvp def2/J RIJCOSX DEFGRID2 scfconv7 GCP(DFT/TZ) printgap
|  2> %output
|  3>     printlevel normal
|  4> end
|  5> * xyz 0 1
|  6> C -1.9032292862552387 -0.00015198108378822292 0.2783781081742523
|  7> C -1.1927791214071628 -1.2596496936341168 -0.2201215226038229
|  8> C 0.28481855739514744 -1.2565296550452916 0.18519987281289785
|  9> C 0.9870297343785623 0.00010225448256063297 -0.31671761095832224
| 10> C 0.2846016611987842 1.256602483197877 0.18523177892665568
| 11> C -1.1930000874321092 1.2594883858392765 -0.2200752932395446
| 12> O 2.3867556529644403 0.00021980244602342483 0.051206128754428044
| 13> H -1.9107203723474628 -0.00017323126305971446 1.3770982031103927
| 14> H -2.9487549443655316 -0.00023759291059238718 -0.05065120375857663
| 15> H -1.683930850312147 -2.1582709570591043 0.16956102309342322
| 16> H -1.2656692133261063 -1.3054462200676777 -1.3154569491620733
| 17> H 0.3655043712636146 -1.2820839385488338 1.2819257069311345
| 18> H 0.7962709838278627 -2.1439322183039184 -0.20519261184835821
| 19> H 0.9882923723441204 0.00011509803071453271 -1.4145850204816652
| 20> H 0.3652950469439044 1.282145635620991 1.2819580669180533
| 21> H 0.7959015929512399 2.1441011397246417 -0.20514441521274362
| 22> H -1.6842995725277705 2.1580084790385023 0.16965492339989593
| 23> H -1.2659115844834976 1.3053232765930016 -1.3154081630644117
| 24> H 2.4215943181426973 0.0001371347179884153 1.0178812344078565
| 25> *
| 26>
| 27>                          ****END OF INPUT****

CARTESIAN COORDINATES (ANGSTROEM)
---------------------------------
  C     -1.903229   -0.000152    0.278378
  C     -1.192779   -1.259650   -0.220122
  C      0.284819   -1.256530    0.185200
  C      0.987030    0.000102   -0.316718
  C      0.284602    1.256602    0.185232
  C     -1.193000    1.259488   -0.220075
  O      2.386756    0.000220    0.051206
  H     -1.910720   -0.000173    1.377098
  H     -2.948755   -0.000238   -0.050651
  H     -1.683931   -2.158271    0.169561
  H     -1.265669   -1.305446   -1.315457
  H      0.365504   -1.282084    1.281926
  H      0.796271   -2.143932   -0.205193
  H      0.988292    0.000115   -1.414585
  H      0.365295    1.282146    1.281958
  H      0.795902    2.144101   -0.205144
  H     -1.684300    2.158008    0.169655
  H     -1.265912    1.305323   -1.315408
  H      2.421594    0.000137    1.017881

 Total Charge           Charge          ....    0
 Multiplicity           Mult            ....    1
 Number of Electrons    NEL             ....   56
 Basis Dimension        Dim             ....  289

ORBITAL ENERGIES
----------------

  NO   OCC          E(Eh)            E(eV)
   0   2.0000     -21.663557      -589.4954
   1   2.0000     -12.091191      -329.0180
   2   2.0000     -12.044054      -327.7354
   3   2.0000     -12.043988      -327.7336
   4   2.0000     -12.041907      -327.6770
   5   2.0000     -12.040479      -327.6381
   6   2.0000     -12.040216      -327.6309
   7   2.0000      -1.661405       -45.2091
   8   2.0000      -1.341883       -36.5145
   9   2.0000      -1.252989       -34.0956
  10   2.0000      -1.252562       -34.0840
  11   2.0000      -1.122350       -30.5407
  12   2.0000      -1.104350       -30.0509
  13   2.0000      -1.046150       -28.4672
  14   2.0000      -0.984666       -26.7941
  15   2.0000      -0.956319       -26.0228
  16   2.0000      -0.916387       -24.9362
  17   2.0000      -0.901685       -24.5361
  18   2.0000      -0.873795       -23.7772
  19   2.0000      -0.871020       -23.7017
  20   2.0000      -0.848568       -23.0907
  21   2.0000      -0.828170       -22.5356
  22   2.0000      -0.822871       -22.3915
  23   2.0000      -0.788865       -21.4661
  24   2.0000      -0.779701       -21.2167
  25   2.0000      -0.768535       -20.9129
  26   2.0000      -0.750373       -20.4187
  27   2.0000      -0.739250       -20.1160
  28   0.0000      -0.153069        -4.1652
  29   0.0000      -0.058489        -1.5916
  30   0.0000      -0.027125        -0.7381
  31   0.0000      -0.022519        -0.6128
  32   0.0000      -0.020054        -0.5457

MULLIKEN ATOMIC CHARGES
-----------------------
   0 C :   -0.181866
   1 C :   -0.190917
   2 C :   -0.189872
   3 C :    0.045824
   4 C :   -0.189840
   5 C :   -0.190893
   6 O :   -0.439107
   7 H :    0.086373
   8 H :    0.103119
   9 H :    0.102485
  10 H :    0.093741
  11 H :    0.077794
  12 H :    0.111867
  13 H :    0.084089
  14 H :    0.077794
  15 H :    0.111853
  16 H :    0.102486
  17 H :    0.093737
  18 H :    0.291333
Sum of atomic charges:   -0.0000000

LOEWDIN ATOMIC CHARGES
----------------------
   0 C :   -0.261805
   1 C :   -0.256716
   2 C :   -0.247305
   3 C :   -0.334061
   4 C :   -0.247304
   5 C :   -0.256717
   6 O :   -0.038590
   7 H :    0.133062
   8 H :    0.131615
   9 H :    0.131902
  10 H :    0.134901
  11 H :    0.132299
  12 H :    0.135989
  13 H :    0.142835
  14 H :    0.132299
  15 H :    0.135989
  16 H :    0.131902
  17 H :    0.134901
  18 H :    0.164802

  Mayer bond orders larger than 0.100000
B(  0-C ,  1-C ) :   0.9832 B(  0-C ,  5-C ) :   0.9832 B(  0-C ,  7-H ) :   0.9749
B(  0-C ,  8-H ) :   0.9744 B(  1-C ,  2-C ) :   0.9652 B(  1-C ,  9-H ) :   0.9715
B(  1-C , 10-H ) :   0.9760 B(  2-C ,  3-C ) :   0.9986 B(  2-C , 11-H ) :   0.9606
B(  2-C , 12-H ) :   0.9755 B(  3-C ,  4-C ) :   0.9986 B(  3-C ,  6-O ) :   1.0136
B(  3-C , 13-H ) :   0.9617 B(  4-C ,  5-C ) :   0.9652 B(  4-C , 14-H ) :   0.9606
B(  4-C , 15-H ) :   0.9755 B(  5-C , 16-H ) :   0.9715 B(  5-C , 17-H ) :   0.9760
B(  6-O , 18-H ) :   0.9017

FINAL SINGLE POINT ENERGY      -311.115007142612

DIPOLE MOMENT
-------------

Method             : SCF
Type of density    : Electron Density
Multiplicity       :   1
Irrep              :   0
Energy             :  -311.1283841529119059 Eh
Relativity type    :
Basis              : AO
                                X                 Y                 Z
Electronic contribution:      4.063981672       0.000360683      -0.340191520
Nuclear contribution   :     -4.713951080      -0.000464174       0.707578512
                        -----------------------------------------
Total Dipole Moment    :     -0.649969408      -0.000103491       0.367386992
                        -----------------------------------------
Magnitude (a.u.)       :      0.746614655
Magnitude (Debye)      :      1.897743638

Rotational constants in cm-1:             0.143443             0.073808             0.053726
Rotational constants in MHz :          4300.312025          2212.721416          1610.669690

                             ****ORCA TERMINATED NORMALLY****
TOTAL RUN TIME: 0 days 0 hours 2 minutes 30 seconds 266 msec
