                         Program Version 6.0.0  -   RELEASE  -
|  1> ! wb97x-v def2-tzvp def2/J RIJCOSX DEFGRID2 scfconv7 GCP(DFT/TZ) printgap
|  2> %output
|  3>     printlevel normal
|  4> end
|  5> %cpcm
|  6>     smd true
|  7>     smdsolvent "water"
|  8> end
|  9> * xyz 0 1
| 10> C -1.9032292862552387 -0.00015198108378822292 0.2783781081742523
| 11> C -1.1927791214071628 -1.2596496936341168 -0.2201215226038229
| 12> C 0.28481855739514744 -1.2565296550452916 0.18519987281289785
| 13> C 0.9870297343785623 0.00010225448256063297 -0.31671761095832224
| 14> C 0.2846016611987842 1.256602483197877 0.18523177892665568
| 15> C -1.1930000874321092 1.2594883858392765 -0.2200752932395446
| 16> O 2.3867556529644403 0.00021980244602342483 0.051206128754428044
| 17> H -1.9107203723474628 -0.00017323126305971446 1.3770982031103927
| 18> H -2.9487549443655316 -0.00023759291059238718 -0.05065120375857663
| 19> H -1.683930850312147 -2.1582709570591043 0.16956102309342322
| 20> H -1.2656692133261063 -1.3054462200676777 -1.3154569491620733
| 21> H 0.3655043712636146 -1.2820839385488338 1.2819257069311345
| 22> H 0.7962709838278627 -2.1439322183039184 -0.20519261184835821
| 23> H 0.9882923723441204 0.00011509803071453271 -1.4145850204816652
| 24> H 0.3652950469439044 1.282145635620991 1.2819580669180533
| 25> H 0.7959015929512399 2.1441011397246417 -0.20514441521274362
| 26> H -1.6842995725277705 2.1580084790385023 0.16965492339989593
| 27> H -1.2659115844834976 1.3053232765930016 -1.3154081630644117
| 28> H 2.4215943181426973 0.0001371347179884153 1.0178812344078565
| 29> *
| 30>
| 31>                          ****END OF INPUT****

CARTESIAN COORDINATES (ANGSTROEM)
---------------------------------
  C     -1.903229   -0.000152    0.278378
  C     -1.192779   -1.259650   -0.220122
  C      0.284819   -1.256530    0.185200
  C      0.987030    0.000102   -0.316718
  C      0.284602    1.256602    0.185232
  C     -1.193000    1.259488   -0.220075
  O      2.386756    0.000220    0.051206
  H     -1.910720   -0.000173    1.377098
  H     -2.948755   -0.000238   -0.050651
  H     -1.683931   -2.158271    0.169561
  H     -1.265669   -1.305446   -1.315457
  H      0.365504   -1.282084    1.281926
  H      0.796271   -2.143932   -0.205193
  H      0.988292    0.000115   -1.414585
  H      0.365295    1.282146    1.281958
  H      0.795902    2.144101   -0.205144
  H     -1.684300    2.158008    0.169655
  H     -1.265912    1.305323   -1.315408
  H      2.421594    0.000137    1.017881

 Total Charge           Charge          ....    0
 Multiplicity           Mult            ....    1
 Number of Electrons    NEL             ....   56
 Basis Dimension        Dim             ....  289

ORBITAL ENERGIES
----------------

  NO   OCC          E(Eh)            E(eV)
   0   2.0000     -21.669019      -589.6440
   1   2.0000     -12.085755      -328.8701
   2   2.0000     -12.031900      -327.4046
   3   2.0000     -12.031824      -327.4026
   4   2.0000     -12.029866      -327.3493
   5   2.0000     -12.029826      -327.3482
   6   2.0000     -12.028956      -327.3245
   7   2.0000      -1.667195       -45.3667
   8   2.0000      -1.331490       -36.2317
   9   2.0000      -1.243995       -33.8508
  10   2.0000      -1.241903       -33.7939
  11   2.0000      -1.118604       -30.4388
  12   2.0000      -1.093937       -29.7675
  13   2.0000      -1.040106       -28.3027
  14   2.0000      -0.980440       -26.6791
  15   2.0000      -0.959572       -26.1113
  16   2.0000      -0.920287       -25.0423
  17   2.0000      -0.891704       -24.2645
  18   2.0000      -0.862551       -23.4712
  19   2.0000      -0.859794       -23.3962
  20   2.0000      -0.839320       -22.8391
  21   2.0000      -0.821727       -22.3603
  22   2.0000      -0.812004       -22.0958
  23   2.0000      -0.778490       -21.1838
  24   2.0000      -0.767318       -20.8798
  25   2.0000      -0.757592       -20.6151
  26   2.0000      -0.740512       -20.1503
  27   2.0000      -0.727353       -19.7923
  28   0.0000      -0.149184        -4.0595
  29   0.0000      -0.038205        -1.0396
  30   0.0000      -0.016301        -0.4436
  31   0.0000      -0.012663        -0.3446
  32   0.0000      -0.007496        -0.2040

MULLIKEN ATOMIC CHARGES
-----------------------
   0 C :   -0.203425
   1 C :   -0.212134
   2 C :   -0.222520
   3 C :    0.089088
   4 C :   -0.222493
   5 C :   -0.212112
   6 O :   -0.559044
   7 H :    0.098138
   8 H :    0.113897
   9 H :    0.114265
  10 H :    0.103433
  11 H :    0.107136
  12 H :    0.112146
  13 H :    0.103297
  14 H :    0.107134
  15 H :    0.112133
  16 H :    0.114266
  17 H :    0.103429
  18 H :    0.353367
Sum of atomic charges:   -0.0000000

LOEWDIN ATOMIC CHARGES
----------------------
   0 C :   -0.263580
   1 C :   -0.257703
   2 C :   -0.248010
   3 C :   -0.334131
   4 C :   -0.248010
   5 C :   -0.257703
   6 O :   -0.084234
   7 H :    0.135792
   8 H :    0.133157
   9 H :    0.133924
  10 H :    0.137195
  11 H :    0.139987
  12 H :    0.134628
  13 H :    0.145795
  14 H :    0.139987
  15 H :    0.134627
  16 H :    0.133924
  17 H :    0.137195
  18 H :    0.187160

  Mayer bond orders larger than 0.100000
B(  0-C ,  1-C ) :   0.9878 B(  0-C ,  5-C ) :   0.9878 B(  0-C ,  7-H ) :   0.9730
B(  0-C ,  8-H ) :   0.9722 B(  1-C ,  2-C ) :   0.9708 B(  1-C ,  9-H ) :   0.9686
B(  1-C , 10-H ) :   0.9741 B(  2-C ,  3-C ) :   0.9982 B(  2-C , 11-H ) :   0.9656
B(  2-C , 12-H ) :   0.9677 B(  3-C ,  4-C ) :   0.9982 B(  3-C ,  6-O ) :   0.9649
B(  3-C , 13-H ) :   0.9633 B(  4-C ,  5-C ) :   0.9708 B(  4-C , 14-H ) :   0.9656
B(  4-C , 15-H ) :   0.9677 B(  5-C , 16-H ) :   0.9686 B(  5-C , 17-H ) :   0.9741
B(  6-O , 18-H ) :   0.8685

FINAL SINGLE POINT ENERGY      -311.123504328768

DIPOLE MOMENT
-------------

Method             : SCF
Type of density    : Electron Density
Multiplicity       :   1
Irrep              :   0
Energy             :  -311.1368813390675996 Eh
Relativity type    :
Basis              : AO
                                X                 Y                 Z
Electronic contribution:      3.845089191       0.000320358      -0.153153809
Nuclear contribution   :     -4.713951080      -0.000464174       0.707578512
                        -----------------------------------------
Total Dipole Moment    :     -0.868861889      -0.000143815       0.554424703
                        -----------------------------------------
Magnitude (a.u.)       :      1.030683149
Magnitude (Debye)      :      2.619788367

Rotational constants in cm-1:             0.143443             0.073808             0.053726
Rotational constants in MHz :          4300.312025          2212.721416          1610.669690

                             ****ORCA TERMINATED NORMALLY****
TOTAL RUN TIME: 0 days 0 hours 2 minutes 53 seconds 444 msec
