                         Program Version 6.0.0  -   RELEASE  -
|  1> ! r2scan-3c def2/J RI DEFGRID2 scfconv6 printgap
|  2> %output
|  3>     printlevel normal
|  4> end
|  5> * xyz 0 1
|  6> C 3.6889925858 0.3685492735 0.042280624
|  7> C 2.2147182942 0.2960618368 -0.346652115
|  8> H 2.1379380674 0.3296016044 -1.4393405199
|  9> C 1.4316981519 1.4746168199 0.2309937965
| 10> C -0.0396993177 1.3872228395 -0.1625309205
| 11> C -0.669412314 0.0901699605 0.3475260782
| 12> H -0.5435338181 0.0566626573 1.4376430618
| 13> C 0.1072220826 -1.1064508956 -0.23249836
| 14> H 0.0079312985 -1.11424636 -1.3236048158
| 15> C 1.589136048 -1.0093058375 0.1420062894
| 16> O -0.4357173371 -2.3495385067 0.1757798893
| 17> C -2.18163997 -0.0245679277 0.0642691891
| 18> C -2.99020114 0.8345364909 1.0358275879
| 19> C -2.5620023141 0.3233813805 -1.3738499913
| 20> H 4.1327560559 1.2919118477 -0.3217444804
| 21> H 3.7981408828 0.3382644038 1.1241641101
| 22> H 4.2379004861 -0.468535537 -0.3822250166
| 23> H 1.5232334527 1.4701597756 1.3196032486
| 24> H 1.8539330067 2.4121469265 -0.13575842
| 25> H -0.5788126832 2.2421370554 0.2476029692
| 26> H -0.114751794 1.4265759158 -1.2500021198
| 27> H 1.6824178917 -1.0660364587 1.230326767
| 28> H 2.1163843723 -1.8651998952 -0.2853089577
| 29> H -0.3134100411 -2.4398138178 1.1313400101
| 30> H -2.4496847556 -1.0744913788 0.2327568523
| 31> H -2.7659261302 1.8893750155 0.896424725
| 32> H -2.7698570575 0.5679696166 2.0669484287
| 33> H -4.0543464898 0.6895861129 0.8658410296
| 34> H -3.609727468 0.0843789269 -1.5419592179
| 35> H -1.9693404102 -0.2486407133 -2.0829736601
| 36> H -2.4214594225 1.3832074393 -1.5695335694
| 37> *
| 38>
| 39>                          ****END OF INPUT****

CARTESIAN COORDINATES (ANGSTROEM)
---------------------------------
  C      3.688993    0.368549    0.042281
  C      2.214718    0.296062   -0.346652
  H      2.137938    0.329602   -1.439341
  C      1.431698    1.474617    0.230994
  C     -0.039699    1.387223   -0.162531
  C     -0.669412    0.090170    0.347526
  H     -0.543534    0.056663    1.437643
  C      0.107222   -1.106451   -0.232498
  H      0.007931   -1.114246   -1.323605
  C      1.589136   -1.009306    0.142006
  O     -0.435717   -2.349539    0.175780
  C     -2.181640   -0.024568    0.064269
  C     -2.990201    0.834536    1.035828
  C     -2.562002    0.323381   -1.373850
  H      4.132756    1.291912   -0.321744
  H      3.798141    0.338264    1.124164
  H      4.237900   -0.468536   -0.382225
  H      1.523233    1.470160    1.319603
  H      1.853933    2.412147   -0.135758
  H     -0.578813    2.242137    0.247603
  H     -0.114752    1.426576   -1.250002
  H      1.682418   -1.066036    1.230327
  H      2.116384   -1.865200   -0.285309
  H     -0.313410   -2.439814    1.131340
  H     -2.449685   -1.074491    0.232757
  H     -2.765926    1.889375    0.896425
  H     -2.769857    0.567970    2.066948
  H     -4.054346    0.689586    0.865841
  H     -3.609727    0.084379   -1.541959
  H     -1.969340   -0.248641   -2.082974
  H     -2.421459    1.383207   -1.569534

 Total Charge           Charge          ....    0
 Multiplicity           Mult            ....    1
 Number of Electrons    NEL             ....   88
 Basis Dimension        Dim             ....  314

ORBITAL ENERGIES
----------------

  NO   OCC          E(Eh)            E(eV)
   0   2.0000     -18.944120      -515.4957
   1   2.0000     -10.074722      -274.1471
   2   2.0000     -10.034427      -273.0506
   3   2.0000     -10.027650      -272.8662
   4   2.0000     -10.025339      -272.8033
   5   2.0000     -10.024072      -272.7689
   6   2.0000     -10.023792      -272.7612
   7   2.0000     -10.023021      -272.7403
   8   2.0000     -10.017088      -272.5788
   9   2.0000     -10.011707      -272.4324
  10   2.0000     -10.010958      -272.4120
  11   2.0000      -0.983149       -26.7528
  12   2.0000      -0.807043       -21.9608
  13   2.0000      -0.766968       -20.8703
  14   2.0000      -0.712479       -19.3875
  15   2.0000      -0.698162       -18.9980
  16   2.0000      -0.646564       -17.5939
  17   2.0000      -0.642074       -17.4717
  18   2.0000      -0.582237       -15.8435
  19   2.0000      -0.572490       -15.5782
  20   2.0000      -0.531980       -14.4759
  21   2.0000      -0.516116       -14.0442
  22   2.0000      -0.460090       -12.5197
  23   2.0000      -0.436119       -11.8674
  24   2.0000      -0.429274       -11.6811
  25   2.0000      -0.418547       -11.3892
  26   2.0000      -0.415898       -11.3172
  27   2.0000      -0.389483       -10.5984
  28   2.0000      -0.381985       -10.3943
  29   2.0000      -0.375841       -10.2272
  30   2.0000      -0.368491       -10.0272
  31   2.0000      -0.353531        -9.6201
  32   2.0000      -0.348209        -9.4753
  33   2.0000      -0.340005        -9.2520
  34   2.0000      -0.332653        -9.0519
  35   2.0000      -0.314561        -8.5596
  36   2.0000      -0.312720        -8.5095
  37   2.0000      -0.301651        -8.2083
  38   2.0000      -0.296429        -8.0663
  39   2.0000      -0.294693        -8.0190
  40   2.0000      -0.283316        -7.7094
  41   2.0000      -0.273838        -7.4515
  42   2.0000      -0.258729        -7.0404
  43   2.0000      -0.225490        -6.1359
  44   0.0000       0.061840         1.6828
  45   0.0000       0.079757         2.1703
  46   0.0000       0.087399         2.3782
  47   0.0000       0.093131         2.5342
  48   0.0000       0.113407         3.0860

MULLIKEN ATOMIC CHARGES
-----------------------
   0 C :   -0.501983
   1 C :   -0.029982
   2 H :    0.161673
   3 C :   -0.342989
   4 C :   -0.381089
   5 C :   -0.038305
   6 H :    0.168040
   7 C :   -0.164951
   8 H :    0.165200
   9 C :   -0.340810
  10 O :   -0.400523
  11 C :   -0.019967
  12 C :   -0.505598
  13 C :   -0.534291
  14 H :    0.148016
  15 H :    0.149289
  16 H :    0.148926
  17 H :    0.154849
  18 H :    0.147612
  19 H :    0.154465
  20 H :    0.168040
  21 H :    0.149253
  22 H :    0.159850
  23 H :    0.289426
  24 H :    0.188985
  25 H :    0.151265
  26 H :    0.144433
  27 H :    0.148599
  28 H :    0.151445
  29 H :    0.156141
  30 H :    0.154981
Sum of atomic charges:   -0.0000000

LOEWDIN ATOMIC CHARGES
----------------------
   0 C :   -0.412134
   1 C :   -0.232162
   2 H :    0.159416
   3 C :   -0.292137
   4 C :   -0.286336
   5 C :   -0.199417
   6 H :    0.165436
   7 C :    0.061225
   8 H :    0.185320
   9 C :   -0.268284
  10 O :   -0.608366
  11 C :   -0.233645
  12 C :   -0.414027
  13 C :   -0.413213
  14 H :    0.153431
  15 H :    0.153740
  16 H :    0.154006
  17 H :    0.158391
  18 H :    0.158028
  19 H :    0.160296
  20 H :    0.163181
  21 H :    0.159758
  22 H :    0.167260
  23 H :    0.267016
  24 H :    0.176007
  25 H :    0.150813
  26 H :    0.151503
  27 H :    0.153518
  28 H :    0.154610
  29 H :    0.153935
  30 H :    0.152833

  Mayer bond orders larger than 0.100000
B(  0-C ,  1-C ) :   0.8849 B(  0-C , 14-H ) :   0.9766 B(  0-C , 15-H ) :   0.9964
B(  0-C , 16-H ) :   0.9777 B(  1-C ,  2-H ) :   0.9522 B(  1-C ,  3-C ) :   0.9105
B(  1-C ,  9-C ) :   0.8940 B(  3-C ,  4-C ) :   0.8891 B(  3-C , 17-H ) :   1.0186
B(  3-C , 18-H ) :   0.9453 B(  4-C ,  5-C ) :   0.8588 B(  4-C , 19-H ) :   0.9453
B(  4-C , 20-H ) :   0.9914 B(  5-C ,  6-H ) :   1.0134 B(  5-C ,  7-C ) :   0.9305
B(  5-C , 11-C ) :   0.8152 B(  7-C ,  8-H ) :   0.9697 B(  7-C ,  9-C ) :   0.9262
B(  7-C , 10-O ) :   0.9684 B(  9-C , 21-H ) :   1.0187 B(  9-C , 22-H ) :   0.9453
B( 10-O , 23-H ) :   0.8941 B( 11-C , 12-C ) :   0.8900 B( 11-C , 13-C ) :   0.8553
B( 11-C , 24-H ) :   0.9879 B( 12-C , 25-H ) :   0.9857 B( 12-C , 26-H ) :   0.9856
B( 12-C , 27-H ) :   0.9761 B( 13-C , 28-H ) :   0.9726 B( 13-C , 29-H ) :   0.9824
B( 13-C , 30-H ) :   0.9797

Dispersion correction           -0.010830592
FINAL SINGLE POINT ENERGY      -468.209319269374

DIPOLE MOMENT
-------------

Method             : SCF
Type of density    : Electron Density
Multiplicity       :   1
Irrep              :   0
Energy             :  -468.2136902808593959 Eh
Relativity type    :
Basis              : AO
                                X                 Y                 Z
Electronic contribution:      0.385972573      -5.115578900       0.103880709
Nuclear contribution   :     -0.100482626       5.505012145       0.209192309
                        -----------------------------------------
Total Dipole Moment    :      0.285489948       0.389433245       0.313073018
                        -----------------------------------------
Magnitude (a.u.)       :      0.575480215
Magnitude (Debye)      :      1.462754458

Rotational constants in cm-1:             0.059466             0.023140             0.019324
Rotational constants in MHz :          1782.752256           693.708576           579.321295

                             ****ORCA TERMINATED NORMALLY****
TOTAL RUN TIME: 0 days 0 hours 0 minutes 48 seconds 261 msec
