                         Program Version 6.0.0  -   RELEASE  -
|  1> ! r2scan-3c def2/J RI DEFGRID2 scfconv6 printgap
|  2> %output
|  3>     printlevel normal
|  4> end
|  5> %cpcm
|  6>     smd true
|  7>     smdsolvent "water"
|  8> end
|  9> * xyz 0 1
| 10> C 3.6889925858 0.3685492735 0.042280624
| 11> C 2.2147182942 0.2960618368 -0.346652115
| 12> H 2.1379380674 0.3296016044 -1.4393405199
| 13> C 1.4316981519 1.4746168199 0.2309937965
| 14> C -0.0396993177 1.3872228395 -0.1625309205
| 15> C -0.669412314 0.0901699605 0.3475260782
| 16> H -0.5435338181 0.0566626573 1.4376430618
| 17> C 0.1072220826 -1.1064508956 -0.23249836
| 18> H 0.0079312985 -1.11424636 -1.3236048158
| 19> C 1.589136048 -1.0093058375 0.1420062894
| 20> O -0.4357173371 -2.3495385067 0.1757798893
| 21> C -2.18163997 -0.0245679277 0.0642691891
| 22> C -2.99020114 0.8345364909 1.0358275879
| 23> C -2.5620023141 0.3233813805 -1.3738499913
| 24> H 4.1327560559 1.2919118477 -0.3217444804
| 25> H 3.7981408828 0.3382644038 1.1241641101
| 26> H 4.2379004861 -0.468535537 -0.3822250166
| 27> H 1.5232334527 1.4701597756 1.3196032486
| 28> H 1.8539330067 2.4121469265 -0.13575842
| 29> H -0.5788126832 2.2421370554 0.2476029692
| 30> H -0.114751794 1.4265759158 -1.2500021198
| 31> H 1.6824178917 -1.0660364587 1.230326767
| 32> H 2.1163843723 -1.8651998952 -0.2853089577
| 33> H -0.3134100411 -2.4398138178 1.1313400101
| 34> H -2.4496847556 -1.0744913788 0.2327568523
| 35> H -2.7659261302 1.8893750155 0.896424725
| 36> H -2.7698570575 0.5679696166 2.0669484287
| 37> H -4.0543464898 0.6895861129 0.8658410296
| 38> H -3.609727468 0.0843789269 -1.5419592179
| 39> H -1.9693404102 -0.2486407133 -2.0829736601
| 40> H -2.4214594225 1.3832074393 -1.5695335694
| 41> *
| 42>
| 43>                          ****END OF INPUT****

CARTESIAN COORDINATES (ANGSTROEM)
---------------------------------
  C      3.688993    0.368549    0.042281
  C      2.214718    0.296062   -0.346652
  H      2.137938    0.329602   -1.439341
  C      1.431698    1.474617    0.230994
  C     -0.039699    1.387223   -0.162531
  C     -0.669412    0.090170    0.347526
  H     -0.543534    0.056663    1.437643
  C      0.107222   -1.106451   -0.232498
  H      0.007931   -1.114246   -1.323605
  C      1.589136   -1.009306    0.142006
  O     -0.435717   -2.349539    0.175780
  C     -2.181640   -0.024568    0.064269
  C     -2.990201    0.834536    1.035828
  C     -2.562002    0.323381   -1.373850
  H      4.132756    1.291912   -0.321744
  H      3.798141    0.338264    1.124164
  H      4.237900   -0.468536   -0.382225
  H      1.523233    1.470160    1.319603
  H      1.853933    2.412147   -0.135758
  H     -0.578813    2.242137    0.247603
  H     -0.114752    1.426576   -1.250002
  H      1.682418   -1.066036    1.230327
  H      2.116384   -1.865200   -0.285309
  H     -0.313410   -2.439814    1.131340
  H     -2.449685   -1.074491    0.232757
  H     -2.765926    1.889375    0.896425
  H     -2.769857    0.567970    2.066948
  H     -4.054346    0.689586    0.865841
  H     -3.609727    0.084379   -1.541959
  H     -1.969340   -0.248641   -2.082974
  H     -2.421459    1.383207   -1.569534

 Total Charge           Charge          ....    0
 Multiplicity           Mult            ....    1
 Number of Electrons    NEL             ....   88
 Basis Dimension        Dim             ....  314

ORBITAL ENERGIES
----------------

  NO   OCC          E(Eh)            E(eV)
   0   2.0000     -18.946518      -515.5610
   1   2.0000     -10.068105      -273.9671
   2   2.0000     -10.023218      -272.7456
   3   2.0000     -10.020305      -272.6664
   4   2.0000     -10.017774      -272.5975
   5   2.0000     -10.012705      -272.4596
   6   2.0000     -10.012487      -272.4536
   7   2.0000     -10.011883      -272.4372
   8   2.0000     -10.006426      -272.2887
   9   2.0000     -10.004520      -272.2368
  10   2.0000     -10.004467      -272.2354
  11   2.0000      -0.984240       -26.7825
  12   2.0000      -0.797122       -21.6908
  13   2.0000      -0.758819       -20.6485
  14   2.0000      -0.703197       -19.1350
  15   2.0000      -0.689356       -18.7583
  16   2.0000      -0.640393       -17.4260
  17   2.0000      -0.632637       -17.2149
  18   2.0000      -0.573619       -15.6090
  19   2.0000      -0.565251       -15.3813
  20   2.0000      -0.520737       -14.1700
  21   2.0000      -0.509169       -13.8552
  22   2.0000      -0.453552       -12.3418
  23   2.0000      -0.426635       -11.6093
  24   2.0000      -0.422258       -11.4902
  25   2.0000      -0.409760       -11.1501
  26   2.0000      -0.409053       -11.1309
  27   2.0000      -0.382046       -10.3960
  28   2.0000      -0.372908       -10.1473
  29   2.0000      -0.368435       -10.0256
  30   2.0000      -0.360541        -9.8108
  31   2.0000      -0.345938        -9.4135
  32   2.0000      -0.342386        -9.3168
  33   2.0000      -0.331923        -9.0321
  34   2.0000      -0.325827        -8.8662
  35   2.0000      -0.305704        -8.3186
  36   2.0000      -0.302938        -8.2434
  37   2.0000      -0.294884        -8.0242
  38   2.0000      -0.289569        -7.8796
  39   2.0000      -0.283169        -7.7054
  40   2.0000      -0.274887        -7.4801
  41   2.0000      -0.267547        -7.2803
  42   2.0000      -0.252672        -6.8756
  43   2.0000      -0.224867        -6.1189
  44   0.0000       0.076561         2.0833
  45   0.0000       0.090657         2.4669
  46   0.0000       0.099525         2.7082
  47   0.0000       0.103052         2.8042
  48   0.0000       0.121797         3.3143

MULLIKEN ATOMIC CHARGES
-----------------------
   0 C :   -0.552550
   1 C :   -0.011596
   2 H :    0.168985
   3 C :   -0.360941
   4 C :   -0.395299
   5 C :   -0.027321
   6 H :    0.181901
   7 C :   -0.136472
   8 H :    0.175743
   9 C :   -0.373066
  10 O :   -0.490968
  11 C :   -0.018463
  12 C :   -0.553982
  13 C :   -0.569681
  14 H :    0.158769
  15 H :    0.162791
  16 H :    0.158876
  17 H :    0.164586
  18 H :    0.154857
  19 H :    0.164033
  20 H :    0.174425
  21 H :    0.172741
  22 H :    0.157455
  23 H :    0.345781
  24 H :    0.173246
  25 H :    0.165888
  26 H :    0.158005
  27 H :    0.158136
  28 H :    0.161606
  29 H :    0.167085
  30 H :    0.165430
Sum of atomic charges:   -0.0000000

LOEWDIN ATOMIC CHARGES
----------------------
   0 C :   -0.421396
   1 C :   -0.229324
   2 H :    0.162064
   3 C :   -0.294831
   4 C :   -0.287358
   5 C :   -0.195861
   6 H :    0.172239
   7 C :    0.061275
   8 H :    0.188729
   9 C :   -0.269604
  10 O :   -0.646118
  11 C :   -0.232702
  12 C :   -0.422352
  13 C :   -0.422311
  14 H :    0.155579
  15 H :    0.156510
  16 H :    0.155751
  17 H :    0.161174
  18 H :    0.159525
  19 H :    0.162828
  20 H :    0.165114
  21 H :    0.167621
  22 H :    0.165640
  23 H :    0.285046
  24 H :    0.169477
  25 H :    0.154962
  26 H :    0.155075
  27 H :    0.154763
  28 H :    0.155563
  29 H :    0.156631
  30 H :    0.156294

  Mayer bond orders larger than 0.100000
B(  0-C ,  1-C ) :   0.8680 B(  0-C , 14-H ) :   0.9747 B(  0-C , 15-H ) :   0.9946
B(  0-C , 16-H ) :   0.9761 B(  1-C ,  2-H ) :   0.9502 B(  1-C ,  3-C ) :   0.9116
B(  1-C ,  9-C ) :   0.8979 B(  3-C ,  4-C ) :   0.8905 B(  3-C , 17-H ) :   1.0148
B(  3-C , 18-H ) :   0.9454 B(  4-C ,  5-C ) :   0.8583 B(  4-C , 19-H ) :   0.9461
B(  4-C , 20-H ) :   0.9863 B(  5-C ,  6-H ) :   1.0066 B(  5-C ,  7-C ) :   0.9370
B(  5-C , 11-C ) :   0.8088 B(  7-C ,  8-H ) :   0.9720 B(  7-C ,  9-C ) :   0.9178
B(  7-C , 10-O ) :   0.9455 B(  9-C , 21-H ) :   1.0148 B(  9-C , 22-H ) :   0.9439
B( 10-O , 23-H ) :   0.8669 B( 11-C , 12-C ) :   0.8883 B( 11-C , 13-C ) :   0.8563
B( 11-C , 24-H ) :   0.9947 B( 12-C , 25-H ) :   0.9837 B( 12-C , 26-H ) :   0.9815
B( 12-C , 27-H ) :   0.9747 B( 13-C , 28-H ) :   0.9722 B( 13-C , 29-H ) :   0.9776
B( 13-C , 30-H ) :   0.9773

Dispersion correction           -0.010830592
FINAL SINGLE POINT ENERGY      -468.214267087530

DIPOLE MOMENT
-------------

Method             : SCF
Type of density    : Electron Density
Multiplicity       :   1
Irrep              :   0
Energy             :  -468.2186380990160046 Eh
Relativity type    :
Basis              : AO
                                X                 Y                 Z
Electronic contribution:      0.503507112      -4.902267892       0.293414839
Nuclear contribution   :     -0.100482626       5.505012145       0.209192309
                        -----------------------------------------
Total Dipole Moment    :      0.403024486       0.602744254       0.502607148
                        -----------------------------------------
Magnitude (a.u.)       :      0.882237676
Magnitude (Debye)      :      2.242469961

Rotational constants in cm-1:             0.059466             0.023140             0.019324
Rotational constants in MHz :          1782.752256           693.708576           579.321295

                             ****ORCA TERMINATED NORMALLY****
TOTAL RUN TIME: 0 days 0 hours 0 minutes 59 seconds 579 msec
