                         Program Version 6.0.0  -   RELEASE  -
|  1> ! pbe def2-sv(p) def2/J RI DEFGRID1 loosescf d4 GCP(DFT/SV(P)) printgap
|  2> %output
|  3>     printlevel normal
|  4> end
|  5> * xyz 0 1
|  6> C -2.3216070913 -0.9735047637 -0.284588765
|  7> C -0.9256633987 -0.5230815111 0.1575009984
|  8> H -0.8361435125 -0.6885107755 1.2439329982
|  9> C -0.6977687257 0.9779265309 -0.1271209781
| 10> H -1.2216907934 1.2629855794 -1.0463304234
| 11> C 0.8004192881 1.2517403352 -0.3754787153
| 12> H 1.0135087441 2.2742798023 -0.0246261649
| 13> C 1.6489629852 0.2736336864 0.454606811
| 14> H 2.712380881 0.4330540245 0.2347792871
| 15> C 1.32569904 -1.179752306 0.0322538525
| 16> H 1.3862623727 -1.8270063966 0.9370191281
| 17> O 0.0336607286 -1.3146644321 -0.5151561378
| 18> O 2.2533816717 -1.5742717325 -0.9128271251
| 19> O 1.3583322526 0.5221763721 1.8069694258
| 20> O 1.0326236312 1.1381577087 -1.7522693068
| 21> O -1.2311556873 1.7764128306 0.8953019539
| 22> O -3.3306352324 -0.4147145713 0.5158888638
| 23> H -2.4025676718 -2.0570983242 -0.1748662339
| 24> H -2.4623814966 -0.716709367 -1.3427050607
| 25> H 1.8916675505 -2.3139691069 -1.4249515991
| 26> H 2.0401948291 0.1381640901 2.3763239369
| 27> H 1.9742579529 1.256489379 -1.9434328665
| 28> H -0.7100469124 1.6416022987 1.7026205373
| 29> H -3.2047531252 0.5460201216 0.562536704
| 30> *
| 31>
| 32>                          ****END OF INPUT****

CARTESIAN COORDINATES (ANGSTROEM)
---------------------------------
  C     -2.321607   -0.973505   -0.284589
  C     -0.925663   -0.523082    0.157501
  H     -0.836144   -0.688511    1.243933
  C     -0.697769    0.977927   -0.127121
  H     -1.221691    1.262986   -1.046330
  C      0.800419    1.251740   -0.375479
  H      1.013509    2.274280   -0.024626
  C      1.648963    0.273634    0.454607
  H      2.712381    0.433054    0.234779
  C      1.325699   -1.179752    0.032254
  H      1.386262   -1.827006    0.937019
  O      0.033661   -1.314664   -0.515156
  O      2.253382   -1.574272   -0.912827
  O      1.358332    0.522176    1.806969
  O      1.032624    1.138158   -1.752269
  O     -1.231156    1.776413    0.895302
  O     -3.330635   -0.414715    0.515889
  H     -2.402568   -2.057098   -0.174866
  H     -2.462381   -0.716709   -1.342705
  H      1.891668   -2.313969   -1.424952
  H      2.040195    0.138164    2.376324
  H      1.974258    1.256489   -1.943433
  H     -0.710047    1.641602    1.702621
  H     -3.204753    0.546020    0.562537

 Total Charge           Charge          ....    0
 Multiplicity           Mult            ....    1
 Number of Electrons    NEL             ....   96
 Basis Dimension        Dim             ....  192

ORBITAL ENERGIES
----------------

  NO   OCC          E(Eh)            E(eV)
   0   2.0000     -18.781886      -511.0811
   1   2.0000     -18.768297      -510.7113
   2   2.0000     -18.764824      -510.6168
   3   2.0000     -18.755788      -510.3709
   4   2.0000     -18.755347      -510.3589
   5   2.0000     -18.733783      -509.7722
   6   2.0000      -9.991496      -271.8824
   7   2.0000      -9.954089      -270.8645
   8   2.0000      -9.946736      -270.6644
   9   2.0000      -9.940230      -270.4874
  10   2.0000      -9.936674      -270.3906
  11   2.0000      -9.922649      -270.0090
  12   2.0000      -0.987339       -26.8668
  13   2.0000      -0.955278       -25.9944
  14   2.0000      -0.938602       -25.5407
  15   2.0000      -0.929222       -25.2854
  16   2.0000      -0.918052       -24.9815
  17   2.0000      -0.908505       -24.7217
  18   2.0000      -0.700232       -19.0543
  19   2.0000      -0.687973       -18.7207
  20   2.0000      -0.621537       -16.9129
  21   2.0000      -0.588437       -16.0122
  22   2.0000      -0.563562       -15.3353
  23   2.0000      -0.526048       -14.3145
  24   2.0000      -0.512834       -13.9549
  25   2.0000      -0.478209       -13.0127
  26   2.0000      -0.475860       -12.9488
  27   2.0000      -0.471122       -12.8199
  28   2.0000      -0.456737       -12.4284
  29   2.0000      -0.439682       -11.9644
  30   2.0000      -0.419512       -11.4155
  31   2.0000      -0.388511       -10.5719
  32   2.0000      -0.380211       -10.3461
  33   2.0000      -0.375396       -10.2151
  34   2.0000      -0.360169        -9.8007
  35   2.0000      -0.347104        -9.4452
  36   2.0000      -0.334823        -9.1110
  37   2.0000      -0.319440        -8.6924
  38   2.0000      -0.314048        -8.5457
  39   2.0000      -0.299557        -8.1514
  40   2.0000      -0.277501        -7.5512
  41   2.0000      -0.272787        -7.4229
  42   2.0000      -0.251970        -6.8565
  43   2.0000      -0.244923        -6.6647
  44   2.0000      -0.242375        -6.5954
  45   2.0000      -0.221086        -6.0161
  46   2.0000      -0.208665        -5.6781
  47   2.0000      -0.196361        -5.3432
  48   0.0000       0.000396         0.0108
  49   0.0000       0.018778         0.5110
  50   0.0000       0.039746         1.0815
  51   0.0000       0.048083         1.3084
  52   0.0000       0.059856         1.6288

MULLIKEN ATOMIC CHARGES
-----------------------
   0 C :    0.090015
   1 C :   -0.006083
   2 H :    0.054395
   3 C :    0.050314
   4 H :    0.077124
   5 C :    0.067143
   6 H :    0.068287
   7 C :   -0.053182
   8 H :    0.074957
   9 C :    0.252531
  10 H :    0.034490
  11 O :   -0.312487
  12 O :   -0.394992
  13 O :   -0.419788
  14 O :   -0.401136
  15 O :   -0.426710
  16 O :   -0.445374
  17 H :    0.082933
  18 H :    0.073445
  19 H :    0.309073
  20 H :    0.314955
  21 H :    0.299921
  22 H :    0.309233
  23 H :    0.300937
Sum of atomic charges:   -0.0000000

LOEWDIN ATOMIC CHARGES
----------------------
   0 C :   -0.116860
   1 C :   -0.079856
   2 H :    0.100917
   3 C :   -0.071586
   4 H :    0.121994
   5 C :   -0.067553
   6 H :    0.102737
   7 C :   -0.096569
   8 H :    0.108154
   9 C :    0.006370
  10 H :    0.073059
  11 O :   -0.152314
  12 O :   -0.303331
  13 O :   -0.312277
  14 O :   -0.307383
  15 O :   -0.308217
  16 O :   -0.338055
  17 H :    0.112099
  18 H :    0.096871
  19 H :    0.292150
  20 H :    0.295390
  21 H :    0.285239
  22 H :    0.281789
  23 H :    0.277232

  Mayer bond orders larger than 0.100000
B(  0-C ,  1-C ) :   1.0433 B(  0-C , 16-O ) :   1.0840 B(  0-C , 17-H ) :   0.9196
B(  0-C , 18-H ) :   0.9093 B(  1-C ,  2-H ) :   0.8670 B(  1-C ,  3-C ) :   0.9808
B(  1-C , 11-O ) :   1.0113 B(  3-C ,  4-H ) :   0.8759 B(  3-C ,  5-C ) :   0.9931
B(  3-C , 15-O ) :   1.0230 B(  5-C ,  6-H ) :   0.8952 B(  5-C ,  7-C ) :   1.0267
B(  5-C , 14-O ) :   1.0842 B(  7-C ,  8-H ) :   0.8976 B(  7-C ,  9-C ) :   0.9070
B(  7-C , 13-O ) :   1.0476 B(  9-C , 10-H ) :   0.9096 B(  9-C , 11-O ) :   1.0354
B(  9-C , 12-O ) :   1.1580 B( 12-O , 19-H ) :   0.8367 B( 13-O , 20-H ) :   0.8396
B( 14-O , 21-H ) :   0.8416 B( 15-O , 22-H ) :   0.8293 B( 16-O , 23-H ) :   0.8308

Dispersion correction           -0.024941109
FINAL SINGLE POINT ENERGY      -685.689191273560

DIPOLE MOMENT
-------------

Method             : SCF
Type of density    : Electron Density
Multiplicity       :   1
Irrep              :   0
Energy             :  -685.8198760836563679 Eh
Relativity type    :
Basis              : AO
                                X                 Y                 Z
Electronic contribution:      1.458561760      -0.050720629      -0.607287879
Nuclear contribution   :      0.171238403      -0.045592229       1.032830392
                        -----------------------------------------
Total Dipole Moment    :      1.629800163      -0.096312858       0.425542513
                        -----------------------------------------
Magnitude (a.u.)       :      1.687190317
Magnitude (Debye)      :      4.288496974

Rotational constants in cm-1:             0.043609             0.025187             0.021786
Rotational constants in MHz :          1307.368504           755.084659           653.129262

                             ****ORCA TERMINATED NORMALLY****
TOTAL RUN TIME: 0 days 0 hours 0 minutes 11 seconds 972 msec
