                         Program Version 6.0.0  -   RELEASE  -
|  1> ! pbe def2-sv(p) def2/J RI DEFGRID1 loosescf d4 GCP(DFT/SV(P)) printgap
|  2> %output
|  3>     printlevel normal
|  4> end
|  5> * xyz 0 1
|  6> C 1.1968633125 -1.2562969673 0.0382557569
|  7> C 0.3997564113 -5.00259e-05 -0.3206843872
|  8> C 1.1958888835 1.2567961813 0.0382971286
|  9> C -0.9092958018 -0.0003069658 0.4105965427
| 10> C -2.0951687906 -0.000237227 -0.1679989911
| 11> H 0.6358725377 -2.1500763344 -0.2250131405
| 12> H 1.4037649527 -1.2805961488 1.1059760573
| 13> H 2.1429627349 -1.2693438137 -0.4975339821
| 14> H 0.2051357188 -0.0001592642 -1.3983239344
| 15> H 1.4033785407 1.2808819272 1.1059058058
| 16> H 2.1416727762 1.2710260116 -0.4979559894
| 17> H 0.6337366396 2.1500800084 -0.2242370206
| 18> H -0.829574522 -0.0003942323 1.4902850869
| 19> H -3.010066724 -0.0003182154 0.3999341116
| 20> H -2.2011911803 3.215e-05 -1.2407582711
| 21> *
| 22>
| 23>                          ****END OF INPUT****

CARTESIAN COORDINATES (ANGSTROEM)
---------------------------------
  C      1.196863   -1.256297    0.038256
  C      0.399756   -0.000050   -0.320684
  C      1.195889    1.256796    0.038297
  C     -0.909296   -0.000307    0.410597
  C     -2.095169   -0.000237   -0.167999
  H      0.635873   -2.150076   -0.225013
  H      1.403765   -1.280596    1.105976
  H      2.142963   -1.269344   -0.497534
  H      0.205136   -0.000159   -1.398324
  H      1.403379    1.280882    1.105906
  H      2.141673    1.271026   -0.497956
  H      0.633737    2.150080   -0.224237
  H     -0.829575   -0.000394    1.490285
  H     -3.010067   -0.000318    0.399934
  H     -2.201191    0.000032   -1.240758

 Total Charge           Charge          ....    0
 Multiplicity           Mult            ....    1
 Number of Electrons    NEL             ....   40
 Basis Dimension        Dim             ....   90

ORBITAL ENERGIES
----------------

  NO   OCC          E(Eh)            E(eV)
   0   2.0000      -9.898087      -269.3406
   1   2.0000      -9.888725      -269.0859
   2   2.0000      -9.875412      -268.7236
   3   2.0000      -9.875407      -268.7235
   4   2.0000      -9.871970      -268.6300
   5   2.0000      -0.735677       -20.0188
   6   2.0000      -0.659532       -17.9468
   7   2.0000      -0.611569       -16.6416
   8   2.0000      -0.536811       -14.6074
   9   2.0000      -0.491500       -13.3744
  10   2.0000      -0.412874       -11.2349
  11   2.0000      -0.406426       -11.0594
  12   2.0000      -0.373891       -10.1741
  13   2.0000      -0.366845        -9.9824
  14   2.0000      -0.341585        -9.2950
  15   2.0000      -0.333018        -9.0619
  16   2.0000      -0.301428        -8.2023
  17   2.0000      -0.291698        -7.9375
  18   2.0000      -0.282812        -7.6957
  19   2.0000      -0.225721        -6.1422
  20   0.0000      -0.012077        -0.3286
  21   0.0000       0.043920         1.1951
  22   0.0000       0.060363         1.6426
  23   0.0000       0.078850         2.1456
  24   0.0000       0.096022         2.6129

MULLIKEN ATOMIC CHARGES
-----------------------
   0 C :   -0.248712
   1 C :   -0.142099
   2 C :   -0.248726
   3 C :   -0.080258
   4 C :   -0.204089
   5 H :    0.107462
   6 H :    0.094304
   7 H :    0.100209
   8 H :    0.069007
   9 H :    0.094299
  10 H :    0.100214
  11 H :    0.107467
  12 H :    0.064413
  13 H :    0.095013
  14 H :    0.091497
Sum of atomic charges:   -0.0000000

LOEWDIN ATOMIC CHARGES
----------------------
   0 C :   -0.325828
   1 C :   -0.153395
   2 C :   -0.325825
   3 C :   -0.120818
   4 C :   -0.259821
   5 H :    0.120811
   6 H :    0.116785
   7 H :    0.118129
   8 H :    0.117638
   9 H :    0.116785
  10 H :    0.118129
  11 H :    0.120813
  12 H :    0.118381
  13 H :    0.119940
  14 H :    0.118274

  Mayer bond orders larger than 0.100000
B(  0-C ,  1-C ) :   1.0907 B(  0-C ,  5-H ) :   0.9530 B(  0-C ,  6-H ) :   0.9515
B(  0-C ,  7-H ) :   0.9490 B(  1-C ,  2-C ) :   1.0906 B(  1-C ,  3-C ) :   1.0402
B(  1-C ,  8-H ) :   0.9020 B(  2-C ,  9-H ) :   0.9515 B(  2-C , 10-H ) :   0.9490
B(  2-C , 11-H ) :   0.9530 B(  3-C ,  4-C ) :   2.0682 B(  3-C , 12-H ) :   0.9285
B(  4-C , 13-H ) :   0.9223 B(  4-C , 14-H ) :   0.9204

Dispersion correction           -0.010269724
FINAL SINGLE POINT ENERGY      -196.027560677535

DIPOLE MOMENT
-------------

Method             : SCF
Type of density    : Electron Density
Multiplicity       :   1
Irrep              :   0
Energy             :  -196.0755192906887601 Eh
Relativity type    :
Basis              : AO
                                X                 Y                 Z
Electronic contribution:     -2.233703835      -0.000975388      -0.029460058
Nuclear contribution   :      2.369531646       0.001062093       0.017148577
                        -----------------------------------------
Total Dipole Moment    :      0.135827811       0.000086705      -0.012311481
                        -----------------------------------------
Magnitude (a.u.)       :      0.136384656
Magnitude (Debye)      :      0.346662245

Rotational constants in cm-1:             0.253760             0.120093             0.092851
Rotational constants in MHz :          7607.521614          3600.286958          2783.606984

                             ****ORCA TERMINATED NORMALLY****
TOTAL RUN TIME: 0 days 0 hours 0 minutes 5 seconds 716 msec
