                         Program Version 6.0.0  -   RELEASE  -
|  1> ! pbe def2-sv(p) def2/J RI DEFGRID1 loosescf d4 GCP(DFT/SV(P)) printgap
|  2> %output
|  3>     printlevel normal
|  4> end
|  5> * xyz 0 1
|  6> C -2.3107279875 -1.0027650889 -0.3412583792
|  7> C -0.9437231014 -0.5662821819 0.1835249652
|  8> H -0.8949412137 -0.7673097397 1.2672344314
|  9> C -0.7320198467 0.9521389834 -0.0245686824
| 10> H -1.3645503808 1.3033139288 -0.8497634521
| 11> C 0.7251478951 1.245970159 -0.4225048267
| 12> H 0.9364399729 2.2904372555 -0.1403354741
| 13> C 1.660128185 0.3326429043 0.3810240017
| 14> H 2.702163687 0.4766791674 0.0694367735
| 15> C 1.3278008551 -1.1521563104 0.0814628405
| 16> H 1.381080946 -1.7057844191 1.0452783327
| 17> O 0.0419530856 -1.3314440069 -0.4730986241
| 18> O 2.2538822132 -1.6324470934 -0.822933575
| 19> O 1.6012381235 0.6185138447 1.7549223341
| 20> O 0.8337022946 1.0711506017 -1.8087394664
| 21> O -1.0111060838 1.6612297402 1.159707602
| 22> O -3.2809606263 -0.2121428601 0.3050777671
| 23> H -2.4508194958 -2.067917349 -0.1254370747
| 24> H -2.325275197 -0.8528652373 -1.427280868
| 25> H 1.9260039655 -2.4600480144 -1.2088569345
| 26> H 0.7405833947 1.0222253637 1.9657102866
| 27> H 1.7581625509 1.1612596354 -2.0804932553
| 28> H -1.9539174111 1.5590796421 1.3632720541
| 29> H -4.1609984291 -0.4652169953 -0.0072509297
| 30> *
| 31>
| 32>                          ****END OF INPUT****

CARTESIAN COORDINATES (ANGSTROEM)
---------------------------------
  C     -2.310728   -1.002765   -0.341258
  C     -0.943723   -0.566282    0.183525
  H     -0.894941   -0.767310    1.267234
  C     -0.732020    0.952139   -0.024569
  H     -1.364550    1.303314   -0.849763
  C      0.725148    1.245970   -0.422505
  H      0.936440    2.290437   -0.140335
  C      1.660128    0.332643    0.381024
  H      2.702164    0.476679    0.069437
  C      1.327801   -1.152156    0.081463
  H      1.381081   -1.705784    1.045278
  O      0.041953   -1.331444   -0.473099
  O      2.253882   -1.632447   -0.822934
  O      1.601238    0.618514    1.754922
  O      0.833702    1.071151   -1.808739
  O     -1.011106    1.661230    1.159708
  O     -3.280961   -0.212143    0.305078
  H     -2.450819   -2.067917   -0.125437
  H     -2.325275   -0.852865   -1.427281
  H      1.926004   -2.460048   -1.208857
  H      0.740583    1.022225    1.965710
  H      1.758163    1.161260   -2.080493
  H     -1.953917    1.559080    1.363272
  H     -4.160998   -0.465217   -0.007251

 Total Charge           Charge          ....    0
 Multiplicity           Mult            ....    1
 Number of Electrons    NEL             ....   96
 Basis Dimension        Dim             ....  192

ORBITAL ENERGIES
----------------

  NO   OCC          E(Eh)            E(eV)
   0   2.0000     -18.772184      -510.8171
   1   2.0000     -18.764601      -510.6108
   2   2.0000     -18.764293      -510.6024
   3   2.0000     -18.753613      -510.3118
   4   2.0000     -18.749116      -510.1894
   5   2.0000     -18.735270      -509.8126
   6   2.0000      -9.975276      -271.4411
   7   2.0000      -9.944655      -270.6078
   8   2.0000      -9.942978      -270.5622
   9   2.0000      -9.942086      -270.5379
  10   2.0000      -9.940307      -270.4895
  11   2.0000      -9.930730      -270.2289
  12   2.0000      -0.979082       -26.6422
  13   2.0000      -0.947774       -25.7902
  14   2.0000      -0.940532       -25.5932
  15   2.0000      -0.925405       -25.1816
  16   2.0000      -0.911420       -24.8010
  17   2.0000      -0.910131       -24.7659
  18   2.0000      -0.700528       -19.0623
  19   2.0000      -0.681516       -18.5450
  20   2.0000      -0.627401       -17.0724
  21   2.0000      -0.570333       -15.5196
  22   2.0000      -0.562902       -15.3173
  23   2.0000      -0.509512       -13.8645
  24   2.0000      -0.504551       -13.7295
  25   2.0000      -0.499489       -13.5918
  26   2.0000      -0.478184       -13.0120
  27   2.0000      -0.468656       -12.7528
  28   2.0000      -0.443431       -12.0664
  29   2.0000      -0.432495       -11.7688
  30   2.0000      -0.406968       -11.0742
  31   2.0000      -0.403048       -10.9675
  32   2.0000      -0.383153       -10.4261
  33   2.0000      -0.369072       -10.0430
  34   2.0000      -0.353870        -9.6293
  35   2.0000      -0.346979        -9.4418
  36   2.0000      -0.322537        -8.7767
  37   2.0000      -0.318402        -8.6642
  38   2.0000      -0.309548        -8.4232
  39   2.0000      -0.306082        -8.3289
  40   2.0000      -0.291932        -7.9439
  41   2.0000      -0.255475        -6.9518
  42   2.0000      -0.243839        -6.6352
  43   2.0000      -0.238688        -6.4950
  44   2.0000      -0.232091        -6.3155
  45   2.0000      -0.223270        -6.0755
  46   2.0000      -0.216906        -5.9023
  47   2.0000      -0.190788        -5.1916
  48   0.0000       0.003834         0.1043
  49   0.0000       0.025797         0.7020
  50   0.0000       0.046444         1.2638
  51   0.0000       0.050884         1.3846
  52   0.0000       0.057677         1.5695

MULLIKEN ATOMIC CHARGES
-----------------------
   0 C :    0.048819
   1 C :    0.026798
   2 H :    0.051223
   3 C :    0.023217
   4 H :    0.074836
   5 C :    0.044293
   6 H :    0.079106
   7 C :   -0.019406
   8 H :    0.073465
   9 C :    0.244881
  10 H :    0.048731
  11 O :   -0.311429
  12 O :   -0.391527
  13 O :   -0.427730
  14 O :   -0.407666
  15 O :   -0.423899
  16 O :   -0.447417
  17 H :    0.083837
  18 H :    0.088159
  19 H :    0.302709
  20 H :    0.306865
  21 H :    0.303894
  22 H :    0.315203
  23 H :    0.313036
Sum of atomic charges:    0.0000000

LOEWDIN ATOMIC CHARGES
----------------------
   0 C :   -0.122202
   1 C :   -0.068298
   2 H :    0.100808
   3 C :   -0.068833
   4 H :    0.113937
   5 C :   -0.070896
   6 H :    0.105673
   7 C :   -0.087650
   8 H :    0.113199
   9 C :    0.004038
  10 H :    0.080931
  11 O :   -0.153693
  12 O :   -0.299677
  13 O :   -0.321261
  14 O :   -0.312435
  15 O :   -0.311544
  16 O :   -0.342612
  17 H :    0.102147
  18 H :    0.104534
  19 H :    0.287534
  20 H :    0.274257
  21 H :    0.288072
  22 H :    0.289523
  23 H :    0.294449

  Mayer bond orders larger than 0.100000
B(  0-C ,  1-C ) :   1.0620 B(  0-C , 16-O ) :   1.0672 B(  0-C , 17-H ) :   0.9180
B(  0-C , 18-H ) :   0.9089 B(  1-C ,  2-H ) :   0.8660 B(  1-C ,  3-C ) :   0.9868
B(  1-C , 11-O ) :   1.0548 B(  3-C ,  4-H ) :   0.8848 B(  3-C ,  5-C ) :   1.0036
B(  3-C , 15-O ) :   1.0449 B(  5-C ,  6-H ) :   0.8975 B(  5-C ,  7-C ) :   1.0322
B(  5-C , 14-O ) :   1.0757 B(  7-C ,  8-H ) :   0.8955 B(  7-C ,  9-C ) :   0.9120
B(  7-C , 13-O ) :   1.0833 B(  9-C , 10-H ) :   0.9063 B(  9-C , 11-O ) :   1.0013
B(  9-C , 12-O ) :   1.1600 B( 12-O , 19-H ) :   0.8404 B( 13-O , 20-H ) :   0.8074
B( 14-O , 21-H ) :   0.8429 B( 15-O , 20-H ) :   0.1003 B( 15-O , 22-H ) :   0.8273
B( 16-O , 23-H ) :   0.8460

Dispersion correction           -0.024949184
FINAL SINGLE POINT ENERGY      -685.691379906667

DIPOLE MOMENT
-------------

Method             : SCF
Type of density    : Electron Density
Multiplicity       :   1
Irrep              :   0
Energy             :  -685.8225836443773460 Eh
Relativity type    :
Basis              : AO
                                X                 Y                 Z
Electronic contribution:      2.156483724       0.022202772      -0.359299776
Nuclear contribution   :     -3.470422637      -0.472261302      -0.118839110
                        -----------------------------------------
Total Dipole Moment    :     -1.313938913      -0.450058530      -0.478138886
                        -----------------------------------------
Magnitude (a.u.)       :      1.468878805
Magnitude (Debye)      :      3.733593208

Rotational constants in cm-1:             0.043506             0.025595             0.021841
Rotational constants in MHz :          1304.272604           767.331035           654.762905

                             ****ORCA TERMINATED NORMALLY****
TOTAL RUN TIME: 0 days 0 hours 0 minutes 12 seconds 28 msec
