                         Program Version 6.0.0  -   RELEASE  -
|  1> ! pbe def2-sv(p) def2/J RI DEFGRID1 loosescf d4 GCP(DFT/SV(P)) printgap
|  2> %output
|  3>     printlevel normal
|  4> end
|  5> * xyz 0 1
|  6> C -2.5438685569 -0.9119637321 0.2871945736
|  7> C -1.116784726 -0.4707280849 0.6172924126
|  8> H -1.0132757155 -0.3976513089 1.7122684156
|  9> C -0.8208605477 0.9123760248 0.0215994097
| 10> H -1.0399768942 0.884477196 -1.0553339095
| 11> C 0.6591312675 1.2676885418 0.2073597357
| 12> H 0.862836271 1.3963832335 1.2833915199
| 13> C 1.5429346916 0.1342647576 -0.3149217122
| 14> H 1.3891570428 0.0223849435 -1.3986280411
| 15> C 1.1213608379 -1.1816029561 0.3563432437
| 16> H 1.295952775 -1.0923637192 1.451927331
| 17> O -0.2355811825 -1.4584351774 0.1231136859
| 18> O 1.8767000882 -2.2061260917 -0.1823477982
| 19> O 2.879091475 0.4570892602 -0.0267123375
| 20> O 0.8983231216 2.4745123503 -0.4733048131
| 21> O -1.6470199964 1.8403920398 0.6765361173
| 22> O -2.7292275846 -0.8897806044 -1.1078554609
| 23> H -3.2260233039 -0.2141206266 0.7862300081
| 24> H -2.6844491754 -1.9246564779 0.6822641187
| 25> H 1.4330336835 -3.0532880132 -0.0211759631
| 26> H 3.4452657725 -0.2826942438 -0.2923546274
| 27> H 1.8501669057 2.6538666967 -0.4545963369
| 28> H -1.4312459062 2.7234649651 0.3397328081
| 29> H -3.6259260389 -1.1920034905 -1.310141774
| 30> *
| 31>
| 32>                          ****END OF INPUT****

CARTESIAN COORDINATES (ANGSTROEM)
---------------------------------
  C     -2.543869   -0.911964    0.287195
  C     -1.116785   -0.470728    0.617292
  H     -1.013276   -0.397651    1.712268
  C     -0.820861    0.912376    0.021599
  H     -1.039977    0.884477   -1.055334
  C      0.659131    1.267689    0.207360
  H      0.862836    1.396383    1.283392
  C      1.542935    0.134265   -0.314922
  H      1.389157    0.022385   -1.398628
  C      1.121361   -1.181603    0.356343
  H      1.295953   -1.092364    1.451927
  O     -0.235581   -1.458435    0.123114
  O      1.876700   -2.206126   -0.182348
  O      2.879091    0.457089   -0.026712
  O      0.898323    2.474512   -0.473305
  O     -1.647020    1.840392    0.676536
  O     -2.729228   -0.889781   -1.107855
  H     -3.226023   -0.214121    0.786230
  H     -2.684449   -1.924656    0.682264
  H      1.433034   -3.053288   -0.021176
  H      3.445266   -0.282694   -0.292355
  H      1.850167    2.653867   -0.454596
  H     -1.431246    2.723465    0.339733
  H     -3.625926   -1.192003   -1.310142

 Total Charge           Charge          ....    0
 Multiplicity           Mult            ....    1
 Number of Electrons    NEL             ....   96
 Basis Dimension        Dim             ....  192

ORBITAL ENERGIES
----------------

  NO   OCC          E(Eh)            E(eV)
   0   2.0000     -18.768973      -510.7297
   1   2.0000     -18.764193      -510.5997
   2   2.0000     -18.755876      -510.3733
   3   2.0000     -18.749096      -510.1888
   4   2.0000     -18.747190      -510.1370
   5   2.0000     -18.745452      -510.0897
   6   2.0000      -9.984737      -271.6985
   7   2.0000      -9.944439      -270.6020
   8   2.0000      -9.935212      -270.3509
   9   2.0000      -9.935195      -270.3504
  10   2.0000      -9.932924      -270.2886
  11   2.0000      -9.930464      -270.2217
  12   2.0000      -0.985149       -26.8073
  13   2.0000      -0.941361       -25.6157
  14   2.0000      -0.933751       -25.4087
  15   2.0000      -0.921679       -25.0802
  16   2.0000      -0.912581       -24.8326
  17   2.0000      -0.910559       -24.7776
  18   2.0000      -0.700159       -19.0523
  19   2.0000      -0.691626       -18.8201
  20   2.0000      -0.614576       -16.7235
  21   2.0000      -0.577984       -15.7277
  22   2.0000      -0.551186       -14.9985
  23   2.0000      -0.521892       -14.2014
  24   2.0000      -0.512033       -13.9331
  25   2.0000      -0.477415       -12.9911
  26   2.0000      -0.476530       -12.9670
  27   2.0000      -0.454038       -12.3550
  28   2.0000      -0.442175       -12.0322
  29   2.0000      -0.433763       -11.8033
  30   2.0000      -0.406738       -11.0679
  31   2.0000      -0.404002       -10.9934
  32   2.0000      -0.386009       -10.5038
  33   2.0000      -0.371543       -10.1102
  34   2.0000      -0.355602        -9.6764
  35   2.0000      -0.348925        -9.4947
  36   2.0000      -0.321526        -8.7492
  37   2.0000      -0.316108        -8.6017
  38   2.0000      -0.300845        -8.1864
  39   2.0000      -0.294390        -8.0108
  40   2.0000      -0.281878        -7.6703
  41   2.0000      -0.267810        -7.2875
  42   2.0000      -0.246866        -6.7176
  43   2.0000      -0.238282        -6.4840
  44   2.0000      -0.223440        -6.0801
  45   2.0000      -0.218831        -5.9547
  46   2.0000      -0.211783        -5.7629
  47   2.0000      -0.202359        -5.5065
  48   0.0000       0.021495         0.5849
  49   0.0000       0.028026         0.7626
  50   0.0000       0.033906         0.9226
  51   0.0000       0.051128         1.3913
  52   0.0000       0.064175         1.7463

MULLIKEN ATOMIC CHARGES
-----------------------
   0 C :    0.075796
   1 C :    0.019755
   2 H :    0.057474
   3 C :    0.052922
   4 H :    0.075705
   5 C :    0.070111
   6 H :    0.049624
   7 C :    0.037733
   8 H :    0.062381
   9 C :    0.183816
  10 H :    0.031326
  11 O :   -0.310930
  12 O :   -0.393684
  13 O :   -0.427724
  14 O :   -0.427616
  15 O :   -0.425608
  16 O :   -0.434799
  17 H :    0.082932
  18 H :    0.073214
  19 H :    0.310924
  20 H :    0.312164
  21 H :    0.311266
  22 H :    0.310846
  23 H :    0.302370
Sum of atomic charges:    0.0000000

LOEWDIN ATOMIC CHARGES
----------------------
   0 C :   -0.122872
   1 C :   -0.055006
   2 H :    0.106930
   3 C :   -0.067083
   4 H :    0.113621
   5 C :   -0.075607
   6 H :    0.101647
   7 C :   -0.092101
   8 H :    0.109527
   9 C :   -0.002571
  10 H :    0.077195
  11 O :   -0.145091
  12 O :   -0.306175
  13 O :   -0.323345
  14 O :   -0.325612
  15 O :   -0.319138
  16 O :   -0.337052
  17 H :    0.107789
  18 H :    0.099934
  19 H :    0.293123
  20 H :    0.291776
  21 H :    0.290509
  22 H :    0.290973
  23 H :    0.288629

  Mayer bond orders larger than 0.100000
B(  0-C ,  1-C ) :   1.0682 B(  0-C , 16-O ) :   1.0910 B(  0-C , 17-H ) :   0.9060
B(  0-C , 18-H ) :   0.9124 B(  1-C ,  2-H ) :   0.8748 B(  1-C ,  3-C ) :   1.0248
B(  1-C , 11-O ) :   0.9878 B(  3-C ,  4-H ) :   0.8643 B(  3-C ,  5-C ) :   1.0343
B(  3-C , 15-O ) :   1.0551 B(  5-C ,  6-H ) :   0.8734 B(  5-C ,  7-C ) :   1.0075
B(  5-C , 14-O ) :   1.0844 B(  7-C ,  8-H ) :   0.8653 B(  7-C ,  9-C ) :   0.9925
B(  7-C , 13-O ) :   1.0635 B(  9-C , 10-H ) :   0.8821 B(  9-C , 11-O ) :   1.0235
B(  9-C , 12-O ) :   1.1565 B( 12-O , 19-H ) :   0.8361 B( 13-O , 20-H ) :   0.8375
B( 14-O , 21-H ) :   0.8365 B( 15-O , 22-H ) :   0.8381 B( 16-O , 23-H ) :   0.8503

Dispersion correction           -0.023843656
FINAL SINGLE POINT ENERGY      -685.701107490822

DIPOLE MOMENT
-------------

Method             : SCF
Type of density    : Electron Density
Multiplicity       :   1
Irrep              :   0
Energy             :  -685.8306013026177652 Eh
Relativity type    :
Basis              : AO
                                X                 Y                 Z
Electronic contribution:      2.393566406      -0.138933577      -1.397825823
Nuclear contribution   :     -2.559352490      -0.443533003       1.602339782
                        -----------------------------------------
Total Dipole Moment    :     -0.165786084      -0.582466580       0.204513959
                        -----------------------------------------
Magnitude (a.u.)       :      0.639201300
Magnitude (Debye)      :      1.624720585

Rotational constants in cm-1:             0.039692             0.026934             0.017842
Rotational constants in MHz :          1189.932604           807.473844           534.891263

                             ****ORCA TERMINATED NORMALLY****
TOTAL RUN TIME: 0 days 0 hours 0 minutes 12 seconds 14 msec
