                         Program Version 6.0.0  -   RELEASE  -
|  1> ! pbe def2-sv(p) def2/J RI DEFGRID1 loosescf d4 GCP(DFT/SV(P)) printgap
|  2> %output
|  3>     printlevel normal
|  4> end
|  5> * xyz 0 1
|  6> C -2.5536015402 -0.687802383 -0.3547245682
|  7> C -1.1837584081 -0.307289044 0.2173452567
|  8> H -1.2510746301 -0.2716039697 1.316711804
|  9> C -0.7143003192 1.0635070779 -0.3133053391
| 10> H -0.7105090138 1.0261969897 -1.4090960794
| 11> C 0.7159736287 1.3331831993 0.1955946902
| 12> H 0.698831371 1.3892171586 1.2925557951
| 13> C 1.6267145273 0.1633489385 -0.2287749371
| 14> H 1.6428589929 0.0914618655 -1.3227084928
| 15> C 1.0318387178 -1.1487706594 0.3376233245
| 16> H 1.0077440856 -1.0958956875 1.4398070959
| 17> O -0.2765744009 -1.3276105839 -0.1645549242
| 18> O 1.7758758884 -2.2649603219 0.0323854647
| 19> O 2.9639061531 0.3460735441 0.1429266925
| 20> O 1.2097834034 2.5813894645 -0.2073739033
| 21> O -1.6059083155 2.0921402811 0.0156302067
| 22> O -3.1166058114 -1.7925557908 0.3011910184
| 23> H -2.4392489866 -0.8848368112 -1.427327515
| 24> H -3.242050235 0.1467038993 -0.2128589262
| 25> H 1.7796774201 -2.4127576525 -0.9263443001
| 26> H 3.0386500476 0.4597309164 1.1009324639
| 27> H 1.2704236543 2.6250664344 -1.1719786819
| 28> H -1.5285480917 2.3169180305 0.9542626233
| 29> H -2.5185764181 -2.5474075478 0.2006575475
| 30> *
| 31>
| 32>                          ****END OF INPUT****

CARTESIAN COORDINATES (ANGSTROEM)
---------------------------------
  C     -2.553602   -0.687802   -0.354725
  C     -1.183758   -0.307289    0.217345
  H     -1.251075   -0.271604    1.316712
  C     -0.714300    1.063507   -0.313305
  H     -0.710509    1.026197   -1.409096
  C      0.715974    1.333183    0.195595
  H      0.698831    1.389217    1.292556
  C      1.626715    0.163349   -0.228775
  H      1.642859    0.091462   -1.322708
  C      1.031839   -1.148771    0.337623
  H      1.007744   -1.095896    1.439807
  O     -0.276574   -1.327611   -0.164555
  O      1.775876   -2.264960    0.032385
  O      2.963906    0.346074    0.142927
  O      1.209783    2.581389   -0.207374
  O     -1.605908    2.092140    0.015630
  O     -3.116606   -1.792556    0.301191
  H     -2.439249   -0.884837   -1.427328
  H     -3.242050    0.146704   -0.212859
  H      1.779677   -2.412758   -0.926344
  H      3.038650    0.459731    1.100932
  H      1.270424    2.625066   -1.171979
  H     -1.528548    2.316918    0.954263
  H     -2.518576   -2.547408    0.200658

 Total Charge           Charge          ....    0
 Multiplicity           Mult            ....    1
 Number of Electrons    NEL             ....   96
 Basis Dimension        Dim             ....  192

ORBITAL ENERGIES
----------------

  NO   OCC          E(Eh)            E(eV)
   0   2.0000     -18.782610      -511.1008
   1   2.0000     -18.766560      -510.6641
   2   2.0000     -18.762640      -510.5574
   3   2.0000     -18.758147      -510.4351
   4   2.0000     -18.756569      -510.3922
   5   2.0000     -18.746096      -510.1072
   6   2.0000      -9.995090      -271.9802
   7   2.0000      -9.954090      -270.8646
   8   2.0000      -9.952011      -270.8080
   9   2.0000      -9.950136      -270.7570
  10   2.0000      -9.948571      -270.7144
  11   2.0000      -9.931647      -270.2538
  12   2.0000      -0.991720       -26.9861
  13   2.0000      -0.951920       -25.9031
  14   2.0000      -0.941842       -25.6288
  15   2.0000      -0.928567       -25.2676
  16   2.0000      -0.922739       -25.1090
  17   2.0000      -0.915934       -24.9238
  18   2.0000      -0.710491       -19.3334
  19   2.0000      -0.695611       -18.9285
  20   2.0000      -0.619054       -16.8453
  21   2.0000      -0.593115       -16.1395
  22   2.0000      -0.577421       -15.7124
  23   2.0000      -0.557755       -15.1773
  24   2.0000      -0.512778       -13.9534
  25   2.0000      -0.489607       -13.3229
  26   2.0000      -0.472128       -12.8473
  27   2.0000      -0.466876       -12.7043
  28   2.0000      -0.447852       -12.1867
  29   2.0000      -0.440646       -11.9906
  30   2.0000      -0.425587       -11.5808
  31   2.0000      -0.419318       -11.4102
  32   2.0000      -0.389956       -10.6112
  33   2.0000      -0.373590       -10.1659
  34   2.0000      -0.360791        -9.8176
  35   2.0000      -0.356726        -9.7070
  36   2.0000      -0.328337        -8.9345
  37   2.0000      -0.319488        -8.6937
  38   2.0000      -0.309141        -8.4121
  39   2.0000      -0.293058        -7.9745
  40   2.0000      -0.291820        -7.9408
  41   2.0000      -0.284784        -7.7494
  42   2.0000      -0.262207        -7.1350
  43   2.0000      -0.252180        -6.8622
  44   2.0000      -0.244202        -6.6451
  45   2.0000      -0.225872        -6.1463
  46   2.0000      -0.208873        -5.6837
  47   2.0000      -0.208178        -5.6648
  48   0.0000       0.007064         0.1922
  49   0.0000       0.016568         0.4508
  50   0.0000       0.021833         0.5941
  51   0.0000       0.037339         1.0160
  52   0.0000       0.042607         1.1594

MULLIKEN ATOMIC CHARGES
-----------------------
   0 C :    0.104332
   1 C :   -0.027361
   2 H :    0.044696
   3 C :    0.056012
   4 H :    0.050940
   5 C :    0.057787
   6 H :    0.034746
   7 C :    0.043102
   8 H :    0.041125
   9 C :    0.181273
  10 H :    0.040449
  11 O :   -0.313120
  12 O :   -0.362320
  13 O :   -0.393158
  14 O :   -0.393689
  15 O :   -0.399179
  16 O :   -0.432958
  17 H :    0.067272
  18 H :    0.091840
  19 H :    0.304580
  20 H :    0.299882
  21 H :    0.301244
  22 H :    0.303019
  23 H :    0.299485
Sum of atomic charges:    0.0000000

LOEWDIN ATOMIC CHARGES
----------------------
   0 C :   -0.125464
   1 C :   -0.082929
   2 H :    0.099578
   3 C :   -0.081390
   4 H :    0.112339
   5 C :   -0.090956
   6 H :    0.103932
   7 C :   -0.102741
   8 H :    0.109185
   9 C :   -0.007582
  10 H :    0.092622
  11 O :   -0.161669
  12 O :   -0.280426
  13 O :   -0.302069
  14 O :   -0.306247
  15 O :   -0.301384
  16 O :   -0.334822
  17 H :    0.100746
  18 H :    0.120329
  19 H :    0.290367
  20 H :    0.287826
  21 H :    0.288805
  22 H :    0.288699
  23 H :    0.283249

  Mayer bond orders larger than 0.100000
B(  0-C ,  1-C ) :   1.0486 B(  0-C , 16-O ) :   1.0817 B(  0-C , 17-H ) :   0.9065
B(  0-C , 18-H ) :   0.9104 B(  1-C ,  2-H ) :   0.8685 B(  1-C ,  3-C ) :   0.9614
B(  1-C , 11-O ) :   0.9771 B(  3-C ,  4-H ) :   0.8647 B(  3-C ,  5-C ) :   0.9924
B(  3-C , 15-O ) :   1.0554 B(  5-C ,  6-H ) :   0.8631 B(  5-C ,  7-C ) :   0.9792
B(  5-C , 14-O ) :   1.0932 B(  7-C ,  8-H ) :   0.8567 B(  7-C ,  9-C ) :   0.9513
B(  7-C , 13-O ) :   1.0787 B(  9-C , 10-H ) :   0.8784 B(  9-C , 11-O ) :   0.9951
B(  9-C , 12-O ) :   1.1730 B( 12-O , 19-H ) :   0.8424 B( 13-O , 20-H ) :   0.8484
B( 14-O , 21-H ) :   0.8496 B( 15-O , 22-H ) :   0.8460 B( 16-O , 23-H ) :   0.8477

Dispersion correction           -0.023638574
FINAL SINGLE POINT ENERGY      -685.692345342193

DIPOLE MOMENT
-------------

Method             : SCF
Type of density    : Electron Density
Multiplicity       :   1
Irrep              :   0
Energy             :  -685.8209191382815106 Eh
Relativity type    :
Basis              : AO
                                X                 Y                 Z
Electronic contribution:      2.416839266      -0.731964485       0.055096110
Nuclear contribution   :     -2.098511095       0.785268752      -0.153380058
                        -----------------------------------------
Total Dipole Moment    :      0.318328170       0.053304267      -0.098283948
                        -----------------------------------------
Magnitude (a.u.)       :      0.337392803
Magnitude (Debye)      :      0.857584351

Rotational constants in cm-1:             0.039033             0.025751             0.016224
Rotational constants in MHz :          1170.184640           771.983571           486.370435

                             ****ORCA TERMINATED NORMALLY****
TOTAL RUN TIME: 0 days 0 hours 0 minutes 12 seconds 68 msec
