                         Program Version 6.0.0  -   RELEASE  -
|  1> ! wb97x-v def2-tzvp def2/J RIJCOSX DEFGRID2 scfconv7 GCP(DFT/TZ) printgap
|  2> %output
|  3>     printlevel normal
|  4> end
|  5> * xyz 0 1
|  6> C -2.577602718775918 -0.6943580384210031 -0.29773333386313816
|  7> C -1.2126493430862024 -0.29534831245791304 0.22269039919392872
|  8> H -1.2310032303895795 -0.25255776423474163 1.3251557644440493
|  9> C -0.7427991530062673 1.0523303008209899 -0.33266816329454363
| 10> H -0.7757658271167058 1.0257750382643471 -1.4286202681761186
| 11> C 0.6888055238799778 1.3179952425728487 0.12925990440016336
| 12> H 0.6797896369470752 1.4449437791767332 1.2251333242992233
| 13> C 1.6052754155572462 0.1518848037576095 -0.21452247809155708
| 14> H 1.679271566192356 0.059382975111963804 -1.3109639413176413
| 15> C 1.0190657993832375 -1.1457313163401666 0.3353909298313366
| 16> H 0.9729743097915604 -1.118547654140262 1.4340718245670239
| 17> O -0.2954549419773156 -1.3219693996978452 -0.2010281686276913
| 18> O 1.7788595208544773 -2.2728088289407355 -0.008281020861263012
| 19> O 2.9010611974662903 0.3186720064216517 0.36488428090974595
| 20> O 1.2391785668266342 2.483825476202169 -0.49368396391570635
| 21> O -1.6063295338507357 2.123463214873573 0.06258455862491558
| 22> O -3.052107759333104 -1.9033181225587212 0.3071393238447942
| 23> H -2.5333574765131153 -0.7961369512382204 -1.3917711882288224
| 24> H -3.300487035671232 0.08582406131494708 -0.04872491352989702
| 25> H 1.9750712853764547 -2.2305758160862648 -0.9562077691998682
| 26> H 3.248426108663651 1.163905707594666 0.04944179108877174
| 27> H 0.7090791133984157 3.2396183087263934 -0.20748607343434333
| 28> H -1.60908044020546 2.157418470328833 1.0305608514367341
| 29> H -2.4326729180138758 -2.6049670557100715 0.0670712691551549
| 30> *
| 31>
| 32>                          ****END OF INPUT****

CARTESIAN COORDINATES (ANGSTROEM)
---------------------------------
  C     -2.577603   -0.694358   -0.297733
  C     -1.212649   -0.295348    0.222690
  H     -1.231003   -0.252558    1.325156
  C     -0.742799    1.052330   -0.332668
  H     -0.775766    1.025775   -1.428620
  C      0.688806    1.317995    0.129260
  H      0.679790    1.444944    1.225133
  C      1.605275    0.151885   -0.214522
  H      1.679272    0.059383   -1.310964
  C      1.019066   -1.145731    0.335391
  H      0.972974   -1.118548    1.434072
  O     -0.295455   -1.321969   -0.201028
  O      1.778860   -2.272809   -0.008281
  O      2.901061    0.318672    0.364884
  O      1.239179    2.483825   -0.493684
  O     -1.606330    2.123463    0.062585
  O     -3.052108   -1.903318    0.307139
  H     -2.533357   -0.796137   -1.391771
  H     -3.300487    0.085824   -0.048725
  H      1.975071   -2.230576   -0.956208
  H      3.248426    1.163906    0.049442
  H      0.709079    3.239618   -0.207486
  H     -1.609080    2.157418    1.030561
  H     -2.432673   -2.604967    0.067071

 Total Charge           Charge          ....    0
 Multiplicity           Mult            ....    1
 Number of Electrons    NEL             ....   96
 Basis Dimension        Dim             ....  444

ORBITAL ENERGIES
----------------

  NO   OCC          E(Eh)            E(eV)
   0   2.0000     -21.703762      -590.5894
   1   2.0000     -21.698514      -590.4466
   2   2.0000     -21.696781      -590.3994
   3   2.0000     -21.690499      -590.2285
   4   2.0000     -21.684907      -590.0763
   5   2.0000     -21.674072      -589.7815
   6   2.0000     -12.162552      -330.9599
   7   2.0000     -12.122625      -329.8734
   8   2.0000     -12.120841      -329.8249
   9   2.0000     -12.118471      -329.7604
  10   2.0000     -12.117896      -329.7447
  11   2.0000     -12.100973      -329.2842
  12   2.0000      -1.727073       -46.9960
  13   2.0000      -1.707685       -46.4685
  14   2.0000      -1.698479       -46.2180
  15   2.0000      -1.686859       -45.9018
  16   2.0000      -1.683303       -45.8050
  17   2.0000      -1.673263       -45.5318
  18   2.0000      -1.348059       -36.6826
  19   2.0000      -1.330221       -36.1971
  20   2.0000      -1.241720       -33.7889
  21   2.0000      -1.211255       -32.9599
  22   2.0000      -1.174869       -31.9698
  23   2.0000      -1.140464       -31.0336
  24   2.0000      -1.102051       -29.9883
  25   2.0000      -1.074583       -29.2409
  26   2.0000      -1.051913       -28.6240
  27   2.0000      -1.046901       -28.4876
  28   2.0000      -1.036591       -28.2071
  29   2.0000      -1.023760       -27.8579
  30   2.0000      -1.005162       -27.3519
  31   2.0000      -0.992678       -27.0121
  32   2.0000      -0.989708       -26.9313
  33   2.0000      -0.973641       -26.4941
  34   2.0000      -0.961191       -26.1553
  35   2.0000      -0.953983       -25.9592
  36   2.0000      -0.947074       -25.7712
  37   2.0000      -0.938315       -25.5328
  38   2.0000      -0.931374       -25.3440
  39   2.0000      -0.920479       -25.0475
  40   2.0000      -0.906499       -24.6671
  41   2.0000      -0.896300       -24.3896
  42   2.0000      -0.851932       -23.1822
  43   2.0000      -0.840790       -22.8791
  44   2.0000      -0.832555       -22.6550
  45   2.0000      -0.817743       -22.2519
  46   2.0000      -0.802596       -21.8398
  47   2.0000      -0.783600       -21.3228
  48   0.0000      -0.251840        -6.8529
  49   0.0000      -0.204899        -5.5756
  50   0.0000      -0.184800        -5.0287
  51   0.0000      -0.165685        -4.5085
  52   0.0000      -0.128846        -3.5061

MULLIKEN ATOMIC CHARGES
-----------------------
   0 C :    0.011216
   1 C :   -0.008472
   2 H :    0.078883
   3 C :    0.022370
   4 H :    0.093453
   5 C :    0.019380
   6 H :    0.084417
   7 C :    0.063529
   8 H :    0.078423
   9 C :    0.123683
  10 H :    0.080914
  11 O :   -0.266606
  12 O :   -0.389257
  13 O :   -0.418663
  14 O :   -0.445951
  15 O :   -0.433736
  16 O :   -0.450592
  17 H :    0.093439
  18 H :    0.108106
  19 H :    0.306410
  20 H :    0.316383
  21 H :    0.316952
  22 H :    0.303117
  23 H :    0.312601
Sum of atomic charges:    0.0000000

LOEWDIN ATOMIC CHARGES
----------------------
   0 C :   -0.307987
   1 C :   -0.311180
   2 H :    0.140066
   3 C :   -0.306464
   4 H :    0.153410
   5 C :   -0.322833
   6 H :    0.140556
   7 C :   -0.317217
   8 H :    0.141470
   9 C :   -0.398467
  10 H :    0.135603
  11 O :    0.181497
  12 O :    0.021300
  13 O :   -0.005595
  14 O :   -0.016381
  15 O :   -0.010915
  16 O :   -0.049204
  17 H :    0.122547
  18 H :    0.133765
  19 H :    0.178333
  20 H :    0.176705
  21 H :    0.175821
  22 H :    0.172916
  23 H :    0.172255

  Mayer bond orders larger than 0.100000
B(  0-C ,  1-C ) :   0.9826 B(  0-C , 16-O ) :   1.0265 B(  0-C , 17-H ) :   0.9709
B(  0-C , 18-H ) :   0.9611 B(  1-C ,  2-H ) :   0.9504 B(  1-C ,  3-C ) :   0.9520
B(  1-C , 11-O ) :   0.9650 B(  3-C ,  4-H ) :   0.9270 B(  3-C ,  5-C ) :   0.9857
B(  3-C , 15-O ) :   0.9998 B(  5-C ,  6-H ) :   0.9668 B(  5-C ,  7-C ) :   0.9570
B(  5-C , 14-O ) :   1.0712 B(  7-C ,  8-H ) :   0.9496 B(  7-C ,  9-C ) :   0.9651
B(  7-C , 13-O ) :   1.1137 B(  9-C , 10-H ) :   0.9737 B(  9-C , 11-O ) :   1.0205
B(  9-C , 12-O ) :   1.1649 B( 12-O , 19-H ) :   0.8881 B( 13-O , 20-H ) :   0.8850
B( 14-O , 21-H ) :   0.8857 B( 15-O , 22-H ) :   0.8900 B( 16-O , 23-H ) :   0.8911

FINAL SINGLE POINT ENERGY      -687.246117207561

DIPOLE MOMENT
-------------

Method             : SCF
Type of density    : Electron Density
Multiplicity       :   1
Irrep              :   0
Energy             :  -687.2648945168610908 Eh
Relativity type    :
Basis              : AO
                                X                 Y                 Z
Electronic contribution:      2.411172885      -1.167187795      -0.021345768
Nuclear contribution   :     -2.325208526       2.177119290      -0.097910410
                        -----------------------------------------
Total Dipole Moment    :      0.085964359       1.009931495      -0.119256178
                        -----------------------------------------
Magnitude (a.u.)       :      1.020575098
Magnitude (Debye)      :      2.594095744

Rotational constants in cm-1:             0.038706             0.025934             0.016283
Rotational constants in MHz :          1160.376102           777.483763           488.164567

                             ****ORCA TERMINATED NORMALLY****
TOTAL RUN TIME: 0 days 0 hours 4 minutes 45 seconds 998 msec
