                         Program Version 6.0.0  -   RELEASE  -
|  1> ! wb97x-v def2-tzvp def2/J RIJCOSX DEFGRID2 scfconv7 GCP(DFT/TZ) printgap
|  2> %output
|  3>     printlevel normal
|  4> end
|  5> %cpcm
|  6>     smd true
|  7>     smdsolvent "water"
|  8> end
|  9> * xyz 0 1
| 10> C -2.577602718775918 -0.6943580384210031 -0.29773333386313816
| 11> C -1.2126493430862024 -0.29534831245791304 0.22269039919392872
| 12> H -1.2310032303895795 -0.25255776423474163 1.3251557644440493
| 13> C -0.7427991530062673 1.0523303008209899 -0.33266816329454363
| 14> H -0.7757658271167058 1.0257750382643471 -1.4286202681761186
| 15> C 0.6888055238799778 1.3179952425728487 0.12925990440016336
| 16> H 0.6797896369470752 1.4449437791767332 1.2251333242992233
| 17> C 1.6052754155572462 0.1518848037576095 -0.21452247809155708
| 18> H 1.679271566192356 0.059382975111963804 -1.3109639413176413
| 19> C 1.0190657993832375 -1.1457313163401666 0.3353909298313366
| 20> H 0.9729743097915604 -1.118547654140262 1.4340718245670239
| 21> O -0.2954549419773156 -1.3219693996978452 -0.2010281686276913
| 22> O 1.7788595208544773 -2.2728088289407355 -0.008281020861263012
| 23> O 2.9010611974662903 0.3186720064216517 0.36488428090974595
| 24> O 1.2391785668266342 2.483825476202169 -0.49368396391570635
| 25> O -1.6063295338507357 2.123463214873573 0.06258455862491558
| 26> O -3.052107759333104 -1.9033181225587212 0.3071393238447942
| 27> H -2.5333574765131153 -0.7961369512382204 -1.3917711882288224
| 28> H -3.300487035671232 0.08582406131494708 -0.04872491352989702
| 29> H 1.9750712853764547 -2.2305758160862648 -0.9562077691998682
| 30> H 3.248426108663651 1.163905707594666 0.04944179108877174
| 31> H 0.7090791133984157 3.2396183087263934 -0.20748607343434333
| 32> H -1.60908044020546 2.157418470328833 1.0305608514367341
| 33> H -2.4326729180138758 -2.6049670557100715 0.0670712691551549
| 34> *
| 35>
| 36>                          ****END OF INPUT****

CARTESIAN COORDINATES (ANGSTROEM)
---------------------------------
  C     -2.577603   -0.694358   -0.297733
  C     -1.212649   -0.295348    0.222690
  H     -1.231003   -0.252558    1.325156
  C     -0.742799    1.052330   -0.332668
  H     -0.775766    1.025775   -1.428620
  C      0.688806    1.317995    0.129260
  H      0.679790    1.444944    1.225133
  C      1.605275    0.151885   -0.214522
  H      1.679272    0.059383   -1.310964
  C      1.019066   -1.145731    0.335391
  H      0.972974   -1.118548    1.434072
  O     -0.295455   -1.321969   -0.201028
  O      1.778860   -2.272809   -0.008281
  O      2.901061    0.318672    0.364884
  O      1.239179    2.483825   -0.493684
  O     -1.606330    2.123463    0.062585
  O     -3.052108   -1.903318    0.307139
  H     -2.533357   -0.796137   -1.391771
  H     -3.300487    0.085824   -0.048725
  H      1.975071   -2.230576   -0.956208
  H      3.248426    1.163906    0.049442
  H      0.709079    3.239618   -0.207486
  H     -1.609080    2.157418    1.030561
  H     -2.432673   -2.604967    0.067071

 Total Charge           Charge          ....    0
 Multiplicity           Mult            ....    1
 Number of Electrons    NEL             ....   96
 Basis Dimension        Dim             ....  444

ORBITAL ENERGIES
----------------

  NO   OCC          E(Eh)            E(eV)
   0   2.0000     -21.692126      -590.2728
   1   2.0000     -21.691366      -590.2521
   2   2.0000     -21.684434      -590.0635
   3   2.0000     -21.682652      -590.0150
   4   2.0000     -21.682282      -590.0049
   5   2.0000     -21.677284      -589.8689
   6   2.0000     -12.153929      -330.7252
   7   2.0000     -12.104724      -329.3863
   8   2.0000     -12.103640      -329.3568
   9   2.0000     -12.102867      -329.3357
  10   2.0000     -12.101772      -329.3060
  11   2.0000     -12.091043      -329.0140
  12   2.0000      -1.723738       -46.9053
  13   2.0000      -1.691346       -46.0239
  14   2.0000      -1.686957       -45.9044
  15   2.0000      -1.681672       -45.7606
  16   2.0000      -1.679162       -45.6923
  17   2.0000      -1.675610       -45.5957
  18   2.0000      -1.331768       -36.2392
  19   2.0000      -1.319879       -35.9157
  20   2.0000      -1.232158       -33.5287
  21   2.0000      -1.199649       -32.6441
  22   2.0000      -1.166890       -31.7527
  23   2.0000      -1.131315       -30.7846
  24   2.0000      -1.092957       -29.7409
  25   2.0000      -1.063065       -28.9275
  26   2.0000      -1.044550       -28.4237
  27   2.0000      -1.040641       -28.3173
  28   2.0000      -1.027279       -27.9537
  29   2.0000      -1.019382       -27.7388
  30   2.0000      -0.999782       -27.2055
  31   2.0000      -0.983232       -26.7551
  32   2.0000      -0.977535       -26.6001
  33   2.0000      -0.966535       -26.3008
  34   2.0000      -0.960409       -26.1341
  35   2.0000      -0.952199       -25.9107
  36   2.0000      -0.939211       -25.5572
  37   2.0000      -0.932731       -25.3809
  38   2.0000      -0.924771       -25.1643
  39   2.0000      -0.914104       -24.8740
  40   2.0000      -0.898177       -24.4406
  41   2.0000      -0.892400       -24.2834
  42   2.0000      -0.842433       -22.9238
  43   2.0000      -0.830267       -22.5927
  44   2.0000      -0.821322       -22.3493
  45   2.0000      -0.804162       -21.8824
  46   2.0000      -0.789833       -21.4925
  47   2.0000      -0.767728       -20.8910
  48   0.0000      -0.237795        -6.4707
  49   0.0000      -0.192567        -5.2400
  50   0.0000      -0.173917        -4.7325
  51   0.0000      -0.154097        -4.1932
  52   0.0000      -0.117827        -3.2062

MULLIKEN ATOMIC CHARGES
-----------------------
   0 C :   -0.010303
   1 C :    0.010298
   2 H :    0.114599
   3 C :    0.050293
   4 H :    0.116207
   5 C :    0.053057
   6 H :    0.115003
   7 C :    0.065521
   8 H :    0.111292
   9 C :    0.147338
  10 H :    0.118112
  11 O :   -0.328826
  12 O :   -0.496166
  13 O :   -0.520503
  14 O :   -0.528385
  15 O :   -0.530255
  16 O :   -0.549869
  17 H :    0.119986
  18 H :    0.126428
  19 H :    0.369742
  20 H :    0.362368
  21 H :    0.362498
  22 H :    0.363808
  23 H :    0.357759
Sum of atomic charges:    0.0000000

LOEWDIN ATOMIC CHARGES
----------------------
   0 C :   -0.307458
   1 C :   -0.299440
   2 H :    0.153860
   3 C :   -0.299516
   4 H :    0.157744
   5 C :   -0.310142
   6 H :    0.154614
   7 C :   -0.310808
   8 H :    0.153112
   9 C :   -0.400970
  10 H :    0.144117
  11 O :    0.162814
  12 O :   -0.018638
  13 O :   -0.043100
  14 O :   -0.043627
  15 O :   -0.039669
  16 O :   -0.088627
  17 H :    0.129624
  18 H :    0.136821
  19 H :    0.200623
  20 H :    0.191950
  21 H :    0.191823
  22 H :    0.198313
  23 H :    0.186580

  Mayer bond orders larger than 0.100000
B(  0-C ,  1-C ) :   0.9662 B(  0-C , 16-O ) :   0.9799 B(  0-C , 17-H ) :   0.9712
B(  0-C , 18-H ) :   0.9654 B(  1-C ,  2-H ) :   0.9520 B(  1-C ,  3-C ) :   0.9753
B(  1-C , 11-O ) :   0.9375 B(  3-C ,  4-H ) :   0.9279 B(  3-C ,  5-C ) :   0.9965
B(  3-C , 15-O ) :   0.9838 B(  5-C ,  6-H ) :   0.9597 B(  5-C ,  7-C ) :   0.9799
B(  5-C , 14-O ) :   1.0362 B(  7-C ,  8-H ) :   0.9531 B(  7-C ,  9-C ) :   0.9758
B(  7-C , 13-O ) :   1.0492 B(  9-C , 10-H ) :   0.9700 B(  9-C , 11-O ) :   1.0089
B(  9-C , 12-O ) :   1.1170 B( 12-O , 19-H ) :   0.8496 B( 13-O , 20-H ) :   0.8574
B( 14-O , 21-H ) :   0.8587 B( 15-O , 22-H ) :   0.8579 B( 16-O , 23-H ) :   0.8637

FINAL SINGLE POINT ENERGY      -687.287575207077

DIPOLE MOMENT
-------------

Method             : SCF
Type of density    : Electron Density
Multiplicity       :   1
Irrep              :   0
Energy             :  -687.3063525163775012 Eh
Relativity type    :
Basis              : AO
                                X                 Y                 Z
Electronic contribution:      2.354283910      -0.768011448       0.033906253
Nuclear contribution   :     -2.325208526       2.177119290      -0.097910410
                        -----------------------------------------
Total Dipole Moment    :      0.029075384       1.409107842      -0.064004157
                        -----------------------------------------
Magnitude (a.u.)       :      1.410860312
Magnitude (Debye)      :      3.586121919

Rotational constants in cm-1:             0.038706             0.025934             0.016283
Rotational constants in MHz :          1160.376102           777.483763           488.164567

                             ****ORCA TERMINATED NORMALLY****
TOTAL RUN TIME: 0 days 0 hours 5 minutes 23 seconds 160 msec
