                         Program Version 6.0.0  -   RELEASE  -
|  1> ! wb97x-v def2-tzvp def2/J RIJCOSX DEFGRID2 scfconv7 GCP(DFT/TZ) printgap
|  2> %output
|  3>     printlevel normal
|  4> end
|  5> * xyz 0 1
|  6> C 4.453702141719181 -0.3691536513842243 -0.0775743754906041
|  7> C 3.725929340388986 -0.5165233660302078 -1.256175500264816
|  8> C 2.3607909988671154 -0.24585672558185642 -1.2729151292377268
|  9> C 1.7435154441787588 0.17528360277024282 -0.10146615535572168
| 10> C 2.4547552670430504 0.3251923609734706 1.0827387720982062
| 11> C 3.819593064081602 0.05205818849920715 1.0889545102512492
| 12> N 0.32879551991006534 0.4569613408195435 -0.11349273918535673
| 13> C -0.5620847573866038 -0.5994107832649257 0.1524175164357634
| 14> O -0.12159832445630124 -1.7370123321922095 0.3900180473130934
| 15> C -1.9323486060736852 -0.21292598641056862 0.11529596849590268
| 16> C -2.3293444452087737 1.0857803059532445 -0.15577283809177525
| 17> C -1.2760306443343674 2.0260339222204826 -0.3957610728500721
| 18> N -0.011246154643404315 1.724368578311609 -0.3755577372717431
| 19> N -3.6041959774602668 1.5028288217352517 -0.20407738660963246
| 20> Cl -3.1240078259446835 -1.443298550597964 0.429365861197095
| 21> H 5.517333290131013 -0.583386427830842 -0.06818673365861531
| 22> H 4.21994487821925 -0.8432259565936293 -2.1652026079673523
| 23> H 1.7787561877028373 -0.35929854556426954 -2.1814797090022537
| 24> H 1.944919694763759 0.6489639538418278 1.9841155651230076
| 25> H 4.386276910823164 0.16693852047547938 2.0069371524827218
| 26> H -1.5202659626607795 3.061745309544195 -0.6116800037311151
| 27> H -3.80827385353743 2.467840538969991 -0.40846022002456855
| 28> H -4.370511984711322 0.8681981446055335 -0.04800812933557794
| 29> *
| 30>
| 31>                          ****END OF INPUT****

CARTESIAN COORDINATES (ANGSTROEM)
---------------------------------
  C      4.453702   -0.369154   -0.077574
  C      3.725929   -0.516523   -1.256176
  C      2.360791   -0.245857   -1.272915
  C      1.743515    0.175284   -0.101466
  C      2.454755    0.325192    1.082739
  C      3.819593    0.052058    1.088955
  N      0.328796    0.456961   -0.113493
  C     -0.562085   -0.599411    0.152418
  O     -0.121598   -1.737012    0.390018
  C     -1.932349   -0.212926    0.115296
  C     -2.329344    1.085780   -0.155773
  C     -1.276031    2.026034   -0.395761
  N     -0.011246    1.724369   -0.375558
  N     -3.604196    1.502829   -0.204077
  Cl    -3.124008   -1.443299    0.429366
  H      5.517333   -0.583386   -0.068187
  H      4.219945   -0.843226   -2.165203
  H      1.778756   -0.359299   -2.181480
  H      1.944920    0.648964    1.984116
  H      4.386277    0.166939    2.006937
  H     -1.520266    3.061745   -0.611680
  H     -3.808274    2.467841   -0.408460
  H     -4.370512    0.868198   -0.048008

 Total Charge           Charge          ....    0
 Multiplicity           Mult            ....    1
 Number of Electrons    NEL             ....  114
 Basis Dimension        Dim             ....  519

ORBITAL ENERGIES
----------------

  NO   OCC          E(Eh)            E(eV)
   0   2.0000    -107.151508     -2915.7408
   1   2.0000     -21.626221      -588.4794
   2   2.0000     -16.616132      -452.1479
   3   2.0000     -16.596591      -451.6162
   4   2.0000     -16.575562      -451.0440
   5   2.0000     -12.158360      -330.8458
   6   2.0000     -12.142444      -330.4127
   7   2.0000     -12.114760      -329.6594
   8   2.0000     -12.107568      -329.4637
   9   2.0000     -12.095984      -329.1484
  10   2.0000     -12.059950      -328.1679
  11   2.0000     -12.059460      -328.1546
  12   2.0000     -12.058301      -328.1231
  13   2.0000     -12.057075      -328.0897
  14   2.0000     -12.055561      -328.0485
  15   2.0000     -11.304169      -307.6021
  16   2.0000      -9.095868      -247.5112
  17   2.0000      -9.093075      -247.4351
  18   2.0000      -9.093019      -247.4336
  19   2.0000      -1.685857       -45.8745
  20   2.0000      -1.649269       -44.8789
  21   2.0000      -1.548181       -42.1281
  22   2.0000      -1.457583       -39.6628
  23   2.0000      -1.431556       -38.9546
  24   2.0000      -1.385816       -37.7100
  25   2.0000      -1.337047       -36.3829
  26   2.0000      -1.289393       -35.0862
  27   2.0000      -1.282949       -34.9108
  28   2.0000      -1.222676       -33.2707
  29   2.0000      -1.207966       -32.8704
  30   2.0000      -1.136477       -30.9251
  31   2.0000      -1.121075       -30.5060
  32   2.0000      -1.103953       -30.0401
  33   2.0000      -1.077735       -29.3266
  34   2.0000      -1.048871       -28.5412
  35   2.0000      -1.023993       -27.8643
  36   2.0000      -1.004876       -27.3441
  37   2.0000      -0.978954       -26.6387
  38   2.0000      -0.963213       -26.2103
  39   2.0000      -0.947326       -25.7781
  40   2.0000      -0.932742       -25.3812
  41   2.0000      -0.922316       -25.0975
  42   2.0000      -0.903502       -24.5855
  43   2.0000      -0.883795       -24.0493
  44   2.0000      -0.875401       -23.8209
  45   2.0000      -0.866662       -23.5831
  46   2.0000      -0.862464       -23.4688
  47   2.0000      -0.837177       -22.7807
  48   2.0000      -0.819795       -22.3078
  49   2.0000      -0.817847       -22.2547
  50   2.0000      -0.813053       -22.1243
  51   2.0000      -0.798784       -21.7360
  52   2.0000      -0.781427       -21.2637
  53   2.0000      -0.730232       -19.8706
  54   2.0000      -0.680639       -18.5211
  55   2.0000      -0.655120       -17.8267
  56   2.0000      -0.644725       -17.5439
  57   0.0000      -0.366848        -9.9824
  58   0.0000      -0.293637        -7.9903
  59   0.0000      -0.279468        -7.6047
  60   0.0000      -0.254479        -6.9247
  61   0.0000      -0.241553        -6.5730

MULLIKEN ATOMIC CHARGES
-----------------------
   0 C :   -0.116077
   1 C :   -0.078009
   2 C :   -0.236957
   3 C :    0.311550
   4 C :   -0.239269
   5 C :   -0.078999
   6 N :    0.065263
   7 C :    0.187996
   8 O :   -0.382194
   9 C :   -0.057617
  10 C :    0.246109
  11 C :   -0.186443
  12 N :   -0.135583
  13 N :   -0.432978
  14 Cl:   -0.081509
  15 H :    0.120593
  16 H :    0.119846
  17 H :    0.119689
  18 H :    0.119941
  19 H :    0.119858
  20 H :    0.119843
  21 H :    0.243718
  22 H :    0.251230
Sum of atomic charges:    0.0000000

LOEWDIN ATOMIC CHARGES
----------------------
   0 C :   -0.131588
   1 C :   -0.129169
   2 C :   -0.089872
   3 C :   -0.155528
   4 C :   -0.090397
   5 C :   -0.129338
   6 N :    0.223335
   7 C :   -0.416337
   8 O :    0.041007
   9 C :   -0.406622
  10 C :   -0.266252
  11 C :   -0.221955
  12 N :    0.128969
  13 N :    0.022946
  14 Cl:    0.408475
  15 H :    0.142924
  16 H :    0.143576
  17 H :    0.149815
  18 H :    0.149654
  19 H :    0.143542
  20 H :    0.140825
  21 H :    0.173347
  22 H :    0.168639

  Mayer bond orders larger than 0.100000
B(  0-C ,  1-C ) :   1.4152 B(  0-C ,  5-C ) :   1.4150 B(  0-C , 15-H ) :   0.9694
B(  1-C ,  2-C ) :   1.4467 B(  1-C , 16-H ) :   0.9725 B(  2-C ,  3-C ) :   1.4348
B(  2-C , 17-H ) :   0.9673 B(  3-C ,  4-C ) :   1.4344 B(  3-C ,  6-N ) :   0.7971
B(  4-C ,  5-C ) :   1.4457 B(  4-C , 18-H ) :   0.9676 B(  5-C , 19-H ) :   0.9726
B(  6-N ,  7-C ) :   1.1289 B(  6-N , 12-N ) :   1.0251 B(  7-C ,  8-O ) :   2.0969
B(  7-C ,  9-C ) :   1.1267 B(  9-C , 10-C ) :   1.4540 B(  9-C , 14-Cl) :   1.0839
B( 10-C , 11-C ) :   1.0761 B( 10-C , 13-N ) :   1.2380 B( 11-C , 12-N ) :   1.8083
B( 11-C , 20-H ) :   1.0017 B( 13-N , 21-H ) :   0.9168 B( 13-N , 22-H ) :   0.9011

FINAL SINGLE POINT ENERGY     -1085.523641041773

DIPOLE MOMENT
-------------

Method             : SCF
Type of density    : Electron Density
Multiplicity       :   1
Irrep              :   0
Energy             : -1085.5361550384727707 Eh
Relativity type    :
Basis              : AO
                                X                 Y                 Z
Electronic contribution:    -12.711363578      -5.216801152       1.602278127
Nuclear contribution   :     11.842327920       7.058107339      -1.985183219
                        -----------------------------------------
Total Dipole Moment    :     -0.869035659       1.841306187      -0.382905092
                        -----------------------------------------
Magnitude (a.u.)       :      2.071774061
Magnitude (Debye)      :      5.266031164

Rotational constants in cm-1:             0.043289             0.010399             0.009198
Rotational constants in MHz :          1297.771784           311.761510           275.754041

                             ****ORCA TERMINATED NORMALLY****
TOTAL RUN TIME: 0 days 0 hours 7 minutes 40 seconds 688 msec
