                         Program Version 6.0.0  -   RELEASE  -
|  1> ! wb97x-v def2-tzvp def2/J RIJCOSX DEFGRID2 scfconv7 GCP(DFT/TZ) printgap
|  2> %output
|  3>     printlevel normal
|  4> end
|  5> %cpcm
|  6>     smd true
|  7>     smdsolvent "water"
|  8> end
|  9> * xyz 0 1
| 10> C 4.453702141719181 -0.3691536513842243 -0.0775743754906041
| 11> C 3.725929340388986 -0.5165233660302078 -1.256175500264816
| 12> C 2.3607909988671154 -0.24585672558185642 -1.2729151292377268
| 13> C 1.7435154441787588 0.17528360277024282 -0.10146615535572168
| 14> C 2.4547552670430504 0.3251923609734706 1.0827387720982062
| 15> C 3.819593064081602 0.05205818849920715 1.0889545102512492
| 16> N 0.32879551991006534 0.4569613408195435 -0.11349273918535673
| 17> C -0.5620847573866038 -0.5994107832649257 0.1524175164357634
| 18> O -0.12159832445630124 -1.7370123321922095 0.3900180473130934
| 19> C -1.9323486060736852 -0.21292598641056862 0.11529596849590268
| 20> C -2.3293444452087737 1.0857803059532445 -0.15577283809177525
| 21> C -1.2760306443343674 2.0260339222204826 -0.3957610728500721
| 22> N -0.011246154643404315 1.724368578311609 -0.3755577372717431
| 23> N -3.6041959774602668 1.5028288217352517 -0.20407738660963246
| 24> Cl -3.1240078259446835 -1.443298550597964 0.429365861197095
| 25> H 5.517333290131013 -0.583386427830842 -0.06818673365861531
| 26> H 4.21994487821925 -0.8432259565936293 -2.1652026079673523
| 27> H 1.7787561877028373 -0.35929854556426954 -2.1814797090022537
| 28> H 1.944919694763759 0.6489639538418278 1.9841155651230076
| 29> H 4.386276910823164 0.16693852047547938 2.0069371524827218
| 30> H -1.5202659626607795 3.061745309544195 -0.6116800037311151
| 31> H -3.80827385353743 2.467840538969991 -0.40846022002456855
| 32> H -4.370511984711322 0.8681981446055335 -0.04800812933557794
| 33> *
| 34>
| 35>                          ****END OF INPUT****

CARTESIAN COORDINATES (ANGSTROEM)
---------------------------------
  C      4.453702   -0.369154   -0.077574
  C      3.725929   -0.516523   -1.256176
  C      2.360791   -0.245857   -1.272915
  C      1.743515    0.175284   -0.101466
  C      2.454755    0.325192    1.082739
  C      3.819593    0.052058    1.088955
  N      0.328796    0.456961   -0.113493
  C     -0.562085   -0.599411    0.152418
  O     -0.121598   -1.737012    0.390018
  C     -1.932349   -0.212926    0.115296
  C     -2.329344    1.085780   -0.155773
  C     -1.276031    2.026034   -0.395761
  N     -0.011246    1.724369   -0.375558
  N     -3.604196    1.502829   -0.204077
  Cl    -3.124008   -1.443299    0.429366
  H      5.517333   -0.583386   -0.068187
  H      4.219945   -0.843226   -2.165203
  H      1.778756   -0.359299   -2.181480
  H      1.944920    0.648964    1.984116
  H      4.386277    0.166939    2.006937
  H     -1.520266    3.061745   -0.611680
  H     -3.808274    2.467841   -0.408460
  H     -4.370512    0.868198   -0.048008

 Total Charge           Charge          ....    0
 Multiplicity           Mult            ....    1
 Number of Electrons    NEL             ....  114
 Basis Dimension        Dim             ....  519

ORBITAL ENERGIES
----------------

  NO   OCC          E(Eh)            E(eV)
   0   2.0000    -107.156877     -2915.8869
   1   2.0000     -21.648186      -589.0771
   2   2.0000     -16.619543      -452.2408
   3   2.0000     -16.595350      -451.5824
   4   2.0000     -16.556931      -450.5370
   5   2.0000     -12.172783      -331.2383
   6   2.0000     -12.138632      -330.3090
   7   2.0000     -12.114244      -329.6453
   8   2.0000     -12.101726      -329.3047
   9   2.0000     -12.098874      -329.2271
  10   2.0000     -12.060284      -328.1770
  11   2.0000     -12.059773      -328.1631
  12   2.0000     -12.057649      -328.1053
  13   2.0000     -12.056554      -328.0755
  14   2.0000     -12.054813      -328.0281
  15   2.0000     -11.309696      -307.7525
  16   2.0000      -9.101386      -247.6613
  17   2.0000      -9.098624      -247.5862
  18   2.0000      -9.098592      -247.5853
  19   2.0000      -1.706129       -46.4261
  20   2.0000      -1.655447       -45.0470
  21   2.0000      -1.531888       -41.6848
  22   2.0000      -1.458634       -39.6914
  23   2.0000      -1.435546       -39.0632
  24   2.0000      -1.388074       -37.7714
  25   2.0000      -1.336929       -36.3797
  26   2.0000      -1.290119       -35.1059
  27   2.0000      -1.284167       -34.9440
  28   2.0000      -1.222712       -33.2717
  29   2.0000      -1.206262       -32.8241
  30   2.0000      -1.135738       -30.9050
  31   2.0000      -1.121605       -30.5204
  32   2.0000      -1.098134       -29.8818
  33   2.0000      -1.076288       -29.2873
  34   2.0000      -1.050747       -28.5923
  35   2.0000      -1.031516       -28.0690
  36   2.0000      -0.998517       -27.1710
  37   2.0000      -0.981022       -26.6950
  38   2.0000      -0.961282       -26.1578
  39   2.0000      -0.947514       -25.7832
  40   2.0000      -0.939114       -25.5546
  41   2.0000      -0.919889       -25.0315
  42   2.0000      -0.901530       -24.5319
  43   2.0000      -0.896673       -24.3997
  44   2.0000      -0.882003       -24.0005
  45   2.0000      -0.878964       -23.9178
  46   2.0000      -0.855405       -23.2767
  47   2.0000      -0.835757       -22.7421
  48   2.0000      -0.824834       -22.4449
  49   2.0000      -0.817199       -22.2371
  50   2.0000      -0.814426       -22.1617
  51   2.0000      -0.805423       -21.9167
  52   2.0000      -0.785811       -21.3830
  53   2.0000      -0.730219       -19.8703
  54   2.0000      -0.680500       -18.5173
  55   2.0000      -0.659003       -17.9324
  56   2.0000      -0.647452       -17.6181
  57   0.0000      -0.364985        -9.9317
  58   0.0000      -0.293999        -8.0001
  59   0.0000      -0.282623        -7.6906
  60   0.0000      -0.257400        -7.0042
  61   0.0000      -0.244045        -6.6408

MULLIKEN ATOMIC CHARGES
-----------------------
   0 C :   -0.153185
   1 C :   -0.109264
   2 C :   -0.282138
   3 C :    0.228360
   4 C :   -0.282417
   5 C :   -0.110292
   6 N :    0.127683
   7 C :    0.264349
   8 O :   -0.549636
   9 C :   -0.079557
  10 C :    0.225748
  11 C :   -0.167765
  12 N :   -0.183472
  13 N :   -0.434128
  14 Cl:   -0.104329
  15 H :    0.165906
  16 H :    0.165416
  17 H :    0.167991
  18 H :    0.168142
  19 H :    0.165460
  20 H :    0.186439
  21 H :    0.303301
  22 H :    0.287387
Sum of atomic charges:   -0.0000000

LOEWDIN ATOMIC CHARGES
----------------------
   0 C :   -0.134488
   1 C :   -0.133594
   2 C :   -0.101540
   3 C :   -0.178339
   4 C :   -0.101723
   5 C :   -0.133506
   6 N :    0.225654
   7 C :   -0.413571
   8 O :   -0.058977
   9 C :   -0.414871
  10 C :   -0.248205
  11 C :   -0.184874
  12 N :    0.107419
  13 N :    0.054861
  14 Cl:    0.391231
  15 H :    0.153935
  16 H :    0.154661
  17 H :    0.161025
  18 H :    0.160924
  19 H :    0.154663
  20 H :    0.161276
  21 H :    0.196605
  22 H :    0.181435

  Mayer bond orders larger than 0.100000
B(  0-C ,  1-C ) :   1.3918 B(  0-C ,  5-C ) :   1.3912 B(  0-C , 15-H ) :   0.9717
B(  1-C ,  2-C ) :   1.4239 B(  1-C , 16-H ) :   0.9748 B(  2-C ,  3-C ) :   1.4024
B(  2-C , 17-H ) :   0.9772 B(  3-C ,  4-C ) :   1.4031 B(  3-C ,  6-N ) :   0.8312
B(  4-C ,  5-C ) :   1.4232 B(  4-C , 18-H ) :   0.9773 B(  5-C , 19-H ) :   0.9749
B(  6-N ,  7-C ) :   1.1682 B(  6-N , 12-N ) :   1.0026 B(  7-C ,  8-O ) :   1.9323
B(  7-C ,  9-C ) :   1.1757 B(  9-C , 10-C ) :   1.4137 B(  9-C , 14-Cl) :   1.0575
B( 10-C , 11-C ) :   1.1130 B( 10-C , 13-N ) :   1.3225 B( 11-C , 12-N ) :   1.8113
B( 11-C , 20-H ) :   0.9602 B( 13-N , 21-H ) :   0.8835 B( 13-N , 22-H ) :   0.8895

FINAL SINGLE POINT ENERGY     -1085.549729282975

DIPOLE MOMENT
-------------

Method             : SCF
Type of density    : Electron Density
Multiplicity       :   1
Irrep              :   0
Energy             : -1085.5622432796744761 Eh
Relativity type    :
Basis              : AO
                                X                 Y                 Z
Electronic contribution:    -13.295426815      -4.085589001       1.371153541
Nuclear contribution   :     11.842327920       7.058107339      -1.985183219
                        -----------------------------------------
Total Dipole Moment    :     -1.453098895       2.972518337      -0.614029678
                        -----------------------------------------
Magnitude (a.u.)       :      3.365173712
Magnitude (Debye)      :      8.553591810

Rotational constants in cm-1:             0.043289             0.010399             0.009198
Rotational constants in MHz :          1297.771784           311.761510           275.754041

                             ****ORCA TERMINATED NORMALLY****
TOTAL RUN TIME: 0 days 0 hours 7 minutes 52 seconds 615 msec
