                         Program Version 6.0.0  -   RELEASE  -
|  1> ! pbe def2-sv(p) def2/J RI DEFGRID1 loosescf d4 GCP(DFT/SV(P)) printgap
|  2> %output
|  3>     printlevel normal
|  4> end
|  5> * xyz 0 1
|  6> C -2.2614022926 -0.6350177732 -0.6733887351
|  7> C -1.3809671952 -0.482590192 0.5747638396
|  8> H -2.010707564 -0.7236650621 1.4441000008
|  9> C -0.862700595 0.9448116582 0.8022070897
| 10> H -1.684028107 1.6367764951 0.5647367443
| 11> C 0.3341061089 1.3301636787 -0.1008554002
| 12> H 0.9728027378 2.0321090853 0.4483048937
| 13> C 1.2071842417 0.11027588 -0.4361969508
| 14> H 0.9154548219 -0.2873251575 -1.4202126645
| 15> C 0.9734769079 -1.0062067697 0.5918162407
| 16> H 1.2115513504 -0.6285999105 1.6060823824
| 17> O -0.3538322473 -1.4682081759 0.5519158505
| 18> O 1.7970455615 -2.0695123876 0.2571367898
| 19> O 2.5533203623 0.5111607951 -0.4413557989
| 20> O -0.0883307719 2.0259120725 -1.2400809743
| 21> O -0.5379086601 1.0353239548 2.1729691792
| 22> O -1.5763794798 -0.2334503707 -1.8417301938
| 23> H -3.1650651662 -0.0289569983 -0.5338543732
| 24> H -2.5357833723 -1.6924262383 -0.7373270747
| 25> H 1.5107074191 -2.859939265 0.7395363775
| 26> H 3.1072236071 -0.2730168607 -0.5766379576
| 27> H -0.6343528289 1.4177794662 -1.7737222982
| 28> H -0.3574227749 1.9572635697 2.4071915863
| 29> H -2.0888211033 -0.5101609043 -2.6151637263
| 30> *
| 31>
| 32>                          ****END OF INPUT****

CARTESIAN COORDINATES (ANGSTROEM)
---------------------------------
  C     -2.261402   -0.635018   -0.673389
  C     -1.380967   -0.482590    0.574764
  H     -2.010708   -0.723665    1.444100
  C     -0.862701    0.944812    0.802207
  H     -1.684028    1.636776    0.564737
  C      0.334106    1.330164   -0.100855
  H      0.972803    2.032109    0.448305
  C      1.207184    0.110276   -0.436197
  H      0.915455   -0.287325   -1.420213
  C      0.973477   -1.006207    0.591816
  H      1.211551   -0.628600    1.606082
  O     -0.353832   -1.468208    0.551916
  O      1.797046   -2.069512    0.257137
  O      2.553320    0.511161   -0.441356
  O     -0.088331    2.025912   -1.240081
  O     -0.537909    1.035324    2.172969
  O     -1.576379   -0.233450   -1.841730
  H     -3.165065   -0.028957   -0.533854
  H     -2.535783   -1.692426   -0.737327
  H      1.510707   -2.859939    0.739536
  H      3.107224   -0.273017   -0.576638
  H     -0.634353    1.417779   -1.773722
  H     -0.357423    1.957264    2.407192
  H     -2.088821   -0.510161   -2.615164

 Total Charge           Charge          ....    0
 Multiplicity           Mult            ....    1
 Number of Electrons    NEL             ....   96
 Basis Dimension        Dim             ....  192

ORBITAL ENERGIES
----------------

  NO   OCC          E(Eh)            E(eV)
   0   2.0000     -18.786049      -511.1944
   1   2.0000     -18.759356      -510.4680
   2   2.0000     -18.755165      -510.3540
   3   2.0000     -18.754922      -510.3474
   4   2.0000     -18.733744      -509.7711
   5   2.0000     -18.722840      -509.4744
   6   2.0000      -9.970585      -271.3134
   7   2.0000      -9.951614      -270.7972
   8   2.0000      -9.951098      -270.7831
   9   2.0000      -9.943501      -270.5764
  10   2.0000      -9.928232      -270.1609
  11   2.0000      -9.921325      -269.9730
  12   2.0000      -0.975633       -26.5483
  13   2.0000      -0.955306       -25.9952
  14   2.0000      -0.933900       -25.4127
  15   2.0000      -0.916628       -24.9427
  16   2.0000      -0.904696       -24.6180
  17   2.0000      -0.897634       -24.4259
  18   2.0000      -0.705696       -19.2030
  19   2.0000      -0.678955       -18.4753
  20   2.0000      -0.618786       -16.8380
  21   2.0000      -0.583004       -15.8643
  22   2.0000      -0.561310       -15.2740
  23   2.0000      -0.514965       -14.0129
  24   2.0000      -0.500104       -13.6085
  25   2.0000      -0.481823       -13.1111
  26   2.0000      -0.471942       -12.8422
  27   2.0000      -0.465849       -12.6764
  28   2.0000      -0.449603       -12.2343
  29   2.0000      -0.418125       -11.3778
  30   2.0000      -0.411976       -11.2104
  31   2.0000      -0.396215       -10.7816
  32   2.0000      -0.391174       -10.6444
  33   2.0000      -0.373377       -10.1601
  34   2.0000      -0.356113        -9.6903
  35   2.0000      -0.341228        -9.2853
  36   2.0000      -0.329002        -8.9526
  37   2.0000      -0.315623        -8.5885
  38   2.0000      -0.305503        -8.3132
  39   2.0000      -0.291781        -7.9398
  40   2.0000      -0.278965        -7.5910
  41   2.0000      -0.252366        -6.8672
  42   2.0000      -0.248304        -6.7567
  43   2.0000      -0.243065        -6.6141
  44   2.0000      -0.230591        -6.2747
  45   2.0000      -0.219320        -5.9680
  46   2.0000      -0.194950        -5.3049
  47   2.0000      -0.190739        -5.1903
  48   0.0000       0.002815         0.0766
  49   0.0000       0.024574         0.6687
  50   0.0000       0.037439         1.0188
  51   0.0000       0.053674         1.4606
  52   0.0000       0.066659         1.8139

MULLIKEN ATOMIC CHARGES
-----------------------
   0 C :    0.034516
   1 C :    0.074028
   2 H :    0.077816
   3 C :   -0.030601
   4 H :    0.064980
   5 C :    0.137628
   6 H :    0.053674
   7 C :    0.026121
   8 H :    0.046278
   9 C :    0.199851
  10 H :    0.045427
  11 O :   -0.331163
  12 O :   -0.397617
  13 O :   -0.419834
  14 O :   -0.433846
  15 O :   -0.412462
  16 O :   -0.434135
  17 H :    0.079340
  18 H :    0.091386
  19 H :    0.306396
  20 H :    0.302535
  21 H :    0.294237
  22 H :    0.305415
  23 H :    0.320029
Sum of atomic charges:    0.0000000

LOEWDIN ATOMIC CHARGES
----------------------
   0 C :   -0.128514
   1 C :   -0.049407
   2 H :    0.121922
   3 C :   -0.078436
   4 H :    0.106629
   5 C :   -0.065831
   6 H :    0.118327
   7 C :   -0.088132
   8 H :    0.104320
   9 C :   -0.009820
  10 H :    0.084314
  11 O :   -0.161709
  12 O :   -0.308630
  13 O :   -0.318287
  14 O :   -0.325880
  15 O :   -0.317844
  16 O :   -0.320899
  17 H :    0.103173
  18 H :    0.112317
  19 H :    0.289784
  20 H :    0.283770
  21 H :    0.262600
  22 H :    0.288618
  23 H :    0.297615

  Mayer bond orders larger than 0.100000
B(  0-C ,  1-C ) :   1.0648 B(  0-C , 16-O ) :   1.0428 B(  0-C , 17-H ) :   0.9115
B(  0-C , 18-H ) :   0.9127 B(  1-C ,  2-H ) :   0.8765 B(  1-C ,  3-C ) :   1.0273
B(  1-C , 11-O ) :   0.9978 B(  3-C ,  4-H ) :   0.8916 B(  3-C ,  5-C ) :   0.9902
B(  3-C , 15-O ) :   1.0231 B(  5-C ,  6-H ) :   0.8568 B(  5-C ,  7-C ) :   0.9991
B(  5-C , 14-O ) :   1.0668 B(  7-C ,  8-H ) :   0.8409 B(  7-C ,  9-C ) :   1.0570
B(  7-C , 13-O ) :   1.0699 B(  9-C , 10-H ) :   0.8778 B(  9-C , 11-O ) :   1.0125
B(  9-C , 12-O ) :   1.1457 B( 12-O , 19-H ) :   0.8399 B( 13-O , 20-H ) :   0.8387
B( 14-O , 21-H ) :   0.8075 B( 15-O , 22-H ) :   0.8461 B( 16-O , 21-H ) :   0.1093
B( 16-O , 23-H ) :   0.8383

Dispersion correction           -0.025286765
FINAL SINGLE POINT ENERGY      -685.691375026244

DIPOLE MOMENT
-------------

Method             : SCF
Type of density    : Electron Density
Multiplicity       :   1
Irrep              :   0
Energy             :  -685.8225982309274968 Eh
Relativity type    :
Basis              : AO
                                X                 Y                 Z
Electronic contribution:      3.095070840      -0.770801178       0.325683284
Nuclear contribution   :     -4.437651201       0.034430290      -0.427347038
                        -----------------------------------------
Total Dipole Moment    :     -1.342580362      -0.736370888      -0.101663754
                        -----------------------------------------
Magnitude (a.u.)       :      1.534633386
Magnitude (Debye)      :      3.900728073

Rotational constants in cm-1:             0.035922             0.028755             0.026168
Rotational constants in MHz :          1076.917285           862.065472           784.482381

                             ****ORCA TERMINATED NORMALLY****
TOTAL RUN TIME: 0 days 0 hours 0 minutes 12 seconds 95 msec
