                         Program Version 6.0.0  -   RELEASE  -
|  1> ! r2scan-3c def2/J RI DEFGRID2 scfconv6 printgap
|  2> %output
|  3>     printlevel normal
|  4> end
|  5> * xyz 0 1
|  6> C -1.4681037959 -0.0006769287 0.2355391911
|  7> C -0.7292198221 1.2504020278 -0.2371441171
|  8> C 0.728765398 1.1993804699 0.2350853572
|  9> N 1.4284104476 0.0006882962 -0.1987110073
| 10> C 0.7299525326 -1.1987077586 0.2350022776
| 11> C -0.7280354321 -1.2510959098 -0.2370616542
| 12> H -2.4917661655 -0.0011697295 -0.1448542282
| 13> H -1.513595136 -0.0006272169 1.3272249132
| 14> H -0.7533028322 1.2977670166 -1.329285667
| 15> H -1.2123927722 2.1477554667 0.1516146824
| 16> H 1.2803365652 2.0671001175 -0.1337517985
| 17> H 0.758104497 1.2145274425 1.3291427109
| 18> H 1.4806037607 0.0007412027 -1.2140258904
| 19> H 1.2823517124 -2.0658476029 -0.1340497721
| 20> H 0.7594217946 -1.2140437264 1.3290414131
| 21> H -0.7521876428 -1.2985580342 -1.3292222233
| 22> H -1.2103192206 -2.1488909785 0.1518241376
| 23> *
| 24>
| 25>                          ****END OF INPUT****

CARTESIAN COORDINATES (ANGSTROEM)
---------------------------------
  C     -1.468104   -0.000677    0.235539
  C     -0.729220    1.250402   -0.237144
  C      0.728765    1.199380    0.235085
  N      1.428410    0.000688   -0.198711
  C      0.729953   -1.198708    0.235002
  C     -0.728035   -1.251096   -0.237062
  H     -2.491766   -0.001170   -0.144854
  H     -1.513595   -0.000627    1.327225
  H     -0.753303    1.297767   -1.329286
  H     -1.212393    2.147755    0.151615
  H      1.280337    2.067100   -0.133752
  H      0.758104    1.214527    1.329143
  H      1.480604    0.000741   -1.214026
  H      1.282352   -2.065848   -0.134050
  H      0.759422   -1.214044    1.329041
  H     -0.752188   -1.298558   -1.329222
  H     -1.210319   -2.148891    0.151824

 Total Charge           Charge          ....    0
 Multiplicity           Mult            ....    1
 Number of Electrons    NEL             ....   48
 Basis Dimension        Dim             ....  174

ORBITAL ENERGIES
----------------

  NO   OCC          E(Eh)            E(eV)
   0   2.0000     -14.136251      -384.6670
   1   2.0000     -10.045092      -273.3408
   2   2.0000     -10.045087      -273.3407
   3   2.0000     -10.023880      -272.7636
   4   2.0000     -10.021195      -272.6906
   5   2.0000     -10.021182      -272.6902
   6   2.0000      -0.874833       -23.8054
   7   2.0000      -0.748106       -20.3570
   8   2.0000      -0.712598       -19.3908
   9   2.0000      -0.595842       -16.2137
  10   2.0000      -0.584527       -15.9058
  11   2.0000      -0.535953       -14.5840
  12   2.0000      -0.456622       -12.4253
  13   2.0000      -0.421881       -11.4800
  14   2.0000      -0.416033       -11.3208
  15   2.0000      -0.405519       -11.0347
  16   2.0000      -0.367021        -9.9871
  17   2.0000      -0.346384        -9.4256
  18   2.0000      -0.339060        -9.2263
  19   2.0000      -0.314936        -8.5698
  20   2.0000      -0.312808        -8.5119
  21   2.0000      -0.293185        -7.9780
  22   2.0000      -0.280205        -7.6248
  23   2.0000      -0.182745        -4.9727
  24   0.0000       0.079562         2.1650
  25   0.0000       0.106065         2.8862
  26   0.0000       0.115403         3.1403
  27   0.0000       0.120522         3.2796
  28   0.0000       0.123180         3.3519

MULLIKEN ATOMIC CHARGES
-----------------------
   0 C :   -0.257181
   1 C :   -0.277769
   2 C :   -0.293098
   3 N :   -0.317123
   4 C :   -0.293144
   5 C :   -0.277739
   6 H :    0.148829
   7 H :    0.146834
   8 H :    0.144955
   9 H :    0.143377
  10 H :    0.149750
  11 H :    0.154743
  12 H :    0.234747
  13 H :    0.149747
  14 H :    0.154747
  15 H :    0.144950
  16 H :    0.143375
Sum of atomic charges:    0.0000000

LOEWDIN ATOMIC CHARGES
----------------------
   0 C :   -0.305326
   1 C :   -0.294946
   2 C :   -0.069918
   3 N :   -0.837184
   4 C :   -0.069924
   5 C :   -0.294948
   6 H :    0.154136
   7 H :    0.155876
   8 H :    0.153514
   9 H :    0.155250
  10 H :    0.174414
  11 H :    0.175551
  12 H :    0.244769
  13 H :    0.174422
  14 H :    0.175544
  15 H :    0.153515
  16 H :    0.155253

  Mayer bond orders larger than 0.100000
B(  0-C ,  1-C ) :   0.8931 B(  0-C ,  5-C ) :   0.8931 B(  0-C ,  6-H ) :   0.9618
B(  0-C ,  7-H ) :   0.9812 B(  1-C ,  2-C ) :   0.8785 B(  1-C ,  8-H ) :   0.9901
B(  1-C ,  9-H ) :   0.9523 B(  2-C ,  3-N ) :   0.9583 B(  2-C , 10-H ) :   0.9691
B(  2-C , 11-H ) :   1.0015 B(  3-N ,  4-C ) :   0.9583 B(  3-N , 12-H ) :   0.9011
B(  4-C ,  5-C ) :   0.8785 B(  4-C , 13-H ) :   0.9691 B(  4-C , 14-H ) :   1.0016
B(  5-C , 15-H ) :   0.9901 B(  5-C , 16-H ) :   0.9523

Dispersion correction           -0.004510285
FINAL SINGLE POINT ENERGY      -251.818306151000

DIPOLE MOMENT
-------------

Method             : SCF
Type of density    : Electron Density
Multiplicity       :   1
Irrep              :   0
Energy             :  -251.8254720409940433 Eh
Relativity type    :
Basis              : AO
                                X                 Y                 Z
Electronic contribution:      1.800290347       0.000991670      -0.207264335
Nuclear contribution   :     -2.218211243      -0.001165227       0.002345062
                        -----------------------------------------
Total Dipole Moment    :     -0.417920896      -0.000173558      -0.204919273
                        -----------------------------------------
Magnitude (a.u.)       :      0.465456565
Magnitude (Debye)      :      1.183096566

Rotational constants in cm-1:             0.152166             0.148221             0.086119
Rotational constants in MHz :          4561.817824          4443.555996          2581.797347

                             ****ORCA TERMINATED NORMALLY****
TOTAL RUN TIME: 0 days 0 hours 0 minutes 15 seconds 849 msec
