                         Program Version 6.0.0  -   RELEASE  -
|  1> ! r2scan-3c def2/J RI DEFGRID2 scfconv6 printgap
|  2> %output
|  3>     printlevel normal
|  4> end
|  5> %cpcm
|  6>     smd true
|  7>     smdsolvent "water"
|  8> end
|  9> * xyz 0 1
| 10> C -1.4681037959 -0.0006769287 0.2355391911
| 11> C -0.7292198221 1.2504020278 -0.2371441171
| 12> C 0.728765398 1.1993804699 0.2350853572
| 13> N 1.4284104476 0.0006882962 -0.1987110073
| 14> C 0.7299525326 -1.1987077586 0.2350022776
| 15> C -0.7280354321 -1.2510959098 -0.2370616542
| 16> H -2.4917661655 -0.0011697295 -0.1448542282
| 17> H -1.513595136 -0.0006272169 1.3272249132
| 18> H -0.7533028322 1.2977670166 -1.329285667
| 19> H -1.2123927722 2.1477554667 0.1516146824
| 20> H 1.2803365652 2.0671001175 -0.1337517985
| 21> H 0.758104497 1.2145274425 1.3291427109
| 22> H 1.4806037607 0.0007412027 -1.2140258904
| 23> H 1.2823517124 -2.0658476029 -0.1340497721
| 24> H 0.7594217946 -1.2140437264 1.3290414131
| 25> H -0.7521876428 -1.2985580342 -1.3292222233
| 26> H -1.2103192206 -2.1488909785 0.1518241376
| 27> *
| 28>
| 29>                          ****END OF INPUT****

CARTESIAN COORDINATES (ANGSTROEM)
---------------------------------
  C     -1.468104   -0.000677    0.235539
  C     -0.729220    1.250402   -0.237144
  C      0.728765    1.199380    0.235085
  N      1.428410    0.000688   -0.198711
  C      0.729953   -1.198708    0.235002
  C     -0.728035   -1.251096   -0.237062
  H     -2.491766   -0.001170   -0.144854
  H     -1.513595   -0.000627    1.327225
  H     -0.753303    1.297767   -1.329286
  H     -1.212393    2.147755    0.151615
  H      1.280337    2.067100   -0.133752
  H      0.758104    1.214527    1.329143
  H      1.480604    0.000741   -1.214026
  H      1.282352   -2.065848   -0.134050
  H      0.759422   -1.214044    1.329041
  H     -0.752188   -1.298558   -1.329222
  H     -1.210319   -2.148891    0.151824

 Total Charge           Charge          ....    0
 Multiplicity           Mult            ....    1
 Number of Electrons    NEL             ....   48
 Basis Dimension        Dim             ....  174

ORBITAL ENERGIES
----------------

  NO   OCC          E(Eh)            E(eV)
   0   2.0000     -14.131767      -384.5449
   1   2.0000     -10.038158      -273.1522
   2   2.0000     -10.038153      -273.1520
   3   2.0000     -10.014151      -272.4989
   4   2.0000     -10.011939      -272.4387
   5   2.0000     -10.011926      -272.4383
   6   2.0000      -0.869380       -23.6570
   7   2.0000      -0.739567       -20.1246
   8   2.0000      -0.704841       -19.1797
   9   2.0000      -0.588196       -16.0056
  10   2.0000      -0.577309       -15.7094
  11   2.0000      -0.527392       -14.3511
  12   2.0000      -0.449446       -12.2301
  13   2.0000      -0.413733       -11.2583
  14   2.0000      -0.407877       -11.0989
  15   2.0000      -0.397035       -10.8039
  16   2.0000      -0.359913        -9.7937
  17   2.0000      -0.338486        -9.2107
  18   2.0000      -0.331914        -9.0318
  19   2.0000      -0.306275        -8.3342
  20   2.0000      -0.305131        -8.3030
  21   2.0000      -0.283208        -7.7065
  22   2.0000      -0.271908        -7.3990
  23   2.0000      -0.182492        -4.9659
  24   0.0000       0.089804         2.4437
  25   0.0000       0.116725         3.1762
  26   0.0000       0.121678         3.3110
  27   0.0000       0.130247         3.5442
  28   0.0000       0.130705         3.5567

MULLIKEN ATOMIC CHARGES
-----------------------
   0 C :   -0.282085
   1 C :   -0.293470
   2 C :   -0.293043
   3 N :   -0.392298
   4 C :   -0.293082
   5 C :   -0.293444
   6 H :    0.155455
   7 H :    0.155539
   8 H :    0.156147
   9 H :    0.151500
  10 H :    0.156569
  11 H :    0.163402
  12 H :    0.281205
  13 H :    0.156567
  14 H :    0.163401
  15 H :    0.156140
  16 H :    0.151497
Sum of atomic charges:    0.0000000

LOEWDIN ATOMIC CHARGES
----------------------
   0 C :   -0.308175
   1 C :   -0.295241
   2 C :   -0.074288
   3 N :   -0.861282
   4 C :   -0.074293
   5 C :   -0.295244
   6 H :    0.155595
   7 H :    0.158183
   8 H :    0.157801
   9 H :    0.157674
  10 H :    0.176748
  11 H :    0.177573
  12 H :    0.255150
  13 H :    0.176756
  14 H :    0.177566
  15 H :    0.157802
  16 H :    0.157676

  Mayer bond orders larger than 0.100000
B(  0-C ,  1-C ) :   0.8943 B(  0-C ,  5-C ) :   0.8943 B(  0-C ,  6-H ) :   0.9604
B(  0-C ,  7-H ) :   0.9811 B(  1-C ,  2-C ) :   0.8878 B(  1-C ,  8-H ) :   0.9868
B(  1-C ,  9-H ) :   0.9517 B(  2-C ,  3-N ) :   0.9669 B(  2-C , 10-H ) :   0.9614
B(  2-C , 11-H ) :   0.9957 B(  3-N ,  4-C ) :   0.9669 B(  3-N , 12-H ) :   0.8860
B(  4-C ,  5-C ) :   0.8878 B(  4-C , 13-H ) :   0.9614 B(  4-C , 14-H ) :   0.9957
B(  5-C , 15-H ) :   0.9868 B(  5-C , 16-H ) :   0.9517

Dispersion correction           -0.004510285
FINAL SINGLE POINT ENERGY      -251.825955916129

DIPOLE MOMENT
-------------

Method             : SCF
Type of density    : Electron Density
Multiplicity       :   1
Irrep              :   0
Energy             :  -251.8331218061234722 Eh
Relativity type    :
Basis              : AO
                                X                 Y                 Z
Electronic contribution:      1.633997126       0.000920420      -0.311733338
Nuclear contribution   :     -2.218211243      -0.001165227       0.002345062
                        -----------------------------------------
Total Dipole Moment    :     -0.584214117      -0.000244808      -0.309388277
                        -----------------------------------------
Magnitude (a.u.)       :      0.661080404
Magnitude (Debye)      :      1.680332848

Rotational constants in cm-1:             0.152166             0.148221             0.086119
Rotational constants in MHz :          4561.817824          4443.555996          2581.797347

                             ****ORCA TERMINATED NORMALLY****
TOTAL RUN TIME: 0 days 0 hours 0 minutes 20 seconds 386 msec
