                         Program Version 6.0.0  -   RELEASE  -
|  1> ! wb97x-v def2-tzvp def2/J RIJCOSX DEFGRID2 scfconv7 GCP(DFT/TZ) printgap
|  2> %output
|  3>     printlevel normal
|  4> end
|  5> * xyz 0 1
|  6> C 0.8515107102032494 -1.8354155460637689 5.230146954551677e-06
|  7> C 1.8778011653096662 -0.9001180233071343 -2.214733940869888e-05
|  8> C 1.5624241469349631 0.4588945909177951 -1.7072090900041883e-05
|  9> C 0.2327196124983584 0.8840535439822664 3.061562463501599e-05
| 10> C -0.7622074146844797 -0.08394319318234987 5.9749070507582256e-05
| 11> C -0.4866353861659052 -1.4446266703415023 4.0636149871397704e-05
| 12> Cl -2.4443456015045353 0.4473004981840071 0.00011240302539530099
| 13> O 2.6067668299534086 1.3490532999476184 -4.8248905194084825e-05
| 14> H 1.0931267903239184 -2.8932374558188503 -5.802774826613208e-06
| 15> H 2.917433255756623 -1.2081932522002918 -5.632766310737838e-05
| 16> H -0.007381328392245527 1.9420953281686013 3.729814222308212e-05
| 17> H -1.284864114140822 -2.1766052847386015 5.9333221692553776e-05
| 18> H 2.265289426912255 2.2547856110733275 -0.00010215604706381994
| 19> *
| 20>
| 21>                          ****END OF INPUT****

CARTESIAN COORDINATES (ANGSTROEM)
---------------------------------
  C      0.851511   -1.835416    0.000005
  C      1.877801   -0.900118   -0.000022
  C      1.562424    0.458895   -0.000017
  C      0.232720    0.884054    0.000031
  C     -0.762207   -0.083943    0.000060
  C     -0.486635   -1.444627    0.000041
  Cl    -2.444346    0.447300    0.000112
  O      2.606767    1.349053   -0.000048
  H      1.093127   -2.893237   -0.000006
  H      2.917433   -1.208193   -0.000056
  H     -0.007381    1.942095    0.000037
  H     -1.284864   -2.176605    0.000059
  H      2.265289    2.254786   -0.000102

 Total Charge           Charge          ....    0
 Multiplicity           Mult            ....    1
 Number of Electrons    NEL             ....   66
 Basis Dimension        Dim             ....  284

ORBITAL ENERGIES
----------------

  NO   OCC          E(Eh)            E(eV)
   0   2.0000    -107.145217     -2915.5696
   1   2.0000     -21.715830      -590.9178
   2   2.0000     -12.130850      -330.0972
   3   2.0000     -12.125042      -329.9392
   4   2.0000     -12.070051      -328.4428
   5   2.0000     -12.068639      -328.4044
   6   2.0000     -12.061029      -328.1973
   7   2.0000     -12.058284      -328.1226
   8   2.0000     -11.298337      -307.4434
   9   2.0000      -9.089822      -247.3466
  10   2.0000      -9.087239      -247.2763
  11   2.0000      -9.087206      -247.2755
  12   2.0000      -1.730208       -47.0814
  13   2.0000      -1.434682       -39.0397
  14   2.0000      -1.383008       -37.6336
  15   2.0000      -1.297057       -35.2947
  16   2.0000      -1.283858       -34.9356
  17   2.0000      -1.174443       -31.9582
  18   2.0000      -1.126245       -30.6467
  19   2.0000      -1.080045       -29.3895
  20   2.0000      -1.016992       -27.6738
  21   2.0000      -0.969169       -26.3724
  22   2.0000      -0.960650       -26.1406
  23   2.0000      -0.960277       -26.1305
  24   2.0000      -0.928455       -25.2646
  25   2.0000      -0.900795       -24.5119
  26   2.0000      -0.855641       -23.2832
  27   2.0000      -0.837469       -22.7887
  28   2.0000      -0.826817       -22.4988
  29   2.0000      -0.791829       -21.5468
  30   2.0000      -0.771521       -20.9942
  31   2.0000      -0.659876       -17.9561
  32   2.0000      -0.652527       -17.7562
  33   0.0000      -0.271992        -7.4013
  34   0.0000      -0.265173        -7.2157
  35   0.0000      -0.259725        -7.0675
  36   0.0000      -0.145431        -3.9574
  37   0.0000      -0.089340        -2.4311

MULLIKEN ATOMIC CHARGES
-----------------------
   0 C :   -0.075208
   1 C :   -0.209006
   2 C :    0.267497
   3 C :   -0.248177
   4 C :    0.130328
   5 C :   -0.207857
   6 Cl:   -0.103022
   7 O :   -0.385225
   8 H :    0.125931
   9 H :    0.129618
  10 H :    0.124952
  11 H :    0.133809
  12 H :    0.316361
Sum of atomic charges:    0.0000000

LOEWDIN ATOMIC CHARGES
----------------------
   0 C :   -0.124494
   1 C :   -0.121155
   2 C :   -0.256648
   3 C :   -0.148340
   4 C :   -0.401087
   5 C :   -0.160629
   6 Cl:    0.362445
   7 O :    0.074518
   8 H :    0.146740
   9 H :    0.149609
  10 H :    0.145251
  11 H :    0.146211
  12 H :    0.187579

  Mayer bond orders larger than 0.100000
B(  0-C ,  1-C ) :   1.4519 B(  0-C ,  5-C ) :   1.3972 B(  0-C ,  8-H ) :   0.9691
B(  1-C ,  2-C ) :   1.4049 B(  1-C ,  9-H ) :   0.9687 B(  2-C ,  3-C ) :   1.3447
B(  2-C ,  7-O ) :   1.1469 B(  3-C ,  4-C ) :   1.4028 B(  3-C , 10-H ) :   0.9464
B(  4-C ,  5-C ) :   1.4122 B(  4-C ,  6-Cl) :   0.9665 B(  5-C , 11-H ) :   0.9660
B(  7-O , 12-H ) :   0.8880

FINAL SINGLE POINT ENERGY      -767.033489772367

DIPOLE MOMENT
-------------

Method             : SCF
Type of density    : Electron Density
Multiplicity       :   1
Irrep              :   0
Energy             :  -767.0400317827669596 Eh
Relativity type    :
Basis              : AO
                                X                 Y                 Z
Electronic contribution:     -7.675840819       2.702122341       0.000273774
Nuclear contribution   :      8.010225005      -2.539655171      -0.000327819
                        -----------------------------------------
Total Dipole Moment    :      0.334384185       0.162467170      -0.000054045
                        -----------------------------------------
Magnitude (a.u.)       :      0.371763860
Magnitude (Debye)      :      0.944948637

Rotational constants in cm-1:             0.114614             0.039386             0.029313
Rotational constants in MHz :          3436.027989          1180.750690           878.771261

                             ****ORCA TERMINATED NORMALLY****
TOTAL RUN TIME: 0 days 0 hours 2 minutes 12 seconds 587 msec
