                         Program Version 6.0.0  -   RELEASE  -
|  1> ! wb97x-v def2-tzvp def2/J RIJCOSX DEFGRID2 scfconv7 GCP(DFT/TZ) printgap
|  2> %output
|  3>     printlevel normal
|  4> end
|  5> %cpcm
|  6>     smd true
|  7>     smdsolvent "water"
|  8> end
|  9> * xyz 0 1
| 10> C 0.8515107102032494 -1.8354155460637689 5.230146954551677e-06
| 11> C 1.8778011653096662 -0.9001180233071343 -2.214733940869888e-05
| 12> C 1.5624241469349631 0.4588945909177951 -1.7072090900041883e-05
| 13> C 0.2327196124983584 0.8840535439822664 3.061562463501599e-05
| 14> C -0.7622074146844797 -0.08394319318234987 5.9749070507582256e-05
| 15> C -0.4866353861659052 -1.4446266703415023 4.0636149871397704e-05
| 16> Cl -2.4443456015045353 0.4473004981840071 0.00011240302539530099
| 17> O 2.6067668299534086 1.3490532999476184 -4.8248905194084825e-05
| 18> H 1.0931267903239184 -2.8932374558188503 -5.802774826613208e-06
| 19> H 2.917433255756623 -1.2081932522002918 -5.632766310737838e-05
| 20> H -0.007381328392245527 1.9420953281686013 3.729814222308212e-05
| 21> H -1.284864114140822 -2.1766052847386015 5.9333221692553776e-05
| 22> H 2.265289426912255 2.2547856110733275 -0.00010215604706381994
| 23> *
| 24>
| 25>                          ****END OF INPUT****

CARTESIAN COORDINATES (ANGSTROEM)
---------------------------------
  C      0.851511   -1.835416    0.000005
  C      1.877801   -0.900118   -0.000022
  C      1.562424    0.458895   -0.000017
  C      0.232720    0.884054    0.000031
  C     -0.762207   -0.083943    0.000060
  C     -0.486635   -1.444627    0.000041
  Cl    -2.444346    0.447300    0.000112
  O      2.606767    1.349053   -0.000048
  H      1.093127   -2.893237   -0.000006
  H      2.917433   -1.208193   -0.000056
  H     -0.007381    1.942095    0.000037
  H     -1.284864   -2.176605    0.000059
  H      2.265289    2.254786   -0.000102

 Total Charge           Charge          ....    0
 Multiplicity           Mult            ....    1
 Number of Electrons    NEL             ....   66
 Basis Dimension        Dim             ....  284

ORBITAL ENERGIES
----------------

  NO   OCC          E(Eh)            E(eV)
   0   2.0000    -107.147587     -2915.6341
   1   2.0000     -21.706623      -590.6672
   2   2.0000     -12.124395      -329.9216
   3   2.0000     -12.120991      -329.8289
   4   2.0000     -12.062182      -328.2287
   5   2.0000     -12.060309      -328.1777
   6   2.0000     -12.055134      -328.0369
   7   2.0000     -12.051685      -327.9430
   8   2.0000     -11.300778      -307.5098
   9   2.0000      -9.092249      -247.4127
  10   2.0000      -9.089721      -247.3439
  11   2.0000      -9.089695      -247.3432
  12   2.0000      -1.721199       -46.8362
  13   2.0000      -1.434029       -39.0219
  14   2.0000      -1.380005       -37.5518
  15   2.0000      -1.290416       -35.1140
  16   2.0000      -1.279273       -34.8108
  17   2.0000      -1.166620       -31.7453
  18   2.0000      -1.120008       -30.4770
  19   2.0000      -1.073187       -29.2029
  20   2.0000      -1.012112       -27.5410
  21   2.0000      -0.961359       -26.1599
  22   2.0000      -0.954208       -25.9653
  23   2.0000      -0.953935       -25.9579
  24   2.0000      -0.925262       -25.1777
  25   2.0000      -0.891114       -24.2484
  26   2.0000      -0.848003       -23.0753
  27   2.0000      -0.829396       -22.5690
  28   2.0000      -0.827792       -22.5254
  29   2.0000      -0.793958       -21.6047
  30   2.0000      -0.769470       -20.9383
  31   2.0000      -0.655371       -17.8335
  32   2.0000      -0.648095       -17.6356
  33   0.0000      -0.271075        -7.3763
  34   0.0000      -0.261358        -7.1119
  35   0.0000      -0.253788        -6.9059
  36   0.0000      -0.136461        -3.7133
  37   0.0000      -0.083977        -2.2851

MULLIKEN ATOMIC CHARGES
-----------------------
   0 C :   -0.125180
   1 C :   -0.254724
   2 C :    0.271802
   3 C :   -0.286466
   4 C :    0.161586
   5 C :   -0.249425
   6 Cl:   -0.121124
   7 O :   -0.459631
   8 H :    0.169069
   9 H :    0.162652
  10 H :    0.180009
  11 H :    0.170183
  12 H :    0.381249
Sum of atomic charges:    0.0000000

LOEWDIN ATOMIC CHARGES
----------------------
   0 C :   -0.129283
   1 C :   -0.129530
   2 C :   -0.262688
   3 C :   -0.139420
   4 C :   -0.412837
   5 C :   -0.168099
   6 Cl:    0.346195
   7 O :    0.052324
   8 H :    0.157477
   9 H :    0.157001
  10 H :    0.161195
  11 H :    0.154459
  12 H :    0.213206

  Mayer bond orders larger than 0.100000
B(  0-C ,  1-C ) :   1.4417 B(  0-C ,  5-C ) :   1.3935 B(  0-C ,  8-H ) :   0.9686
B(  1-C ,  2-C ) :   1.3719 B(  1-C ,  9-H ) :   0.9737 B(  2-C ,  3-C ) :   1.3661
B(  2-C ,  7-O ) :   1.1133 B(  3-C ,  4-C ) :   1.3417 B(  3-C , 10-H ) :   0.9548
B(  4-C ,  5-C ) :   1.3703 B(  4-C ,  6-Cl) :   0.9656 B(  5-C , 11-H ) :   0.9717
B(  7-O , 12-H ) :   0.8464

FINAL SINGLE POINT ENERGY      -767.042946988904

DIPOLE MOMENT
-------------

Method             : SCF
Type of density    : Electron Density
Multiplicity       :   1
Irrep              :   0
Energy             :  -767.0494889993040033 Eh
Relativity type    :
Basis              : AO
                                X                 Y                 Z
Electronic contribution:     -7.594996216       2.809669130       0.000254427
Nuclear contribution   :      8.010225005      -2.539655171      -0.000327819
                        -----------------------------------------
Total Dipole Moment    :      0.415228788       0.270013959      -0.000073393
                        -----------------------------------------
Magnitude (a.u.)       :      0.495300404
Magnitude (Debye)      :      1.258953576

Rotational constants in cm-1:             0.114614             0.039386             0.029313
Rotational constants in MHz :          3436.027989          1180.750690           878.771261

                             ****ORCA TERMINATED NORMALLY****
TOTAL RUN TIME: 0 days 0 hours 2 minutes 23 seconds 744 msec
