                         Program Version 6.0.0  -   RELEASE  -
|  1> ! pbe def2-sv(p) def2/J RI DEFGRID1 loosescf d4 GCP(DFT/SV(P)) printgap
|  2> %output
|  3>     printlevel normal
|  4> end
|  5> * xyz 0 1
|  6> C -2.3811601792 0.0788304064 -0.009913746
|  7> C -0.9093812861 0.4684554547 0.0537552395
|  8> C 0.0032107871 -0.7101296039 -0.1113118771
|  9> C 1.3257926865 -0.6338433115 -0.0800121644
| 10> C 2.0795437676 0.642873173 0.1249170975
| 11> H -2.6124294734 -0.3801967815 -0.9686719611
| 12> H -3.0138421142 0.9548401981 0.1127034979
| 13> H -2.6213267374 -0.631347118 0.7783823875
| 14> H -0.6907181801 1.2042932966 -0.7265818619
| 15> H -0.6997196441 0.9545764046 1.0117708318
| 16> H -0.4770059318 -1.666606227 -0.2640845834
| 17> H 1.916369809 -1.5301875493 -0.2081069858
| 18> H 1.796682382 1.1046179072 1.0708245263
| 19> H 1.8446219526 1.3547103961 -0.6664268427
| 20> H 3.1511977737 0.4681630673 0.1290834505
| 21> *
| 22>
| 23>                          ****END OF INPUT****

CARTESIAN COORDINATES (ANGSTROEM)
---------------------------------
  C     -2.381160    0.078830   -0.009914
  C     -0.909381    0.468455    0.053755
  C      0.003211   -0.710130   -0.111312
  C      1.325793   -0.633843   -0.080012
  C      2.079544    0.642873    0.124917
  H     -2.612429   -0.380197   -0.968672
  H     -3.013842    0.954840    0.112703
  H     -2.621327   -0.631347    0.778382
  H     -0.690718    1.204293   -0.726582
  H     -0.699720    0.954576    1.011771
  H     -0.477006   -1.666606   -0.264085
  H      1.916370   -1.530188   -0.208107
  H      1.796682    1.104618    1.070825
  H      1.844622    1.354710   -0.666427
  H      3.151198    0.468163    0.129083

 Total Charge           Charge          ....    0
 Multiplicity           Mult            ....    1
 Number of Electrons    NEL             ....   40
 Basis Dimension        Dim             ....   90

ORBITAL ENERGIES
----------------

  NO   OCC          E(Eh)            E(eV)
   0   2.0000      -9.885676      -269.0029
   1   2.0000      -9.878604      -268.8105
   2   2.0000      -9.876866      -268.7632
   3   2.0000      -9.876085      -268.7419
   4   2.0000      -9.873591      -268.6741
   5   2.0000      -0.723943       -19.6995
   6   2.0000      -0.672713       -18.3054
   7   2.0000      -0.604077       -16.4378
   8   2.0000      -0.545915       -14.8551
   9   2.0000      -0.468262       -12.7420
  10   2.0000      -0.418178       -11.3792
  11   2.0000      -0.401705       -10.9309
  12   2.0000      -0.380997       -10.3675
  13   2.0000      -0.363510        -9.8916
  14   2.0000      -0.334419        -9.1000
  15   2.0000      -0.325255        -8.8506
  16   2.0000      -0.307573        -8.3695
  17   2.0000      -0.304597        -8.2885
  18   2.0000      -0.280524        -7.6334
  19   2.0000      -0.207431        -5.6445
  20   0.0000      -0.009450        -0.2572
  21   0.0000       0.043223         1.1762
  22   0.0000       0.061073         1.6619
  23   0.0000       0.066001         1.7960
  24   0.0000       0.084218         2.2917

MULLIKEN ATOMIC CHARGES
-----------------------
   0 C :   -0.280357
   1 C :   -0.138276
   2 C :   -0.150413
   3 C :   -0.166722
   4 C :   -0.225999
   5 H :    0.103382
   6 H :    0.100825
   7 H :    0.103459
   8 H :    0.099094
   9 H :    0.098601
  10 H :    0.060131
  11 H :    0.064941
  12 H :    0.113678
  13 H :    0.113833
  14 H :    0.103822
Sum of atomic charges:   -0.0000000

LOEWDIN ATOMIC CHARGES
----------------------
   0 C :   -0.338753
   1 C :   -0.234365
   2 C :   -0.153830
   3 C :   -0.155652
   4 C :   -0.340146
   5 H :    0.118549
   6 H :    0.118678
   7 H :    0.118607
   8 H :    0.124631
   9 H :    0.124397
  10 H :    0.117781
  11 H :    0.117819
  12 H :    0.129065
  13 H :    0.129328
  14 H :    0.123891

  Mayer bond orders larger than 0.100000
B(  0-C ,  1-C ) :   1.1489 B(  0-C ,  5-H ) :   0.9569 B(  0-C ,  6-H ) :   0.9528
B(  0-C ,  7-H ) :   0.9572 B(  1-C ,  2-C ) :   1.0772 B(  1-C ,  8-H ) :   0.9068
B(  1-C ,  9-H ) :   0.9068 B(  2-C ,  3-C ) :   1.9810 B(  2-C , 10-H ) :   0.9457
B(  3-C ,  4-C ) :   1.1209 B(  3-C , 11-H ) :   0.9387 B(  4-C , 12-H ) :   0.9331
B(  4-C , 13-H ) :   0.9332 B(  4-C , 14-H ) :   0.9481

Dispersion correction           -0.009771273
FINAL SINGLE POINT ENERGY      -196.028049213032

DIPOLE MOMENT
-------------

Method             : SCF
Type of density    : Electron Density
Multiplicity       :   1
Irrep              :   0
Energy             :  -196.0762481448331869 Eh
Relativity type    :
Basis              : AO
                                X                 Y                 Z
Electronic contribution:      1.329446876      -1.585831962      -0.233615869
Nuclear contribution   :     -1.319228709       1.719540306       0.252267230
                        -----------------------------------------
Total Dipole Moment    :      0.010218167       0.133708343       0.018651360
                        -----------------------------------------
Magnitude (a.u.)       :      0.135389088
Magnitude (Debye)      :      0.344131714

Rotational constants in cm-1:             0.466326             0.084137             0.074214
Rotational constants in MHz :         13980.098398          2522.358840          2224.872828

                             ****ORCA TERMINATED NORMALLY****
TOTAL RUN TIME: 0 days 0 hours 0 minutes 6 seconds 166 msec
