                         Program Version 6.0.0  -   RELEASE  -
|  1> ! pbe def2-sv(p) def2/J RI DEFGRID1 loosescf d4 GCP(DFT/SV(P)) printgap
|  2> %output
|  3>     printlevel normal
|  4> end
|  5> * xyz 0 1
|  6> C -2.5568577646 0.4331078747 -1.2448873761
|  7> C -2.0166855815 0.4582083788 0.1910016451
|  8> H -2.8781427461 0.5699454499 0.8597893767
|  9> C -1.0332999254 1.6008682722 0.4330990976
| 10> C 0.2680815629 1.4346011779 -0.3555652626
| 11> C 0.7707184385 -0.0251649874 -0.3750136362
| 12> H 0.4970793561 -0.4802451537 -1.3325275259
| 13> C 0.0941532713 -0.8550089369 0.7266844968
| 14> C -1.3894724596 -0.8820531567 0.506096605
| 15> O -2.0452668204 -1.9062511432 0.558682023
| 16> C 2.2763437704 -0.0740372312 -0.2595349241
| 17> C 3.0323389493 -0.3212621517 -1.3180116512
| 18> C 2.8674700647 0.182873044 1.0933942541
| 19> H -1.7485934493 0.3201834996 -1.9616938971
| 20> H -3.2421157639 -0.4029292773 -1.3651683441
| 21> H -3.0873018914 1.3573023136 -1.4569509031
| 22> H -1.5035755519 2.545290403 0.1563081239
| 23> H -0.8123910552 1.6484577959 1.5008967391
| 24> H 0.1247498847 1.7707448528 -1.3823093782
| 25> H 1.0268020797 2.082624821 0.0849602833
| 26> H 0.4776213637 -1.8766656703 0.7349604401
| 27> H 0.2811692657 -0.4049823172 1.702735798
| 28> H 4.1073991356 -0.3345616449 -1.2588437695
| 29> H 2.6096699125 -0.5212890052 -2.2882420781
| 30> H 3.9307213798 0.3896825021 1.0112225582
| 31> H 2.3823514533 1.0255923776 1.580393761
| 32> H 2.739921605 -0.692609942 1.7286805075
| 33> *
| 34>
| 35>                          ****END OF INPUT****

CARTESIAN COORDINATES (ANGSTROEM)
---------------------------------
  C     -2.556858    0.433108   -1.244887
  C     -2.016686    0.458208    0.191002
  H     -2.878143    0.569945    0.859789
  C     -1.033300    1.600868    0.433099
  C      0.268082    1.434601   -0.355565
  C      0.770718   -0.025165   -0.375014
  H      0.497079   -0.480245   -1.332528
  C      0.094153   -0.855009    0.726684
  C     -1.389472   -0.882053    0.506097
  O     -2.045267   -1.906251    0.558682
  C      2.276344   -0.074037   -0.259535
  C      3.032339   -0.321262   -1.318012
  C      2.867470    0.182873    1.093394
  H     -1.748593    0.320183   -1.961694
  H     -3.242116   -0.402929   -1.365168
  H     -3.087302    1.357302   -1.456951
  H     -1.503576    2.545290    0.156308
  H     -0.812391    1.648458    1.500897
  H      0.124750    1.770745   -1.382309
  H      1.026802    2.082625    0.084960
  H      0.477621   -1.876666    0.734960
  H      0.281169   -0.404982    1.702736
  H      4.107399   -0.334562   -1.258844
  H      2.609670   -0.521289   -2.288242
  H      3.930721    0.389683    1.011223
  H      2.382351    1.025592    1.580394
  H      2.739922   -0.692610    1.728681

 Total Charge           Charge          ....    0
 Multiplicity           Mult            ....    1
 Number of Electrons    NEL             ....   84
 Basis Dimension        Dim             ....  186

ORBITAL ENERGIES
----------------

  NO   OCC          E(Eh)            E(eV)
   0   2.0000     -18.737204      -509.8652
   1   2.0000      -9.968999      -271.2703
   2   2.0000      -9.909064      -269.6393
   3   2.0000      -9.904873      -269.5253
   4   2.0000      -9.902177      -269.4519
   5   2.0000      -9.894695      -269.2483
   6   2.0000      -9.894473      -269.2423
   7   2.0000      -9.894167      -269.2340
   8   2.0000      -9.888334      -269.0752
   9   2.0000      -9.885925      -269.0097
  10   2.0000      -9.876800      -268.7614
  11   2.0000      -0.932081       -25.3632
  12   2.0000      -0.774856       -21.0849
  13   2.0000      -0.731305       -19.8998
  14   2.0000      -0.683174       -18.5901
  15   2.0000      -0.660915       -17.9844
  16   2.0000      -0.624680       -16.9984
  17   2.0000      -0.610567       -16.6144
  18   2.0000      -0.553877       -15.0718
  19   2.0000      -0.533445       -14.5158
  20   2.0000      -0.478084       -13.0093
  21   2.0000      -0.458712       -12.4822
  22   2.0000      -0.445853       -12.1323
  23   2.0000      -0.425649       -11.5825
  24   2.0000      -0.413107       -11.2412
  25   2.0000      -0.405558       -11.0358
  26   2.0000      -0.393513       -10.7080
  27   2.0000      -0.379017       -10.3136
  28   2.0000      -0.369092       -10.0435
  29   2.0000      -0.362160        -9.8549
  30   2.0000      -0.355792        -9.6816
  31   2.0000      -0.345821        -9.4103
  32   2.0000      -0.341431        -9.2908
  33   2.0000      -0.331362        -9.0168
  34   2.0000      -0.319289        -8.6883
  35   2.0000      -0.313975        -8.5437
  36   2.0000      -0.309012        -8.4086
  37   2.0000      -0.293487        -7.9862
  38   2.0000      -0.278076        -7.5668
  39   2.0000      -0.276383        -7.5208
  40   2.0000      -0.222714        -6.0603
  41   2.0000      -0.190623        -5.1871
  42   0.0000      -0.052583        -1.4308
  43   0.0000      -0.014762        -0.4017
  44   0.0000       0.021196         0.5768
  45   0.0000       0.034977         0.9518
  46   0.0000       0.054349         1.4789

MULLIKEN ATOMIC CHARGES
-----------------------
   0 C :   -0.255478
   1 C :   -0.174067
   2 H :    0.092016
   3 C :   -0.087129
   4 C :   -0.127262
   5 C :   -0.192664
   6 H :    0.072103
   7 C :   -0.059286
   8 C :    0.009845
   9 O :   -0.166132
  10 C :   -0.030845
  11 C :   -0.225779
  12 C :   -0.227809
  13 H :    0.108137
  14 H :    0.120924
  15 H :    0.105938
  16 H :    0.086588
  17 H :    0.075730
  18 H :    0.089302
  19 H :    0.092008
  20 H :    0.095174
  21 H :    0.099502
  22 H :    0.080530
  23 H :    0.084783
  24 H :    0.103975
  25 H :    0.106822
  26 H :    0.123076
Sum of atomic charges:    0.0000000

LOEWDIN ATOMIC CHARGES
----------------------
   0 C :   -0.319355
   1 C :   -0.174562
   2 H :    0.138302
   3 C :   -0.220685
   4 C :   -0.215230
   5 C :   -0.127088
   6 H :    0.122922
   7 C :   -0.234816
   8 C :    0.054715
   9 O :   -0.132968
  10 C :   -0.048828
  11 C :   -0.264521
  12 C :   -0.324585
  13 H :    0.118607
  14 H :    0.129127
  15 H :    0.121857
  16 H :    0.122283
  17 H :    0.116568
  18 H :    0.122591
  19 H :    0.123156
  20 H :    0.133725
  21 H :    0.139502
  22 H :    0.117166
  23 H :    0.117570
  24 H :    0.128417
  25 H :    0.122569
  26 H :    0.133562

  Mayer bond orders larger than 0.100000
B(  0-C ,  1-C ) :   1.0949 B(  0-C , 13-H ) :   0.9451 B(  0-C , 14-H ) :   0.9423
B(  0-C , 15-H ) :   0.9477 B(  1-C ,  2-H ) :   0.8700 B(  1-C ,  3-C ) :   1.0996
B(  1-C ,  8-C ) :   0.9219 B(  3-C ,  4-C ) :   1.1487 B(  3-C , 16-H ) :   0.9093
B(  3-C , 17-H ) :   0.8935 B(  4-C ,  5-C ) :   1.0487 B(  4-C , 18-H ) :   0.9119
B(  4-C , 19-H ) :   0.9057 B(  5-C ,  6-H ) :   0.8791 B(  5-C ,  7-C ) :   1.1066
B(  5-C , 10-C ) :   1.0075 B(  7-C ,  8-C ) :   1.0778 B(  7-C , 20-H ) :   0.8971
B(  7-C , 21-H ) :   0.8387 B(  8-C ,  9-O ) :   2.1839 B( 10-C , 11-C ) :   2.0449
B( 10-C , 12-C ) :   1.1126 B( 11-C , 22-H ) :   0.9043 B( 11-C , 23-H ) :   0.9090
B( 12-C , 24-H ) :   0.9349 B( 12-C , 25-H ) :   0.9270 B( 12-C , 26-H ) :   0.9225

Dispersion correction           -0.028874845
FINAL SINGLE POINT ENERGY      -464.824304664433

DIPOLE MOMENT
-------------

Method             : SCF
Type of density    : Electron Density
Multiplicity       :   1
Irrep              :   0
Energy             :  -464.9098802613725638 Eh
Relativity type    :
Basis              : AO
                                X                 Y                 Z
Electronic contribution:     -4.096922907      -5.570084374       1.620998975
Nuclear contribution   :      4.571720514       6.535653338      -1.573265624
                        -----------------------------------------
Total Dipole Moment    :      0.474797607       0.965568964       0.047733352
                        -----------------------------------------
Magnitude (a.u.)       :      1.077049054
Magnitude (Debye)      :      2.737641131

Rotational constants in cm-1:             0.062669             0.024192             0.021839
Rotational constants in MHz :          1878.760289           725.260047           654.716817

                             ****ORCA TERMINATED NORMALLY****
TOTAL RUN TIME: 0 days 0 hours 0 minutes 17 seconds 181 msec
