                         Program Version 6.0.0  -   RELEASE  -
|  1> ! pbe def2-sv(p) def2/J RI DEFGRID1 loosescf d4 GCP(DFT/SV(P)) printgap
|  2> %output
|  3>     printlevel normal
|  4> end
|  5> * xyz 0 1
|  6> C -2.5353671931 -1.0208561712 -0.0007661479
|  7> C -1.2367711251 -0.2725936941 0.0011412391
|  8> C -1.2022188027 1.1145345756 0.0003477754
|  9> C 0.00976993 1.7852798356 -0.0001703828
| 10> C 1.2000579579 1.0861041684 -0.0004770244
| 11> C 1.1779482569 -0.3059904915 -0.0002061118
| 12> C -0.0376859684 -0.974996962 0.0008184249
| 13> O 2.3706906278 -0.9650998837 -0.0001368727
| 14> H -2.6229213486 -1.6206472054 -0.905274799
| 15> H -2.5857504281 -1.6944847543 0.8527439369
| 16> H -3.3768564415 -0.3354408458 0.0445720916
| 17> H -2.1255530779 1.6741680556 0.0012255946
| 18> H 0.0274770035 2.8647227947 0.0001600512
| 19> H 2.1528519765 1.5915786429 -0.000633442
| 20> H -0.0574131005 -2.0561855537 0.0016336271
| 21> H 2.228404593 -1.9237048802 -0.0004500055
| 22> *
| 23>
| 24>                          ****END OF INPUT****

CARTESIAN COORDINATES (ANGSTROEM)
---------------------------------
  C     -2.535367   -1.020856   -0.000766
  C     -1.236771   -0.272594    0.001141
  C     -1.202219    1.114535    0.000348
  C      0.009770    1.785280   -0.000170
  C      1.200058    1.086104   -0.000477
  C      1.177948   -0.305990   -0.000206
  C     -0.037686   -0.974997    0.000818
  O      2.370691   -0.965100   -0.000137
  H     -2.622921   -1.620647   -0.905275
  H     -2.585750   -1.694485    0.852744
  H     -3.376856   -0.335441    0.044572
  H     -2.125553    1.674168    0.001226
  H      0.027477    2.864723    0.000160
  H      2.152852    1.591579   -0.000633
  H     -0.057413   -2.056186    0.001634
  H      2.228405   -1.923705   -0.000450

 Total Charge           Charge          ....    0
 Multiplicity           Mult            ....    1
 Number of Electrons    NEL             ....   58
 Basis Dimension        Dim             ....  128

ORBITAL ENERGIES
----------------

  NO   OCC          E(Eh)            E(eV)
   0   2.0000     -18.778640      -510.9928
   1   2.0000      -9.948477      -270.7118
   2   2.0000      -9.901653      -269.4377
   3   2.0000      -9.888885      -269.0902
   4   2.0000      -9.885511      -268.9984
   5   2.0000      -9.883765      -268.9509
   6   2.0000      -9.880971      -268.8749
   7   2.0000      -9.880151      -268.8526
   8   2.0000      -0.959479       -26.1087
   9   2.0000      -0.771748       -21.0003
  10   2.0000      -0.694224       -18.8908
  11   2.0000      -0.660289       -17.9674
  12   2.0000      -0.616875       -16.7860
  13   2.0000      -0.559068       -15.2130
  14   2.0000      -0.521465       -14.1898
  15   2.0000      -0.485534       -13.2121
  16   2.0000      -0.444558       -12.0970
  17   2.0000      -0.416825       -11.3424
  18   2.0000      -0.382083       -10.3970
  19   2.0000      -0.380833       -10.3630
  20   2.0000      -0.362028        -9.8513
  21   2.0000      -0.353268        -9.6129
  22   2.0000      -0.352651        -9.5961
  23   2.0000      -0.328205        -8.9309
  24   2.0000      -0.307461        -8.3664
  25   2.0000      -0.290165        -7.8958
  26   2.0000      -0.286643        -7.8000
  27   2.0000      -0.218842        -5.9550
  28   2.0000      -0.192044        -5.2258
  29   0.0000      -0.032051        -0.8721
  30   0.0000      -0.012726        -0.3463
  31   0.0000       0.024481         0.6662
  32   0.0000       0.048413         1.3174
  33   0.0000       0.065916         1.7937

MULLIKEN ATOMIC CHARGES
-----------------------
   0 C :   -0.226239
   1 C :    0.047999
   2 C :   -0.117286
   3 C :   -0.046882
   4 C :   -0.125101
   5 C :    0.256833
   6 C :   -0.231055
   7 O :   -0.338579
   8 H :    0.114625
   9 H :    0.112848
  10 H :    0.102216
  11 H :    0.031428
  12 H :    0.050986
  13 H :    0.043424
  14 H :    0.009121
  15 H :    0.315662
Sum of atomic charges:   -0.0000000

LOEWDIN ATOMIC CHARGES
----------------------
   0 C :   -0.322258
   1 C :   -0.040280
   2 C :   -0.152495
   3 C :   -0.112432
   4 C :   -0.154597
   5 C :    0.025926
   6 C :   -0.178657
   7 O :   -0.238080
   8 H :    0.131711
   9 H :    0.130674
  10 H :    0.124725
  11 H :    0.119366
  12 H :    0.124168
  13 H :    0.129382
  14 H :    0.116011
  15 H :    0.296836

  Mayer bond orders larger than 0.100000
B(  0-C ,  1-C ) :   1.0911 B(  0-C ,  8-H ) :   0.9362 B(  0-C ,  9-H ) :   0.9375
B(  0-C , 10-H ) :   0.9461 B(  1-C ,  2-C ) :   1.4122 B(  1-C ,  6-C ) :   1.3639
B(  2-C ,  3-C ) :   1.3429 B(  2-C , 11-H ) :   0.9608 B(  3-C ,  4-C ) :   1.3813
B(  3-C , 12-H ) :   0.9630 B(  4-C ,  5-C ) :   1.3573 B(  4-C , 13-H ) :   0.9653
B(  5-C ,  6-C ) :   1.3071 B(  5-C ,  7-O ) :   1.1798 B(  6-C , 14-H ) :   0.9563
B(  7-O , 15-H ) :   0.8430

Dispersion correction           -0.015386377
FINAL SINGLE POINT ENERGY      -346.022905900204

DIPOLE MOMENT
-------------

Method             : SCF
Type of density    : Electron Density
Multiplicity       :   1
Irrep              :   0
Energy             :  -346.0725499352128054 Eh
Relativity type    :
Basis              : AO
                                X                 Y                 Z
Electronic contribution:      5.658643630       0.819849562       0.002290827
Nuclear contribution   :     -5.931375612      -1.421578826      -0.005652601
                        -----------------------------------------
Total Dipole Moment    :     -0.272731982      -0.601729264      -0.003361774
                        -----------------------------------------
Magnitude (a.u.)       :      0.660660384
Magnitude (Debye)      :      1.679265242

Rotational constants in cm-1:             0.122974             0.060682             0.040940
Rotational constants in MHz :          3686.660567          1819.194598          1227.349247

                             ****ORCA TERMINATED NORMALLY****
TOTAL RUN TIME: 0 days 0 hours 0 minutes 7 seconds 68 msec
