                         Program Version 6.0.0  -   RELEASE  -
|  1> ! wb97x-v def2-tzvp def2/J RIJCOSX DEFGRID2 scfconv7 GCP(DFT/TZ) printgap
|  2> %output
|  3>     printlevel normal
|  4> end
|  5> * xyz 0 1
|  6> C 2.280614774350786 2.2329979303351544 1.1517139794981524
|  7> C 1.9093305844270183 1.6310099137992642 -0.1913163797070012
|  8> C 2.812720944312741 0.42723383755990585 -0.5525455971093267
|  9> C 2.003699607682097 -0.7526819774815734 -0.09435393755990547
| 10> C 2.3208206594658067 -2.0929550307577913 0.06405586820916889
| 11> C 1.3253168217836129 -2.980647298337507 0.4857541827632975
| 12> C 0.030986121074594173 -2.527390877558492 0.7384275713439518
| 13> C -0.27834946802607907 -1.181141007983276 0.5832290667994238
| 14> C 0.7127317684722442 -0.301740999685859 0.1691281842858146
| 15> O 0.539536339718532 1.0329684371297285 -0.018956880222440173
| 16> O -1.55147428893769 -0.7159324168448091 0.9254922754354912
| 17> C -2.3088323991117874 -0.19474765854587478 -0.11538596513727249
| 18> O -1.9860567842825516 -0.2922815677504989 -1.2929625486450504
| 19> N -3.4127385380542337 0.39525956048479727 0.35493333527945564
| 20> C -4.43016476808088 0.905800514312162 -0.5555008358114624
| 21> C 1.7988731791320742 2.6663907264009654 -1.2867168747824635
| 22> H 2.3174039056317897 1.4570400898002382 1.9235975959876634
| 23> H 3.267006267643245 2.7020487079240416 1.0854402881775975
| 24> H 1.5511468917518625 2.9930622249756333 1.4460537676110954
| 25> H 2.9903441844249183 0.3789719956178602 -1.6336680124215146
| 26> H 3.78301725218509 0.5000672807562975 -0.05370237181785458
| 27> H 3.3268455066295104 -2.448917084156852 -0.13523473756045246
| 28> H 1.5562937122278369 -4.032087591401657 0.6185405515065547
| 29> H -0.7472086906792945 -3.20848358266003 1.0672670751823654
| 30> H -3.5915546798469458 0.3688993628105223 1.3472334389370886
| 31> H -4.019382024353102 1.688916212333079 -1.1990132188317755
| 32> H -5.2380955673277585 1.3303557350583517 0.0407831974543445
| 33> H -4.836203315734394 0.10716854469340906 -1.1845970823508396
| 34> H 2.7813266142651494 3.1171281332330425 -1.4574915144658325
| 35> H 1.1009125858143711 3.459772436785293 -1.0033198798181096
| 36> H 1.4615322148961398 2.2071295641759168 -2.220200865627885
| 37> *
| 38>
| 39>                          ****END OF INPUT****

CARTESIAN COORDINATES (ANGSTROEM)
---------------------------------
  C      2.280615    2.232998    1.151714
  C      1.909331    1.631010   -0.191316
  C      2.812721    0.427234   -0.552546
  C      2.003700   -0.752682   -0.094354
  C      2.320821   -2.092955    0.064056
  C      1.325317   -2.980647    0.485754
  C      0.030986   -2.527391    0.738428
  C     -0.278349   -1.181141    0.583229
  C      0.712732   -0.301741    0.169128
  O      0.539536    1.032968   -0.018957
  O     -1.551474   -0.715932    0.925492
  C     -2.308832   -0.194748   -0.115386
  O     -1.986057   -0.292282   -1.292963
  N     -3.412739    0.395260    0.354933
  C     -4.430165    0.905801   -0.555501
  C      1.798873    2.666391   -1.286717
  H      2.317404    1.457040    1.923598
  H      3.267006    2.702049    1.085440
  H      1.551147    2.993062    1.446054
  H      2.990344    0.378972   -1.633668
  H      3.783017    0.500067   -0.053702
  H      3.326846   -2.448917   -0.135235
  H      1.556294   -4.032088    0.618541
  H     -0.747209   -3.208484    1.067267
  H     -3.591555    0.368899    1.347233
  H     -4.019382    1.688916   -1.199013
  H     -5.238096    1.330356    0.040783
  H     -4.836203    0.107169   -1.184597
  H      2.781327    3.117128   -1.457492
  H      1.100913    3.459772   -1.003320
  H      1.461532    2.207130   -2.220201

 Total Charge           Charge          ....    0
 Multiplicity           Mult            ....    1
 Number of Electrons    NEL             ....  118
 Basis Dimension        Dim             ....  586

ORBITAL ENERGIES
----------------

  NO   OCC          E(Eh)            E(eV)
   0   2.0000     -21.713134      -590.8444
   1   2.0000     -21.690728      -590.2347
   2   2.0000     -21.632931      -588.6620
   3   2.0000     -16.555788      -450.5059
   4   2.0000     -12.188958      -331.6784
   5   2.0000     -12.118396      -329.7583
   6   2.0000     -12.103041      -329.3405
   7   2.0000     -12.098070      -329.2052
   8   2.0000     -12.083396      -328.8059
   9   2.0000     -12.057556      -328.1028
  10   2.0000     -12.051761      -327.9451
  11   2.0000     -12.048950      -327.8686
  12   2.0000     -12.048708      -327.8620
  13   2.0000     -12.043225      -327.7128
  14   2.0000     -12.041464      -327.6649
  15   2.0000     -12.040891      -327.6493
  16   2.0000      -1.748847       -47.5885
  17   2.0000      -1.705667       -46.4136
  18   2.0000      -1.679405       -45.6989
  19   2.0000      -1.526094       -41.5271
  20   2.0000      -1.388685       -37.7880
  21   2.0000      -1.343431       -36.5566
  22   2.0000      -1.301294       -35.4100
  23   2.0000      -1.285456       -34.9790
  24   2.0000      -1.241949       -33.7951
  25   2.0000      -1.200117       -32.6568
  26   2.0000      -1.195674       -32.5359
  27   2.0000      -1.172596       -31.9079
  28   2.0000      -1.127858       -30.6906
  29   2.0000      -1.113858       -30.3096
  30   2.0000      -1.091048       -29.6889
  31   2.0000      -1.080278       -29.3959
  32   2.0000      -1.051592       -28.6153
  33   2.0000      -1.020663       -27.7737
  34   2.0000      -0.995195       -27.0806
  35   2.0000      -0.984196       -26.7813
  36   2.0000      -0.965666       -26.2771
  37   2.0000      -0.960860       -26.1463
  38   2.0000      -0.954210       -25.9654
  39   2.0000      -0.927308       -25.2333
  40   2.0000      -0.917715       -24.9723
  41   2.0000      -0.899861       -24.4865
  42   2.0000      -0.883698       -24.0466
  43   2.0000      -0.880391       -23.9567
  44   2.0000      -0.866169       -23.5696
  45   2.0000      -0.865803       -23.5597
  46   2.0000      -0.864896       -23.5350
  47   2.0000      -0.841145       -22.8887
  48   2.0000      -0.837575       -22.7916
  49   2.0000      -0.832443       -22.6519
  50   2.0000      -0.827969       -22.5302
  51   2.0000      -0.817844       -22.2547
  52   2.0000      -0.814389       -22.1606
  53   2.0000      -0.795902       -21.6576
  54   2.0000      -0.790248       -21.5037
  55   2.0000      -0.759735       -20.6734
  56   2.0000      -0.757048       -20.6003
  57   2.0000      -0.643715       -17.5164
  58   2.0000      -0.629713       -17.1354
  59   0.0000      -0.269255        -7.3268
  60   0.0000      -0.249449        -6.7878
  61   0.0000      -0.240634        -6.5480
  62   0.0000      -0.210548        -5.7293
  63   0.0000      -0.193741        -5.2720

MULLIKEN ATOMIC CHARGES
-----------------------
   0 C :   -0.386928
   1 C :    0.276472
   2 C :   -0.154073
   3 C :   -0.011090
   4 C :   -0.252194
   5 C :   -0.094103
   6 C :   -0.223876
   7 C :    0.139791
   8 C :    0.236797
   9 O :   -0.272960
  10 O :   -0.298726
  11 C :    0.412574
  12 O :   -0.389542
  13 N :   -0.313296
  14 C :   -0.222614
  15 C :   -0.366335
  16 H :    0.133241
  17 H :    0.112313
  18 H :    0.120009
  19 H :    0.106505
  20 H :    0.116266
  21 H :    0.114665
  22 H :    0.112857
  23 H :    0.118675
  24 H :    0.236956
  25 H :    0.136307
  26 H :    0.116184
  27 H :    0.130878
  28 H :    0.111556
  29 H :    0.121015
  30 H :    0.132676
Sum of atomic charges:   -0.0000000

LOEWDIN ATOMIC CHARGES
----------------------
   0 C :   -0.252621
   1 C :   -0.314846
   2 C :   -0.152616
   3 C :   -0.124534
   4 C :   -0.117695
   5 C :   -0.151981
   6 C :   -0.109676
   7 C :   -0.197362
   8 C :   -0.194625
   9 O :    0.265140
  10 O :    0.272338
  11 C :   -0.547694
  12 O :    0.057713
  13 N :    0.092996
  14 C :   -0.291667
  15 C :   -0.252855
  16 H :    0.130124
  17 H :    0.124658
  18 H :    0.125715
  19 H :    0.146384
  20 H :    0.144611
  21 H :    0.142739
  22 H :    0.140472
  23 H :    0.147997
  24 H :    0.185706
  25 H :    0.119213
  26 H :    0.113855
  27 H :    0.116150
  28 H :    0.126994
  29 H :    0.126417
  30 H :    0.128951

  Mayer bond orders larger than 0.100000
B(  0-C ,  1-C ) :   0.9892 B(  0-C , 16-H ) :   0.9720 B(  0-C , 17-H ) :   0.9703
B(  0-C , 18-H ) :   0.9788 B(  1-C ,  2-C ) :   0.9857 B(  1-C ,  9-O ) :   0.8537
B(  1-C , 15-C ) :   0.9514 B(  2-C ,  3-C ) :   0.9988 B(  2-C , 19-H ) :   0.9164
B(  2-C , 20-H ) :   0.9650 B(  3-C ,  4-C ) :   1.3667 B(  3-C ,  8-C ) :   1.2881
B(  4-C ,  5-C ) :   1.4362 B(  4-C , 21-H ) :   0.9754 B(  5-C ,  6-C ) :   1.4277
B(  5-C , 22-H ) :   0.9818 B(  6-C ,  7-C ) :   1.4643 B(  6-C , 23-H ) :   0.9710
B(  7-C ,  8-C ) :   1.3405 B(  7-C , 10-O ) :   0.9688 B(  8-C ,  9-O ) :   1.1712
B( 10-O , 11-C ) :   1.0722 B( 11-C , 12-O ) :   2.0177 B( 11-C , 13-N ) :   1.2721
B( 13-N , 14-C ) :   0.9325 B( 13-N , 24-H ) :   0.9157 B( 14-C , 25-H ) :   0.9766
B( 14-C , 26-H ) :   0.9698 B( 14-C , 27-H ) :   0.9788 B( 15-C , 28-H ) :   0.9709
B( 15-C , 29-H ) :   0.9806 B( 15-C , 30-H ) :   0.9817

FINAL SINGLE POINT ENERGY      -746.812331556221

DIPOLE MOMENT
-------------

Method             : SCF
Type of density    : Electron Density
Multiplicity       :   1
Irrep              :   0
Energy             :  -746.8325508843206535 Eh
Relativity type    :
Basis              : AO
                                X                 Y                 Z
Electronic contribution:     -4.718036286      -9.907828225       2.092574604
Nuclear contribution   :      4.763947379      10.566961982      -1.417381207
                        -----------------------------------------
Total Dipole Moment    :      0.045911093       0.659133757       0.675193396
                        -----------------------------------------
Magnitude (a.u.)       :      0.944696385
Magnitude (Debye)      :      2.401227383

Rotational constants in cm-1:             0.024638             0.013966             0.010051
Rotational constants in MHz :           738.621849           418.696222           301.335876

                             ****ORCA TERMINATED NORMALLY****
TOTAL RUN TIME: 0 days 0 hours 11 minutes 19 seconds 509 msec
