                         Program Version 6.0.0  -   RELEASE  -
|  1> ! wb97x-v def2-tzvp def2/J RIJCOSX DEFGRID2 scfconv7 GCP(DFT/TZ) printgap
|  2> %output
|  3>     printlevel normal
|  4> end
|  5> %cpcm
|  6>     smd true
|  7>     smdsolvent "water"
|  8> end
|  9> * xyz 0 1
| 10> C 2.280614774350786 2.2329979303351544 1.1517139794981524
| 11> C 1.9093305844270183 1.6310099137992642 -0.1913163797070012
| 12> C 2.812720944312741 0.42723383755990585 -0.5525455971093267
| 13> C 2.003699607682097 -0.7526819774815734 -0.09435393755990547
| 14> C 2.3208206594658067 -2.0929550307577913 0.06405586820916889
| 15> C 1.3253168217836129 -2.980647298337507 0.4857541827632975
| 16> C 0.030986121074594173 -2.527390877558492 0.7384275713439518
| 17> C -0.27834946802607907 -1.181141007983276 0.5832290667994238
| 18> C 0.7127317684722442 -0.301740999685859 0.1691281842858146
| 19> O 0.539536339718532 1.0329684371297285 -0.018956880222440173
| 20> O -1.55147428893769 -0.7159324168448091 0.9254922754354912
| 21> C -2.3088323991117874 -0.19474765854587478 -0.11538596513727249
| 22> O -1.9860567842825516 -0.2922815677504989 -1.2929625486450504
| 23> N -3.4127385380542337 0.39525956048479727 0.35493333527945564
| 24> C -4.43016476808088 0.905800514312162 -0.5555008358114624
| 25> C 1.7988731791320742 2.6663907264009654 -1.2867168747824635
| 26> H 2.3174039056317897 1.4570400898002382 1.9235975959876634
| 27> H 3.267006267643245 2.7020487079240416 1.0854402881775975
| 28> H 1.5511468917518625 2.9930622249756333 1.4460537676110954
| 29> H 2.9903441844249183 0.3789719956178602 -1.6336680124215146
| 30> H 3.78301725218509 0.5000672807562975 -0.05370237181785458
| 31> H 3.3268455066295104 -2.448917084156852 -0.13523473756045246
| 32> H 1.5562937122278369 -4.032087591401657 0.6185405515065547
| 33> H -0.7472086906792945 -3.20848358266003 1.0672670751823654
| 34> H -3.5915546798469458 0.3688993628105223 1.3472334389370886
| 35> H -4.019382024353102 1.688916212333079 -1.1990132188317755
| 36> H -5.2380955673277585 1.3303557350583517 0.0407831974543445
| 37> H -4.836203315734394 0.10716854469340906 -1.1845970823508396
| 38> H 2.7813266142651494 3.1171281332330425 -1.4574915144658325
| 39> H 1.1009125858143711 3.459772436785293 -1.0033198798181096
| 40> H 1.4615322148961398 2.2071295641759168 -2.220200865627885
| 41> *
| 42>
| 43>                          ****END OF INPUT****

CARTESIAN COORDINATES (ANGSTROEM)
---------------------------------
  C      2.280615    2.232998    1.151714
  C      1.909331    1.631010   -0.191316
  C      2.812721    0.427234   -0.552546
  C      2.003700   -0.752682   -0.094354
  C      2.320821   -2.092955    0.064056
  C      1.325317   -2.980647    0.485754
  C      0.030986   -2.527391    0.738428
  C     -0.278349   -1.181141    0.583229
  C      0.712732   -0.301741    0.169128
  O      0.539536    1.032968   -0.018957
  O     -1.551474   -0.715932    0.925492
  C     -2.308832   -0.194748   -0.115386
  O     -1.986057   -0.292282   -1.292963
  N     -3.412739    0.395260    0.354933
  C     -4.430165    0.905801   -0.555501
  C      1.798873    2.666391   -1.286717
  H      2.317404    1.457040    1.923598
  H      3.267006    2.702049    1.085440
  H      1.551147    2.993062    1.446054
  H      2.990344    0.378972   -1.633668
  H      3.783017    0.500067   -0.053702
  H      3.326846   -2.448917   -0.135235
  H      1.556294   -4.032088    0.618541
  H     -0.747209   -3.208484    1.067267
  H     -3.591555    0.368899    1.347233
  H     -4.019382    1.688916   -1.199013
  H     -5.238096    1.330356    0.040783
  H     -4.836203    0.107169   -1.184597
  H      2.781327    3.117128   -1.457492
  H      1.100913    3.459772   -1.003320
  H      1.461532    2.207130   -2.220201

 Total Charge           Charge          ....    0
 Multiplicity           Mult            ....    1
 Number of Electrons    NEL             ....  118
 Basis Dimension        Dim             ....  586

ORBITAL ENERGIES
----------------

  NO   OCC          E(Eh)            E(eV)
   0   2.0000     -21.729999      -591.3033
   1   2.0000     -21.702039      -590.5425
   2   2.0000     -21.660050      -589.3999
   3   2.0000     -16.558801      -450.5879
   4   2.0000     -12.209111      -332.2268
   5   2.0000     -12.115333      -329.6750
   6   2.0000     -12.113815      -329.6337
   7   2.0000     -12.107912      -329.4730
   8   2.0000     -12.073349      -328.5325
   9   2.0000     -12.057927      -328.1129
  10   2.0000     -12.055504      -328.0469
  11   2.0000     -12.053184      -327.9838
  12   2.0000     -12.049657      -327.8878
  13   2.0000     -12.048771      -327.8637
  14   2.0000     -12.031828      -327.4027
  15   2.0000     -12.030892      -327.3772
  16   2.0000      -1.768194       -48.1150
  17   2.0000      -1.717743       -46.7422
  18   2.0000      -1.705790       -46.4169
  19   2.0000      -1.529978       -41.6328
  20   2.0000      -1.397501       -38.0279
  21   2.0000      -1.342212       -36.5234
  22   2.0000      -1.306348       -35.5475
  23   2.0000      -1.292800       -35.1789
  24   2.0000      -1.244571       -33.8665
  25   2.0000      -1.198857       -32.6226
  26   2.0000      -1.187390       -32.3105
  27   2.0000      -1.178254       -32.0619
  28   2.0000      -1.135348       -30.8944
  29   2.0000      -1.124376       -30.5958
  30   2.0000      -1.099730       -29.9252
  31   2.0000      -1.084602       -29.5135
  32   2.0000      -1.071030       -29.1442
  33   2.0000      -1.029881       -28.0245
  34   2.0000      -1.013919       -27.5901
  35   2.0000      -0.995758       -27.0960
  36   2.0000      -0.971394       -26.4330
  37   2.0000      -0.964254       -26.2387
  38   2.0000      -0.956390       -26.0247
  39   2.0000      -0.936631       -25.4870
  40   2.0000      -0.922572       -25.1045
  41   2.0000      -0.914228       -24.8774
  42   2.0000      -0.895378       -24.3645
  43   2.0000      -0.879949       -23.9446
  44   2.0000      -0.877300       -23.8726
  45   2.0000      -0.873381       -23.7659
  46   2.0000      -0.862418       -23.4676
  47   2.0000      -0.844091       -22.9689
  48   2.0000      -0.829999       -22.5854
  49   2.0000      -0.827792       -22.5254
  50   2.0000      -0.821776       -22.3617
  51   2.0000      -0.814167       -22.1546
  52   2.0000      -0.805816       -21.9274
  53   2.0000      -0.788736       -21.4626
  54   2.0000      -0.783674       -21.3248
  55   2.0000      -0.765079       -20.8189
  56   2.0000      -0.759374       -20.6636
  57   2.0000      -0.653307       -17.7774
  58   2.0000      -0.638558       -17.3760
  59   0.0000      -0.285618        -7.7720
  60   0.0000      -0.259790        -7.0693
  61   0.0000      -0.248676        -6.7668
  62   0.0000      -0.220706        -6.0057
  63   0.0000      -0.194812        -5.3011

MULLIKEN ATOMIC CHARGES
-----------------------
   0 C :   -0.439752
   1 C :    0.325114
   2 C :   -0.156357
   3 C :   -0.031450
   4 C :   -0.286390
   5 C :   -0.145736
   6 C :   -0.265342
   7 C :    0.123343
   8 C :    0.217580
   9 O :   -0.337150
  10 O :   -0.304938
  11 C :    0.457449
  12 O :   -0.518968
  13 N :   -0.297346
  14 C :   -0.281952
  15 C :   -0.420825
  16 H :    0.144869
  17 H :    0.141649
  18 H :    0.136753
  19 H :    0.130652
  20 H :    0.148180
  21 H :    0.163026
  22 H :    0.162235
  23 H :    0.165526
  24 H :    0.293194
  25 H :    0.148352
  26 H :    0.159858
  27 H :    0.147301
  28 H :    0.141627
  29 H :    0.140329
  30 H :    0.139172
Sum of atomic charges:   -0.0000000

LOEWDIN ATOMIC CHARGES
----------------------
   0 C :   -0.254095
   1 C :   -0.310806
   2 C :   -0.143190
   3 C :   -0.122434
   4 C :   -0.116917
   5 C :   -0.158364
   6 C :   -0.119554
   7 C :   -0.217433
   8 C :   -0.210907
   9 O :    0.236244
  10 O :    0.270160
  11 C :   -0.544080
  12 O :   -0.016448
  13 N :    0.114566
  14 C :   -0.288581
  15 C :   -0.256610
  16 H :    0.131645
  17 H :    0.133942
  18 H :    0.127930
  19 H :    0.154242
  20 H :    0.155417
  21 H :    0.155163
  22 H :    0.151383
  23 H :    0.159033
  24 H :    0.206819
  25 H :    0.120804
  26 H :    0.128138
  27 H :    0.119666
  28 H :    0.136566
  29 H :    0.129017
  30 H :    0.128684

  Mayer bond orders larger than 0.100000
B(  0-C ,  1-C ) :   0.9877 B(  0-C , 16-H ) :   0.9668 B(  0-C , 17-H ) :   0.9677
B(  0-C , 18-H ) :   0.9754 B(  1-C ,  2-C ) :   0.9797 B(  1-C ,  9-O ) :   0.7789
B(  1-C , 15-C ) :   0.9573 B(  2-C ,  3-C ) :   1.0042 B(  2-C , 19-H ) :   0.9177
B(  2-C , 20-H ) :   0.9551 B(  3-C ,  4-C ) :   1.3432 B(  3-C ,  8-C ) :   1.2841
B(  4-C ,  5-C ) :   1.4105 B(  4-C , 21-H ) :   0.9804 B(  5-C ,  6-C ) :   1.4126
B(  5-C , 22-H ) :   0.9843 B(  6-C ,  7-C ) :   1.4350 B(  6-C , 23-H ) :   0.9759
B(  7-C ,  8-C ) :   1.3277 B(  7-C , 10-O ) :   0.9592 B(  8-C ,  9-O ) :   1.1612
B( 10-O , 11-C ) :   1.0906 B( 11-C , 12-O ) :   1.8682 B( 11-C , 13-N ) :   1.3493
B( 13-N , 14-C ) :   0.9152 B( 13-N , 24-H ) :   0.8885 B( 14-C , 25-H ) :   0.9714
B( 14-C , 26-H ) :   0.9644 B( 14-C , 27-H ) :   0.9740 B( 15-C , 28-H ) :   0.9690
B( 15-C , 29-H ) :   0.9771 B( 15-C , 30-H ) :   0.9742

FINAL SINGLE POINT ENERGY      -746.830635463656

DIPOLE MOMENT
-------------

Method             : SCF
Type of density    : Electron Density
Multiplicity       :   1
Irrep              :   0
Energy             :  -746.8508547917557507 Eh
Relativity type    :
Basis              : AO
                                X                 Y                 Z
Electronic contribution:     -4.476176558      -9.767852679       2.495666129
Nuclear contribution   :      4.763947379      10.566961982      -1.417381207
                        -----------------------------------------
Total Dipole Moment    :      0.287770822       0.799109303       1.078284922
                        -----------------------------------------
Magnitude (a.u.)       :      1.372620157
Magnitude (Debye)      :      3.488923170

Rotational constants in cm-1:             0.024638             0.013966             0.010051
Rotational constants in MHz :           738.621849           418.696222           301.335876

                             ****ORCA TERMINATED NORMALLY****
TOTAL RUN TIME: 0 days 0 hours 11 minutes 28 seconds 385 msec
