                         Program Version 6.0.0  -   RELEASE  -
|  1> ! pbe def2-sv(p) def2/J RI DEFGRID1 loosescf d4 GCP(DFT/SV(P)) printgap
|  2> %output
|  3>     printlevel normal
|  4> end
|  5> * xyz 0 1
|  6> C -2.8614190499 0.6870665231 -0.3682121946
|  7> C -1.7187352708 0.258540659 0.5634106124
|  8> H -2.1610759699 -4.52173e-05 1.5322844193
|  9> C -0.6798914893 1.3669091538 0.7579353983
| 10> C 0.1718344458 1.5887064184 -0.4846092857
| 11> C 0.9104358478 0.3039965207 -0.885923127
| 12> H 1.4153936089 0.4860354113 -1.8409929703
| 13> C -0.106666263 -0.8232238453 -1.1105664624
| 14> C -1.1015230929 -1.0006940929 0.0006830443
| 15> O -1.4559871748 -2.1042597038 0.3795822822
| 16> C 1.9800692797 -0.0414349395 0.1247217838
| 17> C 1.7978327505 -0.8770298798 1.1348566454
| 18> C 3.2908184716 0.6533759099 -0.0958574669
| 19> H -2.48846193 0.966546493 -1.3486475329
| 20> H -3.5708060193 -0.1291107771 -0.487604057
| 21> H -3.3811514196 1.5379417243 0.0640868362
| 22> H -1.196053688 2.2905427828 1.02457219
| 23> H -0.0277853545 1.0941359301 1.5904082467
| 24> H -0.4545082905 1.9144118742 -1.3153418084
| 25> H 0.8943518499 2.3809585655 -0.2852702038
| 26> H -0.6934236347 -0.5853778313 -2.002014791
| 27> H 0.3985763875 -1.7747646503 -1.2865949319
| 28> H 2.5834665568 -1.0838495519 1.8425064722
| 29> H 0.8729963357 -1.4016421758 1.3032766989
| 30> H 3.9776061349 0.4572085215 0.7223009321
| 31> H 3.7442506751 0.30309599 -1.0223276576
| 32> H 3.1458006089 1.7283213229 -0.1836242471
| 33> *
| 34>
| 35>                          ****END OF INPUT****

CARTESIAN COORDINATES (ANGSTROEM)
---------------------------------
  C     -2.861419    0.687067   -0.368212
  C     -1.718735    0.258541    0.563411
  H     -2.161076   -0.000045    1.532284
  C     -0.679891    1.366909    0.757935
  C      0.171834    1.588706   -0.484609
  C      0.910436    0.303997   -0.885923
  H      1.415394    0.486035   -1.840993
  C     -0.106666   -0.823224   -1.110566
  C     -1.101523   -1.000694    0.000683
  O     -1.455987   -2.104260    0.379582
  C      1.980069   -0.041435    0.124722
  C      1.797833   -0.877030    1.134857
  C      3.290818    0.653376   -0.095857
  H     -2.488462    0.966546   -1.348648
  H     -3.570806   -0.129111   -0.487604
  H     -3.381151    1.537942    0.064087
  H     -1.196054    2.290543    1.024572
  H     -0.027785    1.094136    1.590408
  H     -0.454508    1.914412   -1.315342
  H      0.894352    2.380959   -0.285270
  H     -0.693424   -0.585378   -2.002015
  H      0.398576   -1.774765   -1.286595
  H      2.583467   -1.083850    1.842506
  H      0.872996   -1.401642    1.303277
  H      3.977606    0.457209    0.722301
  H      3.744251    0.303096   -1.022328
  H      3.145801    1.728321   -0.183624

 Total Charge           Charge          ....    0
 Multiplicity           Mult            ....    1
 Number of Electrons    NEL             ....   84
 Basis Dimension        Dim             ....  186

ORBITAL ENERGIES
----------------

  NO   OCC          E(Eh)            E(eV)
   0   2.0000     -18.729783      -509.6633
   1   2.0000      -9.967688      -271.2346
   2   2.0000      -9.910306      -269.6731
   3   2.0000      -9.903971      -269.5008
   4   2.0000      -9.899783      -269.3868
   5   2.0000      -9.897212      -269.3168
   6   2.0000      -9.892458      -269.1875
   7   2.0000      -9.891140      -269.1516
   8   2.0000      -9.888281      -269.0738
   9   2.0000      -9.884582      -268.9731
  10   2.0000      -9.871870      -268.6272
  11   2.0000      -0.927485       -25.2381
  12   2.0000      -0.774639       -21.0790
  13   2.0000      -0.727680       -19.8012
  14   2.0000      -0.683442       -18.5974
  15   2.0000      -0.664475       -18.0813
  16   2.0000      -0.618743       -16.8369
  17   2.0000      -0.606611       -16.5067
  18   2.0000      -0.558927       -15.2092
  19   2.0000      -0.535073       -14.5601
  20   2.0000      -0.481608       -13.1052
  21   2.0000      -0.452141       -12.3034
  22   2.0000      -0.438275       -11.9261
  23   2.0000      -0.421716       -11.4755
  24   2.0000      -0.414986       -11.2923
  25   2.0000      -0.399641       -10.8748
  26   2.0000      -0.392674       -10.6852
  27   2.0000      -0.373147       -10.1539
  28   2.0000      -0.371023       -10.0961
  29   2.0000      -0.366422        -9.9708
  30   2.0000      -0.354297        -9.6409
  31   2.0000      -0.351053        -9.5526
  32   2.0000      -0.346190        -9.4203
  33   2.0000      -0.326243        -8.8775
  34   2.0000      -0.324335        -8.8256
  35   2.0000      -0.308976        -8.4077
  36   2.0000      -0.299962        -8.1624
  37   2.0000      -0.289944        -7.8898
  38   2.0000      -0.280686        -7.6379
  39   2.0000      -0.273096        -7.4313
  40   2.0000      -0.222519        -6.0550
  41   2.0000      -0.185886        -5.0582
  42   0.0000      -0.050391        -1.3712
  43   0.0000      -0.016676        -0.4538
  44   0.0000       0.021260         0.5785
  45   0.0000       0.048121         1.3094
  46   0.0000       0.056313         1.5323

MULLIKEN ATOMIC CHARGES
-----------------------
   0 C :   -0.271690
   1 C :   -0.119162
   2 H :    0.071560
   3 C :   -0.114676
   4 C :   -0.135848
   5 C :   -0.124781
   6 H :    0.062306
   7 C :   -0.060307
   8 C :   -0.026410
   9 O :   -0.168719
  10 C :   -0.071877
  11 C :   -0.248458
  12 C :   -0.214044
  13 H :    0.107170
  14 H :    0.119220
  15 H :    0.110626
  16 H :    0.081609
  17 H :    0.101068
  18 H :    0.089107
  19 H :    0.088883
  20 H :    0.105832
  21 H :    0.093357
  22 H :    0.082766
  23 H :    0.121949
  24 H :    0.101066
  25 H :    0.112085
  26 H :    0.107369
Sum of atomic charges:   -0.0000000

LOEWDIN ATOMIC CHARGES
----------------------
   0 C :   -0.321391
   1 C :   -0.167624
   2 H :    0.128561
   3 C :   -0.218107
   4 C :   -0.210802
   5 C :   -0.128011
   6 H :    0.121670
   7 C :   -0.231541
   8 C :    0.049598
   9 O :   -0.136736
  10 C :   -0.052367
  11 C :   -0.266918
  12 C :   -0.322471
  13 H :    0.115730
  14 H :    0.128025
  15 H :    0.124798
  16 H :    0.118690
  17 H :    0.124834
  18 H :    0.116787
  19 H :    0.120747
  20 H :    0.143555
  21 H :    0.134129
  22 H :    0.120318
  23 H :    0.127009
  24 H :    0.125201
  25 H :    0.130921
  26 H :    0.125394

  Mayer bond orders larger than 0.100000
B(  0-C ,  1-C ) :   1.0863 B(  0-C , 13-H ) :   0.9427 B(  0-C , 14-H ) :   0.9446
B(  0-C , 15-H ) :   0.9442 B(  1-C ,  2-H ) :   0.8693 B(  1-C ,  3-C ) :   1.0620
B(  1-C ,  8-C ) :   0.9672 B(  3-C ,  4-C ) :   1.1199 B(  3-C , 16-H ) :   0.9099
B(  3-C , 17-H ) :   0.9025 B(  4-C ,  5-C ) :   1.0588 B(  4-C , 18-H ) :   0.9121
B(  4-C , 19-H ) :   0.9053 B(  5-C ,  6-H ) :   0.8753 B(  5-C ,  7-C ) :   1.0599
B(  5-C , 10-C ) :   0.9999 B(  7-C ,  8-C ) :   1.0327 B(  7-C , 20-H ) :   0.8788
B(  7-C , 21-H ) :   0.8863 B(  8-C ,  9-O ) :   2.1526 B( 10-C , 11-C ) :   2.0352
B( 10-C , 12-C ) :   1.1233 B( 11-C , 22-H ) :   0.9017 B( 11-C , 23-H ) :   0.8855
B( 12-C , 24-H ) :   0.9407 B( 12-C , 25-H ) :   0.9267 B( 12-C , 26-H ) :   0.9282

Dispersion correction           -0.030187052
FINAL SINGLE POINT ENERGY      -464.827564208830

DIPOLE MOMENT
-------------

Method             : SCF
Type of density    : Electron Density
Multiplicity       :   1
Irrep              :   0
Energy             :  -464.9127363522680980 Eh
Relativity type    :
Basis              : AO
                                X                 Y                 Z
Electronic contribution:     -2.496195054      -6.527861951       1.138690320
Nuclear contribution   :      2.848425933       7.647134576      -1.582670715
                        -----------------------------------------
Total Dipole Moment    :      0.352230879       1.119272625      -0.443980395
                        -----------------------------------------
Magnitude (a.u.)       :      1.254574188
Magnitude (Debye)      :      3.188874161

Rotational constants in cm-1:             0.061260             0.028774             0.024067
Rotational constants in MHz :          1836.517151           862.617605           721.525157

                             ****ORCA TERMINATED NORMALLY****
TOTAL RUN TIME: 0 days 0 hours 0 minutes 15 seconds 69 msec
