                         Program Version 6.0.0  -   RELEASE  -
|  1> ! pbe def2-sv(p) def2/J RI DEFGRID1 loosescf d4 GCP(DFT/SV(P)) printgap
|  2> %output
|  3>     printlevel normal
|  4> end
|  5> * xyz 0 1
|  6> C -1.8846206142 0.0197418271 0.2990665001
|  7> C -1.1950431127 -1.2115520737 -0.3023157476
|  8> C 0.2674303611 -1.2732004594 0.1210116527
|  9> C 1.0628018476 -0.0914794799 -0.4523293417
| 10> C 0.15945335 1.1406554322 -0.6322348723
| 11> C -0.9012472949 1.185205345 0.4615424018
| 12> O 2.1298190621 0.1568638997 0.4496372505
| 13> H -2.3055662912 -0.2307585039 1.2738519812
| 14> H -2.7107243394 0.3188919833 -0.3481605738
| 15> H -1.7082294837 -2.1183710688 0.0189572446
| 16> H -1.2432087131 -1.1758466205 -1.3922922731
| 17> H 0.3432623246 -1.2255813206 1.2085993503
| 18> H 0.7238843604 -2.2100108503 -0.199766225
| 19> H 1.4835034112 -0.369929679 -1.4323897848
| 20> H 0.7726818273 2.0432959793 -0.5994705003
| 21> H -0.3219091639 1.0988530311 -1.6098552704
| 22> H -0.3989158609 1.1217241162 1.4284369514
| 23> H -1.4383453362 2.1340236356 0.4284055775
| 24> H 2.6824063713 0.8720301133 0.1072478751
| 25> *
| 26>
| 27>                          ****END OF INPUT****

CARTESIAN COORDINATES (ANGSTROEM)
---------------------------------
  C     -1.884621    0.019742    0.299067
  C     -1.195043   -1.211552   -0.302316
  C      0.267430   -1.273200    0.121012
  C      1.062802   -0.091479   -0.452329
  C      0.159453    1.140655   -0.632235
  C     -0.901247    1.185205    0.461542
  O      2.129819    0.156864    0.449637
  H     -2.305566   -0.230759    1.273852
  H     -2.710724    0.318892   -0.348161
  H     -1.708229   -2.118371    0.018957
  H     -1.243209   -1.175847   -1.392292
  H      0.343262   -1.225581    1.208599
  H      0.723884   -2.210011   -0.199766
  H      1.483503   -0.369930   -1.432390
  H      0.772682    2.043296   -0.599471
  H     -0.321909    1.098853   -1.609855
  H     -0.398916    1.121724    1.428437
  H     -1.438345    2.134024    0.428406
  H      2.682406    0.872030    0.107248

 Total Charge           Charge          ....    0
 Multiplicity           Mult            ....    1
 Number of Electrons    NEL             ....   56
 Basis Dimension        Dim             ....  122

ORBITAL ENERGIES
----------------

  NO   OCC          E(Eh)            E(eV)
   0   2.0000     -18.738090      -509.8893
   1   2.0000      -9.932208      -270.2691
   2   2.0000      -9.880735      -268.8685
   3   2.0000      -9.880337      -268.8576
   4   2.0000      -9.878933      -268.8194
   5   2.0000      -9.878201      -268.7995
   6   2.0000      -9.875756      -268.7330
   7   2.0000      -0.914350       -24.8807
   8   2.0000      -0.745544       -20.2873
   9   2.0000      -0.662284       -18.0217
  10   2.0000      -0.650933       -17.7128
  11   2.0000      -0.555975       -15.1288
  12   2.0000      -0.537249       -14.6193
  13   2.0000      -0.467724       -12.7274
  14   2.0000      -0.453161       -12.3311
  15   2.0000      -0.436283       -11.8719
  16   2.0000      -0.425718       -11.5844
  17   2.0000      -0.370976       -10.0948
  18   2.0000      -0.346425        -9.4267
  19   2.0000      -0.339445        -9.2368
  20   2.0000      -0.336397        -9.1538
  21   2.0000      -0.330293        -8.9877
  22   2.0000      -0.317314        -8.6345
  23   2.0000      -0.279773        -7.6130
  24   2.0000      -0.272431        -7.4132
  25   2.0000      -0.269306        -7.3282
  26   2.0000      -0.251780        -6.8513
  27   2.0000      -0.208739        -5.6801
  28   0.0000       0.025382         0.6907
  29   0.0000       0.044216         1.2032
  30   0.0000       0.053866         1.4658
  31   0.0000       0.080022         2.1775
  32   0.0000       0.092515         2.5175

MULLIKEN ATOMIC CHARGES
-----------------------
   0 C :   -0.156623
   1 C :   -0.162519
   2 C :   -0.128532
   3 C :    0.015523
   4 C :   -0.133823
   5 C :   -0.159724
   6 O :   -0.424895
   7 H :    0.081876
   8 H :    0.080232
   9 H :    0.087538
  10 H :    0.075861
  11 H :    0.085376
  12 H :    0.087423
  13 H :    0.051896
  14 H :    0.067097
  15 H :    0.073041
  16 H :    0.085226
  17 H :    0.083775
  18 H :    0.291251
Sum of atomic charges:   -0.0000000

LOEWDIN ATOMIC CHARGES
----------------------
   0 C :   -0.229340
   1 C :   -0.230151
   2 C :   -0.229439
   3 C :   -0.049863
   4 C :   -0.241983
   5 C :   -0.230981
   6 O :   -0.333954
   7 H :    0.117170
   8 H :    0.115025
   9 H :    0.119783
  10 H :    0.113379
  11 H :    0.123877
  12 H :    0.120238
  13 H :    0.093224
  14 H :    0.112876
  15 H :    0.116429
  16 H :    0.118155
  17 H :    0.116855
  18 H :    0.278700

  Mayer bond orders larger than 0.100000
B(  0-C ,  1-C ) :   1.1351 B(  0-C ,  5-C ) :   1.1475 B(  0-C ,  7-H ) :   0.9217
B(  0-C ,  8-H ) :   0.9226 B(  1-C ,  2-C ) :   1.1730 B(  1-C ,  9-H ) :   0.9212
B(  1-C , 10-H ) :   0.9088 B(  2-C ,  3-C ) :   1.0953 B(  2-C , 11-H ) :   0.8941
B(  2-C , 12-H ) :   0.9169 B(  3-C ,  4-C ) :   1.0863 B(  3-C ,  6-O ) :   1.0635
B(  3-C , 13-H ) :   0.9050 B(  4-C ,  5-C ) :   1.1751 B(  4-C , 14-H ) :   0.9124
B(  4-C , 15-H ) :   0.8960 B(  5-C , 16-H ) :   0.9044 B(  5-C , 17-H ) :   0.9227
B(  6-O , 18-H ) :   0.8519

Dispersion correction           -0.016413915
FINAL SINGLE POINT ENERGY      -310.336897106226

DIPOLE MOMENT
-------------

Method             : SCF
Type of density    : Electron Density
Multiplicity       :   1
Irrep              :   0
Energy             :  -310.4099000682625160 Eh
Relativity type    :
Basis              : AO
                                X                 Y                 Z
Electronic contribution:      3.789925207       0.071929391       0.603670864
Nuclear contribution   :     -3.834735164       0.244674559      -1.040730968
                        -----------------------------------------
Total Dipole Moment    :     -0.044809958       0.316603949      -0.437060104
                        -----------------------------------------
Magnitude (a.u.)       :      0.541541806
Magnitude (Debye)      :      1.376489879

Rotational constants in cm-1:             0.138284             0.078107             0.059753
Rotational constants in MHz :          4145.639674          2341.600343          1791.339451

                             ****ORCA TERMINATED NORMALLY****
TOTAL RUN TIME: 0 days 0 hours 0 minutes 30 seconds 197 msec
