                         Program Version 6.0.0  -   RELEASE  -
|  1> ! pbe def2-sv(p) def2/J RI DEFGRID1 loosescf d4 GCP(DFT/SV(P)) printgap
|  2> %output
|  3>     printlevel normal
|  4> end
|  5> * xyz 0 1
|  6> C -2.9442462389 0.6782395548 0.7187639278
|  7> C -1.4658892419 0.3074697465 0.6238100927
|  8> H -1.1067888811 0.079090734 1.634365254
|  9> C -0.6143957071 1.4568811786 0.0451676405
| 10> C 0.2250225159 1.0100404323 -1.1445921163
| 11> C 1.0813200391 -0.2140731197 -0.7875192529
| 12> H 1.6503145588 -0.4911088162 -1.6810580744
| 13> C 0.1405199632 -1.3839384489 -0.4520080935
| 14> C -1.2776701177 -0.9820253875 -0.1417267777
| 15> O -2.2126281052 -1.6970757068 -0.4530170292
| 16> C 2.0944355524 0.1301476766 0.282290339
| 17> C 1.9241119622 -0.0782241492 1.5782044245
| 18> C 3.3517896295 0.7542869599 -0.2466279548
| 19> H -3.0734003788 1.5570940796 1.3440909974
| 20> H -3.3440190162 0.8838443664 -0.2717999121
| 21> H -3.5130309397 -0.1459932774 1.1431706582
| 22> H -1.2777250915 2.262400514 -0.2711456344
| 23> H 0.0452995549 1.8527318876 0.8175910949
| 24> H -0.431781795 0.7394379483 -1.9751947992
| 25> H 0.8598953384 1.8344434967 -1.4702868213
| 26> H 0.0977018022 -2.0951023536 -1.2794368485
| 27> H 0.5117284882 -1.9353229582 0.4146485859
| 28> H 2.6815633208 0.1971837244 2.2924807063
| 29> H 1.0399936702 -0.5302896845 1.9927414903
| 30> H 3.1200243506 1.6146552767 -0.8713765019
| 31> H 3.9998487278 1.0746587634 0.5639177069
| 32> H 3.8927493866 0.035576125 -0.8611080223
| 33> *
| 34>
| 35>                          ****END OF INPUT****

CARTESIAN COORDINATES (ANGSTROEM)
---------------------------------
  C     -2.944246    0.678240    0.718764
  C     -1.465889    0.307470    0.623810
  H     -1.106789    0.079091    1.634365
  C     -0.614396    1.456881    0.045168
  C      0.225023    1.010040   -1.144592
  C      1.081320   -0.214073   -0.787519
  H      1.650315   -0.491109   -1.681058
  C      0.140520   -1.383938   -0.452008
  C     -1.277670   -0.982025   -0.141727
  O     -2.212628   -1.697076   -0.453017
  C      2.094436    0.130148    0.282290
  C      1.924112   -0.078224    1.578204
  C      3.351790    0.754287   -0.246628
  H     -3.073400    1.557094    1.344091
  H     -3.344019    0.883844   -0.271800
  H     -3.513031   -0.145993    1.143171
  H     -1.277725    2.262401   -0.271146
  H      0.045300    1.852732    0.817591
  H     -0.431782    0.739438   -1.975195
  H      0.859895    1.834443   -1.470287
  H      0.097702   -2.095102   -1.279437
  H      0.511728   -1.935323    0.414649
  H      2.681563    0.197184    2.292481
  H      1.039994   -0.530290    1.992741
  H      3.120024    1.614655   -0.871377
  H      3.999849    1.074659    0.563918
  H      3.892749    0.035576   -0.861108

 Total Charge           Charge          ....    0
 Multiplicity           Mult            ....    1
 Number of Electrons    NEL             ....   84
 Basis Dimension        Dim             ....  186

ORBITAL ENERGIES
----------------

  NO   OCC          E(Eh)            E(eV)
   0   2.0000     -18.736107      -509.8354
   1   2.0000      -9.967976      -271.2424
   2   2.0000      -9.908921      -269.6355
   3   2.0000      -9.907773      -269.6042
   4   2.0000      -9.900348      -269.4022
   5   2.0000      -9.896612      -269.3005
   6   2.0000      -9.891802      -269.1696
   7   2.0000      -9.890062      -269.1223
   8   2.0000      -9.889062      -269.0951
   9   2.0000      -9.881112      -268.8787
  10   2.0000      -9.873500      -268.6716
  11   2.0000      -0.931968       -25.3601
  12   2.0000      -0.773733       -21.0544
  13   2.0000      -0.725706       -19.7475
  14   2.0000      -0.686675       -18.6854
  15   2.0000      -0.660468       -17.9722
  16   2.0000      -0.621599       -16.9146
  17   2.0000      -0.605151       -16.4670
  18   2.0000      -0.552518       -15.0348
  19   2.0000      -0.539696       -14.6859
  20   2.0000      -0.476089       -12.9550
  21   2.0000      -0.454993       -12.3810
  22   2.0000      -0.440548       -11.9879
  23   2.0000      -0.426330       -11.6010
  24   2.0000      -0.423921       -11.5355
  25   2.0000      -0.401558       -10.9269
  26   2.0000      -0.386090       -10.5061
  27   2.0000      -0.380152       -10.3445
  28   2.0000      -0.370136       -10.0719
  29   2.0000      -0.359714        -9.7883
  30   2.0000      -0.351736        -9.5712
  31   2.0000      -0.341649        -9.2968
  32   2.0000      -0.332748        -9.0545
  33   2.0000      -0.330548        -8.9947
  34   2.0000      -0.321480        -8.7479
  35   2.0000      -0.310181        -8.4404
  36   2.0000      -0.307477        -8.3669
  37   2.0000      -0.285439        -7.7672
  38   2.0000      -0.279578        -7.6077
  39   2.0000      -0.277300        -7.5457
  40   2.0000      -0.226409        -6.1609
  41   2.0000      -0.190161        -5.1745
  42   0.0000      -0.049155        -1.3376
  43   0.0000      -0.023100        -0.6286
  44   0.0000       0.025537         0.6949
  45   0.0000       0.047452         1.2912
  46   0.0000       0.058087         1.5806

MULLIKEN ATOMIC CHARGES
-----------------------
   0 C :   -0.222082
   1 C :   -0.174592
   2 H :    0.103578
   3 C :   -0.113075
   4 C :   -0.123166
   5 C :   -0.138617
   6 H :    0.068299
   7 C :   -0.039620
   8 C :   -0.051979
   9 O :   -0.162472
  10 C :   -0.072026
  11 C :   -0.242056
  12 C :   -0.217314
  13 H :    0.096504
  14 H :    0.101674
  15 H :    0.109207
  16 H :    0.086700
  17 H :    0.092544
  18 H :    0.096902
  19 H :    0.088975
  20 H :    0.091822
  21 H :    0.118449
  22 H :    0.086012
  23 H :    0.093201
  24 H :    0.110084
  25 H :    0.099947
  26 H :    0.113103
Sum of atomic charges:    0.0000000

LOEWDIN ATOMIC CHARGES
----------------------
   0 C :   -0.325496
   1 C :   -0.177415
   2 H :    0.140501
   3 C :   -0.215493
   4 C :   -0.209887
   5 C :   -0.131667
   6 H :    0.124599
   7 C :   -0.235502
   8 C :    0.048555
   9 O :   -0.131061
  10 C :   -0.047029
  11 C :   -0.273108
  12 C :   -0.320731
  13 H :    0.117423
  14 H :    0.121526
  15 H :    0.124816
  16 H :    0.123210
  17 H :    0.123826
  18 H :    0.122436
  19 H :    0.118548
  20 H :    0.137092
  21 H :    0.147264
  22 H :    0.121088
  23 H :    0.114028
  24 H :    0.126677
  25 H :    0.124442
  26 H :    0.131359

  Mayer bond orders larger than 0.100000
B(  0-C ,  1-C ) :   1.1293 B(  0-C , 13-H ) :   0.9451 B(  0-C , 14-H ) :   0.9497
B(  0-C , 15-H ) :   0.9411 B(  1-C ,  2-H ) :   0.8435 B(  1-C ,  3-C ) :   1.0519
B(  1-C ,  8-C ) :   0.9823 B(  3-C ,  4-C ) :   1.1854 B(  3-C , 16-H ) :   0.9115
B(  3-C , 17-H ) :   0.8916 B(  4-C ,  5-C ) :   1.1115 B(  4-C , 18-H ) :   0.8919
B(  4-C , 19-H ) :   0.9108 B(  5-C ,  6-H ) :   0.8809 B(  5-C ,  7-C ) :   1.0405
B(  5-C , 10-C ) :   0.9893 B(  7-C ,  8-C ) :   1.0600 B(  7-C , 20-H ) :   0.8828
B(  7-C , 21-H ) :   0.8675 B(  8-C ,  9-O ) :   2.1901 B( 10-C , 11-C ) :   2.0477
B( 10-C , 12-C ) :   1.1164 B( 11-C , 22-H ) :   0.9005 B( 11-C , 23-H ) :   0.8878
B( 12-C , 24-H ) :   0.9295 B( 12-C , 25-H ) :   0.9406 B( 12-C , 26-H ) :   0.9266

Dispersion correction           -0.029465955
FINAL SINGLE POINT ENERGY      -464.822183735918

DIPOLE MOMENT
-------------

Method             : SCF
Type of density    : Electron Density
Multiplicity       :   1
Irrep              :   0
Energy             :  -464.9075926828697902 Eh
Relativity type    :
Basis              : AO
                                X                 Y                 Z
Electronic contribution:     -3.867065316      -5.797076170      -1.339288106
Nuclear contribution   :      4.800973504       6.479424395       1.420796416
                        -----------------------------------------
Total Dipole Moment    :      0.933908188       0.682348226       0.081508310
                        -----------------------------------------
Magnitude (a.u.)       :      1.159494377
Magnitude (Debye)      :      2.947200487

Rotational constants in cm-1:             0.066946             0.025003             0.022946
Rotational constants in MHz :          2006.996407           749.566310           687.898372

                             ****ORCA TERMINATED NORMALLY****
TOTAL RUN TIME: 0 days 0 hours 0 minutes 16 seconds 650 msec
