                         Program Version 6.0.0  -   RELEASE  -
|  1> ! pbe def2-sv(p) def2/J RI DEFGRID1 loosescf d4 GCP(DFT/SV(P)) printgap
|  2> %output
|  3>     printlevel normal
|  4> end
|  5> * xyz 0 1
|  6> C -2.1186221315 -1.2438412686 -0.1123844382
|  7> C -1.2264412886 -0.3612044134 0.7871870039
|  8> H -1.7651082301 -0.1676268749 1.7208137839
|  9> C -0.9029918663 0.9902547586 0.1138017177
| 10> H -1.1401348846 0.9287622319 -0.9582917177
| 11> C 0.5932131857 1.2882402673 0.2480127291
| 12> H 0.8436599724 1.3750469776 1.3167611877
| 13> C 1.3840606133 0.1295633614 -0.3618191682
| 14> H 1.1084692821 0.0394762226 -1.4236882119
| 15> C 1.0209516446 -1.1790959722 0.3588519693
| 16> H 1.8670760654 -1.4458710154 1.0055132832
| 17> O -0.0589709534 -1.0469227471 1.2442955606
| 18> O 0.7940504922 -2.1692066934 -0.6017282292
| 19> O 2.7680436867 0.3174995596 -0.2345954549
| 20> O 0.9535613643 2.4606389486 -0.4367893946
| 21> O -1.5901294453 2.0664761873 0.7113506274
| 22> O -1.7059043916 -1.302275732 -1.4542018596
| 23> H -3.1246967575 -0.8206603833 -0.1322876583
| 24> H -2.1666508776 -2.2463349023 0.3294113618
| 25> H 0.8431454224 -3.0494914915 -0.1974646377
| 26> H 2.9840407439 1.1990977974 -0.5778134462
| 27> H 0.371607646 3.1760532719 -0.1393340973
| 28> H -2.5267476739 2.0362788612 0.4744020272
| 29> H -0.824782163 -1.7212487275 -1.486412495
| 30> *
| 31>
| 32>                          ****END OF INPUT****

CARTESIAN COORDINATES (ANGSTROEM)
---------------------------------
  C     -2.118622   -1.243841   -0.112384
  C     -1.226441   -0.361204    0.787187
  H     -1.765108   -0.167627    1.720814
  C     -0.902992    0.990255    0.113802
  H     -1.140135    0.928762   -0.958292
  C      0.593213    1.288240    0.248013
  H      0.843660    1.375047    1.316761
  C      1.384061    0.129563   -0.361819
  H      1.108469    0.039476   -1.423688
  C      1.020952   -1.179096    0.358852
  H      1.867076   -1.445871    1.005513
  O     -0.058971   -1.046923    1.244296
  O      0.794050   -2.169207   -0.601728
  O      2.768044    0.317500   -0.234595
  O      0.953561    2.460639   -0.436789
  O     -1.590129    2.066476    0.711351
  O     -1.705904   -1.302276   -1.454202
  H     -3.124697   -0.820660   -0.132288
  H     -2.166651   -2.246335    0.329411
  H      0.843145   -3.049491   -0.197465
  H      2.984041    1.199098   -0.577813
  H      0.371608    3.176053   -0.139334
  H     -2.526748    2.036279    0.474402
  H     -0.824782   -1.721249   -1.486412

 Total Charge           Charge          ....    0
 Multiplicity           Mult            ....    1
 Number of Electrons    NEL             ....   96
 Basis Dimension        Dim             ....  192

ORBITAL ENERGIES
----------------

  NO   OCC          E(Eh)            E(eV)
   0   2.0000     -18.786602      -511.2094
   1   2.0000     -18.769348      -510.7399
   2   2.0000     -18.763392      -510.5778
   3   2.0000     -18.753537      -510.3097
   4   2.0000     -18.747707      -510.1511
   5   2.0000     -18.737453      -509.8720
   6   2.0000      -9.992907      -271.9208
   7   2.0000      -9.942700      -270.5546
   8   2.0000      -9.942148      -270.5396
   9   2.0000      -9.940581      -270.4969
  10   2.0000      -9.939084      -270.4562
  11   2.0000      -9.931924      -270.2614
  12   2.0000      -0.989592       -26.9282
  13   2.0000      -0.949027       -25.8243
  14   2.0000      -0.933120       -25.3915
  15   2.0000      -0.923770       -25.1370
  16   2.0000      -0.914451       -24.8835
  17   2.0000      -0.912780       -24.8380
  18   2.0000      -0.703962       -19.1558
  19   2.0000      -0.695174       -18.9166
  20   2.0000      -0.624965       -17.0062
  21   2.0000      -0.582457       -15.8494
  22   2.0000      -0.570232       -15.5168
  23   2.0000      -0.521207       -14.1828
  24   2.0000      -0.504903       -13.7391
  25   2.0000      -0.498198       -13.5567
  26   2.0000      -0.476240       -12.9591
  27   2.0000      -0.458301       -12.4710
  28   2.0000      -0.444053       -12.0833
  29   2.0000      -0.432485       -11.7685
  30   2.0000      -0.406031       -11.0487
  31   2.0000      -0.401155       -10.9160
  32   2.0000      -0.386663       -10.5216
  33   2.0000      -0.383226       -10.4281
  34   2.0000      -0.366192        -9.9646
  35   2.0000      -0.351096        -9.5538
  36   2.0000      -0.343885        -9.3576
  37   2.0000      -0.311802        -8.4846
  38   2.0000      -0.301965        -8.2169
  39   2.0000      -0.286791        -7.8040
  40   2.0000      -0.285675        -7.7736
  41   2.0000      -0.275590        -7.4992
  42   2.0000      -0.265249        -7.2178
  43   2.0000      -0.242404        -6.5961
  44   2.0000      -0.235560        -6.4099
  45   2.0000      -0.223701        -6.0872
  46   2.0000      -0.218331        -5.9411
  47   2.0000      -0.199686        -5.4337
  48   0.0000       0.008511         0.2316
  49   0.0000       0.012247         0.3332
  50   0.0000       0.039961         1.0874
  51   0.0000       0.052177         1.4198
  52   0.0000       0.061328         1.6688

MULLIKEN ATOMIC CHARGES
-----------------------
   0 C :    0.038087
   1 C :    0.034925
   2 H :    0.066881
   3 C :    0.006085
   4 H :    0.076188
   5 C :    0.065070
   6 H :    0.062282
   7 C :    0.040152
   8 H :    0.066012
   9 C :    0.193880
  10 H :    0.082568
  11 O :   -0.308840
  12 O :   -0.403828
  13 O :   -0.419046
  14 O :   -0.430440
  15 O :   -0.417855
  16 O :   -0.446455
  17 H :    0.074319
  18 H :    0.072673
  19 H :    0.315514
  20 H :    0.310813
  21 H :    0.309029
  22 H :    0.307646
  23 H :    0.304341
Sum of atomic charges:    0.0000000

LOEWDIN ATOMIC CHARGES
----------------------
   0 C :   -0.135925
   1 C :   -0.078351
   2 H :    0.120655
   3 C :   -0.085621
   4 H :    0.109811
   5 C :   -0.075326
   6 H :    0.107960
   7 C :   -0.072553
   8 H :    0.109075
   9 C :    0.001519
  10 H :    0.113436
  11 O :   -0.145606
  12 O :   -0.296738
  13 O :   -0.316311
  14 O :   -0.324088
  15 O :   -0.321701
  16 O :   -0.348468
  17 H :    0.110564
  18 H :    0.099104
  19 H :    0.294048
  20 H :    0.289319
  21 H :    0.288808
  22 H :    0.290323
  23 H :    0.266066

  Mayer bond orders larger than 0.100000
B(  0-C ,  1-C ) :   1.0258 B(  0-C , 16-O ) :   1.1009 B(  0-C , 17-H ) :   0.9211
B(  0-C , 18-H ) :   0.9095 B(  1-C ,  2-H ) :   0.8793 B(  1-C ,  3-C ) :   0.9874
B(  1-C , 11-O ) :   1.0064 B(  3-C ,  4-H ) :   0.8733 B(  3-C ,  5-C ) :   1.0207
B(  3-C , 15-O ) :   1.0680 B(  5-C ,  6-H ) :   0.8698 B(  5-C ,  7-C ) :   1.0258
B(  5-C , 14-O ) :   1.0784 B(  7-C ,  8-H ) :   0.8787 B(  7-C ,  9-C ) :   1.0030
B(  7-C , 13-O ) :   1.0877 B(  9-C , 10-H ) :   0.8873 B(  9-C , 11-O ) :   1.0874
B(  9-C , 12-O ) :   1.0667 B( 12-O , 19-H ) :   0.8341 B( 12-O , 23-H ) :   0.1134
B( 13-O , 20-H ) :   0.8354 B( 14-O , 21-H ) :   0.8330 B( 15-O , 22-H ) :   0.8471
B( 16-O , 23-H ) :   0.7896

Dispersion correction           -0.025127268
FINAL SINGLE POINT ENERGY      -685.701492739911

DIPOLE MOMENT
-------------

Method             : SCF
Type of density    : Electron Density
Multiplicity       :   1
Irrep              :   0
Energy             :  -685.8336867905486542 Eh
Relativity type    :
Basis              : AO
                                X                 Y                 Z
Electronic contribution:      2.786526865       0.539997539       0.428147599
Nuclear contribution   :     -3.294660011      -0.648619776      -0.075593916
                        -----------------------------------------
Total Dipole Moment    :     -0.508133146      -0.108622238       0.352553683
                        -----------------------------------------
Magnitude (a.u.)       :      0.627926893
Magnitude (Debye)      :      1.596063322

Rotational constants in cm-1:             0.036625             0.032091             0.021149
Rotational constants in MHz :          1097.976275           962.074774           634.019583

                             ****ORCA TERMINATED NORMALLY****
TOTAL RUN TIME: 0 days 0 hours 0 minutes 12 seconds 640 msec
