                         Program Version 6.0.0  -   RELEASE  -
|  1> ! pbe def2-sv(p) def2/J RI DEFGRID1 loosescf d4 GCP(DFT/SV(P)) printgap
|  2> %output
|  3>     printlevel normal
|  4> end
|  5> * xyz 0 1
|  6> C 2.411610038 2.9794e-05 0.0134756466
|  7> N 0.9983962438 9.3144e-06 -0.3027957614
|  8> C 0.330860341 -1.186777641 0.2073429287
|  9> C -1.1362484653 -1.1615570471 -0.2181716705
| 10> O -1.7897839623 -1.12031e-05 0.2564883631
| 11> C -1.136268893 1.1615703291 -0.2182050844
| 12> C 0.3308069589 1.1867230096 0.2073843218
| 13> H 2.6023458174 0.0007255626 1.0979846902
| 14> H 2.8695461311 0.885315094 -0.4232246869
| 15> H 2.8692349574 -0.8858946969 -0.4220687548
| 16> H 0.8154997009 -2.0704808116 -0.2103915392
| 17> H 0.3864974221 -1.236723053 1.3105830255
| 18> H -1.195828677 -1.1919534903 -1.3149207971
| 19> H -1.6797123996 -2.0066463619 0.2052871277
| 20> H -1.1957371267 1.1919039579 -1.3149774348
| 21> H -1.679775646 2.0066984696 0.2051650584
| 22> H 0.8153932691 2.0705123051 -0.210290641
| 23> H 0.3863898526 1.2367291241 1.3106923091
| 24> *
| 25>
| 26>                          ****END OF INPUT****

CARTESIAN COORDINATES (ANGSTROEM)
---------------------------------
  C      2.411610    0.000030    0.013476
  N      0.998396    0.000009   -0.302796
  C      0.330860   -1.186778    0.207343
  C     -1.136248   -1.161557   -0.218172
  O     -1.789784   -0.000011    0.256488
  C     -1.136269    1.161570   -0.218205
  C      0.330807    1.186723    0.207384
  H      2.602346    0.000726    1.097985
  H      2.869546    0.885315   -0.423225
  H      2.869235   -0.885895   -0.422069
  H      0.815500   -2.070481   -0.210392
  H      0.386497   -1.236723    1.310583
  H     -1.195829   -1.191953   -1.314921
  H     -1.679712   -2.006646    0.205287
  H     -1.195737    1.191904   -1.314977
  H     -1.679776    2.006698    0.205165
  H      0.815393    2.070512   -0.210291
  H      0.386390    1.236729    1.310692

 Total Charge           Charge          ....    0
 Multiplicity           Mult            ....    1
 Number of Electrons    NEL             ....   56
 Basis Dimension        Dim             ....  120

ORBITAL ENERGIES
----------------

  NO   OCC          E(Eh)            E(eV)
   0   2.0000     -18.750917      -510.2384
   1   2.0000     -13.990575      -380.7029
   2   2.0000      -9.927548      -270.1423
   3   2.0000      -9.927543      -270.1422
   4   2.0000      -9.909662      -269.6556
   5   2.0000      -9.909654      -269.6554
   6   2.0000      -9.903227      -269.4805
   7   2.0000      -0.939381       -25.5619
   8   2.0000      -0.841061       -22.8864
   9   2.0000      -0.693105       -18.8604
  10   2.0000      -0.652763       -17.7626
  11   2.0000      -0.587632       -15.9903
  12   2.0000      -0.567481       -15.4419
  13   2.0000      -0.501008       -13.6331
  14   2.0000      -0.450945       -12.2708
  15   2.0000      -0.430015       -11.7013
  16   2.0000      -0.420033       -11.4297
  17   2.0000      -0.418120       -11.3776
  18   2.0000      -0.398989       -10.8571
  19   2.0000      -0.363192        -9.8829
  20   2.0000      -0.358212        -9.7474
  21   2.0000      -0.339423        -9.2362
  22   2.0000      -0.334590        -9.1047
  23   2.0000      -0.313614        -8.5339
  24   2.0000      -0.304439        -8.2842
  25   2.0000      -0.258841        -7.0434
  26   2.0000      -0.206292        -5.6135
  27   2.0000      -0.178773        -4.8647
  28   0.0000       0.037544         1.0216
  29   0.0000       0.056115         1.5270
  30   0.0000       0.065181         1.7737
  31   0.0000       0.075772         2.0619
  32   0.0000       0.092289         2.5113

MULLIKEN ATOMIC CHARGES
-----------------------
   0 C :   -0.143045
   1 N :   -0.325870
   2 C :   -0.080452
   3 C :    0.045843
   4 O :   -0.335561
   5 C :    0.045865
   6 C :   -0.080529
   7 H :    0.069856
   8 H :    0.102554
   9 H :    0.102534
  10 H :    0.086105
  11 H :    0.058054
  12 H :    0.063974
  13 H :    0.091256
  14 H :    0.063978
  15 H :    0.091267
  16 H :    0.086097
  17 H :    0.058075
Sum of atomic charges:   -0.0000000

LOEWDIN ATOMIC CHARGES
----------------------
   0 C :   -0.256604
   1 N :   -0.154069
   2 C :   -0.175794
   3 C :   -0.116979
   4 O :   -0.171624
   5 C :   -0.116970
   6 C :   -0.175794
   7 H :    0.090532
   8 H :    0.113972
   9 H :    0.113977
  10 H :    0.117006
  11 H :    0.092904
  12 H :    0.099789
  13 H :    0.114983
  14 H :    0.099791
  15 H :    0.114984
  16 H :    0.117002
  17 H :    0.092892

  Mayer bond orders larger than 0.100000
B(  0-C ,  1-N ) :   1.0441 B(  0-C ,  7-H ) :   0.9265 B(  0-C ,  8-H ) :   0.9557
B(  0-C ,  9-H ) :   0.9557 B(  1-N ,  2-C ) :   1.0230 B(  1-N ,  6-C ) :   1.0230
B(  2-C ,  3-C ) :   1.1334 B(  2-C , 10-H ) :   0.9160 B(  2-C , 11-H ) :   0.8802
B(  3-C ,  4-O ) :   1.0358 B(  3-C , 12-H ) :   0.8964 B(  3-C , 13-H ) :   0.9288
B(  4-O ,  5-C ) :   1.0357 B(  5-C ,  6-C ) :   1.1334 B(  5-C , 14-H ) :   0.8964
B(  5-C , 15-H ) :   0.9288 B(  6-C , 16-H ) :   0.9160 B(  6-C , 17-H ) :   0.8802

Dispersion correction           -0.015163820
FINAL SINGLE POINT ENERGY      -326.348393317352

DIPOLE MOMENT
-------------

Method             : SCF
Type of density    : Electron Density
Multiplicity       :   1
Irrep              :   0
Energy             :  -326.4215958820018386 Eh
Relativity type    :
Basis              : AO
                                X                 Y                 Z
Electronic contribution:     -4.171154210      -0.000222387      -0.282652788
Nuclear contribution   :      4.663988712       0.000174477       0.221524907
                        -----------------------------------------
Total Dipole Moment    :      0.492834501      -0.000047910      -0.061127880
                        -----------------------------------------
Magnitude (a.u.)       :      0.496610980
Magnitude (Debye)      :      1.262284796

Rotational constants in cm-1:             0.162489             0.078203             0.057558
Rotational constants in MHz :          4871.309846          2344.481371          1725.552097

                             ****ORCA TERMINATED NORMALLY****
TOTAL RUN TIME: 0 days 0 hours 0 minutes 7 seconds 821 msec
