                         Program Version 6.0.0  -   RELEASE  -
|  1> ! wb97x-v def2-tzvp def2/J RIJCOSX DEFGRID2 scfconv7 GCP(DFT/TZ) printgap
|  2> %output
|  3>     printlevel normal
|  4> end
|  5> * xyz 0 1
|  6> C 0.7405800274312722 9.549510300402903e-05 -0.00012260151920367275
|  7> C 1.4497458326039523 0.8577799385637292 -0.8413264890218084
|  8> C 2.846039041381641 0.867266870928633 -0.8493304885702326
|  9> C 3.5434977321114123 0.00018380183241942022 -0.0003318916682426934
| 10> C 2.846222006144345 -0.8669376849825164 0.8487811892945883
| 11> C 1.4499286473554054 -0.8575401112653317 0.8409819683716893
| 12> Cl 0.5620369320285254 -1.91911550920574 1.884393861642391
| 13> Cl 3.705342167395574 -1.9373347419783984 1.8970867833796077
| 14> Cl 5.269935754331562 0.0002395315240087162 -0.0004820071371820208
| 15> Cl 3.704957420053557 1.9377088397020084 -1.8977587655403148
| 16> Cl 0.5616137531676911 1.9193001557117493 -1.884590104074066
| 17> C -0.7405855954626965 1.2031731298889428e-05 -1.3443401219764178e-06
| 18> C -1.4498364209810266 0.8576092414608135 0.8412224136165629
| 19> C -2.846124493009353 0.8668804091549762 0.8493287314428822
| 20> C -3.5435036914578055 -0.0003492697705812235 0.0003941149771793323
| 21> C -2.846147554763669 -0.8673621265408272 -0.8487436221496918
| 22> C -1.4498494565968802 -0.8577441969229592 -0.8410520835562204
| 23> Cl -0.5618063447192059 -1.9191742541132928 -1.8844873529008754
| 24> Cl -3.705296788135265 -1.9378678262844145 -1.8969147892966867
| 25> Cl -5.2699419913713115 -0.0007463869812025185 0.0005614019450532676
| 26> Cl -3.705011394429048 1.9372676381953147 1.8978402140247255
| 27> Cl -0.5618573121580757 1.9193120570386595 1.884426800179818
| 28> *
| 29>
| 30>                          ****END OF INPUT****

CARTESIAN COORDINATES (ANGSTROEM)
---------------------------------
  C      0.740580    0.000095   -0.000123
  C      1.449746    0.857780   -0.841326
  C      2.846039    0.867267   -0.849330
  C      3.543498    0.000184   -0.000332
  C      2.846222   -0.866938    0.848781
  C      1.449929   -0.857540    0.840982
  Cl     0.562037   -1.919116    1.884394
  Cl     3.705342   -1.937335    1.897087
  Cl     5.269936    0.000240   -0.000482
  Cl     3.704957    1.937709   -1.897759
  Cl     0.561614    1.919300   -1.884590
  C     -0.740586    0.000012   -0.000001
  C     -1.449836    0.857609    0.841222
  C     -2.846124    0.866880    0.849329
  C     -3.543504   -0.000349    0.000394
  C     -2.846148   -0.867362   -0.848744
  C     -1.449849   -0.857744   -0.841052
  Cl    -0.561806   -1.919174   -1.884487
  Cl    -3.705297   -1.937868   -1.896915
  Cl    -5.269942   -0.000746    0.000561
  Cl    -3.705011    1.937268    1.897840
  Cl    -0.561857    1.919312    1.884427

 Total Charge           Charge          ....    0
 Multiplicity           Mult            ....    1
 Number of Electrons    NEL             ....  242
 Basis Dimension        Dim             ....  742

ORBITAL ENERGIES
----------------

  NO   OCC          E(Eh)            E(eV)
   0   2.0000    -107.175707     -2916.3993
   1   2.0000    -107.175697     -2916.3990
   2   2.0000    -107.175694     -2916.3989
   3   2.0000    -107.175693     -2916.3989
   4   2.0000    -107.175105     -2916.3829
   5   2.0000    -107.175102     -2916.3828
   6   2.0000    -107.174407     -2916.3639
   7   2.0000    -107.174406     -2916.3638
   8   2.0000    -107.174405     -2916.3638
   9   2.0000    -107.174404     -2916.3638
  10   2.0000     -12.166502      -331.0674
  11   2.0000     -12.166494      -331.0671
  12   2.0000     -12.163886      -330.9962
  13   2.0000     -12.163884      -330.9961
  14   2.0000     -12.163115      -330.9752
  15   2.0000     -12.163092      -330.9746
  16   2.0000     -12.161571      -330.9332
  17   2.0000     -12.161565      -330.9330
  18   2.0000     -12.161032      -330.9185
  19   2.0000     -12.160957      -330.9165
  20   2.0000     -12.125218      -329.9439
  21   2.0000     -12.123573      -329.8992
  22   2.0000     -11.328767      -308.2714
  23   2.0000     -11.328761      -308.2713
  24   2.0000     -11.328719      -308.2701
  25   2.0000     -11.328701      -308.2696
  26   2.0000     -11.328159      -308.2549
  27   2.0000     -11.328150      -308.2546
  28   2.0000     -11.327423      -308.2349
  29   2.0000     -11.327423      -308.2348
  30   2.0000     -11.327397      -308.2342
  31   2.0000     -11.327383      -308.2338
  32   2.0000      -9.120756      -248.1884
  33   2.0000      -9.120756      -248.1884
  34   2.0000      -9.120459      -248.1803
  35   2.0000      -9.120339      -248.1770
  36   2.0000      -9.119962      -248.1668
  37   2.0000      -9.119959      -248.1667
  38   2.0000      -9.119236      -248.1470
  39   2.0000      -9.119236      -248.1470
  40   2.0000      -9.118631      -248.1306
  41   2.0000      -9.118540      -248.1281
  42   2.0000      -9.117869      -248.1098
  43   2.0000      -9.117863      -248.1097
  44   2.0000      -9.117862      -248.1096
  45   2.0000      -9.117653      -248.1040
  46   2.0000      -9.117622      -248.1031
  47   2.0000      -9.117591      -248.1023
  48   2.0000      -9.117513      -248.1001
  49   2.0000      -9.117326      -248.0951
  50   2.0000      -9.117056      -248.0877
  51   2.0000      -9.117055      -248.0877
  52   2.0000      -9.116942      -248.0846
  53   2.0000      -9.116940      -248.0846
  54   2.0000      -9.116209      -248.0647
  55   2.0000      -9.116209      -248.0647
  56   2.0000      -9.116135      -248.0626
  57   2.0000      -9.116067      -248.0608
  58   2.0000      -9.115882      -248.0558
  59   2.0000      -9.115881      -248.0557
  60   2.0000      -9.115707      -248.0510
  61   2.0000      -9.115707      -248.0510
  62   2.0000      -1.514914       -41.2229
  63   2.0000      -1.507298       -41.0157
  64   2.0000      -1.475101       -40.1395
  65   2.0000      -1.475026       -40.1375
  66   2.0000      -1.471508       -40.0418
  67   2.0000      -1.460621       -39.7455
  68   2.0000      -1.442987       -39.2657
  69   2.0000      -1.442899       -39.2633
  70   2.0000      -1.436026       -39.0762
  71   2.0000      -1.434108       -39.0241
  72   2.0000      -1.398803       -38.0634
  73   2.0000      -1.385232       -37.6941
  74   2.0000      -1.339431       -36.4478
  75   2.0000      -1.298669       -35.3386
  76   2.0000      -1.298645       -35.3379
  77   2.0000      -1.293622       -35.2012
  78   2.0000      -1.195107       -32.5205
  79   2.0000      -1.159109       -31.5410
  80   2.0000      -1.158708       -31.5301
  81   2.0000      -1.146255       -31.1912
  82   2.0000      -1.061725       -28.8910
  83   2.0000      -1.061104       -28.8741
  84   2.0000      -1.041831       -28.3497
  85   2.0000      -1.015566       -27.6350
  86   2.0000      -1.004214       -27.3260
  87   2.0000      -0.987684       -26.8762
  88   2.0000      -0.971968       -26.4486
  89   2.0000      -0.968918       -26.3656
  90   2.0000      -0.968912       -26.3654
  91   2.0000      -0.949124       -25.8270
  92   2.0000      -0.934145       -25.4194
  93   2.0000      -0.933961       -25.4144
  94   2.0000      -0.930341       -25.3159
  95   2.0000      -0.901034       -24.5184
  96   2.0000      -0.900957       -24.5163
  97   2.0000      -0.861987       -23.4559
  98   2.0000      -0.858680       -23.3659
  99   2.0000      -0.850526       -23.1440
 100   2.0000      -0.850433       -23.1415
 101   2.0000      -0.834877       -22.7182
 102   2.0000      -0.833366       -22.6771
 103   2.0000      -0.832255       -22.6468
 104   2.0000      -0.832232       -22.6462
 105   2.0000      -0.831225       -22.6188
 106   2.0000      -0.831220       -22.6186
 107   2.0000      -0.828916       -22.5560
 108   2.0000      -0.828897       -22.5554
 109   2.0000      -0.825960       -22.4755
 110   2.0000      -0.825880       -22.4733
 111   2.0000      -0.821372       -22.3507
 112   2.0000      -0.821368       -22.3506
 113   2.0000      -0.812402       -22.1066
 114   2.0000      -0.812387       -22.1062
 115   2.0000      -0.783992       -21.3335
 116   2.0000      -0.783645       -21.3241
 117   2.0000      -0.703769       -19.1505
 118   2.0000      -0.702663       -19.1204
 119   2.0000      -0.695861       -18.9353
 120   2.0000      -0.695626       -18.9289
 121   0.0000      -0.367370        -9.9966
 122   0.0000      -0.355489        -9.6733
 123   0.0000      -0.332742        -9.0544
 124   0.0000      -0.331856        -9.0303
 125   0.0000      -0.331329        -9.0159

MULLIKEN ATOMIC CHARGES
-----------------------
   0 C :   -0.069126
   1 C :    0.117210
   2 C :   -0.062438
   3 C :    0.038936
   4 C :   -0.062533
   5 C :    0.117243
   6 Cl:   -0.021306
   7 Cl:   -0.011698
   8 Cl:   -0.013249
   9 Cl:   -0.011727
  10 Cl:   -0.021269
  11 C :   -0.069063
  12 C :    0.117039
  13 C :   -0.062301
  14 C :    0.038448
  15 C :   -0.061829
  16 C :    0.117003
  17 Cl:   -0.021305
  18 Cl:   -0.011807
  19 Cl:   -0.013268
  20 Cl:   -0.011689
  21 Cl:   -0.021270
Sum of atomic charges:   -0.0000000

LOEWDIN ATOMIC CHARGES
----------------------
   0 C :   -0.151129
   1 C :   -0.394903
   2 C :   -0.443590
   3 C :   -0.439322
   4 C :   -0.443591
   5 C :   -0.394901
   6 Cl:    0.462378
   7 Cl:    0.446615
   8 Cl:    0.449458
   9 Cl:    0.446613
  10 Cl:    0.462374
  11 C :   -0.151130
  12 C :   -0.394910
  13 C :   -0.443583
  14 C :   -0.439327
  15 C :   -0.443592
  16 C :   -0.394895
  17 Cl:    0.462377
  18 Cl:    0.446612
  19 Cl:    0.449459
  20 Cl:    0.446614
  21 Cl:    0.462374

  Mayer bond orders larger than 0.100000
B(  0-C ,  1-C ) :   1.3045 B(  0-C ,  5-C ) :   1.3043 B(  0-C , 11-C ) :   0.7549
B(  1-C ,  2-C ) :   1.3458 B(  1-C , 10-Cl) :   1.2167 B(  2-C ,  3-C ) :   1.3278
B(  2-C ,  9-Cl) :   1.2371 B(  3-C ,  4-C ) :   1.3278 B(  3-C ,  8-Cl) :   1.2273
B(  4-C ,  5-C ) :   1.3456 B(  4-C ,  7-Cl) :   1.2373 B(  5-C ,  6-Cl) :   1.2165
B( 11-C , 12-C ) :   1.3044 B( 11-C , 16-C ) :   1.3045 B( 12-C , 13-C ) :   1.3460
B( 12-C , 21-Cl) :   1.2166 B( 13-C , 14-C ) :   1.3278 B( 13-C , 20-Cl) :   1.2372
B( 14-C , 15-C ) :   1.3275 B( 14-C , 19-Cl) :   1.2277 B( 15-C , 16-C ) :   1.3457
B( 15-C , 18-Cl) :   1.2363 B( 16-C , 17-Cl) :   1.2166

FINAL SINGLE POINT ENERGY     -5058.755913701089

DIPOLE MOMENT
-------------

Method             : SCF
Type of density    : Electron Density
Multiplicity       :   1
Irrep              :   0
Energy             : -5058.7674593464880672 Eh
Relativity type    :
Basis              : AO
                                X                 Y                 Z
Electronic contribution:     -0.000004196      -0.000121737       0.000093411
Nuclear contribution   :     -0.000000181       0.000125112      -0.000094192
                        -----------------------------------------
Total Dipole Moment    :     -0.000004377       0.000003375      -0.000000781
                        -----------------------------------------
Magnitude (a.u.)       :      0.000005582
Magnitude (Debye)      :      0.000014189

Rotational constants in cm-1:             0.007631             0.002882             0.002861
Rotational constants in MHz :           228.785268            86.411068            85.774341

                             ****ORCA TERMINATED NORMALLY****
TOTAL RUN TIME: 0 days 0 hours 15 minutes 16 seconds 535 msec
