                         Program Version 6.0.0  -   RELEASE  -
|  1> ! wb97x-v def2-tzvp def2/J RIJCOSX DEFGRID2 scfconv7 GCP(DFT/TZ) printgap
|  2> %output
|  3>     printlevel normal
|  4> end
|  5> %cpcm
|  6>     smd true
|  7>     smdsolvent "water"
|  8> end
|  9> * xyz 0 1
| 10> C 0.7405800274312722 9.549510300402903e-05 -0.00012260151920367275
| 11> C 1.4497458326039523 0.8577799385637292 -0.8413264890218084
| 12> C 2.846039041381641 0.867266870928633 -0.8493304885702326
| 13> C 3.5434977321114123 0.00018380183241942022 -0.0003318916682426934
| 14> C 2.846222006144345 -0.8669376849825164 0.8487811892945883
| 15> C 1.4499286473554054 -0.8575401112653317 0.8409819683716893
| 16> Cl 0.5620369320285254 -1.91911550920574 1.884393861642391
| 17> Cl 3.705342167395574 -1.9373347419783984 1.8970867833796077
| 18> Cl 5.269935754331562 0.0002395315240087162 -0.0004820071371820208
| 19> Cl 3.704957420053557 1.9377088397020084 -1.8977587655403148
| 20> Cl 0.5616137531676911 1.9193001557117493 -1.884590104074066
| 21> C -0.7405855954626965 1.2031731298889428e-05 -1.3443401219764178e-06
| 22> C -1.4498364209810266 0.8576092414608135 0.8412224136165629
| 23> C -2.846124493009353 0.8668804091549762 0.8493287314428822
| 24> C -3.5435036914578055 -0.0003492697705812235 0.0003941149771793323
| 25> C -2.846147554763669 -0.8673621265408272 -0.8487436221496918
| 26> C -1.4498494565968802 -0.8577441969229592 -0.8410520835562204
| 27> Cl -0.5618063447192059 -1.9191742541132928 -1.8844873529008754
| 28> Cl -3.705296788135265 -1.9378678262844145 -1.8969147892966867
| 29> Cl -5.2699419913713115 -0.0007463869812025185 0.0005614019450532676
| 30> Cl -3.705011394429048 1.9372676381953147 1.8978402140247255
| 31> Cl -0.5618573121580757 1.9193120570386595 1.884426800179818
| 32> *
| 33>
| 34>                          ****END OF INPUT****

CARTESIAN COORDINATES (ANGSTROEM)
---------------------------------
  C      0.740580    0.000095   -0.000123
  C      1.449746    0.857780   -0.841326
  C      2.846039    0.867267   -0.849330
  C      3.543498    0.000184   -0.000332
  C      2.846222   -0.866938    0.848781
  C      1.449929   -0.857540    0.840982
  Cl     0.562037   -1.919116    1.884394
  Cl     3.705342   -1.937335    1.897087
  Cl     5.269936    0.000240   -0.000482
  Cl     3.704957    1.937709   -1.897759
  Cl     0.561614    1.919300   -1.884590
  C     -0.740586    0.000012   -0.000001
  C     -1.449836    0.857609    0.841222
  C     -2.846124    0.866880    0.849329
  C     -3.543504   -0.000349    0.000394
  C     -2.846148   -0.867362   -0.848744
  C     -1.449849   -0.857744   -0.841052
  Cl    -0.561806   -1.919174   -1.884487
  Cl    -3.705297   -1.937868   -1.896915
  Cl    -5.269942   -0.000746    0.000561
  Cl    -3.705011    1.937268    1.897840
  Cl    -0.561857    1.919312    1.884427

 Total Charge           Charge          ....    0
 Multiplicity           Mult            ....    1
 Number of Electrons    NEL             ....  242
 Basis Dimension        Dim             ....  742

ORBITAL ENERGIES
----------------

  NO   OCC          E(Eh)            E(eV)
   0   2.0000    -107.172306     -2916.3067
   1   2.0000    -107.172303     -2916.3066
   2   2.0000    -107.171908     -2916.2959
   3   2.0000    -107.171898     -2916.2956
   4   2.0000    -107.171894     -2916.2955
   5   2.0000    -107.171893     -2916.2955
   6   2.0000    -107.171693     -2916.2900
   7   2.0000    -107.171692     -2916.2900
   8   2.0000    -107.171692     -2916.2900
   9   2.0000    -107.171689     -2916.2899
  10   2.0000     -12.161110      -330.9206
  11   2.0000     -12.161101      -330.9204
  12   2.0000     -12.158428      -330.8476
  13   2.0000     -12.158426      -330.8476
  14   2.0000     -12.157623      -330.8257
  15   2.0000     -12.157602      -330.8252
  16   2.0000     -12.156068      -330.7834
  17   2.0000     -12.156062      -330.7833
  18   2.0000     -12.155555      -330.7695
  19   2.0000     -12.155480      -330.7674
  20   2.0000     -12.119380      -329.7851
  21   2.0000     -12.117737      -329.7404
  22   2.0000     -11.325387      -308.1795
  23   2.0000     -11.325380      -308.1793
  24   2.0000     -11.324994      -308.1687
  25   2.0000     -11.324988      -308.1686
  26   2.0000     -11.324934      -308.1671
  27   2.0000     -11.324917      -308.1667
  28   2.0000     -11.324728      -308.1615
  29   2.0000     -11.324727      -308.1615
  30   2.0000     -11.324709      -308.1610
  31   2.0000     -11.324694      -308.1606
  32   2.0000      -9.117334      -248.0953
  33   2.0000      -9.117303      -248.0944
  34   2.0000      -9.117146      -248.0902
  35   2.0000      -9.117146      -248.0901
  36   2.0000      -9.116651      -248.0767
  37   2.0000      -9.116615      -248.0757
  38   2.0000      -9.116363      -248.0688
  39   2.0000      -9.116363      -248.0688
  40   2.0000      -9.115795      -248.0534
  41   2.0000      -9.115652      -248.0495
  42   2.0000      -9.114728      -248.0244
  43   2.0000      -9.114726      -248.0243
  44   2.0000      -9.114209      -248.0102
  45   2.0000      -9.114208      -248.0102
  46   2.0000      -9.114126      -248.0080
  47   2.0000      -9.114026      -248.0052
  48   2.0000      -9.113963      -248.0035
  49   2.0000      -9.113920      -248.0024
  50   2.0000      -9.113894      -248.0017
  51   2.0000      -9.113773      -247.9984
  52   2.0000      -9.113760      -247.9980
  53   2.0000      -9.113755      -247.9979
  54   2.0000      -9.113492      -247.9907
  55   2.0000      -9.113488      -247.9906
  56   2.0000      -9.113429      -247.9890
  57   2.0000      -9.113181      -247.9823
  58   2.0000      -9.113026      -247.9780
  59   2.0000      -9.113008      -247.9775
  60   2.0000      -9.112947      -247.9759
  61   2.0000      -9.112946      -247.9759
  62   2.0000      -1.509801       -41.0838
  63   2.0000      -1.502477       -40.8845
  64   2.0000      -1.471109       -40.0309
  65   2.0000      -1.471037       -40.0290
  66   2.0000      -1.467417       -39.9304
  67   2.0000      -1.456725       -39.6395
  68   2.0000      -1.439508       -39.1710
  69   2.0000      -1.439419       -39.1686
  70   2.0000      -1.433023       -38.9945
  71   2.0000      -1.431071       -38.9414
  72   2.0000      -1.394094       -37.9352
  73   2.0000      -1.380354       -37.5613
  74   2.0000      -1.334241       -36.3066
  75   2.0000      -1.293404       -35.1953
  76   2.0000      -1.293379       -35.1946
  77   2.0000      -1.288135       -35.0519
  78   2.0000      -1.189666       -32.3724
  79   2.0000      -1.153935       -31.4002
  80   2.0000      -1.153534       -31.3893
  81   2.0000      -1.140954       -31.0469
  82   2.0000      -1.056258       -28.7422
  83   2.0000      -1.055636       -28.7253
  84   2.0000      -1.037067       -28.2200
  85   2.0000      -1.011364       -27.5206
  86   2.0000      -1.000200       -27.2168
  87   2.0000      -0.983928       -26.7740
  88   2.0000      -0.967591       -26.3295
  89   2.0000      -0.964767       -26.2527
  90   2.0000      -0.964762       -26.2525
  91   2.0000      -0.945102       -25.7175
  92   2.0000      -0.929920       -25.3044
  93   2.0000      -0.929733       -25.2993
  94   2.0000      -0.925918       -25.1955
  95   2.0000      -0.895617       -24.3710
  96   2.0000      -0.895548       -24.3691
  97   2.0000      -0.858033       -23.3483
  98   2.0000      -0.854838       -23.2613
  99   2.0000      -0.846777       -23.0420
 100   2.0000      -0.846679       -23.0393
 101   2.0000      -0.831725       -22.6324
 102   2.0000      -0.830319       -22.5941
 103   2.0000      -0.829128       -22.5617
 104   2.0000      -0.828947       -22.5568
 105   2.0000      -0.828613       -22.5477
 106   2.0000      -0.828608       -22.5476
 107   2.0000      -0.826266       -22.4838
 108   2.0000      -0.826245       -22.4833
 109   2.0000      -0.822535       -22.3823
 110   2.0000      -0.822460       -22.3803
 111   2.0000      -0.818463       -22.2715
 112   2.0000      -0.818398       -22.2697
 113   2.0000      -0.809743       -22.0342
 114   2.0000      -0.809724       -22.0337
 115   2.0000      -0.779577       -21.2134
 116   2.0000      -0.779224       -21.2038
 117   2.0000      -0.698020       -18.9941
 118   2.0000      -0.696902       -18.9637
 119   2.0000      -0.690210       -18.7816
 120   2.0000      -0.690021       -18.7764
 121   0.0000      -0.362802        -9.8723
 122   0.0000      -0.351011        -9.5515
 123   0.0000      -0.326529        -8.8853
 124   0.0000      -0.325736        -8.8637
 125   0.0000      -0.325121        -8.8470

MULLIKEN ATOMIC CHARGES
-----------------------
   0 C :   -0.060820
   1 C :    0.116830
   2 C :   -0.046955
   3 C :    0.055723
   4 C :   -0.047084
   5 C :    0.116876
   6 Cl:   -0.029280
   7 Cl:   -0.024700
   8 Cl:   -0.026575
   9 Cl:   -0.024730
  10 Cl:   -0.029243
  11 C :   -0.060810
  12 C :    0.116724
  13 C :   -0.046878
  14 C :    0.055250
  15 C :   -0.046384
  16 C :    0.116672
  17 Cl:   -0.029281
  18 Cl:   -0.024810
  19 Cl:   -0.026592
  20 Cl:   -0.024691
  21 Cl:   -0.029244
Sum of atomic charges:    0.0000000

LOEWDIN ATOMIC CHARGES
----------------------
   0 C :   -0.148446
   1 C :   -0.390938
   2 C :   -0.436652
   3 C :   -0.431690
   4 C :   -0.436653
   5 C :   -0.390935
   6 Cl:    0.457447
   7 Cl:    0.439144
   8 Cl:    0.442138
   9 Cl:    0.439142
  10 Cl:    0.457443
  11 C :   -0.148447
  12 C :   -0.390944
  13 C :   -0.436645
  14 C :   -0.431694
  15 C :   -0.436653
  16 C :   -0.390929
  17 Cl:    0.457446
  18 Cl:    0.439142
  19 Cl:    0.442139
  20 Cl:    0.439142
  21 Cl:    0.457443

  Mayer bond orders larger than 0.100000
B(  0-C ,  1-C ) :   1.3078 B(  0-C ,  5-C ) :   1.3075 B(  0-C , 11-C ) :   0.7665
B(  1-C ,  2-C ) :   1.3472 B(  1-C , 10-Cl) :   1.2099 B(  2-C ,  3-C ) :   1.3325
B(  2-C ,  9-Cl) :   1.2152 B(  3-C ,  4-C ) :   1.3325 B(  3-C ,  8-Cl) :   1.2046
B(  4-C ,  5-C ) :   1.3470 B(  4-C ,  7-Cl) :   1.2154 B(  5-C ,  6-Cl) :   1.2098
B( 11-C , 12-C ) :   1.3077 B( 11-C , 16-C ) :   1.3077 B( 12-C , 13-C ) :   1.3474
B( 12-C , 21-Cl) :   1.2099 B( 13-C , 14-C ) :   1.3325 B( 13-C , 20-Cl) :   1.2153
B( 14-C , 15-C ) :   1.3322 B( 14-C , 19-Cl) :   1.2050 B( 15-C , 16-C ) :   1.3471
B( 15-C , 18-Cl) :   1.2144 B( 16-C , 17-Cl) :   1.2098

FINAL SINGLE POINT ENERGY     -5058.751944552277

DIPOLE MOMENT
-------------

Method             : SCF
Type of density    : Electron Density
Multiplicity       :   1
Irrep              :   0
Energy             : -5058.7634901976762194 Eh
Relativity type    :
Basis              : AO
                                X                 Y                 Z
Electronic contribution:     -0.000006556      -0.000116140       0.000088831
Nuclear contribution   :     -0.000000181       0.000125112      -0.000094192
                        -----------------------------------------
Total Dipole Moment    :     -0.000006737       0.000008972      -0.000005361
                        -----------------------------------------
Magnitude (a.u.)       :      0.000012435
Magnitude (Debye)      :      0.000031606

Rotational constants in cm-1:             0.007631             0.002882             0.002861
Rotational constants in MHz :           228.785268            86.411068            85.774341

                             ****ORCA TERMINATED NORMALLY****
TOTAL RUN TIME: 0 days 0 hours 16 minutes 45 seconds 167 msec
