                         Program Version 6.0.0  -   RELEASE  -
|  1> ! pbe def2-sv(p) def2/J RI DEFGRID1 loosescf d4 GCP(DFT/SV(P)) printgap
|  2> %output
|  3>     printlevel normal
|  4> end
|  5> * xyz 0 1
|  6> C -1.9035239742 -0.5964863019 -0.8217889375
|  7> C -1.1940928542 -0.1209882001 0.4540897304
|  8> H -1.9222572823 -0.1122951784 1.2745923349
|  9> C -0.6212336835 1.3008898456 0.3232112317
| 10> H -1.3726938438 1.9188851852 -0.1804878727
| 11> C 0.6833534357 1.3164448108 -0.4974974146
| 12> H 1.1586273535 2.296622797 -0.3388910473
| 13> C 1.666630177 0.2701094632 0.0509368653
| 14> H 2.468277675 0.1513109372 -0.689460569
| 15> C 1.0144496354 -1.1141273794 0.2284543225
| 16> H 1.6412259172 -1.6994631959 0.922647777
| 17> O -0.2233525671 -1.074729766 0.8922607001
| 18> O 0.9620916569 -1.7318052949 -1.0185753169
| 19> O 2.1485378038 0.7608352797 1.277874781
| 20> O 0.4783165514 1.0682501573 -1.8629075334
| 21> O -0.4296302026 1.9007868077 1.5807529599
| 22> O -2.6800347888 -1.7479928963 -0.5781259656
| 23> H -1.1628612372 -0.7829427526 -1.608355856
| 24> H -2.6034319845 0.1690428129 -1.1600345399
| 25> H 0.7324957912 -2.6682363337 -0.9230829655
| 26> H 2.9188659955 0.2518576075 1.5682350974
| 27> H 0.0877989535 1.8486004951 -2.2808634086
| 28> H 0.357623705 1.5131961237 1.9985425413
| 29> H -2.1427383551 -2.3783182717 -0.0773154182
| 30> *
| 31>
| 32>                          ****END OF INPUT****

CARTESIAN COORDINATES (ANGSTROEM)
---------------------------------
  C     -1.903524   -0.596486   -0.821789
  C     -1.194093   -0.120988    0.454090
  H     -1.922257   -0.112295    1.274592
  C     -0.621234    1.300890    0.323211
  H     -1.372694    1.918885   -0.180488
  C      0.683353    1.316445   -0.497497
  H      1.158627    2.296623   -0.338891
  C      1.666630    0.270109    0.050937
  H      2.468278    0.151311   -0.689461
  C      1.014450   -1.114127    0.228454
  H      1.641226   -1.699463    0.922648
  O     -0.223353   -1.074730    0.892261
  O      0.962092   -1.731805   -1.018575
  O      2.148538    0.760835    1.277875
  O      0.478317    1.068250   -1.862908
  O     -0.429630    1.900787    1.580753
  O     -2.680035   -1.747993   -0.578126
  H     -1.162861   -0.782943   -1.608356
  H     -2.603432    0.169043   -1.160035
  H      0.732496   -2.668236   -0.923083
  H      2.918866    0.251858    1.568235
  H      0.087799    1.848600   -2.280863
  H      0.357624    1.513196    1.998543
  H     -2.142738   -2.378318   -0.077315

 Total Charge           Charge          ....    0
 Multiplicity           Mult            ....    1
 Number of Electrons    NEL             ....   96
 Basis Dimension        Dim             ....  192

ORBITAL ENERGIES
----------------

  NO   OCC          E(Eh)            E(eV)
   0   2.0000     -18.781259      -511.0640
   1   2.0000     -18.770139      -510.7614
   2   2.0000     -18.767654      -510.6938
   3   2.0000     -18.761746      -510.5331
   4   2.0000     -18.734631      -509.7952
   5   2.0000     -18.730161      -509.6736
   6   2.0000      -9.993344      -271.9327
   7   2.0000      -9.954514      -270.8761
   8   2.0000      -9.948147      -270.7028
   9   2.0000      -9.937604      -270.4160
  10   2.0000      -9.932824      -270.2859
  11   2.0000      -9.913403      -269.7574
  12   2.0000      -0.984196       -26.7813
  13   2.0000      -0.954419       -25.9711
  14   2.0000      -0.938902       -25.5488
  15   2.0000      -0.923561       -25.1314
  16   2.0000      -0.910606       -24.7788
  17   2.0000      -0.902052       -24.5461
  18   2.0000      -0.702052       -19.1038
  19   2.0000      -0.692673       -18.8486
  20   2.0000      -0.612813       -16.6755
  21   2.0000      -0.594106       -16.1665
  22   2.0000      -0.566102       -15.4044
  23   2.0000      -0.535836       -14.5808
  24   2.0000      -0.492760       -13.4087
  25   2.0000      -0.487909       -13.2767
  26   2.0000      -0.476076       -12.9547
  27   2.0000      -0.459021       -12.4906
  28   2.0000      -0.447650       -12.1812
  29   2.0000      -0.429904       -11.6983
  30   2.0000      -0.412584       -11.2270
  31   2.0000      -0.395891       -10.7727
  32   2.0000      -0.383564       -10.4373
  33   2.0000      -0.374960       -10.2032
  34   2.0000      -0.356104        -9.6901
  35   2.0000      -0.348647        -9.4872
  36   2.0000      -0.330687        -8.9985
  37   2.0000      -0.317450        -8.6383
  38   2.0000      -0.306728        -8.3465
  39   2.0000      -0.298318        -8.1176
  40   2.0000      -0.279694        -7.6108
  41   2.0000      -0.256085        -6.9684
  42   2.0000      -0.251390        -6.8407
  43   2.0000      -0.241416        -6.5693
  44   2.0000      -0.239154        -6.5077
  45   2.0000      -0.234176        -6.3723
  46   2.0000      -0.207741        -5.6529
  47   2.0000      -0.189770        -5.1639
  48   0.0000       0.000018         0.0005
  49   0.0000       0.008782         0.2390
  50   0.0000       0.022272         0.6060
  51   0.0000       0.053280         1.4498
  52   0.0000       0.068008         1.8506

MULLIKEN ATOMIC CHARGES
-----------------------
   0 C :    0.029380
   1 C :    0.008606
   2 H :    0.077659
   3 C :    0.063702
   4 H :    0.057536
   5 C :    0.027661
   6 H :    0.078171
   7 C :    0.024518
   8 H :    0.086536
   9 C :    0.203514
  10 H :    0.042433
  11 O :   -0.329479
  12 O :   -0.380075
  13 O :   -0.422221
  14 O :   -0.393117
  15 O :   -0.429494
  16 O :   -0.442465
  17 H :    0.113520
  18 H :    0.069285
  19 H :    0.303597
  20 H :    0.313412
  21 H :    0.308490
  22 H :    0.303049
  23 H :    0.285784
Sum of atomic charges:   -0.0000000

LOEWDIN ATOMIC CHARGES
----------------------
   0 C :   -0.150144
   1 C :   -0.072597
   2 H :    0.119980
   3 C :   -0.073078
   4 H :    0.112105
   5 C :   -0.072369
   6 H :    0.108047
   7 C :   -0.075913
   8 H :    0.117199
   9 C :   -0.010124
  10 H :    0.088879
  11 O :   -0.152858
  12 O :   -0.299683
  13 O :   -0.304463
  14 O :   -0.302083
  15 O :   -0.322750
  16 O :   -0.345761
  17 H :    0.107168
  18 H :    0.109316
  19 H :    0.286934
  20 H :    0.294246
  21 H :    0.292313
  22 H :    0.273777
  23 H :    0.271858

  Mayer bond orders larger than 0.100000
B(  0-C ,  1-C ) :   1.0576 B(  0-C , 16-O ) :   1.0487 B(  0-C , 17-H ) :   0.8874
B(  0-C , 18-H ) :   0.9134 B(  1-C ,  2-H ) :   0.8924 B(  1-C ,  3-C ) :   0.9941
B(  1-C , 11-O ) :   0.9678 B(  3-C ,  4-H ) :   0.8932 B(  3-C ,  5-C ) :   0.9629
B(  3-C , 15-O ) :   1.0615 B(  5-C ,  6-H ) :   0.8998 B(  5-C ,  7-C ) :   1.0082
B(  5-C , 14-O ) :   1.0912 B(  7-C ,  8-H ) :   0.8878 B(  7-C ,  9-C ) :   0.9759
B(  7-C , 13-O ) :   1.0269 B(  9-C , 10-H ) :   0.9026 B(  9-C , 11-O ) :   1.0676
B(  9-C , 12-O ) :   1.1414 B( 12-O , 19-H ) :   0.8366 B( 13-O , 20-H ) :   0.8398
B( 14-O , 21-H ) :   0.8441 B( 15-O , 22-H ) :   0.8180 B( 16-O , 23-H ) :   0.8473

Dispersion correction           -0.025745931
FINAL SINGLE POINT ENERGY      -685.690677366932

DIPOLE MOMENT
-------------

Method             : SCF
Type of density    : Electron Density
Multiplicity       :   1
Irrep              :   0
Energy             :  -685.8213345357091839 Eh
Relativity type    :
Basis              : AO
                                X                 Y                 Z
Electronic contribution:      1.208675479      -0.774414632       1.366846761
Nuclear contribution   :      0.154773689       0.464617702      -1.397755621
                        -----------------------------------------
Total Dipole Moment    :      1.363449168      -0.309796930      -0.030908860
                        -----------------------------------------
Magnitude (a.u.)       :      1.398543216
Magnitude (Debye)      :      3.554814350

Rotational constants in cm-1:             0.041082             0.027934             0.024541
Rotational constants in MHz :          1231.617677           837.432081           735.712646

                             ****ORCA TERMINATED NORMALLY****
TOTAL RUN TIME: 0 days 0 hours 0 minutes 12 seconds 350 msec
