                         Program Version 6.0.0  -   RELEASE  -
|  1> ! r2scan-3c def2/J RI DEFGRID2 scfconv6 printgap
|  2> %output
|  3>     printlevel normal
|  4> end
|  5> * xyz 0 1
|  6> C -5.0637176541 -0.6837068535 0.0349551065
|  7> C -4.3080163872 -1.3777060028 -0.895827439
|  8> C -2.9296813722 -1.2639340855 -0.8951215494
|  9> C -2.2938196202 -0.4405655642 0.030434055
| 10> C -3.0579639864 0.2498210454 0.9666496951
| 11> C -4.4354674613 0.1243082166 0.9683182704
| 12> C -0.8234966042 -0.3347369377 0.0233479341
| 13> C -0.0548864422 -1.4942642967 0.0653590816
| 14> C 1.3270651488 -1.4345424391 0.0682104373
| 15> C 1.9789383211 -0.2047980153 0.0234337243
| 16> C 1.2222708104 0.9626661754 -0.0349459262
| 17> C -0.1686510215 0.8975209168 -0.035437136
| 18> Cl -1.0607629114 2.3670543411 -0.1670059625
| 19> Cl 2.0199350761 2.4877729661 -0.1135307252
| 20> Cl 3.6994264234 -0.1195608853 0.0326230674
| 21> Cl 2.2539026707 -2.8848178734 0.1310807858
| 22> H -6.1390315445 -0.7742515662 0.0351612784
| 23> H -4.7933585399 -2.0099826845 -1.6232235492
| 24> H -2.3390281696 -1.7952283866 -1.6251676029
| 25> H -2.5701723451 0.8672525902 1.7046670124
| 26> H -5.0196352073 0.6592526653 1.7013156785
| 27> H -0.5447769832 -2.4532426222 0.1108946665
| 28> *
| 29>
| 30>                          ****END OF INPUT****

CARTESIAN COORDINATES (ANGSTROEM)
---------------------------------
  C     -5.063718   -0.683707    0.034955
  C     -4.308016   -1.377706   -0.895827
  C     -2.929681   -1.263934   -0.895122
  C     -2.293820   -0.440566    0.030434
  C     -3.057964    0.249821    0.966650
  C     -4.435467    0.124308    0.968318
  C     -0.823497   -0.334737    0.023348
  C     -0.054886   -1.494264    0.065359
  C      1.327065   -1.434542    0.068210
  C      1.978938   -0.204798    0.023434
  C      1.222271    0.962666   -0.034946
  C     -0.168651    0.897521   -0.035437
  Cl    -1.060763    2.367054   -0.167006
  Cl     2.019935    2.487773   -0.113531
  Cl     3.699426   -0.119561    0.032623
  Cl     2.253903   -2.884818    0.131081
  H     -6.139032   -0.774252    0.035161
  H     -4.793359   -2.009983   -1.623224
  H     -2.339028   -1.795228   -1.625168
  H     -2.570172    0.867253    1.704667
  H     -5.019635    0.659253    1.701316
  H     -0.544777   -2.453243    0.110895

 Total Charge           Charge          ....    0
 Multiplicity           Mult            ....    1
 Number of Electrons    NEL             ....  146
 Basis Dimension        Dim             ....  366

ORBITAL ENERGIES
----------------

  NO   OCC          E(Eh)            E(eV)
   0   2.0000    -101.239018     -2754.8537
   1   2.0000    -101.238625     -2754.8431
   2   2.0000    -101.237947     -2754.8246
   3   2.0000    -101.235694     -2754.7633
   4   2.0000     -10.133520      -275.7471
   5   2.0000     -10.132052      -275.7072
   6   2.0000     -10.128095      -275.5995
   7   2.0000     -10.127816      -275.5919
   8   2.0000     -10.084999      -274.4268
   9   2.0000     -10.072482      -274.0862
  10   2.0000     -10.064876      -273.8792
  11   2.0000     -10.051034      -273.5025
  12   2.0000     -10.049890      -273.4714
  13   2.0000     -10.048753      -273.4405
  14   2.0000     -10.048300      -273.4282
  15   2.0000     -10.047878      -273.4167
  16   2.0000      -9.394648      -255.6414
  17   2.0000      -9.394324      -255.6325
  18   2.0000      -9.393769      -255.6175
  19   2.0000      -9.391656      -255.5599
  20   2.0000      -7.141366      -194.3265
  21   2.0000      -7.141016      -194.3169
  22   2.0000      -7.140271      -194.2967
  23   2.0000      -7.138214      -194.2407
  24   2.0000      -7.130958      -194.0432
  25   2.0000      -7.130666      -194.0353
  26   2.0000      -7.130030      -194.0180
  27   2.0000      -7.129907      -194.0146
  28   2.0000      -7.129562      -194.0052
  29   2.0000      -7.129272      -193.9974
  30   2.0000      -7.128008      -193.9630
  31   2.0000      -7.126960      -193.9344
  32   2.0000      -0.922301       -25.0971
  33   2.0000      -0.876847       -23.8602
  34   2.0000      -0.859649       -23.3922
  35   2.0000      -0.840328       -22.8665
  36   2.0000      -0.822328       -22.3767
  37   2.0000      -0.806743       -21.9526
  38   2.0000      -0.755008       -20.5448
  39   2.0000      -0.731868       -19.9151
  40   2.0000      -0.712840       -19.3974
  41   2.0000      -0.698897       -19.0180
  42   2.0000      -0.618818       -16.8389
  43   2.0000      -0.601895       -16.3784
  44   2.0000      -0.586231       -15.9522
  45   2.0000      -0.567070       -15.4308
  46   2.0000      -0.514938       -14.0122
  47   2.0000      -0.504572       -13.7301
  48   2.0000      -0.489024       -13.3070
  49   2.0000      -0.460054       -12.5187
  50   2.0000      -0.442419       -12.0388
  51   2.0000      -0.441263       -12.0074
  52   2.0000      -0.435883       -11.8610
  53   2.0000      -0.424319       -11.5463
  54   2.0000      -0.420334       -11.4379
  55   2.0000      -0.404893       -11.0177
  56   2.0000      -0.390877       -10.6363
  57   2.0000      -0.387365       -10.5407
  58   2.0000      -0.370685       -10.0868
  59   2.0000      -0.361016        -9.8237
  60   2.0000      -0.345954        -9.4139
  61   2.0000      -0.336405        -9.1540
  62   2.0000      -0.329034        -8.9535
  63   2.0000      -0.320435        -8.7195
  64   2.0000      -0.318433        -8.6650
  65   2.0000      -0.311105        -8.4656
  66   2.0000      -0.302203        -8.2234
  67   2.0000      -0.297597        -8.0980
  68   2.0000      -0.278891        -7.5890
  69   2.0000      -0.259787        -7.0692
  70   2.0000      -0.250396        -6.8136
  71   2.0000      -0.241152        -6.5621
  72   2.0000      -0.229510        -6.2453
  73   0.0000      -0.078757        -2.1431
  74   0.0000      -0.069221        -1.8836
  75   0.0000      -0.056020        -1.5244
  76   0.0000      -0.044328        -1.2062
  77   0.0000      -0.034428        -0.9368

MULLIKEN ATOMIC CHARGES
-----------------------
   0 C :   -0.128827
   1 C :   -0.164608
   2 C :   -0.193644
   3 C :    0.122415
   4 C :   -0.172857
   5 C :   -0.165868
   6 C :    0.187547
   7 C :   -0.335852
   8 C :    0.126058
   9 C :    0.077240
  10 C :    0.038129
  11 C :   -0.016825
  12 Cl:   -0.070567
  13 Cl:   -0.069933
  14 Cl:   -0.069551
  15 Cl:   -0.097223
  16 H :    0.149015
  17 H :    0.147936
  18 H :    0.155491
  19 H :    0.159119
  20 H :    0.147931
  21 H :    0.174875
Sum of atomic charges:   -0.0000000

LOEWDIN ATOMIC CHARGES
----------------------
   0 C :   -0.156786
   1 C :   -0.156825
   2 C :   -0.141886
   3 C :   -0.080666
   4 C :   -0.141722
   5 C :   -0.156270
   6 C :   -0.066534
   7 C :   -0.143490
   8 C :   -0.178870
   9 C :   -0.195731
  10 C :   -0.187756
  11 C :   -0.163532
  12 Cl:    0.189718
  13 Cl:    0.181275
  14 Cl:    0.180381
  15 Cl:    0.165916
  16 H :    0.168964
  17 H :    0.169730
  18 H :    0.175727
  19 H :    0.176585
  20 H :    0.169943
  21 H :    0.191829

  Mayer bond orders larger than 0.100000
B(  0-C ,  1-C ) :   1.4195 B(  0-C ,  5-C ) :   1.4113 B(  0-C , 16-H ) :   0.9462
B(  1-C ,  2-C ) :   1.4333 B(  1-C , 17-H ) :   0.9494 B(  2-C ,  3-C ) :   1.4016
B(  2-C , 18-H ) :   0.9437 B(  3-C ,  4-C ) :   1.4018 B(  3-C ,  6-C ) :   0.7750
B(  4-C ,  5-C ) :   1.4442 B(  4-C , 19-H ) :   0.9381 B(  5-C , 20-H ) :   0.9493
B(  6-C ,  7-C ) :   1.3677 B(  6-C , 11-C ) :   1.2529 B(  7-C ,  8-C ) :   1.3136
B(  7-C , 21-H ) :   0.9262 B(  8-C ,  9-C ) :   1.2175 B(  8-C , 15-Cl) :   1.0695
B(  9-C , 10-C ) :   1.0978 B(  9-C , 14-Cl) :   1.2387 B( 10-C , 11-C ) :   1.1005
B( 10-C , 13-Cl) :   1.2597 B( 11-C , 12-Cl) :   1.2769

Dispersion correction           -0.012623828
FINAL SINGLE POINT ENERGY     -2301.483435105342

DIPOLE MOMENT
-------------

Method             : SCF
Type of density    : Electron Density
Multiplicity       :   1
Irrep              :   0
Energy             : -2301.4803738563059596 Eh
Relativity type    :
Basis              : AO
                                X                 Y                 Z
Electronic contribution:     28.378545217       7.292272897      -0.405676529
Nuclear contribution   :    -29.360615746      -7.649472319       0.441688782
                        -----------------------------------------
Total Dipole Moment    :     -0.982070529      -0.357199422       0.036012252
                        -----------------------------------------
Magnitude (a.u.)       :      1.045634177
Magnitude (Debye)      :      2.657790861

Rotational constants in cm-1:             0.018544             0.007861             0.005728
Rotational constants in MHz :           555.939366           235.661628           171.712160

                             ****ORCA TERMINATED NORMALLY****
TOTAL RUN TIME: 0 days 0 hours 0 minutes 55 seconds 716 msec
