                         Program Version 6.0.0  -   RELEASE  -
|  1> ! r2scan-3c def2/J RI DEFGRID2 scfconv6 printgap
|  2> %output
|  3>     printlevel normal
|  4> end
|  5> %cpcm
|  6>     smd true
|  7>     smdsolvent "water"
|  8> end
|  9> * xyz 0 1
| 10> C -5.0637176541 -0.6837068535 0.0349551065
| 11> C -4.3080163872 -1.3777060028 -0.895827439
| 12> C -2.9296813722 -1.2639340855 -0.8951215494
| 13> C -2.2938196202 -0.4405655642 0.030434055
| 14> C -3.0579639864 0.2498210454 0.9666496951
| 15> C -4.4354674613 0.1243082166 0.9683182704
| 16> C -0.8234966042 -0.3347369377 0.0233479341
| 17> C -0.0548864422 -1.4942642967 0.0653590816
| 18> C 1.3270651488 -1.4345424391 0.0682104373
| 19> C 1.9789383211 -0.2047980153 0.0234337243
| 20> C 1.2222708104 0.9626661754 -0.0349459262
| 21> C -0.1686510215 0.8975209168 -0.035437136
| 22> Cl -1.0607629114 2.3670543411 -0.1670059625
| 23> Cl 2.0199350761 2.4877729661 -0.1135307252
| 24> Cl 3.6994264234 -0.1195608853 0.0326230674
| 25> Cl 2.2539026707 -2.8848178734 0.1310807858
| 26> H -6.1390315445 -0.7742515662 0.0351612784
| 27> H -4.7933585399 -2.0099826845 -1.6232235492
| 28> H -2.3390281696 -1.7952283866 -1.6251676029
| 29> H -2.5701723451 0.8672525902 1.7046670124
| 30> H -5.0196352073 0.6592526653 1.7013156785
| 31> H -0.5447769832 -2.4532426222 0.1108946665
| 32> *
| 33>
| 34>                          ****END OF INPUT****

CARTESIAN COORDINATES (ANGSTROEM)
---------------------------------
  C     -5.063718   -0.683707    0.034955
  C     -4.308016   -1.377706   -0.895827
  C     -2.929681   -1.263934   -0.895122
  C     -2.293820   -0.440566    0.030434
  C     -3.057964    0.249821    0.966650
  C     -4.435467    0.124308    0.968318
  C     -0.823497   -0.334737    0.023348
  C     -0.054886   -1.494264    0.065359
  C      1.327065   -1.434542    0.068210
  C      1.978938   -0.204798    0.023434
  C      1.222271    0.962666   -0.034946
  C     -0.168651    0.897521   -0.035437
  Cl    -1.060763    2.367054   -0.167006
  Cl     2.019935    2.487773   -0.113531
  Cl     3.699426   -0.119561    0.032623
  Cl     2.253903   -2.884818    0.131081
  H     -6.139032   -0.774252    0.035161
  H     -4.793359   -2.009983   -1.623224
  H     -2.339028   -1.795228   -1.625168
  H     -2.570172    0.867253    1.704667
  H     -5.019635    0.659253    1.701316
  H     -0.544777   -2.453243    0.110895

 Total Charge           Charge          ....    0
 Multiplicity           Mult            ....    1
 Number of Electrons    NEL             ....  146
 Basis Dimension        Dim             ....  366

ORBITAL ENERGIES
----------------

  NO   OCC          E(Eh)            E(eV)
   0   2.0000    -101.241340     -2754.9169
   1   2.0000    -101.240925     -2754.9056
   2   2.0000    -101.237792     -2754.8204
   3   2.0000    -101.236064     -2754.7734
   4   2.0000     -10.131771      -275.6995
   5   2.0000     -10.130288      -275.6591
   6   2.0000     -10.125128      -275.5187
   7   2.0000     -10.124828      -275.5106
   8   2.0000     -10.080008      -274.2910
   9   2.0000     -10.065441      -273.8946
  10   2.0000     -10.056966      -273.6640
  11   2.0000     -10.040564      -273.2176
  12   2.0000     -10.040512      -273.2162
  13   2.0000     -10.037742      -273.1409
  14   2.0000     -10.037454      -273.1330
  15   2.0000     -10.037086      -273.1230
  16   2.0000      -9.397072      -255.7073
  17   2.0000      -9.396723      -255.6978
  18   2.0000      -9.393701      -255.6156
  19   2.0000      -9.392109      -255.5723
  20   2.0000      -7.143681      -194.3894
  21   2.0000      -7.143311      -194.3794
  22   2.0000      -7.140119      -194.2925
  23   2.0000      -7.138580      -194.2506
  24   2.0000      -7.133395      -194.1096
  25   2.0000      -7.133070      -194.1007
  26   2.0000      -7.132410      -194.0827
  27   2.0000      -7.132041      -194.0727
  28   2.0000      -7.130001      -194.0172
  29   2.0000      -7.129234      -193.9963
  30   2.0000      -7.128475      -193.9757
  31   2.0000      -7.127471      -193.9484
  32   2.0000      -0.920836       -25.0572
  33   2.0000      -0.876188       -23.8423
  34   2.0000      -0.857508       -23.3340
  35   2.0000      -0.835115       -22.7246
  36   2.0000      -0.823433       -22.4068
  37   2.0000      -0.803744       -21.8710
  38   2.0000      -0.749682       -20.3999
  39   2.0000      -0.722220       -19.6526
  40   2.0000      -0.708657       -19.2835
  41   2.0000      -0.694684       -18.9033
  42   2.0000      -0.613283       -16.6883
  43   2.0000      -0.596672       -16.2363
  44   2.0000      -0.577521       -15.7151
  45   2.0000      -0.559783       -15.2325
  46   2.0000      -0.508093       -13.8259
  47   2.0000      -0.501143       -13.6368
  48   2.0000      -0.482839       -13.1387
  49   2.0000      -0.456114       -12.4115
  50   2.0000      -0.436092       -11.8667
  51   2.0000      -0.435501       -11.8506
  52   2.0000      -0.431961       -11.7543
  53   2.0000      -0.419786       -11.4230
  54   2.0000      -0.412751       -11.2315
  55   2.0000      -0.392718       -10.6864
  56   2.0000      -0.386198       -10.5090
  57   2.0000      -0.380881       -10.3643
  58   2.0000      -0.369856       -10.0643
  59   2.0000      -0.355924        -9.6852
  60   2.0000      -0.345053        -9.3894
  61   2.0000      -0.328659        -8.9433
  62   2.0000      -0.322870        -8.7857
  63   2.0000      -0.320134        -8.7113
  64   2.0000      -0.317544        -8.6408
  65   2.0000      -0.309411        -8.4195
  66   2.0000      -0.299726        -8.1560
  67   2.0000      -0.297842        -8.1047
  68   2.0000      -0.280974        -7.6457
  69   2.0000      -0.256538        -6.9808
  70   2.0000      -0.243872        -6.6361
  71   2.0000      -0.238591        -6.4924
  72   2.0000      -0.226000        -6.1498
  73   0.0000      -0.074300        -2.0218
  74   0.0000      -0.065493        -1.7821
  75   0.0000      -0.055298        -1.5047
  76   0.0000      -0.036888        -1.0038
  77   0.0000      -0.028672        -0.7802

MULLIKEN ATOMIC CHARGES
-----------------------
   0 C :   -0.156042
   1 C :   -0.208010
   2 C :   -0.196564
   3 C :    0.082085
   4 C :   -0.194005
   5 C :   -0.208166
   6 C :    0.193464
   7 C :   -0.305439
   8 C :    0.107115
   9 C :    0.088622
  10 C :    0.040428
  11 C :    0.002346
  12 Cl:   -0.088365
  13 Cl:   -0.087867
  14 Cl:   -0.087791
  15 Cl:   -0.110002
  16 H :    0.182370
  17 H :    0.180889
  18 H :    0.188113
  19 H :    0.187855
  20 H :    0.180783
  21 H :    0.208181
Sum of atomic charges:   -0.0000000

LOEWDIN ATOMIC CHARGES
----------------------
   0 C :   -0.164711
   1 C :   -0.165275
   2 C :   -0.142580
   3 C :   -0.089529
   4 C :   -0.150202
   5 C :   -0.165948
   6 C :   -0.059810
   7 C :   -0.129575
   8 C :   -0.178663
   9 C :   -0.195804
  10 C :   -0.187996
  11 C :   -0.160751
  12 Cl:    0.179774
  13 Cl:    0.168888
  14 Cl:    0.167842
  15 Cl:    0.156944
  16 H :    0.179488
  17 H :    0.180542
  18 H :    0.187093
  19 H :    0.184667
  20 H :    0.180545
  21 H :    0.205060

  Mayer bond orders larger than 0.100000
B(  0-C ,  1-C ) :   1.3853 B(  0-C ,  5-C ) :   1.3796 B(  0-C , 16-H ) :   0.9507
B(  1-C ,  2-C ) :   1.4098 B(  1-C , 17-H ) :   0.9577 B(  2-C ,  3-C ) :   1.3863
B(  2-C , 18-H ) :   0.9447 B(  3-C ,  4-C ) :   1.3667 B(  3-C ,  6-C ) :   0.7666
B(  4-C ,  5-C ) :   1.4229 B(  4-C , 19-H ) :   0.9425 B(  5-C , 20-H ) :   0.9565
B(  6-C ,  7-C ) :   1.3996 B(  6-C , 11-C ) :   1.2414 B(  7-C ,  8-C ) :   1.3225
B(  7-C , 21-H ) :   0.9110 B(  8-C ,  9-C ) :   1.2078 B(  8-C , 15-Cl) :   1.0747
B(  9-C , 10-C ) :   1.1037 B(  9-C , 14-Cl) :   1.2172 B( 10-C , 11-C ) :   1.1096
B( 10-C , 13-Cl) :   1.2396 B( 11-C , 12-Cl) :   1.2415

Dispersion correction           -0.012623828
FINAL SINGLE POINT ENERGY     -2301.485309836241

DIPOLE MOMENT
-------------

Method             : SCF
Type of density    : Electron Density
Multiplicity       :   1
Irrep              :   0
Energy             : -2301.4822485872050493 Eh
Relativity type    :
Basis              : AO
                                X                 Y                 Z
Electronic contribution:     28.035463621       7.011544776      -0.391574166
Nuclear contribution   :    -29.360615746      -7.649472319       0.441688782
                        -----------------------------------------
Total Dipole Moment    :     -1.325152125      -0.637927544       0.050114616
                        -----------------------------------------
Magnitude (a.u.)       :      1.471560798
Magnitude (Debye)      :      3.740410292

Rotational constants in cm-1:             0.018544             0.007861             0.005728
Rotational constants in MHz :           555.939366           235.661628           171.712160

                             ****ORCA TERMINATED NORMALLY****
TOTAL RUN TIME: 0 days 0 hours 1 minutes 11 seconds 2 msec
