                         Program Version 6.0.0  -   RELEASE  -
|  1> ! pbe def2-sv(p) def2/J RI DEFGRID1 loosescf d4 GCP(DFT/SV(P)) printgap
|  2> %output
|  3>     printlevel normal
|  4> end
|  5> * xyz 0 1
|  6> C -2.1149513681 -1.1907416068 -0.1728037545
|  7> C -1.2486163283 -0.3425512279 0.7701113905
|  8> H -1.8368854576 -0.1746356923 1.6784856703
|  9> C -0.907274462 1.0346849412 0.145755384
| 10> H -1.1806491838 1.0276965649 -0.9158298789
| 11> C 0.6059759061 1.2901702808 0.2562832694
| 12> H 0.9038813161 1.3378188759 1.3100626889
| 13> C 1.3231802 0.1019766401 -0.4016582897
| 14> H 0.9428915701 -0.0107910185 -1.4298883703
| 15> C 0.9938180836 -1.1892821768 0.3904528213
| 16> H 1.8315883812 -1.4167579568 1.0615495439
| 17> O -0.1010110396 -1.0270106475 1.2596762416
| 18> O 0.8628087808 -2.2918353974 -0.444506693
| 19> O 2.7051642564 0.3552669734 -0.4190772038
| 20> O 0.9722128513 2.5286127104 -0.2822416193
| 21> O -1.6750149394 2.0662743804 0.7071873307
| 22> O -1.4966667081 -1.3156785406 -1.4420978197
| 23> H -3.0803242285 -0.684817215 -0.2683911683
| 24> H -2.257170551 -2.1776628616 0.2822972383
| 25> H 0.0821350196 -2.1496355997 -1.0223850077
| 26> H 3.1598562193 -0.3577741034 -0.8899494404
| 27> H 0.809311088 2.5372875742 -1.2365794757
| 28> H -1.3143946006 2.3172330242 1.5693964291
| 29> H -2.1180712589 -1.7339337284 -2.0556010709
| 30> *
| 31>
| 32>                          ****END OF INPUT****

CARTESIAN COORDINATES (ANGSTROEM)
---------------------------------
  C     -2.114951   -1.190742   -0.172804
  C     -1.248616   -0.342551    0.770111
  H     -1.836885   -0.174636    1.678486
  C     -0.907274    1.034685    0.145755
  H     -1.180649    1.027697   -0.915830
  C      0.605976    1.290170    0.256283
  H      0.903881    1.337819    1.310063
  C      1.323180    0.101977   -0.401658
  H      0.942892   -0.010791   -1.429888
  C      0.993818   -1.189282    0.390453
  H      1.831588   -1.416758    1.061550
  O     -0.101011   -1.027011    1.259676
  O      0.862809   -2.291835   -0.444507
  O      2.705164    0.355267   -0.419077
  O      0.972213    2.528613   -0.282242
  O     -1.675015    2.066274    0.707187
  O     -1.496667   -1.315679   -1.442098
  H     -3.080324   -0.684817   -0.268391
  H     -2.257171   -2.177663    0.282297
  H      0.082135   -2.149636   -1.022385
  H      3.159856   -0.357774   -0.889949
  H      0.809311    2.537288   -1.236579
  H     -1.314395    2.317233    1.569396
  H     -2.118071   -1.733934   -2.055601

 Total Charge           Charge          ....    0
 Multiplicity           Mult            ....    1
 Number of Electrons    NEL             ....   96
 Basis Dimension        Dim             ....  192

ORBITAL ENERGIES
----------------

  NO   OCC          E(Eh)            E(eV)
   0   2.0000     -18.798344      -511.5289
   1   2.0000     -18.761464      -510.5254
   2   2.0000     -18.749312      -510.1947
   3   2.0000     -18.746620      -510.1215
   4   2.0000     -18.742206      -510.0014
   5   2.0000     -18.735809      -509.8273
   6   2.0000      -9.972206      -271.3575
   7   2.0000      -9.953709      -270.8542
   8   2.0000      -9.950324      -270.7621
   9   2.0000      -9.941381      -270.5187
  10   2.0000      -9.938179      -270.4316
  11   2.0000      -9.935293      -270.3531
  12   2.0000      -0.975993       -26.5581
  13   2.0000      -0.957952       -26.0672
  14   2.0000      -0.937189       -25.5022
  15   2.0000      -0.926243       -25.2043
  16   2.0000      -0.909371       -24.7452
  17   2.0000      -0.896456       -24.3938
  18   2.0000      -0.707480       -19.2515
  19   2.0000      -0.689212       -18.7544
  20   2.0000      -0.624625       -16.9969
  21   2.0000      -0.585313       -15.9272
  22   2.0000      -0.564686       -15.3659
  23   2.0000      -0.534162       -14.5353
  24   2.0000      -0.503896       -13.7117
  25   2.0000      -0.486099       -13.2274
  26   2.0000      -0.473880       -12.8949
  27   2.0000      -0.454006       -12.3541
  28   2.0000      -0.452933       -12.3249
  29   2.0000      -0.428657       -11.6643
  30   2.0000      -0.413157       -11.2426
  31   2.0000      -0.407202       -11.0805
  32   2.0000      -0.400687       -10.9032
  33   2.0000      -0.381670       -10.3858
  34   2.0000      -0.356765        -9.7081
  35   2.0000      -0.341720        -9.2987
  36   2.0000      -0.332295        -9.0422
  37   2.0000      -0.305032        -8.3004
  38   2.0000      -0.300134        -8.1671
  39   2.0000      -0.290942        -7.9169
  40   2.0000      -0.279616        -7.6087
  41   2.0000      -0.274049        -7.4572
  42   2.0000      -0.261661        -7.1202
  43   2.0000      -0.250259        -6.8099
  44   2.0000      -0.228425        -6.2158
  45   2.0000      -0.220703        -6.0056
  46   2.0000      -0.202016        -5.4971
  47   2.0000      -0.199695        -5.4340
  48   0.0000      -0.003808        -0.1036
  49   0.0000       0.026844         0.7305
  50   0.0000       0.034041         0.9263
  51   0.0000       0.048952         1.3320
  52   0.0000       0.057158         1.5553

MULLIKEN ATOMIC CHARGES
-----------------------
   0 C :   -0.008760
   1 C :    0.070617
   2 H :    0.071752
   3 C :    0.036230
   4 H :    0.057423
   5 C :    0.077701
   6 H :    0.058744
   7 C :   -0.011043
   8 H :    0.037562
   9 C :    0.201454
  10 H :    0.065175
  11 O :   -0.305384
  12 O :   -0.419932
  13 O :   -0.400300
  14 O :   -0.397892
  15 O :   -0.408320
  16 O :   -0.441149
  17 H :    0.099921
  18 H :    0.100065
  19 H :    0.292684
  20 H :    0.303804
  21 H :    0.294202
  22 H :    0.301517
  23 H :    0.323928
Sum of atomic charges:    0.0000000

LOEWDIN ATOMIC CHARGES
----------------------
   0 C :   -0.138494
   1 C :   -0.068926
   2 H :    0.125047
   3 C :   -0.080782
   4 H :    0.108952
   5 C :   -0.077600
   6 H :    0.117150
   7 C :   -0.097246
   8 H :    0.094784
   9 C :   -0.013079
  10 H :    0.110553
  11 O :   -0.146973
  12 O :   -0.328141
  13 O :   -0.314315
  14 O :   -0.302313
  15 O :   -0.311724
  16 O :   -0.324971
  17 H :    0.116393
  18 H :    0.110820
  19 H :    0.261994
  20 H :    0.288564
  21 H :    0.284319
  22 H :    0.286043
  23 H :    0.299944

  Mayer bond orders larger than 0.100000
B(  0-C ,  1-C ) :   1.0614 B(  0-C , 16-O ) :   1.0084 B(  0-C , 17-H ) :   0.9136
B(  0-C , 18-H ) :   0.9110 B(  1-C ,  2-H ) :   0.8873 B(  1-C ,  3-C ) :   0.9351
B(  1-C , 11-O ) :   1.0500 B(  3-C ,  4-H ) :   0.8709 B(  3-C ,  5-C ) :   1.0035
B(  3-C , 15-O ) :   1.0640 B(  5-C ,  6-H ) :   0.8597 B(  5-C ,  7-C ) :   0.9916
B(  5-C , 14-O ) :   1.0795 B(  7-C ,  8-H ) :   0.8743 B(  7-C ,  9-C ) :   0.9825
B(  7-C , 13-O ) :   1.0963 B(  9-C , 10-H ) :   0.8908 B(  9-C , 11-O ) :   1.0340
B(  9-C , 12-O ) :   1.1292 B( 12-O , 19-H ) :   0.7896 B( 13-O , 20-H ) :   0.8462
B( 14-O , 21-H ) :   0.8508 B( 15-O , 22-H ) :   0.8476 B( 16-O , 19-H ) :   0.1277
B( 16-O , 23-H ) :   0.8378

Dispersion correction           -0.025180067
FINAL SINGLE POINT ENERGY      -685.689499443884

DIPOLE MOMENT
-------------

Method             : SCF
Type of density    : Electron Density
Multiplicity       :   1
Irrep              :   0
Energy             :  -685.8208051877770686 Eh
Relativity type    :
Basis              : AO
                                X                 Y                 Z
Electronic contribution:      2.604678048       0.766161235       0.916773255
Nuclear contribution   :     -3.788159165      -1.389418764      -1.807515978
                        -----------------------------------------
Total Dipole Moment    :     -1.183481116      -0.623257529      -0.890742723
                        -----------------------------------------
Magnitude (a.u.)       :      1.607015899
Magnitude (Debye)      :      4.084709797

Rotational constants in cm-1:             0.035988             0.032457             0.021233
Rotational constants in MHz :          1078.905795           973.036510           636.546282

                             ****ORCA TERMINATED NORMALLY****
TOTAL RUN TIME: 0 days 0 hours 0 minutes 11 seconds 842 msec
