                         Program Version 6.0.0  -   RELEASE  -
|  1> ! wb97x-v def2-tzvp def2/J RIJCOSX DEFGRID2 scfconv7 GCP(DFT/TZ) printgap
|  2> %output
|  3>     printlevel normal
|  4> end
|  5> * xyz 0 1
|  6> C -1.6534792677807217 -0.7886210642211484 0.9509548513837507
|  7> C -0.889342566609616 -0.026534446303430232 -0.10108417339625911
|  8> O -1.5044385217895349 0.5047205149763037 -1.020957734455794
|  9> C 0.6283252654672883 0.062230311958659724 0.002821538227762089
| 10> C 0.9887061975755521 0.7266621253708992 1.344787979075496
| 11> C 1.1990033101982396 0.8856707607854472 -1.149894723342805
| 12> C 1.201865582158527 -1.3663065309816398 -0.04353006887093795
| 13> H -2.228287409321463 -1.577950865139217 0.4552393509693732
| 14> H -1.030090226254985 -1.2304841799778155 1.7271347769746312
| 15> H -2.3751585056662248 -0.10640826482820272 1.4126292542861671
| 16> H 0.6463149612954887 0.13749813923946758 2.199548620586909
| 17> H 2.077516358556187 0.8202389857096523 1.4129409319139332
| 18> H 0.5541228938631342 1.7293248298337816 1.4151574224782923
| 19> H 2.28842406967811 0.9347624513470223 -1.0563582824863467
| 20> H 0.8086809172777208 1.9076237474390825 -1.1407755992452138
| 21> H 0.9599567814475946 0.4367581739352573 -2.1185339253788404
| 22> H 2.294435577502969 -1.3101835320182078 0.001052504348728382
| 23> H 0.9229201519443783 -1.8712185604651645 -0.974324207144359
| 24> H 0.8598234064683413 -1.9739344457003298 0.798454214924279
| 25> *
| 26>
| 27>                          ****END OF INPUT****

CARTESIAN COORDINATES (ANGSTROEM)
---------------------------------
  C     -1.653479   -0.788621    0.950955
  C     -0.889343   -0.026534   -0.101084
  O     -1.504439    0.504721   -1.020958
  C      0.628325    0.062230    0.002822
  C      0.988706    0.726662    1.344788
  C      1.199003    0.885671   -1.149895
  C      1.201866   -1.366307   -0.043530
  H     -2.228287   -1.577951    0.455239
  H     -1.030090   -1.230484    1.727135
  H     -2.375159   -0.106408    1.412629
  H      0.646315    0.137498    2.199549
  H      2.077516    0.820239    1.412941
  H      0.554123    1.729325    1.415157
  H      2.288424    0.934762   -1.056358
  H      0.808681    1.907624   -1.140776
  H      0.959957    0.436758   -2.118534
  H      2.294436   -1.310184    0.001053
  H      0.922920   -1.871219   -0.974324
  H      0.859823   -1.973934    0.798454

 Total Charge           Charge          ....    0
 Multiplicity           Mult            ....    1
 Number of Electrons    NEL             ....   56
 Basis Dimension        Dim             ....  289

ORBITAL ENERGIES
----------------

  NO   OCC          E(Eh)            E(eV)
   0   2.0000     -21.656163      -589.2941
   1   2.0000     -12.134807      -330.2049
   2   2.0000     -12.070223      -328.4475
   3   2.0000     -12.050831      -327.9198
   4   2.0000     -12.048738      -327.8628
   5   2.0000     -12.048442      -327.8548
   6   2.0000     -12.032891      -327.4316
   7   2.0000      -1.700395       -46.2701
   8   2.0000      -1.344673       -36.5904
   9   2.0000      -1.251887       -34.0656
  10   2.0000      -1.191805       -32.4307
  11   2.0000      -1.183099       -32.1938
  12   2.0000      -1.118890       -30.4465
  13   2.0000      -1.048989       -28.5444
  14   2.0000      -0.960360       -26.1327
  15   2.0000      -0.953696       -25.9514
  16   2.0000      -0.912935       -24.8422
  17   2.0000      -0.879925       -23.9440
  18   2.0000      -0.871363       -23.7110
  19   2.0000      -0.847072       -23.0500
  20   2.0000      -0.835854       -22.7447
  21   2.0000      -0.830718       -22.6050
  22   2.0000      -0.823275       -22.4025
  23   2.0000      -0.814676       -22.1685
  24   2.0000      -0.805530       -21.9196
  25   2.0000      -0.783844       -21.3295
  26   2.0000      -0.779863       -21.2212
  27   2.0000      -0.765856       -20.8400
  28   0.0000      -0.309206        -8.4139
  29   0.0000      -0.061106        -1.6628
  30   0.0000      -0.050294        -1.3686
  31   0.0000      -0.033350        -0.9075
  32   0.0000      -0.021224        -0.5775

MULLIKEN ATOMIC CHARGES
-----------------------
   0 C :   -0.366804
   1 C :    0.194047
   2 O :   -0.310776
   3 C :    0.083101
   4 C :   -0.358966
   5 C :   -0.342717
   6 C :   -0.359737
   7 H :    0.142831
   8 H :    0.112537
   9 H :    0.142761
  10 H :    0.109744
  11 H :    0.118933
  12 H :    0.128043
  13 H :    0.108336
  14 H :    0.120120
  15 H :    0.120903
  16 H :    0.118973
  17 H :    0.128344
  18 H :    0.110327
Sum of atomic charges:   -0.0000000

LOEWDIN ATOMIC CHARGES
----------------------
   0 C :   -0.260405
   1 C :   -0.293748
   2 O :    0.113658
   3 C :   -0.333305
   4 C :   -0.245050
   5 C :   -0.250657
   6 C :   -0.244818
   7 H :    0.139576
   8 H :    0.118535
   9 H :    0.139734
  10 H :    0.119283
  11 H :    0.125935
  12 H :    0.126422
  13 H :    0.120069
  14 H :    0.126332
  15 H :    0.126423
  16 H :    0.126004
  17 H :    0.126543
  18 H :    0.119472

  Mayer bond orders larger than 0.100000
B(  0-C ,  1-C ) :   0.9520 B(  0-C ,  7-H ) :   0.9622 B(  0-C ,  8-H ) :   0.9830
B(  0-C ,  9-H ) :   0.9619 B(  1-C ,  2-O ) :   2.1417 B(  1-C ,  3-C ) :   0.9109
B(  3-C ,  4-C ) :   0.9680 B(  3-C ,  5-C ) :   0.9942 B(  3-C ,  6-C ) :   0.9666
B(  4-C , 10-H ) :   0.9669 B(  4-C , 11-H ) :   0.9739 B(  4-C , 12-H ) :   0.9793
B(  5-C , 13-H ) :   0.9787 B(  5-C , 14-H ) :   0.9699 B(  5-C , 15-H ) :   0.9699
B(  6-C , 16-H ) :   0.9739 B(  6-C , 17-H ) :   0.9792 B(  6-C , 18-H ) :   0.9668

FINAL SINGLE POINT ENERGY      -311.109551769058

DIPOLE MOMENT
-------------

Method             : SCF
Type of density    : Electron Density
Multiplicity       :   1
Irrep              :   0
Energy             :  -311.1228229068581754 Eh
Relativity type    :
Basis              : AO
                                X                 Y                 Z
Electronic contribution:     -4.854683432       1.460590615      -3.021305383
Nuclear contribution   :      5.458515974      -1.951336278       3.873910030
                        -----------------------------------------
Total Dipole Moment    :      0.603832542      -0.490745664       0.852604647
                        -----------------------------------------
Magnitude (a.u.)       :      1.154287542
Magnitude (Debye)      :      2.933965765

Rotational constants in cm-1:             0.106812             0.076886             0.064253
Rotational constants in MHz :          3202.138737          2304.993459          1926.257784

                             ****ORCA TERMINATED NORMALLY****
TOTAL RUN TIME: 0 days 0 hours 2 minutes 23 seconds 94 msec
