                         Program Version 6.0.0  -   RELEASE  -
|  1> ! wb97x-v def2-tzvp def2/J RIJCOSX DEFGRID2 scfconv7 GCP(DFT/TZ) printgap
|  2> %output
|  3>     printlevel normal
|  4> end
|  5> %cpcm
|  6>     smd true
|  7>     smdsolvent "water"
|  8> end
|  9> * xyz 0 1
| 10> C -1.6534792677807217 -0.7886210642211484 0.9509548513837507
| 11> C -0.889342566609616 -0.026534446303430232 -0.10108417339625911
| 12> O -1.5044385217895349 0.5047205149763037 -1.020957734455794
| 13> C 0.6283252654672883 0.062230311958659724 0.002821538227762089
| 14> C 0.9887061975755521 0.7266621253708992 1.344787979075496
| 15> C 1.1990033101982396 0.8856707607854472 -1.149894723342805
| 16> C 1.201865582158527 -1.3663065309816398 -0.04353006887093795
| 17> H -2.228287409321463 -1.577950865139217 0.4552393509693732
| 18> H -1.030090226254985 -1.2304841799778155 1.7271347769746312
| 19> H -2.3751585056662248 -0.10640826482820272 1.4126292542861671
| 20> H 0.6463149612954887 0.13749813923946758 2.199548620586909
| 21> H 2.077516358556187 0.8202389857096523 1.4129409319139332
| 22> H 0.5541228938631342 1.7293248298337816 1.4151574224782923
| 23> H 2.28842406967811 0.9347624513470223 -1.0563582824863467
| 24> H 0.8086809172777208 1.9076237474390825 -1.1407755992452138
| 25> H 0.9599567814475946 0.4367581739352573 -2.1185339253788404
| 26> H 2.294435577502969 -1.3101835320182078 0.001052504348728382
| 27> H 0.9229201519443783 -1.8712185604651645 -0.974324207144359
| 28> H 0.8598234064683413 -1.9739344457003298 0.798454214924279
| 29> *
| 30>
| 31>                          ****END OF INPUT****

CARTESIAN COORDINATES (ANGSTROEM)
---------------------------------
  C     -1.653479   -0.788621    0.950955
  C     -0.889343   -0.026534   -0.101084
  O     -1.504439    0.504721   -1.020958
  C      0.628325    0.062230    0.002822
  C      0.988706    0.726662    1.344788
  C      1.199003    0.885671   -1.149895
  C      1.201866   -1.366307   -0.043530
  H     -2.228287   -1.577951    0.455239
  H     -1.030090   -1.230484    1.727135
  H     -2.375159   -0.106408    1.412629
  H      0.646315    0.137498    2.199549
  H      2.077516    0.820239    1.412941
  H      0.554123    1.729325    1.415157
  H      2.288424    0.934762   -1.056358
  H      0.808681    1.907624   -1.140776
  H      0.959957    0.436758   -2.118534
  H      2.294436   -1.310184    0.001053
  H      0.922920   -1.871219   -0.974324
  H      0.859823   -1.973934    0.798454

 Total Charge           Charge          ....    0
 Multiplicity           Mult            ....    1
 Number of Electrons    NEL             ....   56
 Basis Dimension        Dim             ....  289

ORBITAL ENERGIES
----------------

  NO   OCC          E(Eh)            E(eV)
   0   2.0000     -21.666302      -589.5700
   1   2.0000     -12.141491      -330.3868
   2   2.0000     -12.062082      -328.2259
   3   2.0000     -12.038043      -327.5718
   4   2.0000     -12.032486      -327.4206
   5   2.0000     -12.032183      -327.4124
   6   2.0000     -12.025939      -327.2424
   7   2.0000      -1.713764       -46.6339
   8   2.0000      -1.335476       -36.3402
   9   2.0000      -1.244333       -33.8600
  10   2.0000      -1.176190       -32.0057
  11   2.0000      -1.173669       -31.9372
  12   2.0000      -1.119138       -30.4533
  13   2.0000      -1.054680       -28.6993
  14   2.0000      -0.963932       -26.2299
  15   2.0000      -0.945483       -25.7279
  16   2.0000      -0.922143       -25.0928
  17   2.0000      -0.867034       -23.5932
  18   2.0000      -0.863192       -23.4887
  19   2.0000      -0.842167       -22.9165
  20   2.0000      -0.822861       -22.3912
  21   2.0000      -0.822517       -22.3818
  22   2.0000      -0.807744       -21.9798
  23   2.0000      -0.804862       -21.9014
  24   2.0000      -0.792122       -21.5547
  25   2.0000      -0.771910       -21.0047
  26   2.0000      -0.768976       -20.9249
  27   2.0000      -0.761390       -20.7185
  28   0.0000      -0.307061        -8.3556
  29   0.0000      -0.054010        -1.4697
  30   0.0000      -0.039785        -1.0826
  31   0.0000      -0.019620        -0.5339
  32   0.0000      -0.005099        -0.1387

MULLIKEN ATOMIC CHARGES
-----------------------
   0 C :   -0.421948
   1 C :    0.277223
   2 O :   -0.451628
   3 C :    0.141170
   4 C :   -0.414968
   5 C :   -0.428318
   6 C :   -0.414856
   7 H :    0.163400
   8 H :    0.152624
   9 H :    0.163698
  10 H :    0.138217
  11 H :    0.139302
  12 H :    0.139155
  13 H :    0.136476
  14 H :    0.131654
  15 H :    0.131578
  16 H :    0.139481
  17 H :    0.139068
  18 H :    0.138672
Sum of atomic charges:   -0.0000000

LOEWDIN ATOMIC CHARGES
----------------------
   0 C :   -0.255493
   1 C :   -0.271286
   2 O :    0.035236
   3 C :   -0.328191
   4 C :   -0.244735
   5 C :   -0.261246
   6 C :   -0.244501
   7 H :    0.145293
   8 H :    0.131412
   9 H :    0.145570
  10 H :    0.126464
  11 H :    0.130609
  12 H :    0.128511
  13 H :    0.127675
  14 H :    0.124486
  15 H :    0.124315
  16 H :    0.130713
  17 H :    0.128538
  18 H :    0.126631

  Mayer bond orders larger than 0.100000
B(  0-C ,  1-C ) :   0.9731 B(  0-C ,  7-H ) :   0.9530 B(  0-C ,  8-H ) :   0.9733
B(  0-C ,  9-H ) :   0.9527 B(  1-C ,  2-O ) :   1.9819 B(  1-C ,  3-C ) :   0.9211
B(  3-C ,  4-C ) :   0.9540 B(  3-C ,  5-C ) :   0.9608 B(  3-C ,  6-C ) :   0.9529
B(  4-C , 10-H ) :   0.9653 B(  4-C , 11-H ) :   0.9714 B(  4-C , 12-H ) :   0.9745
B(  5-C , 13-H ) :   0.9770 B(  5-C , 14-H ) :   0.9734 B(  5-C , 15-H ) :   0.9730
B(  6-C , 16-H ) :   0.9715 B(  6-C , 17-H ) :   0.9743 B(  6-C , 18-H ) :   0.9653

FINAL SINGLE POINT ENERGY      -311.116179984612

DIPOLE MOMENT
-------------

Method             : SCF
Type of density    : Electron Density
Multiplicity       :   1
Irrep              :   0
Energy             :  -311.1294511224121493 Eh
Relativity type    :
Basis              : AO
                                X                 Y                 Z
Electronic contribution:     -4.572234481       1.193091360      -2.562374991
Nuclear contribution   :      5.458515974      -1.951336278       3.873910030
                        -----------------------------------------
Total Dipole Moment    :      0.886281493      -0.758244918       1.311535039
                        -----------------------------------------
Magnitude (a.u.)       :      1.755150820
Magnitude (Debye)      :      4.461238843

Rotational constants in cm-1:             0.106812             0.076886             0.064253
Rotational constants in MHz :          3202.138737          2304.993459          1926.257784

                             ****ORCA TERMINATED NORMALLY****
TOTAL RUN TIME: 0 days 0 hours 2 minutes 28 seconds 557 msec
