                         Program Version 6.0.0  -   RELEASE  -
|  1> ! r2scan-3c def2/J RI DEFGRID2 scfconv6 printgap
|  2> %output
|  3>     printlevel normal
|  4> end
|  5> * xyz 0 1
|  6> C 1.5039914031 2.5345938542 1.1552685406
|  7> C 1.7572672657 1.6587142984 -0.0702575865
|  8> C 2.7935688735 0.5448073175 0.2260144028
|  9> C 1.9749196745 -0.7070277415 0.1470571302
| 10> C 2.3108238509 -2.0284605642 0.3390443452
| 11> C 1.3271957101 -2.9977412089 0.1867723291
| 12> C 0.0295183186 -2.6438477901 -0.1371267284
| 13> C -0.3116650456 -1.3118007242 -0.3335795494
| 14> C 0.6734491445 -0.3445362764 -0.1984629214
| 15> O 0.5065469978 0.9821913674 -0.3884953504
| 16> O -1.6197754679 -0.9755641708 -0.692290797
| 17> C -2.2748466165 -0.091170893 0.111935352
| 18> O -1.8662505787 0.2602690654 1.2026724333
| 19> N -3.4196761536 0.2888819313 -0.4599670586
| 20> C -4.3592089667 1.1862876614 0.1728752172
| 21> C 2.1460441944 2.5022520488 -1.2812835046
| 22> H 0.729931083 3.2645327614 0.933453157
| 23> H 1.1595918199 1.917525306 1.9827405573
| 24> H 2.4152833066 3.051341321 1.4403574519
| 25> H 3.5948357997 0.539551275 -0.5141948806
| 26> H 3.2381136918 0.6709681286 1.2130390799
| 27> H 3.3192152015 -2.3040812125 0.6027829008
| 28> H 1.570583971 -4.0377004846 0.331464058
| 29> H -0.7403902255 -3.3907368048 -0.2456823266
| 30> H -3.6384078624 -0.0840893202 -1.3711788819
| 31> H -5.3167454362 0.6879586158 0.3200809962
| 32> H -4.4998603617 2.0755570344 -0.4401875749
| 33> H -3.9465624344 1.4726039628 1.1381390525
| 34> H 3.0669007178 3.0388087498 -1.0748730645
| 35> H 1.3569578323 3.2164022398 -1.5007230859
| 36> H 2.2865244818 1.8640698511 -2.1505403799
| 37> *
| 38>
| 39>                          ****END OF INPUT****

CARTESIAN COORDINATES (ANGSTROEM)
---------------------------------
  C      1.503991    2.534594    1.155269
  C      1.757267    1.658714   -0.070258
  C      2.793569    0.544807    0.226014
  C      1.974920   -0.707028    0.147057
  C      2.310824   -2.028461    0.339044
  C      1.327196   -2.997741    0.186772
  C      0.029518   -2.643848   -0.137127
  C     -0.311665   -1.311801   -0.333580
  C      0.673449   -0.344536   -0.198463
  O      0.506547    0.982191   -0.388495
  O     -1.619775   -0.975564   -0.692291
  C     -2.274847   -0.091171    0.111935
  O     -1.866251    0.260269    1.202672
  N     -3.419676    0.288882   -0.459967
  C     -4.359209    1.186288    0.172875
  C      2.146044    2.502252   -1.281284
  H      0.729931    3.264533    0.933453
  H      1.159592    1.917525    1.982741
  H      2.415283    3.051341    1.440357
  H      3.594836    0.539551   -0.514195
  H      3.238114    0.670968    1.213039
  H      3.319215   -2.304081    0.602783
  H      1.570584   -4.037700    0.331464
  H     -0.740390   -3.390737   -0.245682
  H     -3.638408   -0.084089   -1.371179
  H     -5.316745    0.687959    0.320081
  H     -4.499860    2.075557   -0.440188
  H     -3.946562    1.472604    1.138139
  H      3.066901    3.038809   -1.074873
  H      1.356958    3.216402   -1.500723
  H      2.286524    1.864070   -2.150540

 Total Charge           Charge          ....    0
 Multiplicity           Mult            ....    1
 Number of Electrons    NEL             ....  118
 Basis Dimension        Dim             ....  399

ORBITAL ENERGIES
----------------

  NO   OCC          E(Eh)            E(eV)
   0   2.0000     -18.996168      -516.9120
   1   2.0000     -18.975874      -516.3598
   2   2.0000     -18.908289      -514.5207
   3   2.0000     -14.188968      -386.1014
   4   2.0000     -10.166010      -276.6312
   5   2.0000     -10.102300      -274.8976
   6   2.0000     -10.090519      -274.5770
   7   2.0000     -10.085280      -274.4344
   8   2.0000     -10.065942      -273.9082
   9   2.0000     -10.040960      -273.2284
  10   2.0000     -10.036336      -273.1026
  11   2.0000     -10.031540      -272.9721
  12   2.0000     -10.029996      -272.9301
  13   2.0000     -10.026147      -272.8253
  14   2.0000     -10.024511      -272.7808
  15   2.0000     -10.019652      -272.6486
  16   2.0000      -1.071724       -29.1631
  17   2.0000      -1.033080       -28.1115
  18   2.0000      -0.971743       -26.4425
  19   2.0000      -0.898616       -24.4526
  20   2.0000      -0.821143       -22.3444
  21   2.0000      -0.780014       -21.2253
  22   2.0000      -0.736447       -20.0397
  23   2.0000      -0.715237       -19.4626
  24   2.0000      -0.677944       -18.4478
  25   2.0000      -0.663101       -18.0439
  26   2.0000      -0.654027       -17.7970
  27   2.0000      -0.596323       -16.2268
  28   2.0000      -0.575457       -15.6590
  29   2.0000      -0.552059       -15.0223
  30   2.0000      -0.540380       -14.7045
  31   2.0000      -0.525415       -14.2973
  32   2.0000      -0.471765       -12.8374
  33   2.0000      -0.453329       -12.3357
  34   2.0000      -0.448537       -12.2053
  35   2.0000      -0.445082       -12.1113
  36   2.0000      -0.440232       -11.9793
  37   2.0000      -0.430106       -11.7038
  38   2.0000      -0.411203       -11.1894
  39   2.0000      -0.406933       -11.0732
  40   2.0000      -0.387607       -10.5473
  41   2.0000      -0.385769       -10.4973
  42   2.0000      -0.378550       -10.3009
  43   2.0000      -0.373310       -10.1583
  44   2.0000      -0.371920       -10.1204
  45   2.0000      -0.361556        -9.8384
  46   2.0000      -0.351515        -9.5652
  47   2.0000      -0.347565        -9.4577
  48   2.0000      -0.340174        -9.2566
  49   2.0000      -0.327271        -8.9055
  50   2.0000      -0.324166        -8.8210
  51   2.0000      -0.313661        -8.5351
  52   2.0000      -0.297105        -8.0846
  53   2.0000      -0.285267        -7.7625
  54   2.0000      -0.275913        -7.5080
  55   2.0000      -0.236077        -6.4240
  56   2.0000      -0.229883        -6.2554
  57   2.0000      -0.218301        -5.9403
  58   2.0000      -0.188284        -5.1235
  59   0.0000      -0.026621        -0.7244
  60   0.0000      -0.009649        -0.2626
  61   0.0000       0.034195         0.9305
  62   0.0000       0.054311         1.4779
  63   0.0000       0.074674         2.0320

MULLIKEN ATOMIC CHARGES
-----------------------
   0 C :   -0.491592
   1 C :    0.312362
   2 C :   -0.486762
   3 C :    0.258882
   4 C :   -0.293102
   5 C :   -0.135262
   6 C :   -0.290589
   7 C :   -0.016705
   8 C :    0.173528
   9 O :   -0.159217
  10 O :   -0.171082
  11 C :    0.322457
  12 O :   -0.471086
  13 N :   -0.153688
  14 C :   -0.391476
  15 C :   -0.488624
  16 H :    0.157088
  17 H :    0.169439
  18 H :    0.154551
  19 H :    0.171164
  20 H :    0.172247
  21 H :    0.148518
  22 H :    0.146090
  23 H :    0.157631
  24 H :    0.249209
  25 H :    0.143106
  26 H :    0.143751
  27 H :    0.196512
  28 H :    0.155544
  29 H :    0.160868
  30 H :    0.156237
Sum of atomic charges:    0.0000000

LOEWDIN ATOMIC CHARGES
----------------------
   0 C :   -0.366724
   1 C :    0.104057
   2 C :   -0.218913
   3 C :   -0.051354
   4 C :   -0.156521
   5 C :   -0.178182
   6 C :   -0.121386
   7 C :    0.212506
   8 C :    0.238274
   9 O :   -0.623178
  10 O :   -0.486653
  11 C :    0.455011
  12 O :   -0.402479
  13 N :   -0.603292
  14 C :   -0.108482
  15 C :   -0.369330
  16 H :    0.165705
  17 H :    0.172155
  18 H :    0.158616
  19 H :    0.174660
  20 H :    0.176432
  21 H :    0.169524
  22 H :    0.167206
  23 H :    0.180138
  24 H :    0.278027
  25 H :    0.168587
  26 H :    0.169210
  27 H :    0.205173
  28 H :    0.161434
  29 H :    0.165283
  30 H :    0.164495

  Mayer bond orders larger than 0.100000
B(  0-C ,  1-C ) :   0.9709 B(  0-C , 16-H ) :   0.9676 B(  0-C , 17-H ) :   0.9562
B(  0-C , 18-H ) :   0.9798 B(  1-C ,  2-C ) :   0.8932 B(  1-C ,  8-C ) :   0.1233
B(  1-C ,  9-O ) :   0.6459 B(  1-C , 15-C ) :   0.9573 B(  2-C ,  3-C ) :   0.6934
B(  2-C , 19-H ) :   0.9662 B(  2-C , 20-H ) :   0.9664 B(  3-C ,  4-C ) :   1.2929
B(  3-C ,  7-C ) :  -0.1122 B(  3-C ,  8-C ) :   1.3813 B(  4-C ,  5-C ) :   1.4211
B(  4-C , 21-H ) :   0.9400 B(  5-C ,  6-C ) :   1.3855 B(  5-C ,  8-C ) :   0.1082
B(  5-C , 22-H ) :   0.9500 B(  6-C ,  7-C ) :   1.3375 B(  6-C , 23-H ) :   0.9413
B(  7-C ,  8-C ) :   1.5134 B(  7-C , 10-O ) :   0.9352 B(  8-C ,  9-O ) :   1.1059
B( 10-O , 11-C ) :   1.0719 B( 11-C , 12-O ) :   1.8343 B( 11-C , 13-N ) :   1.2752
B( 13-N , 14-C ) :   0.8970 B( 13-N , 24-H ) :   0.9093 B( 14-C , 25-H ) :   0.9624
B( 14-C , 26-H ) :   0.9625 B( 14-C , 27-H ) :   0.9596 B( 15-C , 28-H ) :   0.9760
B( 15-C , 29-H ) :   0.9745 B( 15-C , 30-H ) :   0.9685

Dispersion correction           -0.012211440
FINAL SINGLE POINT ENERGY      -746.593048199089

DIPOLE MOMENT
-------------

Method             : SCF
Type of density    : Electron Density
Multiplicity       :   1
Irrep              :   0
Energy             :  -746.6009347130614060 Eh
Relativity type    :
Basis              : AO
                                X                 Y                 Z
Electronic contribution:     -4.293592735     -10.779214277      -1.256614176
Nuclear contribution   :      4.248896853      11.247360041       0.622861752
                        -----------------------------------------
Total Dipole Moment    :     -0.044695882       0.468145764      -0.633752424
                        -----------------------------------------
Magnitude (a.u.)       :      0.789176984
Magnitude (Debye)      :      2.005928480

Rotational constants in cm-1:             0.024272             0.014708             0.010250
Rotational constants in MHz :           727.646621           440.927187           307.285818

                             ****ORCA TERMINATED NORMALLY****
TOTAL RUN TIME: 0 days 0 hours 1 minutes 11 seconds 994 msec
