                         Program Version 6.0.0  -   RELEASE  -
|  1> ! r2scan-3c def2/J RI DEFGRID2 scfconv6 printgap
|  2> %output
|  3>     printlevel normal
|  4> end
|  5> %cpcm
|  6>     smd true
|  7>     smdsolvent "water"
|  8> end
|  9> * xyz 0 1
| 10> C 1.5039914031 2.5345938542 1.1552685406
| 11> C 1.7572672657 1.6587142984 -0.0702575865
| 12> C 2.7935688735 0.5448073175 0.2260144028
| 13> C 1.9749196745 -0.7070277415 0.1470571302
| 14> C 2.3108238509 -2.0284605642 0.3390443452
| 15> C 1.3271957101 -2.9977412089 0.1867723291
| 16> C 0.0295183186 -2.6438477901 -0.1371267284
| 17> C -0.3116650456 -1.3118007242 -0.3335795494
| 18> C 0.6734491445 -0.3445362764 -0.1984629214
| 19> O 0.5065469978 0.9821913674 -0.3884953504
| 20> O -1.6197754679 -0.9755641708 -0.692290797
| 21> C -2.2748466165 -0.091170893 0.111935352
| 22> O -1.8662505787 0.2602690654 1.2026724333
| 23> N -3.4196761536 0.2888819313 -0.4599670586
| 24> C -4.3592089667 1.1862876614 0.1728752172
| 25> C 2.1460441944 2.5022520488 -1.2812835046
| 26> H 0.729931083 3.2645327614 0.933453157
| 27> H 1.1595918199 1.917525306 1.9827405573
| 28> H 2.4152833066 3.051341321 1.4403574519
| 29> H 3.5948357997 0.539551275 -0.5141948806
| 30> H 3.2381136918 0.6709681286 1.2130390799
| 31> H 3.3192152015 -2.3040812125 0.6027829008
| 32> H 1.570583971 -4.0377004846 0.331464058
| 33> H -0.7403902255 -3.3907368048 -0.2456823266
| 34> H -3.6384078624 -0.0840893202 -1.3711788819
| 35> H -5.3167454362 0.6879586158 0.3200809962
| 36> H -4.4998603617 2.0755570344 -0.4401875749
| 37> H -3.9465624344 1.4726039628 1.1381390525
| 38> H 3.0669007178 3.0388087498 -1.0748730645
| 39> H 1.3569578323 3.2164022398 -1.5007230859
| 40> H 2.2865244818 1.8640698511 -2.1505403799
| 41> *
| 42>
| 43>                          ****END OF INPUT****

CARTESIAN COORDINATES (ANGSTROEM)
---------------------------------
  C      1.503991    2.534594    1.155269
  C      1.757267    1.658714   -0.070258
  C      2.793569    0.544807    0.226014
  C      1.974920   -0.707028    0.147057
  C      2.310824   -2.028461    0.339044
  C      1.327196   -2.997741    0.186772
  C      0.029518   -2.643848   -0.137127
  C     -0.311665   -1.311801   -0.333580
  C      0.673449   -0.344536   -0.198463
  O      0.506547    0.982191   -0.388495
  O     -1.619775   -0.975564   -0.692291
  C     -2.274847   -0.091171    0.111935
  O     -1.866251    0.260269    1.202672
  N     -3.419676    0.288882   -0.459967
  C     -4.359209    1.186288    0.172875
  C      2.146044    2.502252   -1.281284
  H      0.729931    3.264533    0.933453
  H      1.159592    1.917525    1.982741
  H      2.415283    3.051341    1.440357
  H      3.594836    0.539551   -0.514195
  H      3.238114    0.670968    1.213039
  H      3.319215   -2.304081    0.602783
  H      1.570584   -4.037700    0.331464
  H     -0.740390   -3.390737   -0.245682
  H     -3.638408   -0.084089   -1.371179
  H     -5.316745    0.687959    0.320081
  H     -4.499860    2.075557   -0.440188
  H     -3.946562    1.472604    1.138139
  H      3.066901    3.038809   -1.074873
  H      1.356958    3.216402   -1.500723
  H      2.286524    1.864070   -2.150540

 Total Charge           Charge          ....    0
 Multiplicity           Mult            ....    1
 Number of Electrons    NEL             ....  118
 Basis Dimension        Dim             ....  399

ORBITAL ENERGIES
----------------

  NO   OCC          E(Eh)            E(eV)
   0   2.0000     -19.012033      -517.3437
   1   2.0000     -18.987997      -516.6897
   2   2.0000     -18.934566      -515.2357
   3   2.0000     -14.191502      -386.1704
   4   2.0000     -10.184581      -277.1365
   5   2.0000     -10.101914      -274.8870
   6   2.0000     -10.100481      -274.8481
   7   2.0000     -10.095685      -274.7176
   8   2.0000     -10.056416      -273.6490
   9   2.0000     -10.043132      -273.2875
  10   2.0000     -10.038926      -273.1731
  11   2.0000     -10.034582      -273.0548
  12   2.0000     -10.034573      -273.0546
  13   2.0000     -10.032276      -272.9921
  14   2.0000     -10.015162      -272.5264
  15   2.0000     -10.014864      -272.5183
  16   2.0000      -1.089136       -29.6369
  17   2.0000      -1.044340       -28.4179
  18   2.0000      -0.995036       -27.0763
  19   2.0000      -0.903363       -24.5818
  20   2.0000      -0.830022       -22.5861
  21   2.0000      -0.778925       -21.1956
  22   2.0000      -0.740445       -20.1485
  23   2.0000      -0.721540       -19.6341
  24   2.0000      -0.677909       -18.4468
  25   2.0000      -0.657112       -17.8809
  26   2.0000      -0.654840       -17.8191
  27   2.0000      -0.601968       -16.3804
  28   2.0000      -0.580413       -15.7938
  29   2.0000      -0.554089       -15.0775
  30   2.0000      -0.542953       -14.7745
  31   2.0000      -0.532592       -14.4926
  32   2.0000      -0.476996       -12.9797
  33   2.0000      -0.466438       -12.6924
  34   2.0000      -0.453910       -12.3515
  35   2.0000      -0.445756       -12.1296
  36   2.0000      -0.441218       -12.0061
  37   2.0000      -0.434287       -11.8175
  38   2.0000      -0.419862       -11.4250
  39   2.0000      -0.404105       -10.9963
  40   2.0000      -0.397200       -10.8084
  41   2.0000      -0.386434       -10.5154
  42   2.0000      -0.380132       -10.3439
  43   2.0000      -0.377872       -10.2824
  44   2.0000      -0.369137       -10.0447
  45   2.0000      -0.358538        -9.7563
  46   2.0000      -0.355826        -9.6825
  47   2.0000      -0.349212        -9.5025
  48   2.0000      -0.338146        -9.2014
  49   2.0000      -0.331819        -9.0292
  50   2.0000      -0.325998        -8.8708
  51   2.0000      -0.318807        -8.6752
  52   2.0000      -0.298285        -8.1168
  53   2.0000      -0.292515        -7.9597
  54   2.0000      -0.290225        -7.8974
  55   2.0000      -0.264283        -7.1915
  56   2.0000      -0.239789        -6.5250
  57   2.0000      -0.227522        -6.1912
  58   2.0000      -0.199199        -5.4205
  59   0.0000      -0.035553        -0.9675
  60   0.0000      -0.020274        -0.5517
  61   0.0000       0.016707         0.4546
  62   0.0000       0.049314         1.3419
  63   0.0000       0.081698         2.2231

MULLIKEN ATOMIC CHARGES
-----------------------
   0 C :   -0.549393
   1 C :    0.358054
   2 C :   -0.478661
   3 C :    0.227355
   4 C :   -0.306845
   5 C :   -0.179805
   6 C :   -0.304061
   7 C :   -0.050867
   8 C :    0.164224
   9 O :   -0.210388
  10 O :   -0.174610
  11 C :    0.346359
  12 O :   -0.560269
  13 N :   -0.178597
  14 C :   -0.404028
  15 C :   -0.530378
  16 H :    0.173662
  17 H :    0.170298
  18 H :    0.181660
  19 H :    0.197519
  20 H :    0.198116
  21 H :    0.182014
  22 H :    0.180318
  23 H :    0.190994
  24 H :    0.307527
  25 H :    0.170603
  26 H :    0.170889
  27 H :    0.186487
  28 H :    0.179766
  29 H :    0.173353
  30 H :    0.168700
Sum of atomic charges:    0.0000000

LOEWDIN ATOMIC CHARGES
----------------------
   0 C :   -0.372835
   1 C :    0.108268
   2 C :   -0.212218
   3 C :   -0.046989
   4 C :   -0.158239
   5 C :   -0.185440
   6 C :   -0.131303
   7 C :    0.194633
   8 C :    0.222888
   9 O :   -0.653504
  10 O :   -0.491176
  11 C :    0.453728
  12 O :   -0.475795
  13 N :   -0.576104
  14 C :   -0.103424
  15 C :   -0.372440
  16 H :    0.167376
  17 H :    0.168858
  18 H :    0.170907
  19 H :    0.186153
  20 H :    0.186867
  21 H :    0.182998
  22 H :    0.179182
  23 H :    0.192277
  24 H :    0.295340
  25 H :    0.181218
  26 H :    0.181711
  27 H :    0.199971
  28 H :    0.171762
  29 H :    0.167570
  30 H :    0.167759

  Mayer bond orders larger than 0.100000
B(  0-C ,  1-C ) :   0.9470 B(  0-C , 16-H ) :   0.9698 B(  0-C , 17-H ) :   0.9610
B(  0-C , 18-H ) :   0.9680 B(  1-C ,  2-C ) :   0.8928 B(  1-C ,  8-C ) :   0.1116
B(  1-C ,  9-O ) :   0.6410 B(  1-C , 15-C ) :   0.9510 B(  2-C ,  3-C ) :   0.7066
B(  2-C , 19-H ) :   0.9600 B(  2-C , 20-H ) :   0.9638 B(  3-C ,  4-C ) :   1.2789
B(  3-C ,  7-C ) :  -0.1073 B(  3-C ,  8-C ) :   1.3424 B(  4-C ,  5-C ) :   1.3744
B(  4-C , 21-H ) :   0.9599 B(  5-C ,  6-C ) :   1.3543 B(  5-C ,  8-C ) :   0.1015
B(  5-C , 22-H ) :   0.9627 B(  6-C ,  7-C ) :   1.3091 B(  6-C , 23-H ) :   0.9552
B(  7-C ,  8-C ) :   1.4718 B(  7-C , 10-O ) :   0.9113 B(  8-C ,  9-O ) :   1.0846
B( 10-O , 11-C ) :   1.0735 B( 11-C , 12-O ) :   1.7537 B( 11-C , 13-N ) :   1.3350
B( 13-N , 14-C ) :   0.8877 B( 13-N , 24-H ) :   0.8865 B( 14-C , 25-H ) :   0.9544
B( 14-C , 26-H ) :   0.9535 B( 14-C , 27-H ) :   0.9595 B( 15-C , 28-H ) :   0.9669
B( 15-C , 29-H ) :   0.9725 B( 15-C , 30-H ) :   0.9646

Dispersion correction           -0.012211440
FINAL SINGLE POINT ENERGY      -746.608535270954

DIPOLE MOMENT
-------------

Method             : SCF
Type of density    : Electron Density
Multiplicity       :   1
Irrep              :   0
Energy             :  -746.6164217849268425 Eh
Relativity type    :
Basis              : AO
                                X                 Y                 Z
Electronic contribution:     -4.114906059     -10.739277607      -1.630463559
Nuclear contribution   :      4.248896853      11.247360041       0.622861752
                        -----------------------------------------
Total Dipole Moment    :      0.133990794       0.508082434      -1.007601807
                        -----------------------------------------
Magnitude (a.u.)       :      1.136381403
Magnitude (Debye)      :      2.888451977

Rotational constants in cm-1:             0.024272             0.014708             0.010250
Rotational constants in MHz :           727.646621           440.927187           307.285818

                             ****ORCA TERMINATED NORMALLY****
TOTAL RUN TIME: 0 days 0 hours 1 minutes 32 seconds 153 msec
