                         Program Version 6.0.0  -   RELEASE  -
|  1> ! r2scan-3c def2/J RI DEFGRID2 scfconv6 printgap
|  2> %output
|  3>     printlevel normal
|  4> end
|  5> * xyz 0 1
|  6> C -0.8204982958 -2.2883861978 -0.0001163069
|  7> C 0.0702631219 -1.0859952707 0.00017475
|  8> C 1.4492022112 -1.2525382211 0.0001942755
|  9> C 2.3115665193 -0.169189259 -3.8887e-06
| 10> C 1.8099639913 1.1245960114 -0.0002882753
| 11> C 0.4455977962 1.3157283139 -0.0001790846
| 12> C -0.4353195678 0.2273303164 0.0001260547
| 13> C -1.8642825814 0.5090899133 0.0008130782
| 14> O -2.3568989958 1.6230318409 -0.0006630643
| 15> H -1.4595367188 -2.2953427368 0.8806764599
| 16> H -1.4580007636 -2.2957699923 -0.881992397
| 17> H -0.223839374 -3.1961733488 0.0006356187
| 18> H 1.8570411492 -2.2522586406 0.0003738277
| 19> H 3.3780890494 -0.3338869557 3.7427e-06
| 20> H 2.4787200078 1.9707826933 -0.0005036831
| 21> H 0.0171543529 2.3074042995 -0.0002466374
| 22> H -2.5274984943 -0.3710217153 0.0029912257
| 23> *
| 24>
| 25>                          ****END OF INPUT****

CARTESIAN COORDINATES (ANGSTROEM)
---------------------------------
  C     -0.820498   -2.288386   -0.000116
  C      0.070263   -1.085995    0.000175
  C      1.449202   -1.252538    0.000194
  C      2.311567   -0.169189   -0.000004
  C      1.809964    1.124596   -0.000288
  C      0.445598    1.315728   -0.000179
  C     -0.435320    0.227330    0.000126
  C     -1.864283    0.509090    0.000813
  O     -2.356899    1.623032   -0.000663
  H     -1.459537   -2.295343    0.880676
  H     -1.458001   -2.295770   -0.881992
  H     -0.223839   -3.196173    0.000636
  H      1.857041   -2.252259    0.000374
  H      3.378089   -0.333887    0.000004
  H      2.478720    1.970783   -0.000504
  H      0.017154    2.307404   -0.000247
  H     -2.527498   -0.371022    0.002991

 Total Charge           Charge          ....    0
 Multiplicity           Mult            ....    1
 Number of Electrons    NEL             ....   64
 Basis Dimension        Dim             ....  216

ORBITAL ENERGIES
----------------

  NO   OCC          E(Eh)            E(eV)
   0   2.0000     -18.942634      -515.4553
   1   2.0000     -10.114602      -275.2323
   2   2.0000     -10.068320      -273.9729
   3   2.0000     -10.054598      -273.5995
   4   2.0000     -10.051239      -273.5081
   5   2.0000     -10.049271      -273.4546
   6   2.0000     -10.047859      -273.4162
   7   2.0000     -10.046813      -273.3877
   8   2.0000     -10.043859      -273.3073
   9   2.0000      -1.003951       -27.3189
  10   2.0000      -0.846955       -23.0468
  11   2.0000      -0.763435       -20.7741
  12   2.0000      -0.740488       -20.1497
  13   2.0000      -0.675618       -18.3845
  14   2.0000      -0.626873       -17.0581
  15   2.0000      -0.575110       -15.6495
  16   2.0000      -0.542647       -14.7662
  17   2.0000      -0.490920       -13.3586
  18   2.0000      -0.460319       -12.5259
  19   2.0000      -0.431950       -11.7539
  20   2.0000      -0.415197       -11.2981
  21   2.0000      -0.411546       -11.1987
  22   2.0000      -0.395617       -10.7653
  23   2.0000      -0.392742       -10.6870
  24   2.0000      -0.373372       -10.1600
  25   2.0000      -0.372892       -10.1469
  26   2.0000      -0.339655        -9.2425
  27   2.0000      -0.333006        -9.0615
  28   2.0000      -0.322518        -8.7761
  29   2.0000      -0.250695        -6.8218
  30   2.0000      -0.245148        -6.6708
  31   2.0000      -0.221239        -6.0202
  32   0.0000      -0.099232        -2.7003
  33   0.0000      -0.042266        -1.1501
  34   0.0000       0.005425         0.1476
  35   0.0000       0.073734         2.0064
  36   0.0000       0.083672         2.2768

MULLIKEN ATOMIC CHARGES
-----------------------
   0 C :   -0.576487
   1 C :    0.094952
   2 C :   -0.198028
   3 C :   -0.118027
   4 C :   -0.154268
   5 C :   -0.186187
   6 C :    0.233956
   7 C :    0.011568
   8 O :   -0.351625
   9 H :    0.175903
  10 H :    0.176067
  11 H :    0.152951
  12 H :    0.148010
  13 H :    0.148717
  14 H :    0.149617
  15 H :    0.184179
  16 H :    0.108704
Sum of atomic charges:    0.0000000

LOEWDIN ATOMIC CHARGES
----------------------
   0 C :   -0.391718
   1 C :   -0.063472
   2 C :   -0.164372
   3 C :   -0.132493
   4 C :   -0.164886
   5 C :   -0.092853
   6 C :   -0.099340
   7 C :    0.215144
   8 O :   -0.465351
   9 H :    0.168386
  10 H :    0.168425
  11 H :    0.161847
  12 H :    0.169481
  13 H :    0.169693
  14 H :    0.169958
  15 H :    0.190134
  16 H :    0.161416

  Mayer bond orders larger than 0.100000
B(  0-C ,  1-C ) :   0.7848 B(  0-C ,  9-H ) :   0.9764 B(  0-C , 10-H ) :   0.9763
B(  0-C , 11-H ) :   0.9824 B(  1-C ,  2-C ) :   1.4013 B(  1-C ,  6-C ) :   1.3945
B(  2-C ,  3-C ) :   1.4435 B(  2-C , 12-H ) :   0.9286 B(  3-C ,  4-C ) :   1.3802
B(  3-C , 13-H ) :   0.9469 B(  4-C ,  5-C ) :   1.4041 B(  4-C , 14-H ) :   0.9553
B(  5-C ,  6-C ) :   1.3370 B(  5-C , 15-H ) :   0.9566 B(  6-C ,  7-C ) :   0.9096
B(  6-C ,  8-O ) :  -0.1141 B(  7-C ,  8-O ) :   1.9369 B(  7-C , 16-H ) :   1.0076

Dispersion correction           -0.005767422
FINAL SINGLE POINT ENERGY      -384.789866730505

DIPOLE MOMENT
-------------

Method             : SCF
Type of density    : Electron Density
Multiplicity       :   1
Irrep              :   0
Energy             :  -384.7896537516609783 Eh
Relativity type    :
Basis              : AO
                                X                 Y                 Z
Electronic contribution:     -0.977519559       4.960882514      -0.000943886
Nuclear contribution   :      1.899712196      -6.042414028       0.001808498
                        -----------------------------------------
Total Dipole Moment    :      0.922192637      -1.081531514       0.000864613
                        -----------------------------------------
Magnitude (a.u.)       :      1.421319958
Magnitude (Debye)      :      3.612708227

Rotational constants in cm-1:             0.084009             0.052635             0.032556
Rotational constants in MHz :          2518.535749          1577.944100           975.995416

                             ****ORCA TERMINATED NORMALLY****
TOTAL RUN TIME: 0 days 0 hours 0 minutes 26 seconds 354 msec
