                         Program Version 6.0.0  -   RELEASE  -
|  1> ! r2scan-3c def2/J RI DEFGRID2 scfconv6 printgap
|  2> %output
|  3>     printlevel normal
|  4> end
|  5> %cpcm
|  6>     smd true
|  7>     smdsolvent "water"
|  8> end
|  9> * xyz 0 1
| 10> C -0.8204982958 -2.2883861978 -0.0001163069
| 11> C 0.0702631219 -1.0859952707 0.00017475
| 12> C 1.4492022112 -1.2525382211 0.0001942755
| 13> C 2.3115665193 -0.169189259 -3.8887e-06
| 14> C 1.8099639913 1.1245960114 -0.0002882753
| 15> C 0.4455977962 1.3157283139 -0.0001790846
| 16> C -0.4353195678 0.2273303164 0.0001260547
| 17> C -1.8642825814 0.5090899133 0.0008130782
| 18> O -2.3568989958 1.6230318409 -0.0006630643
| 19> H -1.4595367188 -2.2953427368 0.8806764599
| 20> H -1.4580007636 -2.2957699923 -0.881992397
| 21> H -0.223839374 -3.1961733488 0.0006356187
| 22> H 1.8570411492 -2.2522586406 0.0003738277
| 23> H 3.3780890494 -0.3338869557 3.7427e-06
| 24> H 2.4787200078 1.9707826933 -0.0005036831
| 25> H 0.0171543529 2.3074042995 -0.0002466374
| 26> H -2.5274984943 -0.3710217153 0.0029912257
| 27> *
| 28>
| 29>                          ****END OF INPUT****

CARTESIAN COORDINATES (ANGSTROEM)
---------------------------------
  C     -0.820498   -2.288386   -0.000116
  C      0.070263   -1.085995    0.000175
  C      1.449202   -1.252538    0.000194
  C      2.311567   -0.169189   -0.000004
  C      1.809964    1.124596   -0.000288
  C      0.445598    1.315728   -0.000179
  C     -0.435320    0.227330    0.000126
  C     -1.864283    0.509090    0.000813
  O     -2.356899    1.623032   -0.000663
  H     -1.459537   -2.295343    0.880676
  H     -1.458001   -2.295770   -0.881992
  H     -0.223839   -3.196173    0.000636
  H      1.857041   -2.252259    0.000374
  H      3.378089   -0.333887    0.000004
  H      2.478720    1.970783   -0.000504
  H      0.017154    2.307404   -0.000247
  H     -2.527498   -0.371022    0.002991

 Total Charge           Charge          ....    0
 Multiplicity           Mult            ....    1
 Number of Electrons    NEL             ....   64
 Basis Dimension        Dim             ....  216

ORBITAL ENERGIES
----------------

  NO   OCC          E(Eh)            E(eV)
   0   2.0000     -18.952725      -515.7299
   1   2.0000     -10.120005      -275.3793
   2   2.0000     -10.061672      -273.7920
   3   2.0000     -10.046395      -273.3763
   4   2.0000     -10.046099      -273.3682
   5   2.0000     -10.044486      -273.3244
   6   2.0000     -10.038402      -273.1588
   7   2.0000     -10.037477      -273.1336
   8   2.0000     -10.023610      -272.7563
   9   2.0000      -1.016447       -27.6589
  10   2.0000      -0.840721       -22.8772
  11   2.0000      -0.753482       -20.5033
  12   2.0000      -0.734750       -19.9936
  13   2.0000      -0.662550       -18.0289
  14   2.0000      -0.621383       -16.9087
  15   2.0000      -0.566953       -15.4276
  16   2.0000      -0.536983       -14.6120
  17   2.0000      -0.483796       -13.1647
  18   2.0000      -0.455139       -12.3850
  19   2.0000      -0.426955       -11.6180
  20   2.0000      -0.406015       -11.0482
  21   2.0000      -0.403293       -10.9742
  22   2.0000      -0.401478       -10.9248
  23   2.0000      -0.383758       -10.4426
  24   2.0000      -0.374151       -10.1812
  25   2.0000      -0.355705        -9.6792
  26   2.0000      -0.337083        -9.1725
  27   2.0000      -0.322964        -8.7883
  28   2.0000      -0.313071        -8.5191
  29   2.0000      -0.248902        -6.7730
  30   2.0000      -0.238798        -6.4980
  31   2.0000      -0.232270        -6.3204
  32   0.0000      -0.099800        -2.7157
  33   0.0000      -0.035996        -0.9795
  34   0.0000       0.007881         0.2144
  35   0.0000       0.092815         2.5256
  36   0.0000       0.097830         2.6621

MULLIKEN ATOMIC CHARGES
-----------------------
   0 C :   -0.598560
   1 C :    0.086834
   2 C :   -0.223461
   3 C :   -0.132526
   4 C :   -0.201935
   5 C :   -0.213923
   6 C :    0.228629
   7 C :    0.056258
   8 O :   -0.453086
   9 H :    0.194142
  10 H :    0.194251
  11 H :    0.175088
  12 H :    0.183962
  13 H :    0.184482
  14 H :    0.182669
  15 H :    0.194355
  16 H :    0.142820
Sum of atomic charges:   -0.0000000

LOEWDIN ATOMIC CHARGES
----------------------
   0 C :   -0.393403
   1 C :   -0.054228
   2 C :   -0.166362
   3 C :   -0.129171
   4 C :   -0.171854
   5 C :   -0.105894
   6 C :   -0.110043
   7 C :    0.233723
   8 O :   -0.542690
   9 H :    0.176540
  10 H :    0.176562
  11 H :    0.169345
  12 H :    0.182815
  13 H :    0.182234
  14 H :    0.180959
  15 H :    0.191202
  16 H :    0.180265

  Mayer bond orders larger than 0.100000
B(  0-C ,  1-C ) :   0.8049 B(  0-C ,  9-H ) :   0.9671 B(  0-C , 10-H ) :   0.9671
B(  0-C , 11-H ) :   0.9754 B(  1-C ,  2-C ) :   1.3895 B(  1-C ,  6-C ) :   1.3554
B(  2-C ,  3-C ) :   1.4076 B(  2-C , 12-H ) :   0.9402 B(  3-C ,  4-C ) :   1.3499
B(  3-C , 13-H ) :   0.9521 B(  4-C ,  5-C ) :   1.4023 B(  4-C , 14-H ) :   0.9610
B(  5-C ,  6-C ) :   1.2535 B(  5-C , 15-H ) :   0.9679 B(  6-C ,  7-C ) :   0.9529
B(  6-C ,  8-O ) :  -0.1135 B(  7-C ,  8-O ) :   1.8788 B(  7-C , 16-H ) :   0.9900

Dispersion correction           -0.005767422
FINAL SINGLE POINT ENERGY      -384.796864110444

DIPOLE MOMENT
-------------

Method             : SCF
Type of density    : Electron Density
Multiplicity       :   1
Irrep              :   0
Energy             :  -384.7966511315997309 Eh
Relativity type    :
Basis              : AO
                                X                 Y                 Z
Electronic contribution:     -0.610310386       4.395068641      -0.000414643
Nuclear contribution   :      1.899712196      -6.042414028       0.001808498
                        -----------------------------------------
Total Dipole Moment    :      1.289401810      -1.647345387       0.001393856
                        -----------------------------------------
Magnitude (a.u.)       :      2.091962187
Magnitude (Debye)      :      5.317345304

Rotational constants in cm-1:             0.084009             0.052635             0.032556
Rotational constants in MHz :          2518.535749          1577.944100           975.995416

                             ****ORCA TERMINATED NORMALLY****
TOTAL RUN TIME: 0 days 0 hours 0 minutes 30 seconds 855 msec
