                         Program Version 6.0.0  -   RELEASE  -
|  1> ! pbe def2-sv(p) def2/J RI DEFGRID1 loosescf d4 GCP(DFT/SV(P)) printgap
|  2> %output
|  3>     printlevel normal
|  4> end
|  5> * xyz 0 1
|  6> C -2.5623883398 -0.6731554552 -0.3153859236
|  7> C -1.1804594665 -0.2931066649 0.2254849052
|  8> H -1.2238500614 -0.2431380783 1.3237426104
|  9> C -0.7225914072 1.0692969203 -0.3122750703
| 10> H -0.7465211497 1.0322285598 -1.4153514562
| 11> C 0.7175543744 1.3378103676 0.1483427753
| 12> H 0.7232991804 1.4662662917 1.2370949796
| 13> C 1.6362777707 0.1617012078 -0.2136457475
| 14> H 1.708266 0.0820961063 -1.3124796727
| 15> C 1.0299447627 -1.1508944556 0.3241837168
| 16> H 1.0237861864 -1.1089507693 1.4249830381
| 17> O -0.2807293814 -1.3104936702 -0.1764533893
| 18> O 1.7551520946 -2.2695720781 -0.0114842803
| 19> O 2.9132884821 0.3188986712 0.34539982
| 20> O 1.2097203556 2.5515829992 -0.3680218378
| 21> O -1.6037846822 2.0552148888 0.155990794
| 22> O -3.0722015208 -1.8286278529 0.2936090202
| 23> H -2.4877811386 -0.8073549024 -1.4019115745
| 24> H -3.2593598878 0.1360102907 -0.0935921673
| 25> H 1.7253956373 -2.4089442767 -0.9717883155
| 26> H 3.1917695728 1.2424384384 0.2322878746
| 27> H 1.2248234308 2.517755758 -1.33707657
| 28> H -1.1806287552 2.9241786941 0.0622622629
| 29> H -2.4362034251 -2.5477645379 0.1649372094
| 30> *
| 31>
| 32>                          ****END OF INPUT****

CARTESIAN COORDINATES (ANGSTROEM)
---------------------------------
  C     -2.562388   -0.673155   -0.315386
  C     -1.180459   -0.293107    0.225485
  H     -1.223850   -0.243138    1.323743
  C     -0.722591    1.069297   -0.312275
  H     -0.746521    1.032229   -1.415351
  C      0.717554    1.337810    0.148343
  H      0.723299    1.466266    1.237095
  C      1.636278    0.161701   -0.213646
  H      1.708266    0.082096   -1.312480
  C      1.029945   -1.150894    0.324184
  H      1.023786   -1.108951    1.424983
  O     -0.280729   -1.310494   -0.176453
  O      1.755152   -2.269572   -0.011484
  O      2.913288    0.318899    0.345400
  O      1.209720    2.551583   -0.368022
  O     -1.603785    2.055215    0.155991
  O     -3.072202   -1.828628    0.293609
  H     -2.487781   -0.807355   -1.401912
  H     -3.259360    0.136010   -0.093592
  H      1.725396   -2.408944   -0.971788
  H      3.191770    1.242438    0.232288
  H      1.224823    2.517756   -1.337077
  H     -1.180629    2.924179    0.062262
  H     -2.436203   -2.547765    0.164937

 Total Charge           Charge          ....    0
 Multiplicity           Mult            ....    1
 Number of Electrons    NEL             ....   96
 Basis Dimension        Dim             ....  192

ORBITAL ENERGIES
----------------

  NO   OCC          E(Eh)            E(eV)
   0   2.0000     -18.783294      -511.1194
   1   2.0000     -18.781145      -511.0609
   2   2.0000     -18.762541      -510.5547
   3   2.0000     -18.762470      -510.5528
   4   2.0000     -18.757139      -510.4077
   5   2.0000     -18.742408      -510.0068
   6   2.0000      -9.992911      -271.9209
   7   2.0000      -9.956283      -270.9242
   8   2.0000      -9.953012      -270.8352
   9   2.0000      -9.950537      -270.7679
  10   2.0000      -9.947680      -270.6901
  11   2.0000      -9.929428      -270.1935
  12   2.0000      -0.990671       -26.9575
  13   2.0000      -0.966253       -26.2931
  14   2.0000      -0.941007       -25.6061
  15   2.0000      -0.928823       -25.2745
  16   2.0000      -0.925456       -25.1829
  17   2.0000      -0.912841       -24.8397
  18   2.0000      -0.713172       -19.4064
  19   2.0000      -0.696200       -18.9446
  20   2.0000      -0.621183       -16.9032
  21   2.0000      -0.590429       -16.0664
  22   2.0000      -0.573912       -15.6169
  23   2.0000      -0.549376       -14.9493
  24   2.0000      -0.503894       -13.7116
  25   2.0000      -0.499907       -13.6032
  26   2.0000      -0.477438       -12.9917
  27   2.0000      -0.458642       -12.4803
  28   2.0000      -0.454715       -12.3734
  29   2.0000      -0.437488       -11.9047
  30   2.0000      -0.433550       -11.7975
  31   2.0000      -0.417889       -11.3713
  32   2.0000      -0.398394       -10.8409
  33   2.0000      -0.374743       -10.1973
  34   2.0000      -0.368551       -10.0288
  35   2.0000      -0.347911        -9.4671
  36   2.0000      -0.327791        -8.9196
  37   2.0000      -0.318974        -8.6797
  38   2.0000      -0.313330        -8.5261
  39   2.0000      -0.302559        -8.2331
  40   2.0000      -0.293153        -7.9771
  41   2.0000      -0.281939        -7.6720
  42   2.0000      -0.262799        -7.1511
  43   2.0000      -0.244931        -6.6649
  44   2.0000      -0.243164        -6.6168
  45   2.0000      -0.226655        -6.1676
  46   2.0000      -0.218756        -5.9527
  47   2.0000      -0.212481        -5.7819
  48   0.0000      -0.004362        -0.1187
  49   0.0000       0.022779         0.6198
  50   0.0000       0.035618         0.9692
  51   0.0000       0.043161         1.1745
  52   0.0000       0.048209         1.3118

MULLIKEN ATOMIC CHARGES
-----------------------
   0 C :    0.103352
   1 C :   -0.019858
   2 H :    0.064148
   3 C :    0.062829
   4 H :    0.033325
   5 C :    0.020621
   6 H :    0.074052
   7 C :    0.042255
   8 H :    0.020969
   9 C :    0.207930
  10 H :    0.059438
  11 O :   -0.318640
  12 O :   -0.364532
  13 O :   -0.400990
  14 O :   -0.417878
  15 O :   -0.409473
  16 O :   -0.432511
  17 H :    0.061844
  18 H :    0.101412
  19 H :    0.301727
  20 H :    0.303074
  21 H :    0.302646
  22 H :    0.304834
  23 H :    0.299425
Sum of atomic charges:   -0.0000000

LOEWDIN ATOMIC CHARGES
----------------------
   0 C :   -0.123590
   1 C :   -0.070379
   2 H :    0.111157
   3 C :   -0.077634
   4 H :    0.092924
   5 C :   -0.095245
   6 H :    0.122612
   7 C :   -0.097684
   8 H :    0.088976
   9 C :    0.007351
  10 H :    0.104459
  11 O :   -0.159072
  12 O :   -0.277572
  13 O :   -0.314093
  14 O :   -0.311199
  15 O :   -0.315802
  16 O :   -0.333643
  17 H :    0.098003
  18 H :    0.124894
  19 H :    0.287853
  20 H :    0.283579
  21 H :    0.286419
  22 H :    0.285229
  23 H :    0.282458

  Mayer bond orders larger than 0.100000
B(  0-C ,  1-C ) :   1.0565 B(  0-C , 16-O ) :   1.0848 B(  0-C , 17-H ) :   0.9035
B(  0-C , 18-H ) :   0.9130 B(  1-C ,  2-H ) :   0.8684 B(  1-C ,  3-C ) :   0.9980
B(  1-C , 11-O ) :   0.9796 B(  3-C ,  4-H ) :   0.8607 B(  3-C ,  5-C ) :   1.0144
B(  3-C , 15-O ) :   1.0761 B(  5-C ,  6-H ) :   0.8639 B(  5-C ,  7-C ) :   1.0126
B(  5-C , 14-O ) :   1.0131 B(  7-C ,  8-H ) :   0.8523 B(  7-C ,  9-C ) :   0.9763
B(  7-C , 13-O ) :   1.0971 B(  9-C , 10-H ) :   0.8784 B(  9-C , 11-O ) :   0.9956
B(  9-C , 12-O ) :   1.1662 B( 12-O , 19-H ) :   0.8423 B( 13-O , 20-H ) :   0.8336
B( 14-O , 21-H ) :   0.8448 B( 15-O , 22-H ) :   0.8315 B( 16-O , 23-H ) :   0.8459

Dispersion correction           -0.023634631
FINAL SINGLE POINT ENERGY      -685.700147811765

DIPOLE MOMENT
-------------

Method             : SCF
Type of density    : Electron Density
Multiplicity       :   1
Irrep              :   0
Energy             :  -685.8299450208044163 Eh
Relativity type    :
Basis              : AO
                                X                 Y                 Z
Electronic contribution:      2.198558460      -1.243654044       0.738713824
Nuclear contribution   :     -1.615954888       2.136395970      -1.954318251
                        -----------------------------------------
Total Dipole Moment    :      0.582603572       0.892741926      -1.215604426
                        -----------------------------------------
Magnitude (a.u.)       :      1.616820704
Magnitude (Debye)      :      4.109631633

Rotational constants in cm-1:             0.039073             0.026025             0.016361
Rotational constants in MHz :          1171.383167           780.211329           490.490077

                             ****ORCA TERMINATED NORMALLY****
TOTAL RUN TIME: 0 days 0 hours 0 minutes 11 seconds 884 msec
