                         Program Version 6.0.0  -   RELEASE  -
|  1> ! wb97x-v def2-tzvp def2/J RIJCOSX DEFGRID2 scfconv7 GCP(DFT/TZ) printgap
|  2> %output
|  3>     printlevel normal
|  4> end
|  5> * xyz 0 1
|  6> C -0.45369154676224693 -0.9498370930485802 0.004297044977574564
|  7> C 0.7522316925629036 -0.039130521313311975 5.826078289166192e-05
|  8> F 0.8030719981837214 0.7640321575577119 1.0847134721442706
|  9> F 0.8019504745962986 0.7556171733669169 -1.0908034850770556
| 10> F 1.876015097983385 -0.7951185732021842 0.0024157775002046863
| 11> Cl -1.976929625454639 0.014085579625053458 -7.11558586445551e-05
| 12> H -0.43059695140111404 -1.5749262493298146 -0.8898419644244561
| 13> H -0.4306347988950162 -1.5668064700357371 0.9040413158902402
| 14> *
| 15>
| 16>                          ****END OF INPUT****

CARTESIAN COORDINATES (ANGSTROEM)
---------------------------------
  C     -0.453692   -0.949837    0.004297
  C      0.752232   -0.039131    0.000058
  F      0.803072    0.764032    1.084713
  F      0.801950    0.755617   -1.090803
  F      1.876015   -0.795119    0.002416
  Cl    -1.976930    0.014086   -0.000071
  H     -0.430597   -1.574926   -0.889842
  H     -0.430635   -1.566806    0.904041

 Total Charge           Charge          ....    0
 Multiplicity           Mult            ....    1
 Number of Electrons    NEL             ....   58
 Basis Dimension        Dim             ....  204

ORBITAL ENERGIES
----------------

  NO   OCC          E(Eh)            E(eV)
   0   2.0000    -107.158965     -2915.9437
   1   2.0000     -27.611945      -751.3592
   2   2.0000     -27.608118      -751.2551
   3   2.0000     -27.607997      -751.2518
   4   2.0000     -12.317902      -335.1871
   5   2.0000     -12.150169      -330.6229
   6   2.0000     -11.311936      -307.8134
   7   2.0000      -9.103484      -247.7184
   8   2.0000      -9.100541      -247.6383
   9   2.0000      -9.100530      -247.6380
  10   2.0000      -2.071120       -56.3580
  11   2.0000      -2.023451       -55.0609
  12   2.0000      -2.021118       -54.9974
  13   2.0000      -1.440373       -39.1945
  14   2.0000      -1.391329       -37.8600
  15   2.0000      -1.271048       -34.5870
  16   2.0000      -1.266704       -34.4688
  17   2.0000      -1.262244       -34.3474
  18   2.0000      -1.173930       -31.9443
  19   2.0000      -1.173741       -31.9391
  20   2.0000      -1.170644       -31.8548
  21   2.0000      -1.160096       -31.5678
  22   2.0000      -1.159693       -31.5568
  23   2.0000      -1.156296       -31.4644
  24   2.0000      -0.975243       -26.5377
  25   2.0000      -0.925697       -25.1895
  26   2.0000      -0.915965       -24.9247
  27   2.0000      -0.802539       -21.8382
  28   2.0000      -0.793971       -21.6051
  29   0.0000      -0.325645        -8.8612
  30   0.0000      -0.285339        -7.7645
  31   0.0000      -0.237980        -6.4758
  32   0.0000      -0.200129        -5.4458
  33   0.0000      -0.079587        -2.1657

MULLIKEN ATOMIC CHARGES
-----------------------
   0 C :   -0.154337
   1 C :    0.423709
   2 F :   -0.154566
   3 F :   -0.154534
   4 F :   -0.160780
   5 Cl:   -0.103811
   6 H :    0.152154
   7 H :    0.152165
Sum of atomic charges:   -0.0000000

LOEWDIN ATOMIC CHARGES
----------------------
   0 C :   -0.439759
   1 C :   -0.697758
   2 F :    0.189773
   3 F :    0.189814
   4 F :    0.183617
   5 Cl:    0.295376
   6 H :    0.139470
   7 H :    0.139467

  Mayer bond orders larger than 0.100000
B(  0-C ,  1-C ) :   1.0006 B(  0-C ,  5-Cl) :   1.0833 B(  0-C ,  6-H ) :   0.9527
B(  0-C ,  7-H ) :   0.9527 B(  1-C ,  2-F ) :   1.1589 B(  1-C ,  3-F ) :   1.1589
B(  1-C ,  4-F ) :   1.1400

FINAL SINGLE POINT ENERGY      -837.137740934329

DIPOLE MOMENT
-------------

Method             : SCF
Type of density    : Electron Density
Multiplicity       :   1
Irrep              :   0
Energy             :  -837.1481082716294395 Eh
Relativity type    :
Basis              : AO
                                X                 Y                 Z
Electronic contribution:      1.254491023       2.852061862      -0.013120504
Nuclear contribution   :     -1.403292496      -3.652515115       0.016713258
                        -----------------------------------------
Total Dipole Moment    :     -0.148801473      -0.800453253       0.003592754
                        -----------------------------------------
Magnitude (a.u.)       :      0.814174549
Magnitude (Debye)      :      2.069467241

Rotational constants in cm-1:             0.174946             0.058922             0.058270
Rotational constants in MHz :          5244.739761          1766.433758          1746.901256

                             ****ORCA TERMINATED NORMALLY****
TOTAL RUN TIME: 0 days 0 hours 0 minutes 55 seconds 290 msec
