                         Program Version 6.0.0  -   RELEASE  -
|  1> ! wb97x-v def2-tzvp def2/J RIJCOSX DEFGRID2 scfconv7 GCP(DFT/TZ) printgap
|  2> %output
|  3>     printlevel normal
|  4> end
|  5> %cpcm
|  6>     smd true
|  7>     smdsolvent "water"
|  8> end
|  9> * xyz 0 1
| 10> C -0.45369154676224693 -0.9498370930485802 0.004297044977574564
| 11> C 0.7522316925629036 -0.039130521313311975 5.826078289166192e-05
| 12> F 0.8030719981837214 0.7640321575577119 1.0847134721442706
| 13> F 0.8019504745962986 0.7556171733669169 -1.0908034850770556
| 14> F 1.876015097983385 -0.7951185732021842 0.0024157775002046863
| 15> Cl -1.976929625454639 0.014085579625053458 -7.11558586445551e-05
| 16> H -0.43059695140111404 -1.5749262493298146 -0.8898419644244561
| 17> H -0.4306347988950162 -1.5668064700357371 0.9040413158902402
| 18> *
| 19>
| 20>                          ****END OF INPUT****

CARTESIAN COORDINATES (ANGSTROEM)
---------------------------------
  C     -0.453692   -0.949837    0.004297
  C      0.752232   -0.039131    0.000058
  F      0.803072    0.764032    1.084713
  F      0.801950    0.755617   -1.090803
  F      1.876015   -0.795119    0.002416
  Cl    -1.976930    0.014086   -0.000071
  H     -0.430597   -1.574926   -0.889842
  H     -0.430635   -1.566806    0.904041

 Total Charge           Charge          ....    0
 Multiplicity           Mult            ....    1
 Number of Electrons    NEL             ....   58
 Basis Dimension        Dim             ....  204

ORBITAL ENERGIES
----------------

  NO   OCC          E(Eh)            E(eV)
   0   2.0000    -107.150310     -2915.7082
   1   2.0000     -27.606713      -751.2169
   2   2.0000     -27.606366      -751.2074
   3   2.0000     -27.606238      -751.2039
   4   2.0000     -12.311140      -335.0032
   5   2.0000     -12.128918      -330.0446
   6   2.0000     -11.303458      -307.5827
   7   2.0000      -9.094958      -247.4864
   8   2.0000      -9.092168      -247.4105
   9   2.0000      -9.092146      -247.4099
  10   2.0000      -2.068198       -56.2785
  11   2.0000      -2.019818       -54.9620
  12   2.0000      -2.019522       -54.9540
  13   2.0000      -1.430569       -38.9278
  14   2.0000      -1.386390       -37.7256
  15   2.0000      -1.266126       -34.4530
  16   2.0000      -1.265253       -34.4293
  17   2.0000      -1.253374       -34.1060
  18   2.0000      -1.171578       -31.8803
  19   2.0000      -1.171448       -31.8767
  20   2.0000      -1.161818       -31.6147
  21   2.0000      -1.157611       -31.5002
  22   2.0000      -1.157318       -31.4922
  23   2.0000      -1.154612       -31.4186
  24   2.0000      -0.960404       -26.1339
  25   2.0000      -0.903392       -24.5826
  26   2.0000      -0.901580       -24.5332
  27   2.0000      -0.794637       -21.6232
  28   2.0000      -0.784172       -21.3384
  29   0.0000      -0.313610        -8.5338
  30   0.0000      -0.281034        -7.6473
  31   0.0000      -0.228177        -6.2090
  32   0.0000      -0.189954        -5.1689
  33   0.0000      -0.064762        -1.7623

MULLIKEN ATOMIC CHARGES
-----------------------
   0 C :   -0.163971
   1 C :    0.432402
   2 F :   -0.170511
   3 F :   -0.170503
   4 F :   -0.170323
   5 Cl:   -0.147159
   6 H :    0.195027
   7 H :    0.195039
Sum of atomic charges:   -0.0000000

LOEWDIN ATOMIC CHARGES
----------------------
   0 C :   -0.423553
   1 C :   -0.691967
   2 F :    0.179669
   3 F :    0.179706
   4 F :    0.179807
   5 Cl:    0.268420
   6 H :    0.153963
   7 H :    0.153954

  Mayer bond orders larger than 0.100000
B(  0-C ,  1-C ) :   1.0104 B(  0-C ,  5-Cl) :   1.0325 B(  0-C ,  6-H ) :   0.9397
B(  0-C ,  7-H ) :   0.9397 B(  1-C ,  2-F ) :   1.1437 B(  1-C ,  3-F ) :   1.1437
B(  1-C ,  4-F ) :   1.1377

FINAL SINGLE POINT ENERGY      -837.140164517994

DIPOLE MOMENT
-------------

Method             : SCF
Type of density    : Electron Density
Multiplicity       :   1
Irrep              :   0
Energy             :  -837.1505318552938206 Eh
Relativity type    :
Basis              : AO
                                X                 Y                 Z
Electronic contribution:      1.302684663       2.563534573      -0.011916199
Nuclear contribution   :     -1.403292496      -3.652515115       0.016713258
                        -----------------------------------------
Total Dipole Moment    :     -0.100607832      -1.088980541       0.004797059
                        -----------------------------------------
Magnitude (a.u.)       :      1.093628624
Magnitude (Debye)      :      2.779783049

Rotational constants in cm-1:             0.174946             0.058922             0.058270
Rotational constants in MHz :          5244.739761          1766.433758          1746.901256

                             ****ORCA TERMINATED NORMALLY****
TOTAL RUN TIME: 0 days 0 hours 0 minutes 57 seconds 131 msec
