                         Program Version 6.0.0  -   RELEASE  -
|  1> ! wb97x-v def2-tzvp def2/J RIJCOSX DEFGRID2 scfconv7 GCP(DFT/TZ) printgap
|  2> %output
|  3>     printlevel normal
|  4> end
|  5> * xyz 0 1
|  6> C -2.5491504738862503 -0.9275583086822 0.3583360359851212
|  7> C -1.1116545032272882 -0.4922209425806596 0.5833301204061965
|  8> H -0.9310213033927984 -0.4858396263889027 1.6716126883086662
|  9> C -0.7921095254459743 0.8918187089525105 0.017346930224499114
| 10> H -0.9900300833518276 0.8955668023336208 -1.0659629580175074
| 11> C 0.6777683327086503 1.2159164016822221 0.24065575904151773
| 12> H 0.861980556274085 1.3022696138270535 1.323385164726755
| 13> C 1.5584129752098044 0.10937874694685365 -0.3219766236003802
| 14> H 1.4402911307428288 0.06435917427356547 -1.4152712093072584
| 15> C 1.1265314201611583 -1.2336067053551902 0.258937814038937
| 16> H 1.2643467267978774 -1.2506481356120576 1.3528988662110308
| 17> O -0.25546780759728854 -1.459732470516183 -0.04625661285104074
| 18> O 1.8759321263474014 -2.243212408485634 -0.36340080544100267
| 19> O 2.9085443004098948 0.41762671209753144 0.03088925683985981
| 20> O 0.9376574960987821 2.4702431636341924 -0.4008091389025954
| 21> O -1.6375553273438028 1.835362678755605 0.6817463777930451
| 22> O -2.9367984082604885 -0.9349038235720506 -1.0213613583760408
| 23> H -3.2132813964849585 -0.28683547195829695 0.9498284637045921
| 24> H -2.6574974858510054 -1.9555623956509933 0.7171727894108719
| 25> H 1.8442820324878537 -3.033113495211019 0.19275640376256148
| 26> H 3.4821880311012614 -0.19359598372263406 -0.4499528023540337
| 27> H 1.8325178087134355 2.7417897256813184 -0.15790644082782418
| 28> H -1.4093110855079105 2.711384069207374 0.3423005269875788
| 29> H -3.105646899438355 -0.022012457910937797 -1.287192549679635
| 30> *
| 31>
| 32>                          ****END OF INPUT****

CARTESIAN COORDINATES (ANGSTROEM)
---------------------------------
  C     -2.549150   -0.927558    0.358336
  C     -1.111655   -0.492221    0.583330
  H     -0.931021   -0.485840    1.671613
  C     -0.792110    0.891819    0.017347
  H     -0.990030    0.895567   -1.065963
  C      0.677768    1.215916    0.240656
  H      0.861981    1.302270    1.323385
  C      1.558413    0.109379   -0.321977
  H      1.440291    0.064359   -1.415271
  C      1.126531   -1.233607    0.258938
  H      1.264347   -1.250648    1.352899
  O     -0.255468   -1.459732   -0.046257
  O      1.875932   -2.243212   -0.363401
  O      2.908544    0.417627    0.030889
  O      0.937657    2.470243   -0.400809
  O     -1.637555    1.835363    0.681746
  O     -2.936798   -0.934904   -1.021361
  H     -3.213281   -0.286835    0.949828
  H     -2.657497   -1.955562    0.717173
  H      1.844282   -3.033113    0.192756
  H      3.482188   -0.193596   -0.449953
  H      1.832518    2.741790   -0.157906
  H     -1.409311    2.711384    0.342301
  H     -3.105647   -0.022012   -1.287193

 Total Charge           Charge          ....    0
 Multiplicity           Mult            ....    1
 Number of Electrons    NEL             ....   96
 Basis Dimension        Dim             ....  444

ORBITAL ENERGIES
----------------

  NO   OCC          E(Eh)            E(eV)
   0   2.0000     -21.698609      -590.4492
   1   2.0000     -21.688991      -590.1875
   2   2.0000     -21.686711      -590.1254
   3   2.0000     -21.686592      -590.1222
   4   2.0000     -21.683897      -590.0488
   5   2.0000     -21.670754      -589.6912
   6   2.0000     -12.159349      -330.8727
   7   2.0000     -12.111598      -329.5733
   8   2.0000     -12.110004      -329.5300
   9   2.0000     -12.109033      -329.5035
  10   2.0000     -12.108546      -329.4903
  11   2.0000     -12.094087      -329.0968
  12   2.0000      -1.725073       -46.9416
  13   2.0000      -1.695149       -46.1274
  14   2.0000      -1.689866       -45.9836
  15   2.0000      -1.682950       -45.7954
  16   2.0000      -1.680776       -45.7363
  17   2.0000      -1.669568       -45.4313
  18   2.0000      -1.340430       -36.4749
  19   2.0000      -1.323367       -36.0107
  20   2.0000      -1.237335       -33.6696
  21   2.0000      -1.202962       -32.7343
  22   2.0000      -1.167859       -31.7791
  23   2.0000      -1.121953       -30.5299
  24   2.0000      -1.091442       -29.6997
  25   2.0000      -1.072611       -29.1872
  26   2.0000      -1.050793       -28.5935
  27   2.0000      -1.045684       -28.4545
  28   2.0000      -1.040831       -28.3224
  29   2.0000      -1.014815       -27.6145
  30   2.0000      -0.998632       -27.1742
  31   2.0000      -0.990163       -26.9437
  32   2.0000      -0.975142       -26.5350
  33   2.0000      -0.973583       -26.4925
  34   2.0000      -0.959946       -26.1215
  35   2.0000      -0.946164       -25.7464
  36   2.0000      -0.939834       -25.5742
  37   2.0000      -0.929984       -25.3061
  38   2.0000      -0.928226       -25.2583
  39   2.0000      -0.911136       -24.7933
  40   2.0000      -0.902222       -24.5507
  41   2.0000      -0.884326       -24.0637
  42   2.0000      -0.848355       -23.0849
  43   2.0000      -0.823708       -22.4142
  44   2.0000      -0.817846       -22.2547
  45   2.0000      -0.810269       -22.0486
  46   2.0000      -0.803392       -21.8614
  47   2.0000      -0.776698       -21.1350
  48   0.0000      -0.238432        -6.4881
  49   0.0000      -0.196136        -5.3371
  50   0.0000      -0.175524        -4.7762
  51   0.0000      -0.152332        -4.1452
  52   0.0000      -0.131385        -3.5752

MULLIKEN ATOMIC CHARGES
-----------------------
   0 C :   -0.040786
   1 C :    0.119173
   2 H :    0.072697
   3 C :    0.001204
   4 H :    0.094473
   5 C :    0.035361
   6 H :    0.090082
   7 C :    0.071933
   8 H :    0.090953
   9 C :    0.068667
  10 H :    0.064987
  11 O :   -0.247840
  12 O :   -0.412270
  13 O :   -0.455916
  14 O :   -0.461634
  15 O :   -0.450160
  16 O :   -0.450576
  17 H :    0.121163
  18 H :    0.105013
  19 H :    0.316974
  20 H :    0.319203
  21 H :    0.320793
  22 H :    0.319617
  23 H :    0.306888
Sum of atomic charges:   -0.0000000

LOEWDIN ATOMIC CHARGES
----------------------
   0 C :   -0.308368
   1 C :   -0.300786
   2 H :    0.144820
   3 C :   -0.308358
   4 H :    0.142109
   5 C :   -0.311827
   6 H :    0.144605
   7 C :   -0.314051
   8 H :    0.147752
   9 C :   -0.412446
  10 H :    0.121463
  11 O :    0.194249
  12 O :    0.013472
  13 O :   -0.016809
  14 O :   -0.019003
  15 O :   -0.012799
  16 O :   -0.041042
  17 H :    0.125747
  18 H :    0.131616
  19 H :    0.179457
  20 H :    0.177587
  21 H :    0.177656
  22 H :    0.177322
  23 H :    0.167633

  Mayer bond orders larger than 0.100000
B(  0-C ,  1-C ) :   0.9426 B(  0-C , 16-O ) :   1.0288 B(  0-C , 17-H ) :   0.9799
B(  0-C , 18-H ) :   0.9748 B(  1-C ,  2-H ) :   0.9511 B(  1-C ,  3-C ) :   0.9195
B(  1-C , 11-O ) :   0.9872 B(  3-C ,  4-H ) :   0.9587 B(  3-C ,  5-C ) :   0.9771
B(  3-C , 15-O ) :   1.0596 B(  5-C ,  6-H ) :   0.9759 B(  5-C ,  7-C ) :   0.9507
B(  5-C , 14-O ) :   1.0749 B(  7-C ,  8-H ) :   0.9650 B(  7-C ,  9-C ) :   0.9285
B(  7-C , 13-O ) :   1.1072 B(  9-C , 10-H ) :   0.9806 B(  9-C , 11-O ) :   1.0324
B(  9-C , 12-O ) :   1.1993 B( 12-O , 19-H ) :   0.8921 B( 13-O , 20-H ) :   0.8878
B( 14-O , 21-H ) :   0.8874 B( 15-O , 22-H ) :   0.8843 B( 16-O , 23-H ) :   0.9029

FINAL SINGLE POINT ENERGY      -687.248817710861

DIPOLE MOMENT
-------------

Method             : SCF
Type of density    : Electron Density
Multiplicity       :   1
Irrep              :   0
Energy             :  -687.2676527106611957 Eh
Relativity type    :
Basis              : AO
                                X                 Y                 Z
Electronic contribution:      2.128110691      -0.480408485      -1.447374773
Nuclear contribution   :     -1.444272997       0.671901218       2.152657450
                        -----------------------------------------
Total Dipole Moment    :      0.683837694       0.191492733       0.705282677
                        -----------------------------------------
Magnitude (a.u.)       :      1.000863184
Magnitude (Debye)      :      2.543992039

Rotational constants in cm-1:             0.039775             0.026254             0.017404
Rotational constants in MHz :          1192.420992           787.079420           521.746468

                             ****ORCA TERMINATED NORMALLY****
TOTAL RUN TIME: 0 days 0 hours 4 minutes 47 seconds 554 msec
