                         Program Version 6.0.0  -   RELEASE  -
|  1> ! wb97x-v def2-tzvp def2/J RIJCOSX DEFGRID2 scfconv7 GCP(DFT/TZ) printgap
|  2> %output
|  3>     printlevel normal
|  4> end
|  5> %cpcm
|  6>     smd true
|  7>     smdsolvent "water"
|  8> end
|  9> * xyz 0 1
| 10> C -2.5491504738862503 -0.9275583086822 0.3583360359851212
| 11> C -1.1116545032272882 -0.4922209425806596 0.5833301204061965
| 12> H -0.9310213033927984 -0.4858396263889027 1.6716126883086662
| 13> C -0.7921095254459743 0.8918187089525105 0.017346930224499114
| 14> H -0.9900300833518276 0.8955668023336208 -1.0659629580175074
| 15> C 0.6777683327086503 1.2159164016822221 0.24065575904151773
| 16> H 0.861980556274085 1.3022696138270535 1.323385164726755
| 17> C 1.5584129752098044 0.10937874694685365 -0.3219766236003802
| 18> H 1.4402911307428288 0.06435917427356547 -1.4152712093072584
| 19> C 1.1265314201611583 -1.2336067053551902 0.258937814038937
| 20> H 1.2643467267978774 -1.2506481356120576 1.3528988662110308
| 21> O -0.25546780759728854 -1.459732470516183 -0.04625661285104074
| 22> O 1.8759321263474014 -2.243212408485634 -0.36340080544100267
| 23> O 2.9085443004098948 0.41762671209753144 0.03088925683985981
| 24> O 0.9376574960987821 2.4702431636341924 -0.4008091389025954
| 25> O -1.6375553273438028 1.835362678755605 0.6817463777930451
| 26> O -2.9367984082604885 -0.9349038235720506 -1.0213613583760408
| 27> H -3.2132813964849585 -0.28683547195829695 0.9498284637045921
| 28> H -2.6574974858510054 -1.9555623956509933 0.7171727894108719
| 29> H 1.8442820324878537 -3.033113495211019 0.19275640376256148
| 30> H 3.4821880311012614 -0.19359598372263406 -0.4499528023540337
| 31> H 1.8325178087134355 2.7417897256813184 -0.15790644082782418
| 32> H -1.4093110855079105 2.711384069207374 0.3423005269875788
| 33> H -3.105646899438355 -0.022012457910937797 -1.287192549679635
| 34> *
| 35>
| 36>                          ****END OF INPUT****

CARTESIAN COORDINATES (ANGSTROEM)
---------------------------------
  C     -2.549150   -0.927558    0.358336
  C     -1.111655   -0.492221    0.583330
  H     -0.931021   -0.485840    1.671613
  C     -0.792110    0.891819    0.017347
  H     -0.990030    0.895567   -1.065963
  C      0.677768    1.215916    0.240656
  H      0.861981    1.302270    1.323385
  C      1.558413    0.109379   -0.321977
  H      1.440291    0.064359   -1.415271
  C      1.126531   -1.233607    0.258938
  H      1.264347   -1.250648    1.352899
  O     -0.255468   -1.459732   -0.046257
  O      1.875932   -2.243212   -0.363401
  O      2.908544    0.417627    0.030889
  O      0.937657    2.470243   -0.400809
  O     -1.637555    1.835363    0.681746
  O     -2.936798   -0.934904   -1.021361
  H     -3.213281   -0.286835    0.949828
  H     -2.657497   -1.955562    0.717173
  H      1.844282   -3.033113    0.192756
  H      3.482188   -0.193596   -0.449953
  H      1.832518    2.741790   -0.157906
  H     -1.409311    2.711384    0.342301
  H     -3.105647   -0.022012   -1.287193

 Total Charge           Charge          ....    0
 Multiplicity           Mult            ....    1
 Number of Electrons    NEL             ....   96
 Basis Dimension        Dim             ....  444

ORBITAL ENERGIES
----------------

  NO   OCC          E(Eh)            E(eV)
   0   2.0000     -21.691861      -590.2655
   1   2.0000     -21.689758      -590.2083
   2   2.0000     -21.683743      -590.0446
   3   2.0000     -21.681819      -589.9923
   4   2.0000     -21.681776      -589.9911
   5   2.0000     -21.677857      -589.8845
   6   2.0000     -12.150938      -330.6438
   7   2.0000     -12.103776      -329.3605
   8   2.0000     -12.102893      -329.3365
   9   2.0000     -12.101855      -329.3082
  10   2.0000     -12.100912      -329.2825
  11   2.0000     -12.091650      -329.0305
  12   2.0000      -1.722307       -46.8664
  13   2.0000      -1.690738       -46.0073
  14   2.0000      -1.686679       -45.8969
  15   2.0000      -1.680944       -45.7408
  16   2.0000      -1.678609       -45.6773
  17   2.0000      -1.676140       -45.6101
  18   2.0000      -1.333956       -36.2988
  19   2.0000      -1.319016       -35.8923
  20   2.0000      -1.233618       -33.5685
  21   2.0000      -1.197970       -32.5984
  22   2.0000      -1.166090       -31.7309
  23   2.0000      -1.118709       -30.4416
  24   2.0000      -1.087173       -29.5835
  25   2.0000      -1.069081       -29.0912
  26   2.0000      -1.047341       -28.4996
  27   2.0000      -1.043333       -28.3905
  28   2.0000      -1.037790       -28.2397
  29   2.0000      -1.014251       -27.5992
  30   2.0000      -0.995833       -27.0980
  31   2.0000      -0.990038       -26.9403
  32   2.0000      -0.973673       -26.4950
  33   2.0000      -0.971793       -26.4438
  34   2.0000      -0.964526       -26.2461
  35   2.0000      -0.945802       -25.7366
  36   2.0000      -0.944333       -25.6966
  37   2.0000      -0.927156       -25.2292
  38   2.0000      -0.925680       -25.1890
  39   2.0000      -0.911823       -24.8120
  40   2.0000      -0.899608       -24.4796
  41   2.0000      -0.880634       -23.9633
  42   2.0000      -0.844682       -22.9850
  43   2.0000      -0.823135       -22.3986
  44   2.0000      -0.813840       -22.1457
  45   2.0000      -0.806261       -21.9395
  46   2.0000      -0.796488       -21.6735
  47   2.0000      -0.769055       -20.9271
  48   0.0000      -0.232939        -6.3386
  49   0.0000      -0.189890        -5.1672
  50   0.0000      -0.170320        -4.6346
  51   0.0000      -0.149234        -4.0609
  52   0.0000      -0.125093        -3.4039

MULLIKEN ATOMIC CHARGES
-----------------------
   0 C :   -0.046257
   1 C :    0.099506
   2 H :    0.112207
   3 C :    0.034432
   4 H :    0.109137
   5 C :    0.082645
   6 H :    0.108971
   7 C :    0.078837
   8 H :    0.101619
   9 C :    0.072165
  10 H :    0.106152
  11 O :   -0.330367
  12 O :   -0.489137
  13 O :   -0.525457
  14 O :   -0.532809
  15 O :   -0.529794
  16 O :   -0.556373
  17 H :    0.136183
  18 H :    0.134764
  19 H :    0.377131
  20 H :    0.364392
  21 H :    0.363718
  22 H :    0.361245
  23 H :    0.367093
Sum of atomic charges:   -0.0000000

LOEWDIN ATOMIC CHARGES
----------------------
   0 C :   -0.308908
   1 C :   -0.297293
   2 H :    0.158807
   3 C :   -0.302893
   4 H :    0.149208
   5 C :   -0.306817
   6 H :    0.153195
   7 C :   -0.311659
   8 H :    0.151288
   9 C :   -0.403440
  10 H :    0.137630
  11 O :    0.159936
  12 O :   -0.011697
  13 O :   -0.038637
  14 O :   -0.043477
  15 O :   -0.038045
  16 O :   -0.083797
  17 H :    0.132100
  18 H :    0.136300
  19 H :    0.201071
  20 H :    0.193330
  21 H :    0.191953
  22 H :    0.191617
  23 H :    0.190226

  Mayer bond orders larger than 0.100000
B(  0-C ,  1-C ) :   0.9451 B(  0-C , 16-O ) :   0.9834 B(  0-C , 17-H ) :   0.9794
B(  0-C , 18-H ) :   0.9786 B(  1-C ,  2-H ) :   0.9445 B(  1-C ,  3-C ) :   0.9574
B(  1-C , 11-O ) :   0.9554 B(  3-C ,  4-H ) :   0.9541 B(  3-C ,  5-C ) :   0.9887
B(  3-C , 15-O ) :   1.0226 B(  5-C ,  6-H ) :   0.9589 B(  5-C ,  7-C ) :   0.9692
B(  5-C , 14-O ) :   1.0501 B(  7-C ,  8-H ) :   0.9558 B(  7-C ,  9-C ) :   0.9504
B(  7-C , 13-O ) :   1.0859 B(  9-C , 10-H ) :   0.9817 B(  9-C , 11-O ) :   1.0130
B(  9-C , 12-O ) :   1.1964 B( 12-O , 19-H ) :   0.8534 B( 13-O , 20-H ) :   0.8582
B( 14-O , 21-H ) :   0.8599 B( 15-O , 22-H ) :   0.8580 B( 16-O , 23-H ) :   0.8659

FINAL SINGLE POINT ENERGY      -687.287628914843

DIPOLE MOMENT
-------------

Method             : SCF
Type of density    : Electron Density
Multiplicity       :   1
Irrep              :   0
Energy             :  -687.3064639146425634 Eh
Relativity type    :
Basis              : AO
                                X                 Y                 Z
Electronic contribution:      2.325218960      -0.352906408      -1.048679164
Nuclear contribution   :     -1.444272997       0.671901218       2.152657450
                        -----------------------------------------
Total Dipole Moment    :      0.880945963       0.318994810       1.103978286
                        -----------------------------------------
Magnitude (a.u.)       :      1.447961164
Magnitude (Debye)      :      3.680424791

Rotational constants in cm-1:             0.039775             0.026254             0.017404
Rotational constants in MHz :          1192.420992           787.079420           521.746468

                             ****ORCA TERMINATED NORMALLY****
TOTAL RUN TIME: 0 days 0 hours 5 minutes 26 seconds 622 msec
