                         Program Version 6.0.0  -   RELEASE  -
|  1> ! r2scan-3c def2/J RI DEFGRID2 scfconv6 printgap
|  2> %output
|  3>     printlevel normal
|  4> end
|  5> * xyz 0 1
|  6> C -1.037778864 -0.7350826226 -0.2199245278
|  7> C -1.0423549118 0.7262889323 0.2251905956
|  8> C 0.3771833732 1.1585453134 -0.1395635324
|  9> O 1.2067667866 0.0073341263 0.0077335938
| 10> C 0.3900630639 -1.1571963132 0.1270131378
| 11> H -1.1987950759 -0.8020250957 -1.2958753403
| 12> H -1.7782868873 -1.3423490181 0.2927382219
| 13> H -1.7945975863 1.3263781639 -0.2787600935
| 14> H -1.1897619314 0.7924810664 1.3031150863
| 15> H 0.4310377315 1.4956775632 -1.1831877858
| 16> H 0.7733944915 1.9450769508 0.5065440494
| 17> H 0.7900387504 -1.9231775737 -0.541533168
| 18> H 0.4560425376 -1.5197675048 1.1610017851
| 19> *
| 20>
| 21>                          ****END OF INPUT****

CARTESIAN COORDINATES (ANGSTROEM)
---------------------------------
  C     -1.037779   -0.735083   -0.219925
  C     -1.042355    0.726289    0.225191
  C      0.377183    1.158545   -0.139564
  O      1.206767    0.007334    0.007734
  C      0.390063   -1.157196    0.127013
  H     -1.198795   -0.802025   -1.295875
  H     -1.778287   -1.342349    0.292738
  H     -1.794598    1.326378   -0.278760
  H     -1.189762    0.792481    1.303115
  H      0.431038    1.495678   -1.183188
  H      0.773394    1.945077    0.506544
  H      0.790039   -1.923178   -0.541533
  H      0.456043   -1.519768    1.161002

 Total Charge           Charge          ....    0
 Multiplicity           Mult            ....    1
 Number of Electrons    NEL             ....   40
 Basis Dimension        Dim             ....  140

ORBITAL ENERGIES
----------------

  NO   OCC          E(Eh)            E(eV)
   0   2.0000     -18.939938      -515.3819
   1   2.0000     -10.070667      -274.0368
   2   2.0000     -10.070613      -274.0353
   3   2.0000     -10.034094      -273.0416
   4   2.0000     -10.033920      -273.0368
   5   2.0000      -0.990627       -26.9563
   6   2.0000      -0.752681       -20.4815
   7   2.0000      -0.700979       -19.0746
   8   2.0000      -0.563443       -15.3321
   9   2.0000      -0.554941       -15.1007
  10   2.0000      -0.469524       -12.7764
  11   2.0000      -0.457377       -12.4459
  12   2.0000      -0.396432       -10.7875
  13   2.0000      -0.394196       -10.7266
  14   2.0000      -0.370902       -10.0928
  15   2.0000      -0.327315        -8.9067
  16   2.0000      -0.319097        -8.6831
  17   2.0000      -0.303923        -8.2702
  18   2.0000      -0.282818        -7.6959
  19   2.0000      -0.207174        -5.6375
  20   0.0000       0.082718         2.2509
  21   0.0000       0.099518         2.7080
  22   0.0000       0.110591         3.0093
  23   0.0000       0.116543         3.1713
  24   0.0000       0.127089         3.4583

MULLIKEN ATOMIC CHARGES
-----------------------
   0 C :   -0.292686
   1 C :   -0.291744
   2 C :   -0.157976
   3 O :   -0.273879
   4 C :   -0.157654
   5 H :    0.161583
   6 H :    0.153029
   7 H :    0.152910
   8 H :    0.161371
   9 H :    0.132603
  10 H :    0.139924
  11 H :    0.139643
  12 H :    0.132876
Sum of atomic charges:   -0.0000000

LOEWDIN ATOMIC CHARGES
----------------------
   0 C :   -0.279474
   1 C :   -0.278958
   2 C :    0.012388
   3 O :   -0.769138
   4 C :    0.012175
   5 H :    0.159556
   6 H :    0.162256
   7 H :    0.162171
   8 H :    0.159716
   9 H :    0.159558
  10 H :    0.170191
  11 H :    0.169294
  12 H :    0.160264

  Mayer bond orders larger than 0.100000
B(  0-C ,  1-C ) :   0.8910 B(  0-C ,  4-C ) :   0.9433 B(  0-C ,  5-H ) :   0.9809
B(  0-C ,  6-H ) :   0.9630 B(  1-C ,  2-C ) :   0.9433 B(  1-C ,  7-H ) :   0.9636
B(  1-C ,  8-H ) :   0.9807 B(  2-C ,  3-O ) :   0.9068 B(  2-C ,  9-H ) :   0.9682
B(  2-C , 10-H ) :   0.9633 B(  3-O ,  4-C ) :   0.9088 B(  4-C , 11-H ) :   0.9642
B(  4-C , 12-H ) :   0.9678

Dispersion correction           -0.002756039
FINAL SINGLE POINT ENERGY      -232.384210013659

DIPOLE MOMENT
-------------

Method             : SCF
Type of density    : Electron Density
Multiplicity       :   1
Irrep              :   0
Energy             :  -232.3891614844357036 Eh
Relativity type    :
Basis              : AO
                                X                 Y                 Z
Electronic contribution:      2.560254579       0.021859857       0.026392966
Nuclear contribution   :     -3.275913769      -0.025883445      -0.033619115
                        -----------------------------------------
Total Dipole Moment    :     -0.715659190      -0.004023588      -0.007226150
                        -----------------------------------------
Magnitude (a.u.)       :      0.715706981
Magnitude (Debye)      :      1.819182573

Rotational constants in cm-1:             0.238980             0.233255             0.134017
Rotational constants in MHz :          7164.427851          6992.806319          4017.720240

                             ****ORCA TERMINATED NORMALLY****
TOTAL RUN TIME: 0 days 0 hours 0 minutes 14 seconds 884 msec
