                         Program Version 6.0.0  -   RELEASE  -
|  1> ! r2scan-3c def2/J RI DEFGRID2 scfconv6 printgap
|  2> %output
|  3>     printlevel normal
|  4> end
|  5> %cpcm
|  6>     smd true
|  7>     smdsolvent "water"
|  8> end
|  9> * xyz 0 1
| 10> C -1.037778864 -0.7350826226 -0.2199245278
| 11> C -1.0423549118 0.7262889323 0.2251905956
| 12> C 0.3771833732 1.1585453134 -0.1395635324
| 13> O 1.2067667866 0.0073341263 0.0077335938
| 14> C 0.3900630639 -1.1571963132 0.1270131378
| 15> H -1.1987950759 -0.8020250957 -1.2958753403
| 16> H -1.7782868873 -1.3423490181 0.2927382219
| 17> H -1.7945975863 1.3263781639 -0.2787600935
| 18> H -1.1897619314 0.7924810664 1.3031150863
| 19> H 0.4310377315 1.4956775632 -1.1831877858
| 20> H 0.7733944915 1.9450769508 0.5065440494
| 21> H 0.7900387504 -1.9231775737 -0.541533168
| 22> H 0.4560425376 -1.5197675048 1.1610017851
| 23> *
| 24>
| 25>                          ****END OF INPUT****

CARTESIAN COORDINATES (ANGSTROEM)
---------------------------------
  C     -1.037779   -0.735083   -0.219925
  C     -1.042355    0.726289    0.225191
  C      0.377183    1.158545   -0.139564
  O      1.206767    0.007334    0.007734
  C      0.390063   -1.157196    0.127013
  H     -1.198795   -0.802025   -1.295875
  H     -1.778287   -1.342349    0.292738
  H     -1.794598    1.326378   -0.278760
  H     -1.189762    0.792481    1.303115
  H      0.431038    1.495678   -1.183188
  H      0.773394    1.945077    0.506544
  H      0.790039   -1.923178   -0.541533
  H      0.456043   -1.519768    1.161002

 Total Charge           Charge          ....    0
 Multiplicity           Mult            ....    1
 Number of Electrons    NEL             ....   40
 Basis Dimension        Dim             ....  140

ORBITAL ENERGIES
----------------

  NO   OCC          E(Eh)            E(eV)
   0   2.0000     -18.949055      -515.6300
   1   2.0000     -10.066647      -273.9274
   2   2.0000     -10.066610      -273.9264
   3   2.0000     -10.023214      -272.7455
   4   2.0000     -10.023070      -272.7416
   5   2.0000      -0.997437       -27.1416
   6   2.0000      -0.744864       -20.2688
   7   2.0000      -0.697401       -18.9772
   8   2.0000      -0.556742       -15.1497
   9   2.0000      -0.549579       -14.9548
  10   2.0000      -0.464205       -12.6316
  11   2.0000      -0.454543       -12.3687
  12   2.0000      -0.395444       -10.7606
  13   2.0000      -0.387551       -10.5458
  14   2.0000      -0.365650        -9.9498
  15   2.0000      -0.320346        -8.7171
  16   2.0000      -0.311525        -8.4770
  17   2.0000      -0.293559        -7.9881
  18   2.0000      -0.289079        -7.8662
  19   2.0000      -0.213759        -5.8167
  20   0.0000       0.082450         2.2436
  21   0.0000       0.108645         2.9564
  22   0.0000       0.119587         3.2541
  23   0.0000       0.126159         3.4330
  24   0.0000       0.135455         3.6859

MULLIKEN ATOMIC CHARGES
-----------------------
   0 C :   -0.305271
   1 C :   -0.305181
   2 C :   -0.163609
   3 O :   -0.354355
   4 C :   -0.163480
   5 H :    0.176610
   6 H :    0.170874
   7 H :    0.170828
   8 H :    0.176221
   9 H :    0.145117
  10 H :    0.153681
  11 H :    0.153248
  12 H :    0.145316
Sum of atomic charges:   -0.0000000

LOEWDIN ATOMIC CHARGES
----------------------
   0 C :   -0.276789
   1 C :   -0.276332
   2 C :    0.011057
   3 O :   -0.817179
   4 C :    0.010892
   5 H :    0.164275
   6 H :    0.169493
   7 H :    0.169487
   8 H :    0.164270
   9 H :    0.165378
  10 H :    0.175179
  11 H :    0.174320
  12 H :    0.165949

  Mayer bond orders larger than 0.100000
B(  0-C ,  1-C ) :   0.8779 B(  0-C ,  4-C ) :   0.9406 B(  0-C ,  5-H ) :   0.9802
B(  0-C ,  6-H ) :   0.9584 B(  1-C ,  2-C ) :   0.9409 B(  1-C ,  7-H ) :   0.9587
B(  1-C ,  8-H ) :   0.9804 B(  2-C ,  3-O ) :   0.9009 B(  2-C ,  9-H ) :   0.9618
B(  2-C , 10-H ) :   0.9579 B(  3-O ,  4-C ) :   0.9028 B(  4-C , 11-H ) :   0.9586
B(  4-C , 12-H ) :   0.9616

Dispersion correction           -0.002756039
FINAL SINGLE POINT ENERGY      -232.388724774726

DIPOLE MOMENT
-------------

Method             : SCF
Type of density    : Electron Density
Multiplicity       :   1
Irrep              :   0
Energy             :  -232.3936762455025757 Eh
Relativity type    :
Basis              : AO
                                X                 Y                 Z
Electronic contribution:      2.254847018       0.019819458       0.021802750
Nuclear contribution   :     -3.275913769      -0.025883445      -0.033619115
                        -----------------------------------------
Total Dipole Moment    :     -1.021066751      -0.006063987      -0.011816366
                        -----------------------------------------
Magnitude (a.u.)       :      1.021153127
Magnitude (Debye)      :      2.595564976

Rotational constants in cm-1:             0.238980             0.233255             0.134017
Rotational constants in MHz :          7164.427851          6992.806319          4017.720240

                             ****ORCA TERMINATED NORMALLY****
TOTAL RUN TIME: 0 days 0 hours 0 minutes 16 seconds 939 msec
