                         Program Version 6.0.0  -   RELEASE  -
|  1> ! r2scan-3c def2/J RI DEFGRID2 scfconv6 printgap
|  2> %output
|  3>     printlevel normal
|  4> end
|  5> * xyz 0 1
|  6> C 2.4731079687 1.2063804233 -0.0269518402
|  7> C 1.696866865 -0.0767448689 0.002017091
|  8> O 2.2499877582 -1.1643301466 0.0258651458
|  9> C 0.2165928999 0.0231865423 0.0005863478
| 10> C -0.4836088628 1.2304688775 -0.0058272603
| 11> C -1.8671668868 1.1966776971 -0.0068376415
| 12> C -2.5029644563 -0.036859411 -0.0007894537
| 13> N -1.8528023774 -1.1926017157 0.0055031072
| 14> C -0.5344941496 -1.1567940786 0.0060845849
| 15> H 2.2136758083 1.7768800672 -0.9151740979
| 16> H 3.5363316892 0.9826044617 -0.0352504017
| 17> H 2.2343458118 1.8011898585 0.8512750542
| 18> H 0.0336237204 2.1763419644 -0.0093863998
| 19> H -2.4436916587 2.1072047212 -0.011591228
| 20> H -3.5812589684 -0.1136550518 -0.0002008648
| 21> H -0.0247152169 -2.1115198792 0.0112453893
| 22> *
| 23>
| 24>                          ****END OF INPUT****

CARTESIAN COORDINATES (ANGSTROEM)
---------------------------------
  C      2.473108    1.206380   -0.026952
  C      1.696867   -0.076745    0.002017
  O      2.249988   -1.164330    0.025865
  C      0.216593    0.023187    0.000586
  C     -0.483609    1.230469   -0.005827
  C     -1.867167    1.196678   -0.006838
  C     -2.502964   -0.036859   -0.000789
  N     -1.852802   -1.192602    0.005503
  C     -0.534494   -1.156794    0.006085
  H      2.213676    1.776880   -0.915174
  H      3.536332    0.982604   -0.035250
  H      2.234346    1.801190    0.851275
  H      0.033624    2.176342   -0.009386
  H     -2.443692    2.107205   -0.011591
  H     -3.581259   -0.113655   -0.000201
  H     -0.024715   -2.111520    0.011245

 Total Charge           Charge          ....    0
 Multiplicity           Mult            ....    1
 Number of Electrons    NEL             ....   64
 Basis Dimension        Dim             ....  216

ORBITAL ENERGIES
----------------

  NO   OCC          E(Eh)            E(eV)
   0   2.0000     -18.944830      -515.5150
   1   2.0000     -14.167953      -385.5296
   2   2.0000     -10.131661      -275.6965
   3   2.0000     -10.084554      -274.4147
   4   2.0000     -10.080141      -274.2946
   5   2.0000     -10.074358      -274.1372
   6   2.0000     -10.063359      -273.8379
   7   2.0000     -10.060836      -273.7693
   8   2.0000     -10.043620      -273.3008
   9   2.0000      -1.011653       -27.5285
  10   2.0000      -0.929975       -25.3059
  11   2.0000      -0.800488       -21.7824
  12   2.0000      -0.756119       -20.5751
  13   2.0000      -0.721332       -19.6284
  14   2.0000      -0.632148       -17.2016
  15   2.0000      -0.613376       -16.6908
  16   2.0000      -0.540431       -14.7059
  17   2.0000      -0.502503       -13.6738
  18   2.0000      -0.473309       -12.8794
  19   2.0000      -0.445342       -12.1184
  20   2.0000      -0.432156       -11.7596
  21   2.0000      -0.424080       -11.5398
  22   2.0000      -0.400757       -10.9051
  23   2.0000      -0.390895       -10.6368
  24   2.0000      -0.388425       -10.5696
  25   2.0000      -0.373868       -10.1735
  26   2.0000      -0.348823        -9.4920
  27   2.0000      -0.344414        -9.3720
  28   2.0000      -0.289002        -7.8641
  29   2.0000      -0.261067        -7.1040
  30   2.0000      -0.243448        -6.6245
  31   2.0000      -0.220964        -6.0127
  32   0.0000      -0.101052        -2.7498
  33   0.0000      -0.065138        -1.7725
  34   0.0000      -0.006680        -0.1818
  35   0.0000       0.065052         1.7701
  36   0.0000       0.098332         2.6758

MULLIKEN ATOMIC CHARGES
-----------------------
   0 C :   -0.558915
   1 C :    0.246410
   2 O :   -0.342732
   3 C :    0.204997
   4 C :   -0.163519
   5 C :   -0.122382
   6 C :   -0.063621
   7 N :   -0.173774
   8 C :   -0.164396
   9 H :    0.170427
  10 H :    0.185746
  11 H :    0.169949
  12 H :    0.152185
  13 H :    0.151447
  14 H :    0.137371
  15 H :    0.170806
Sum of atomic charges:   -0.0000000

LOEWDIN ATOMIC CHARGES
----------------------
   0 C :   -0.381252
   1 C :    0.238652
   2 O :   -0.464108
   3 C :   -0.060872
   4 C :   -0.100725
   5 C :   -0.143523
   6 C :    0.099632
   7 N :   -0.600650
   8 C :    0.142341
   9 H :    0.174018
  10 H :    0.178765
  11 H :    0.174474
  12 H :    0.175413
  13 H :    0.172141
  14 H :    0.187397
  15 H :    0.208297

  Mayer bond orders larger than 0.100000
B(  0-C ,  1-C ) :   0.8696 B(  0-C ,  9-H ) :   0.9603 B(  0-C , 10-H ) :   0.9767
B(  0-C , 11-H ) :   0.9569 B(  1-C ,  2-O ) :   1.9238 B(  1-C ,  3-C ) :   0.9073
B(  2-O ,  3-C ) :  -0.1059 B(  3-C ,  4-C ) :   1.3460 B(  3-C ,  8-C ) :   1.2512
B(  4-C ,  5-C ) :   1.4112 B(  4-C , 12-H ) :   0.9211 B(  5-C ,  6-C ) :   1.3519
B(  5-C , 13-H ) :   0.9419 B(  6-C ,  7-N ) :   1.4399 B(  6-C , 14-H ) :   0.9841
B(  7-N ,  8-C ) :   1.4778 B(  8-C , 15-H ) :   1.0011

Dispersion correction           -0.005277454
FINAL SINGLE POINT ENERGY      -400.831887308039

DIPOLE MOMENT
-------------

Method             : SCF
Type of density    : Electron Density
Multiplicity       :   1
Irrep              :   0
Energy             :  -400.8340385038948739 Eh
Relativity type    :
Basis              : AO
                                X                 Y                 Z
Electronic contribution:     -2.185411845      -4.502244390       0.077575404
Nuclear contribution   :      1.869783624       6.185984131      -0.101924556
                        -----------------------------------------
Total Dipole Moment    :     -0.315628221       1.683739741      -0.024349152
                        -----------------------------------------
Magnitude (a.u.)       :      1.713240663
Magnitude (Debye)      :      4.354711692

Rotational constants in cm-1:             0.126426             0.041702             0.031544
Rotational constants in MHz :          3790.160135          1250.187673           945.661538

                             ****ORCA TERMINATED NORMALLY****
TOTAL RUN TIME: 0 days 0 hours 0 minutes 27 seconds 468 msec
