                         Program Version 6.0.0  -   RELEASE  -
|  1> ! r2scan-3c def2/J RI DEFGRID2 scfconv6 printgap
|  2> %output
|  3>     printlevel normal
|  4> end
|  5> %cpcm
|  6>     smd true
|  7>     smdsolvent "water"
|  8> end
|  9> * xyz 0 1
| 10> C 2.4731079687 1.2063804233 -0.0269518402
| 11> C 1.696866865 -0.0767448689 0.002017091
| 12> O 2.2499877582 -1.1643301466 0.0258651458
| 13> C 0.2165928999 0.0231865423 0.0005863478
| 14> C -0.4836088628 1.2304688775 -0.0058272603
| 15> C -1.8671668868 1.1966776971 -0.0068376415
| 16> C -2.5029644563 -0.036859411 -0.0007894537
| 17> N -1.8528023774 -1.1926017157 0.0055031072
| 18> C -0.5344941496 -1.1567940786 0.0060845849
| 19> H 2.2136758083 1.7768800672 -0.9151740979
| 20> H 3.5363316892 0.9826044617 -0.0352504017
| 21> H 2.2343458118 1.8011898585 0.8512750542
| 22> H 0.0336237204 2.1763419644 -0.0093863998
| 23> H -2.4436916587 2.1072047212 -0.011591228
| 24> H -3.5812589684 -0.1136550518 -0.0002008648
| 25> H -0.0247152169 -2.1115198792 0.0112453893
| 26> *
| 27>
| 28>                          ****END OF INPUT****

CARTESIAN COORDINATES (ANGSTROEM)
---------------------------------
  C      2.473108    1.206380   -0.026952
  C      1.696867   -0.076745    0.002017
  O      2.249988   -1.164330    0.025865
  C      0.216593    0.023187    0.000586
  C     -0.483609    1.230469   -0.005827
  C     -1.867167    1.196678   -0.006838
  C     -2.502964   -0.036859   -0.000789
  N     -1.852802   -1.192602    0.005503
  C     -0.534494   -1.156794    0.006085
  H      2.213676    1.776880   -0.915174
  H      3.536332    0.982604   -0.035250
  H      2.234346    1.801190    0.851275
  H      0.033624    2.176342   -0.009386
  H     -2.443692    2.107205   -0.011591
  H     -3.581259   -0.113655   -0.000201
  H     -0.024715   -2.111520    0.011245

 Total Charge           Charge          ....    0
 Multiplicity           Mult            ....    1
 Number of Electrons    NEL             ....   64
 Basis Dimension        Dim             ....  216

ORBITAL ENERGIES
----------------

  NO   OCC          E(Eh)            E(eV)
   0   2.0000     -18.950830      -515.6783
   1   2.0000     -14.167275      -385.5112
   2   2.0000     -10.134042      -275.7613
   3   2.0000     -10.076969      -274.2083
   4   2.0000     -10.076455      -274.1943
   5   2.0000     -10.062291      -273.8089
   6   2.0000     -10.057006      -273.6650
   7   2.0000     -10.048046      -273.4212
   8   2.0000     -10.026015      -272.8217
   9   2.0000      -1.019377       -27.7387
  10   2.0000      -0.927283       -25.2327
  11   2.0000      -0.792095       -21.5540
  12   2.0000      -0.748211       -20.3599
  13   2.0000      -0.709101       -19.2956
  14   2.0000      -0.624897       -17.0043
  15   2.0000      -0.603997       -16.4356
  16   2.0000      -0.532844       -14.4994
  17   2.0000      -0.493980       -13.4419
  18   2.0000      -0.466312       -12.6890
  19   2.0000      -0.441819       -12.0225
  20   2.0000      -0.422439       -11.4951
  21   2.0000      -0.412412       -11.2223
  22   2.0000      -0.402474       -10.9519
  23   2.0000      -0.384480       -10.4622
  24   2.0000      -0.377895       -10.2831
  25   2.0000      -0.359696        -9.7878
  26   2.0000      -0.341949        -9.3049
  27   2.0000      -0.341403        -9.2900
  28   2.0000      -0.282932        -7.6990
  29   2.0000      -0.256370        -6.9762
  30   2.0000      -0.248545        -6.7633
  31   2.0000      -0.225716        -6.1421
  32   0.0000      -0.097844        -2.6625
  33   0.0000      -0.059079        -1.6076
  34   0.0000      -0.001912        -0.0520
  35   0.0000       0.079872         2.1734
  36   0.0000       0.113412         3.0861

MULLIKEN ATOMIC CHARGES
-----------------------
   0 C :   -0.581970
   1 C :    0.281979
   2 O :   -0.440758
   3 C :    0.196168
   4 C :   -0.144083
   5 C :   -0.154705
   6 C :   -0.071855
   7 N :   -0.226718
   8 C :   -0.182388
   9 H :    0.203129
  10 H :    0.187042
  11 H :    0.203099
  12 H :    0.194247
  13 H :    0.190869
  14 H :    0.167938
  15 H :    0.178005
Sum of atomic charges:   -0.0000000

LOEWDIN ATOMIC CHARGES
----------------------
   0 C :   -0.376550
   1 C :    0.255076
   2 O :   -0.537379
   3 C :   -0.062644
   4 C :   -0.076531
   5 C :   -0.134112
   6 C :    0.101370
   7 N :   -0.643360
   8 C :    0.129501
   9 H :    0.189588
  10 H :    0.178223
  11 H :    0.190178
  12 H :    0.193102
  13 H :    0.187209
  14 H :    0.198336
  15 H :    0.207993

  Mayer bond orders larger than 0.100000
B(  0-C ,  1-C ) :   0.8898 B(  0-C ,  9-H ) :   0.9419 B(  0-C , 10-H ) :   0.9765
B(  0-C , 11-H ) :   0.9384 B(  1-C ,  2-O ) :   1.8625 B(  1-C ,  3-C ) :   0.9221
B(  2-O ,  3-C ) :  -0.1008 B(  3-C ,  4-C ) :   1.3485 B(  3-C ,  8-C ) :   1.2331
B(  4-C ,  5-C ) :   1.3956 B(  4-C , 12-H ) :   0.9163 B(  5-C ,  6-C ) :   1.3524
B(  5-C , 13-H ) :   0.9425 B(  6-C ,  7-N ) :   1.4248 B(  6-C , 14-H ) :   0.9697
B(  7-N ,  8-C ) :   1.5063 B(  8-C , 15-H ) :   0.9940

Dispersion correction           -0.005277454
FINAL SINGLE POINT ENERGY      -400.845075634819

DIPOLE MOMENT
-------------

Method             : SCF
Type of density    : Electron Density
Multiplicity       :   1
Irrep              :   0
Energy             :  -400.8472268306750266 Eh
Relativity type    :
Basis              : AO
                                X                 Y                 Z
Electronic contribution:     -2.390597145      -3.618146333       0.065843798
Nuclear contribution   :      1.869783624       6.185984131      -0.101924556
                        -----------------------------------------
Total Dipole Moment    :     -0.520813522       2.567837798      -0.036080758
                        -----------------------------------------
Magnitude (a.u.)       :      2.620370108
Magnitude (Debye)      :      6.660451500

Rotational constants in cm-1:             0.126426             0.041702             0.031544
Rotational constants in MHz :          3790.160135          1250.187673           945.661538

                             ****ORCA TERMINATED NORMALLY****
TOTAL RUN TIME: 0 days 0 hours 0 minutes 31 seconds 545 msec
