                         Program Version 6.0.0  -   RELEASE  -
|  1> ! pbe def2-sv(p) def2/J RI DEFGRID1 loosescf d4 GCP(DFT/SV(P)) printgap
|  2> %output
|  3>     printlevel normal
|  4> end
|  5> * xyz 0 1
|  6> C -2.3850352025 -1.1818487728 -0.2889999252
|  7> C -1.0846923572 -0.6340842552 0.329423427
|  8> H -1.150255778 -0.6377039986 1.4297347177
|  9> C -0.8108263437 0.8179295545 -0.0999916208
| 10> H -0.9798285615 0.9183569737 -1.1814592042
| 11> C 0.6408757259 1.2224526103 0.2034862957
| 12> H 0.7451413879 1.3249961007 1.2980296863
| 13> C 1.6277335671 0.1553633238 -0.2898528847
| 14> H 1.554461849 0.0793391771 -1.3806773583
| 15> C 1.2272326861 -1.1929568983 0.3383495099
| 16> H 1.2511854613 -1.1052147706 1.4392112573
| 17> O -0.0742939791 -1.527051305 -0.0943754275
| 18> O 2.0789098619 -2.2264696886 0.0205334391
| 19> O 2.9548417765 0.5247369129 -0.0168673386
| 20> O 0.8760705103 2.4671272674 -0.4109222448
| 21> O -1.6992139859 1.6339072755 0.6214352066
| 22> O -3.4495687471 -0.2746892096 -0.3245586422
| 23> H -2.6621520894 -2.0971263177 0.2505147192
| 24> H -2.1742268027 -1.4468245625 -1.3280085645
| 25> H 1.977957831 -2.4625896538 -0.914904986
| 26> H 3.1801635482 0.3213026573 0.9022965005
| 27> H 1.8333560285 2.6186787573 -0.4446682674
| 28> H -1.569856791 2.5522645572 0.3428106659
| 29> H -3.5560403553 0.1389623283 0.5444212406
| 30> *
| 31>
| 32>                          ****END OF INPUT****

CARTESIAN COORDINATES (ANGSTROEM)
---------------------------------
  C     -2.385035   -1.181849   -0.289000
  C     -1.084692   -0.634084    0.329423
  H     -1.150256   -0.637704    1.429735
  C     -0.810826    0.817930   -0.099992
  H     -0.979829    0.918357   -1.181459
  C      0.640876    1.222453    0.203486
  H      0.745141    1.324996    1.298030
  C      1.627734    0.155363   -0.289853
  H      1.554462    0.079339   -1.380677
  C      1.227233   -1.192957    0.338350
  H      1.251185   -1.105215    1.439211
  O     -0.074294   -1.527051   -0.094375
  O      2.078910   -2.226470    0.020533
  O      2.954842    0.524737   -0.016867
  O      0.876071    2.467127   -0.410922
  O     -1.699214    1.633907    0.621435
  O     -3.449569   -0.274689   -0.324559
  H     -2.662152   -2.097126    0.250515
  H     -2.174227   -1.446825   -1.328009
  H      1.977958   -2.462590   -0.914905
  H      3.180164    0.321303    0.902297
  H      1.833356    2.618679   -0.444668
  H     -1.569857    2.552265    0.342811
  H     -3.556040    0.138962    0.544421

 Total Charge           Charge          ....    0
 Multiplicity           Mult            ....    1
 Number of Electrons    NEL             ....   96
 Basis Dimension        Dim             ....  192

ORBITAL ENERGIES
----------------

  NO   OCC          E(Eh)            E(eV)
   0   2.0000     -18.780015      -511.0302
   1   2.0000     -18.768374      -510.7134
   2   2.0000     -18.766970      -510.6752
   3   2.0000     -18.757704      -510.4231
   4   2.0000     -18.756239      -510.3832
   5   2.0000     -18.741474      -509.9814
   6   2.0000      -9.996900      -272.0295
   7   2.0000      -9.949528      -270.7404
   8   2.0000      -9.947408      -270.6827
   9   2.0000      -9.945522      -270.6314
  10   2.0000      -9.944335      -270.5991
  11   2.0000      -9.930116      -270.2122
  12   2.0000      -0.991596       -26.9827
  13   2.0000      -0.951830       -25.9006
  14   2.0000      -0.943222       -25.6664
  15   2.0000      -0.923976       -25.1427
  16   2.0000      -0.921991       -25.0886
  17   2.0000      -0.914681       -24.8897
  18   2.0000      -0.705558       -19.1992
  19   2.0000      -0.696369       -18.9492
  20   2.0000      -0.615685       -16.7536
  21   2.0000      -0.593275       -16.1438
  22   2.0000      -0.570412       -15.5217
  23   2.0000      -0.543172       -14.7805
  24   2.0000      -0.508200       -13.8288
  25   2.0000      -0.497258       -13.5311
  26   2.0000      -0.469948       -12.7879
  27   2.0000      -0.455486       -12.3944
  28   2.0000      -0.450743       -12.2653
  29   2.0000      -0.436466       -11.8769
  30   2.0000      -0.427787       -11.6407
  31   2.0000      -0.420912       -11.4536
  32   2.0000      -0.386320       -10.5123
  33   2.0000      -0.368339       -10.0230
  34   2.0000      -0.357775        -9.7356
  35   2.0000      -0.354463        -9.6454
  36   2.0000      -0.327728        -8.9179
  37   2.0000      -0.319866        -8.7040
  38   2.0000      -0.307920        -8.3789
  39   2.0000      -0.303338        -8.2543
  40   2.0000      -0.295486        -8.0406
  41   2.0000      -0.270766        -7.3679
  42   2.0000      -0.259267        -7.0550
  43   2.0000      -0.250915        -6.8277
  44   2.0000      -0.237736        -6.4691
  45   2.0000      -0.228739        -6.2243
  46   2.0000      -0.208715        -5.6794
  47   2.0000      -0.204753        -5.5716
  48   0.0000       0.010587         0.2881
  49   0.0000       0.020073         0.5462
  50   0.0000       0.026054         0.7090
  51   0.0000       0.044761         1.2180
  52   0.0000       0.059116         1.6086

MULLIKEN ATOMIC CHARGES
-----------------------
   0 C :    0.086084
   1 C :   -0.014403
   2 H :    0.056629
   3 C :    0.064965
   4 H :    0.063399
   5 C :    0.067602
   6 H :    0.035045
   7 C :    0.034000
   8 H :    0.058029
   9 C :    0.168551
  10 H :    0.041485
  11 O :   -0.303681
  12 O :   -0.365361
  13 O :   -0.409922
  14 O :   -0.424079
  15 O :   -0.424457
  16 O :   -0.428628
  17 H :    0.080162
  18 H :    0.083200
  19 H :    0.307774
  20 H :    0.303167
  21 H :    0.306754
  22 H :    0.313688
  23 H :    0.299998
Sum of atomic charges:   -0.0000000

LOEWDIN ATOMIC CHARGES
----------------------
   0 C :   -0.121990
   1 C :   -0.067070
   2 H :    0.101749
   3 C :   -0.067343
   4 H :    0.111936
   5 C :   -0.086144
   6 H :    0.095149
   7 C :   -0.105506
   8 H :    0.115741
   9 C :   -0.005749
  10 H :    0.092329
  11 O :   -0.147638
  12 O :   -0.284398
  13 O :   -0.308925
  14 O :   -0.329284
  15 O :   -0.316390
  16 O :   -0.328877
  17 H :    0.098065
  18 H :    0.114082
  19 H :    0.292775
  20 H :    0.288519
  21 H :    0.285699
  22 H :    0.293624
  23 H :    0.279647

  Mayer bond orders larger than 0.100000
B(  0-C ,  1-C ) :   1.0489 B(  0-C , 16-O ) :   1.1033 B(  0-C , 17-H ) :   0.9245
B(  0-C , 18-H ) :   0.9112 B(  1-C ,  2-H ) :   0.8726 B(  1-C ,  3-C ) :   0.9996
B(  1-C , 11-O ) :   0.9934 B(  3-C ,  4-H ) :   0.8769 B(  3-C ,  5-C ) :   1.0179
B(  3-C , 15-O ) :   1.0385 B(  5-C ,  6-H ) :   0.8651 B(  5-C ,  7-C ) :   0.9856
B(  5-C , 14-O ) :   1.0917 B(  7-C ,  8-H ) :   0.8577 B(  7-C ,  9-C ) :   0.9766
B(  7-C , 13-O ) :   1.0441 B(  9-C , 10-H ) :   0.8760 B(  9-C , 11-O ) :   1.0036
B(  9-C , 12-O ) :   1.1673 B( 12-O , 19-H ) :   0.8414 B( 13-O , 20-H ) :   0.8443
B( 14-O , 21-H ) :   0.8296 B( 15-O , 22-H ) :   0.8375 B( 16-O , 23-H ) :   0.8359

Dispersion correction           -0.023852924
FINAL SINGLE POINT ENERGY      -685.695575963218

DIPOLE MOMENT
-------------

Method             : SCF
Type of density    : Electron Density
Multiplicity       :   1
Irrep              :   0
Energy             :  -685.8257952846056469 Eh
Relativity type    :
Basis              : AO
                                X                 Y                 Z
Electronic contribution:      2.046522928       0.062762273      -0.438886155
Nuclear contribution   :     -1.444078342       0.200653236       0.895077295
                        -----------------------------------------
Total Dipole Moment    :      0.602444586       0.263415509       0.456191139
                        -----------------------------------------
Magnitude (a.u.)       :      0.800273432
Magnitude (Debye)      :      2.034133408

Rotational constants in cm-1:             0.043570             0.024644             0.016652
Rotational constants in MHz :          1306.188256           738.808313           499.207009

                             ****ORCA TERMINATED NORMALLY****
TOTAL RUN TIME: 0 days 0 hours 0 minutes 12 seconds 83 msec
