                         Program Version 6.0.0  -   RELEASE  -
|  1> ! wb97x-v def2-tzvp def2/J RIJCOSX DEFGRID2 scfconv7 GCP(DFT/TZ) printgap
|  2> %output
|  3>     printlevel normal
|  4> end
|  5> * xyz 0 1
|  6> C -3.6591067014967407 0.23641206224031744 -0.0013574907200314557
|  7> C -2.165588863872982 0.06922871797212686 0.0012991197012981056
|  8> C -1.5713885113022155 -1.1933488205821683 1.4952070101245238e-05
|  9> C -0.1834401200596335 -1.3354619644748986 -0.0009802360489254603
| 10> C 0.6573151447134238 -0.2221947241559742 -0.000524082022298369
| 11> C 0.06052321579752768 1.04550288943325 0.0011420195582770765
| 12> C -1.3217482247953662 1.1873629480003995 0.0021442017565525924
| 13> C 2.163994883272301 -0.37867423402859623 -0.0010680745928677922
| 14> C 2.790676214242611 0.22811637638483825 1.2599549642027714
| 15> C 2.7902601595842946 0.23213570767943514 -1.2603498420547403
| 16> H -4.1659225883829505 -0.7312500336877404 0.03397679034594733
| 17> H -3.991477509730734 0.8283738667742752 0.8583617191869948
| 18> H -3.9948922928685424 0.7637023109417856 -0.9012934793072898
| 19> H -2.200772758916001 -2.079647760840089 3.1887028330838795e-05
| 20> H 0.25205849245605394 -2.3316999891656267 -0.0017049859176283598
| 21> H 0.6849914641162944 1.9348814703997896 0.002121466449816231
| 22> H -1.7586257365558524 2.1831450764099825 0.0037073504232062572
| 23> H 2.377877364428568 -1.4548322233496436 -0.002798128550331037
| 24> H 2.626294656198759 1.3107163179863204 1.2954890502314078
| 25> H 3.8716864251447083 0.05207126002762983 1.2725996628897895
| 26> H 2.361698934759717 -0.21105409253507754 2.1664243329350596
| 27> H 2.6255683479356837 1.3147906521528414 -1.292579267909026
| 28> H 2.3612639288604043 -0.20441210984011474 -2.1680755207731774
| 29> H 3.871322042210016 0.056467346850855256 -1.2737127665162635
| 30> *
| 31>
| 32>                          ****END OF INPUT****

CARTESIAN COORDINATES (ANGSTROEM)
---------------------------------
  C     -3.659107    0.236412   -0.001357
  C     -2.165589    0.069229    0.001299
  C     -1.571389   -1.193349    0.000015
  C     -0.183440   -1.335462   -0.000980
  C      0.657315   -0.222195   -0.000524
  C      0.060523    1.045503    0.001142
  C     -1.321748    1.187363    0.002144
  C      2.163995   -0.378674   -0.001068
  C      2.790676    0.228116    1.259955
  C      2.790260    0.232136   -1.260350
  H     -4.165923   -0.731250    0.033977
  H     -3.991478    0.828374    0.858362
  H     -3.994892    0.763702   -0.901293
  H     -2.200773   -2.079648    0.000032
  H      0.252058   -2.331700   -0.001705
  H      0.684991    1.934881    0.002121
  H     -1.758626    2.183145    0.003707
  H      2.377877   -1.454832   -0.002798
  H      2.626295    1.310716    1.295489
  H      3.871686    0.052071    1.272600
  H      2.361699   -0.211054    2.166424
  H      2.625568    1.314791   -1.292579
  H      2.361264   -0.204412   -2.168076
  H      3.871322    0.056467   -1.273713

 Total Charge           Charge          ....    0
 Multiplicity           Mult            ....    1
 Number of Electrons    NEL             ....   74
 Basis Dimension        Dim             ....  394

ORBITAL ENERGIES
----------------

  NO   OCC          E(Eh)            E(eV)
   0   2.0000     -12.054208      -328.0117
   1   2.0000     -12.053256      -327.9858
   2   2.0000     -12.049860      -327.8934
   3   2.0000     -12.045508      -327.7749
   4   2.0000     -12.044500      -327.7475
   5   2.0000     -12.043289      -327.7145
   6   2.0000     -12.042646      -327.6970
   7   2.0000     -12.040984      -327.6518
   8   2.0000     -12.033937      -327.4601
   9   2.0000     -12.033607      -327.4511
  10   2.0000      -1.382735       -37.6261
  11   2.0000      -1.320725       -35.9388
  12   2.0000      -1.267261       -34.4839
  13   2.0000      -1.265193       -34.4277
  14   2.0000      -1.188414       -32.3384
  15   2.0000      -1.175036       -31.9744
  16   2.0000      -1.104793       -30.0629
  17   2.0000      -1.095783       -29.8178
  18   2.0000      -1.043251       -28.3883
  19   2.0000      -0.956540       -26.0288
  20   2.0000      -0.943217       -25.6662
  21   2.0000      -0.907519       -24.6949
  22   2.0000      -0.880686       -23.9647
  23   2.0000      -0.869949       -23.6725
  24   2.0000      -0.864813       -23.5327
  25   2.0000      -0.849208       -23.1081
  26   2.0000      -0.835039       -22.7226
  27   2.0000      -0.830681       -22.6040
  28   2.0000      -0.822899       -22.3922
  29   2.0000      -0.809220       -22.0200
  30   2.0000      -0.792193       -21.5567
  31   2.0000      -0.782887       -21.3034
  32   2.0000      -0.781691       -21.2709
  33   2.0000      -0.758990       -20.6532
  34   2.0000      -0.751281       -20.4434
  35   2.0000      -0.632470       -17.2104
  36   2.0000      -0.626481       -17.0474
  37   0.0000      -0.238254        -6.4832
  38   0.0000      -0.231379        -6.2961
  39   0.0000      -0.073920        -2.0115
  40   0.0000      -0.053197        -1.4476
  41   0.0000      -0.026485        -0.7207

MULLIKEN ATOMIC CHARGES
-----------------------
   0 C :   -0.366781
   1 C :    0.147095
   2 C :   -0.180779
   3 C :   -0.208037
   4 C :    0.195349
   5 C :   -0.205919
   6 C :   -0.199030
   7 C :   -0.037657
   8 C :   -0.342269
   9 C :   -0.342327
  10 H :    0.114998
  11 H :    0.122130
  12 H :    0.122500
  13 H :    0.108285
  14 H :    0.109435
  15 H :    0.119712
  16 H :    0.112302
  17 H :    0.068946
  18 H :    0.102515
  19 H :    0.110414
  20 H :    0.118093
  21 H :    0.102528
  22 H :    0.118067
  23 H :    0.110430
Sum of atomic charges:   -0.0000000

LOEWDIN ATOMIC CHARGES
----------------------
   0 C :   -0.254033
   1 C :   -0.172967
   2 C :   -0.118923
   3 C :   -0.113105
   4 C :   -0.124667
   5 C :   -0.106867
   6 C :   -0.114538
   7 C :   -0.265465
   8 C :   -0.270923
   9 C :   -0.270930
  10 H :    0.123463
  11 H :    0.126325
  12 H :    0.126561
  13 H :    0.141881
  14 H :    0.142899
  15 H :    0.143403
  16 H :    0.143260
  17 H :    0.150778
  18 H :    0.118189
  19 H :    0.117651
  20 H :    0.121087
  21 H :    0.118185
  22 H :    0.121080
  23 H :    0.117656

  Mayer bond orders larger than 0.100000
B(  0-C ,  1-C ) :   0.9150 B(  0-C , 10-H ) :   0.9971 B(  0-C , 11-H ) :   0.9782
B(  0-C , 12-H ) :   0.9752 B(  1-C ,  2-C ) :   1.4206 B(  1-C ,  6-C ) :   1.3539
B(  2-C ,  3-C ) :   1.4377 B(  2-C , 13-H ) :   0.9718 B(  3-C ,  4-C ) :   1.4081
B(  3-C , 14-H ) :   0.9696 B(  4-C ,  5-C ) :   1.3195 B(  4-C ,  7-C ) :   0.8942
B(  5-C ,  6-C ) :   1.4924 B(  5-C , 15-H ) :   0.9677 B(  6-C , 16-H ) :   0.9793
B(  7-C ,  8-C ) :   0.9906 B(  7-C ,  9-C ) :   0.9906 B(  7-C , 17-H ) :   0.9828
B(  8-C , 18-H ) :   0.9710 B(  8-C , 19-H ) :   0.9802 B(  8-C , 20-H ) :   0.9816
B(  9-C , 21-H ) :   0.9710 B(  9-C , 22-H ) :   0.9816 B(  9-C , 23-H ) :   0.9802

FINAL SINGLE POINT ENERGY      -389.520919435959

DIPOLE MOMENT
-------------

Method             : SCF
Type of density    : Electron Density
Multiplicity       :   1
Irrep              :   0
Energy             :  -389.5356747704593658 Eh
Relativity type    :
Basis              : AO
                                X                 Y                 Z
Electronic contribution:     -4.656947774      -1.353405699       0.004952071
Nuclear contribution   :      4.646817459       1.355467780      -0.006579986
                        -----------------------------------------
Total Dipole Moment    :     -0.010130315       0.002062081      -0.001627915
                        -----------------------------------------
Magnitude (a.u.)       :      0.010465446
Magnitude (Debye)      :      0.026601051

Rotational constants in cm-1:             0.108995             0.024368             0.022942
Rotational constants in MHz :          3267.602853           730.548368           687.777884

                             ****ORCA TERMINATED NORMALLY****
TOTAL RUN TIME: 0 days 0 hours 5 minutes 7 seconds 356 msec
