                         Program Version 6.0.0  -   RELEASE  -
|  1> ! wb97x-v def2-tzvp def2/J RIJCOSX DEFGRID2 scfconv7 GCP(DFT/TZ) printgap
|  2> %output
|  3>     printlevel normal
|  4> end
|  5> %cpcm
|  6>     smd true
|  7>     smdsolvent "water"
|  8> end
|  9> * xyz 0 1
| 10> C -3.6591067014967407 0.23641206224031744 -0.0013574907200314557
| 11> C -2.165588863872982 0.06922871797212686 0.0012991197012981056
| 12> C -1.5713885113022155 -1.1933488205821683 1.4952070101245238e-05
| 13> C -0.1834401200596335 -1.3354619644748986 -0.0009802360489254603
| 14> C 0.6573151447134238 -0.2221947241559742 -0.000524082022298369
| 15> C 0.06052321579752768 1.04550288943325 0.0011420195582770765
| 16> C -1.3217482247953662 1.1873629480003995 0.0021442017565525924
| 17> C 2.163994883272301 -0.37867423402859623 -0.0010680745928677922
| 18> C 2.790676214242611 0.22811637638483825 1.2599549642027714
| 19> C 2.7902601595842946 0.23213570767943514 -1.2603498420547403
| 20> H -4.1659225883829505 -0.7312500336877404 0.03397679034594733
| 21> H -3.991477509730734 0.8283738667742752 0.8583617191869948
| 22> H -3.9948922928685424 0.7637023109417856 -0.9012934793072898
| 23> H -2.200772758916001 -2.079647760840089 3.1887028330838795e-05
| 24> H 0.25205849245605394 -2.3316999891656267 -0.0017049859176283598
| 25> H 0.6849914641162944 1.9348814703997896 0.002121466449816231
| 26> H -1.7586257365558524 2.1831450764099825 0.0037073504232062572
| 27> H 2.377877364428568 -1.4548322233496436 -0.002798128550331037
| 28> H 2.626294656198759 1.3107163179863204 1.2954890502314078
| 29> H 3.8716864251447083 0.05207126002762983 1.2725996628897895
| 30> H 2.361698934759717 -0.21105409253507754 2.1664243329350596
| 31> H 2.6255683479356837 1.3147906521528414 -1.292579267909026
| 32> H 2.3612639288604043 -0.20441210984011474 -2.1680755207731774
| 33> H 3.871322042210016 0.056467346850855256 -1.2737127665162635
| 34> *
| 35>
| 36>                          ****END OF INPUT****

CARTESIAN COORDINATES (ANGSTROEM)
---------------------------------
  C     -3.659107    0.236412   -0.001357
  C     -2.165589    0.069229    0.001299
  C     -1.571389   -1.193349    0.000015
  C     -0.183440   -1.335462   -0.000980
  C      0.657315   -0.222195   -0.000524
  C      0.060523    1.045503    0.001142
  C     -1.321748    1.187363    0.002144
  C      2.163995   -0.378674   -0.001068
  C      2.790676    0.228116    1.259955
  C      2.790260    0.232136   -1.260350
  H     -4.165923   -0.731250    0.033977
  H     -3.991478    0.828374    0.858362
  H     -3.994892    0.763702   -0.901293
  H     -2.200773   -2.079648    0.000032
  H      0.252058   -2.331700   -0.001705
  H      0.684991    1.934881    0.002121
  H     -1.758626    2.183145    0.003707
  H      2.377877   -1.454832   -0.002798
  H      2.626295    1.310716    1.295489
  H      3.871686    0.052071    1.272600
  H      2.361699   -0.211054    2.166424
  H      2.625568    1.314791   -1.292579
  H      2.361264   -0.204412   -2.168076
  H      3.871322    0.056467   -1.273713

 Total Charge           Charge          ....    0
 Multiplicity           Mult            ....    1
 Number of Electrons    NEL             ....   74
 Basis Dimension        Dim             ....  394

ORBITAL ENERGIES
----------------

  NO   OCC          E(Eh)            E(eV)
   0   2.0000     -12.053467      -327.9915
   1   2.0000     -12.049110      -327.8729
   2   2.0000     -12.046179      -327.7932
   3   2.0000     -12.043659      -327.7246
   4   2.0000     -12.042831      -327.7021
   5   2.0000     -12.041437      -327.6642
   6   2.0000     -12.040975      -327.6516
   7   2.0000     -12.032614      -327.4241
   8   2.0000     -12.026219      -327.2501
   9   2.0000     -12.025893      -327.2412
  10   2.0000      -1.382675       -37.6245
  11   2.0000      -1.316962       -35.8364
  12   2.0000      -1.265320       -34.4311
  13   2.0000      -1.262501       -34.3544
  14   2.0000      -1.183683       -32.2096
  15   2.0000      -1.168054       -31.7844
  16   2.0000      -1.102628       -30.0040
  17   2.0000      -1.092285       -29.7226
  18   2.0000      -1.039220       -28.2786
  19   2.0000      -0.954766       -25.9805
  20   2.0000      -0.939557       -25.5666
  21   2.0000      -0.902826       -24.5671
  22   2.0000      -0.876193       -23.8424
  23   2.0000      -0.864743       -23.5308
  24   2.0000      -0.860569       -23.4173
  25   2.0000      -0.842939       -22.9375
  26   2.0000      -0.828449       -22.5432
  27   2.0000      -0.826185       -22.4816
  28   2.0000      -0.815923       -22.2024
  29   2.0000      -0.801421       -21.8078
  30   2.0000      -0.787450       -21.4276
  31   2.0000      -0.776470       -21.1288
  32   2.0000      -0.776033       -21.1169
  33   2.0000      -0.751460       -20.4483
  34   2.0000      -0.751209       -20.4414
  35   2.0000      -0.634057       -17.2536
  36   2.0000      -0.626904       -17.0589
  37   0.0000      -0.238626        -6.4934
  38   0.0000      -0.232264        -6.3202
  39   0.0000      -0.073151        -1.9905
  40   0.0000      -0.046263        -1.2589
  41   0.0000      -0.019843        -0.5400

MULLIKEN ATOMIC CHARGES
-----------------------
   0 C :   -0.396470
   1 C :    0.115600
   2 C :   -0.225342
   3 C :   -0.250844
   4 C :    0.140662
   5 C :   -0.249949
   6 C :   -0.234117
   7 C :    0.014488
   8 C :   -0.408918
   9 C :   -0.408987
  10 H :    0.139867
  11 H :    0.139663
  12 H :    0.139504
  13 H :    0.153161
  14 H :    0.152954
  15 H :    0.165754
  16 H :    0.153701
  17 H :    0.091352
  18 H :    0.125247
  19 H :    0.130066
  20 H :    0.128634
  21 H :    0.125269
  22 H :    0.128623
  23 H :    0.130082
Sum of atomic charges:   -0.0000000

LOEWDIN ATOMIC CHARGES
----------------------
   0 C :   -0.256497
   1 C :   -0.183150
   2 C :   -0.130460
   3 C :   -0.123707
   4 C :   -0.134355
   5 C :   -0.116108
   6 C :   -0.124626
   7 C :   -0.263238
   8 C :   -0.277590
   9 C :   -0.277597
  10 H :    0.128749
  11 H :    0.130866
  12 H :    0.131041
  13 H :    0.151379
  14 H :    0.152268
  15 H :    0.154135
  16 H :    0.152401
  17 H :    0.156225
  18 H :    0.122221
  19 H :    0.121607
  20 H :    0.121303
  21 H :    0.122222
  22 H :    0.121301
  23 H :    0.121610

  Mayer bond orders larger than 0.100000
B(  0-C ,  1-C ) :   0.9289 B(  0-C , 10-H ) :   0.9927 B(  0-C , 11-H ) :   0.9722
B(  0-C , 12-H ) :   0.9693 B(  1-C ,  2-C ) :   1.3997 B(  1-C ,  6-C ) :   1.3325
B(  2-C ,  3-C ) :   1.4176 B(  2-C , 13-H ) :   0.9798 B(  3-C ,  4-C ) :   1.3894
B(  3-C , 14-H ) :   0.9780 B(  4-C ,  5-C ) :   1.3092 B(  4-C ,  7-C ) :   0.9003
B(  5-C ,  6-C ) :   1.4681 B(  5-C , 15-H ) :   0.9740 B(  6-C , 16-H ) :   0.9870
B(  7-C ,  8-C ) :   0.9668 B(  7-C ,  9-C ) :   0.9667 B(  7-C , 17-H ) :   0.9848
B(  8-C , 18-H ) :   0.9717 B(  8-C , 19-H ) :   0.9776 B(  8-C , 20-H ) :   0.9797
B(  9-C , 21-H ) :   0.9717 B(  9-C , 22-H ) :   0.9797 B(  9-C , 23-H ) :   0.9776

FINAL SINGLE POINT ENERGY      -389.521161240641

DIPOLE MOMENT
-------------

Method             : SCF
Type of density    : Electron Density
Multiplicity       :   1
Irrep              :   0
Energy             :  -389.5359165751409023 Eh
Relativity type    :
Basis              : AO
                                X                 Y                 Z
Electronic contribution:     -4.625629109      -1.333218597       0.004389792
Nuclear contribution   :      4.646817459       1.355467780      -0.006579986
                        -----------------------------------------
Total Dipole Moment    :      0.021188350       0.022249183      -0.002190194
                        -----------------------------------------
Magnitude (a.u.)       :      0.030802098
Magnitude (Debye)      :      0.078292712

Rotational constants in cm-1:             0.108995             0.024368             0.022942
Rotational constants in MHz :          3267.602853           730.548368           687.777884

                             ****ORCA TERMINATED NORMALLY****
TOTAL RUN TIME: 0 days 0 hours 4 minutes 55 seconds 574 msec
