                         Program Version 6.0.0  -   RELEASE  -
|  1> ! r2scan-3c def2/J RI DEFGRID2 scfconv6 printgap
|  2> %output
|  3>     printlevel normal
|  4> end
|  5> * xyz 0 1
|  6> C -3.6616290828 -0.435856021 -1.5121539095
|  7> N -2.4791402785 -0.1118487612 -0.7445676596
|  8> C -2.4259847072 -0.2300417216 0.5869808783
|  9> O -3.3473641823 -0.6125448005 1.2866577514
| 10> O -1.2545231091 0.0814680606 1.1870070741
| 11> C -0.1913736125 0.6456736951 0.4723467925
| 12> C -0.2463409769 1.952445065 0.0595017789
| 13> C 0.8518193391 2.5267628903 -0.5980959665
| 14> C 1.9800079881 1.792202191 -0.8335322415
| 15> C 2.0657471083 0.4468331215 -0.4172247977
| 16> C 0.9629415056 -0.147589825 0.2524607905
| 17> C 1.0486004337 -1.4913535602 0.6712289856
| 18> C 2.1807239372 -2.2195845192 0.4334291481
| 19> C 3.2726629028 -1.6375193793 -0.2299177087
| 20> C 3.2174434115 -0.3360700205 -0.6444699161
| 21> H -4.4411698969 -0.7335166175 -0.8140247855
| 22> H -3.4521590349 -1.2579052683 -2.1954442838
| 23> H -3.9894462889 0.4359636868 -2.0764668105
| 24> H -1.6570183516 0.1842558058 -1.2507936922
| 25> H -1.134720199 2.5346482804 0.2516875547
| 26> H 0.7902588044 3.5564663122 -0.9118801912
| 27> H 2.8255482996 2.2320713943 -1.3392702934
| 28> H 0.2045164576 -1.9252131248 1.1872920172
| 29> H 2.2406601372 -3.2475379465 0.75636128
| 30> H 4.1576370446 -2.228866235 -0.4077669977
| 31> H 4.0560417566 0.1154669516 -1.1523768729
| 32> *
| 33>
| 34>                          ****END OF INPUT****

CARTESIAN COORDINATES (ANGSTROEM)
---------------------------------
  C     -3.661629   -0.435856   -1.512154
  N     -2.479140   -0.111849   -0.744568
  C     -2.425985   -0.230042    0.586981
  O     -3.347364   -0.612545    1.286658
  O     -1.254523    0.081468    1.187007
  C     -0.191374    0.645674    0.472347
  C     -0.246341    1.952445    0.059502
  C      0.851819    2.526763   -0.598096
  C      1.980008    1.792202   -0.833532
  C      2.065747    0.446833   -0.417225
  C      0.962942   -0.147590    0.252461
  C      1.048600   -1.491354    0.671229
  C      2.180724   -2.219585    0.433429
  C      3.272663   -1.637519   -0.229918
  C      3.217443   -0.336070   -0.644470
  H     -4.441170   -0.733517   -0.814025
  H     -3.452159   -1.257905   -2.195444
  H     -3.989446    0.435964   -2.076467
  H     -1.657018    0.184256   -1.250794
  H     -1.134720    2.534648    0.251688
  H      0.790259    3.556466   -0.911880
  H      2.825548    2.232071   -1.339270
  H      0.204516   -1.925213    1.187292
  H      2.240660   -3.247538    0.756361
  H      4.157637   -2.228866   -0.407767
  H      4.056042    0.115467   -1.152377

 Total Charge           Charge          ....    0
 Multiplicity           Mult            ....    1
 Number of Electrons    NEL             ....  106
 Basis Dimension        Dim             ....  355

ORBITAL ENERGIES
----------------

  NO   OCC          E(Eh)            E(eV)
   0   2.0000     -19.005535      -517.1669
   1   2.0000     -18.908099      -514.5155
   2   2.0000     -14.195612      -386.2822
   3   2.0000     -10.173282      -276.8291
   4   2.0000     -10.113957      -275.2148
   5   2.0000     -10.068973      -273.9907
   6   2.0000     -10.062537      -273.8156
   7   2.0000     -10.062092      -273.8035
   8   2.0000     -10.054351      -273.5928
   9   2.0000     -10.053932      -273.5814
  10   2.0000     -10.050560      -273.4896
  11   2.0000     -10.049690      -273.4660
  12   2.0000     -10.048653      -273.4378
  13   2.0000     -10.047956      -273.4188
  14   2.0000     -10.047421      -273.4042
  15   2.0000      -1.080209       -29.3940
  16   2.0000      -0.979022       -26.6405
  17   2.0000      -0.900256       -24.4972
  18   2.0000      -0.860932       -23.4271
  19   2.0000      -0.808831       -22.0094
  20   2.0000      -0.758499       -20.6398
  21   2.0000      -0.730345       -19.8737
  22   2.0000      -0.707803       -19.2603
  23   2.0000      -0.686510       -18.6809
  24   2.0000      -0.624287       -16.9877
  25   2.0000      -0.603200       -16.4139
  26   2.0000      -0.599222       -16.3057
  27   2.0000      -0.562163       -15.2972
  28   2.0000      -0.541089       -14.7238
  29   2.0000      -0.504067       -13.7164
  30   2.0000      -0.487263       -13.2591
  31   2.0000      -0.479154       -13.0384
  32   2.0000      -0.459555       -12.5051
  33   2.0000      -0.446248       -12.1430
  34   2.0000      -0.427252       -11.6261
  35   2.0000      -0.412373       -11.2212
  36   2.0000      -0.409012       -11.1298
  37   2.0000      -0.402034       -10.9399
  38   2.0000      -0.390711       -10.6318
  39   2.0000      -0.388938       -10.5835
  40   2.0000      -0.379786       -10.3345
  41   2.0000      -0.372651       -10.1403
  42   2.0000      -0.366100        -9.9621
  43   2.0000      -0.354335        -9.6419
  44   2.0000      -0.327900        -8.9226
  45   2.0000      -0.324386        -8.8270
  46   2.0000      -0.318053        -8.6547
  47   2.0000      -0.284273        -7.7355
  48   2.0000      -0.270928        -7.3723
  49   2.0000      -0.249759        -6.7963
  50   2.0000      -0.238870        -6.5000
  51   2.0000      -0.234023        -6.3681
  52   2.0000      -0.213723        -5.8157
  53   0.0000      -0.082235        -2.2377
  54   0.0000      -0.052648        -1.4326
  55   0.0000      -0.014535        -0.3955
  56   0.0000       0.027655         0.7525
  57   0.0000       0.046928         1.2770

MULLIKEN ATOMIC CHARGES
-----------------------
   0 C :   -0.397420
   1 N :   -0.171720
   2 C :    0.323901
   3 O :   -0.447102
   4 O :   -0.141058
   5 C :    0.159324
   6 C :   -0.182455
   7 C :   -0.135576
   8 C :   -0.258098
   9 C :    0.171752
  10 C :    0.006519
  11 C :   -0.241646
  12 C :   -0.142237
  13 C :   -0.135925
  14 C :   -0.215716
  15 H :    0.199464
  16 H :    0.145881
  17 H :    0.144236
  18 H :    0.248456
  19 H :    0.162254
  20 H :    0.149769
  21 H :    0.146531
  22 H :    0.170044
  23 H :    0.148414
  24 H :    0.147385
  25 H :    0.145021
Sum of atomic charges:    0.0000000

LOEWDIN ATOMIC CHARGES
----------------------
   0 C :   -0.108454
   1 N :   -0.623612
   2 C :    0.452470
   3 O :   -0.396372
   4 O :   -0.488748
   5 C :    0.198176
   6 C :   -0.133053
   7 C :   -0.156287
   8 C :   -0.145312
   9 C :   -0.054281
  10 C :   -0.026615
  11 C :   -0.122115
  12 C :   -0.154980
  13 C :   -0.155562
  14 C :   -0.141379
  15 H :    0.207140
  16 H :    0.170286
  17 H :    0.169395
  18 H :    0.279608
  19 H :    0.185136
  20 H :    0.171478
  21 H :    0.172628
  22 H :    0.188434
  23 H :    0.170494
  24 H :    0.169386
  25 H :    0.172140

  Mayer bond orders larger than 0.100000
B(  0-C ,  1-N ) :   0.8961 B(  0-C , 15-H ) :   0.9540 B(  0-C , 16-H ) :   0.9605
B(  0-C , 17-H ) :   0.9636 B(  1-N ,  2-C ) :   1.1596 B(  1-N , 18-H ) :   0.9150
B(  2-C ,  3-O ) :   1.9439 B(  2-C ,  4-O ) :   1.0370 B(  4-O ,  5-C ) :   0.8700
B(  5-C ,  6-C ) :   1.5101 B(  5-C , 10-C ) :   1.2970 B(  5-C , 11-C ) :  -0.1012
B(  6-C ,  7-C ) :   1.2144 B(  6-C , 19-H ) :   0.9363 B(  7-C ,  8-C ) :   1.4931
B(  7-C , 20-H ) :   0.9581 B(  8-C ,  9-C ) :   1.1755 B(  8-C , 21-H ) :   0.9476
B(  9-C , 10-C ) :   1.4023 B(  9-C , 14-C ) :   1.1852 B( 10-C , 11-C ) :   1.2918
B( 11-C , 12-C ) :   1.4779 B( 11-C , 22-H ) :   0.9588 B( 12-C , 13-C ) :   1.2571
B( 12-C , 23-H ) :   0.9541 B( 13-C , 14-C ) :   1.5107 B( 13-C , 24-H ) :   0.9491
B( 14-C , 25-H ) :   0.9510

Dispersion correction           -0.010959025
FINAL SINGLE POINT ENERGY      -668.974286854600

DIPOLE MOMENT
-------------

Method             : SCF
Type of density    : Electron Density
Multiplicity       :   1
Irrep              :   0
Energy             :  -668.9780393882114140 Eh
Relativity type    :
Basis              : AO
                                X                 Y                 Z
Electronic contribution:      1.535237179       0.723546873       5.754977823
Nuclear contribution   :     -0.456895876      -0.321985024      -7.428432681
                        -----------------------------------------
Total Dipole Moment    :      1.078341304       0.401561849      -1.673454858
                        -----------------------------------------
Magnitude (a.u.)       :      2.030892180
Magnitude (Debye)      :      5.162117682

Rotational constants in cm-1:             0.035338             0.014218             0.011800
Rotational constants in MHz :          1059.418050           426.232617           353.758801

                             ****ORCA TERMINATED NORMALLY****
TOTAL RUN TIME: 0 days 0 hours 0 minutes 44 seconds 861 msec
