                         Program Version 6.0.0  -   RELEASE  -
|  1> ! r2scan-3c def2/J RI DEFGRID2 scfconv6 printgap
|  2> %output
|  3>     printlevel normal
|  4> end
|  5> %cpcm
|  6>     smd true
|  7>     smdsolvent "water"
|  8> end
|  9> * xyz 0 1
| 10> C -3.6616290828 -0.435856021 -1.5121539095
| 11> N -2.4791402785 -0.1118487612 -0.7445676596
| 12> C -2.4259847072 -0.2300417216 0.5869808783
| 13> O -3.3473641823 -0.6125448005 1.2866577514
| 14> O -1.2545231091 0.0814680606 1.1870070741
| 15> C -0.1913736125 0.6456736951 0.4723467925
| 16> C -0.2463409769 1.952445065 0.0595017789
| 17> C 0.8518193391 2.5267628903 -0.5980959665
| 18> C 1.9800079881 1.792202191 -0.8335322415
| 19> C 2.0657471083 0.4468331215 -0.4172247977
| 20> C 0.9629415056 -0.147589825 0.2524607905
| 21> C 1.0486004337 -1.4913535602 0.6712289856
| 22> C 2.1807239372 -2.2195845192 0.4334291481
| 23> C 3.2726629028 -1.6375193793 -0.2299177087
| 24> C 3.2174434115 -0.3360700205 -0.6444699161
| 25> H -4.4411698969 -0.7335166175 -0.8140247855
| 26> H -3.4521590349 -1.2579052683 -2.1954442838
| 27> H -3.9894462889 0.4359636868 -2.0764668105
| 28> H -1.6570183516 0.1842558058 -1.2507936922
| 29> H -1.134720199 2.5346482804 0.2516875547
| 30> H 0.7902588044 3.5564663122 -0.9118801912
| 31> H 2.8255482996 2.2320713943 -1.3392702934
| 32> H 0.2045164576 -1.9252131248 1.1872920172
| 33> H 2.2406601372 -3.2475379465 0.75636128
| 34> H 4.1576370446 -2.228866235 -0.4077669977
| 35> H 4.0560417566 0.1154669516 -1.1523768729
| 36> *
| 37>
| 38>                          ****END OF INPUT****

CARTESIAN COORDINATES (ANGSTROEM)
---------------------------------
  C     -3.661629   -0.435856   -1.512154
  N     -2.479140   -0.111849   -0.744568
  C     -2.425985   -0.230042    0.586981
  O     -3.347364   -0.612545    1.286658
  O     -1.254523    0.081468    1.187007
  C     -0.191374    0.645674    0.472347
  C     -0.246341    1.952445    0.059502
  C      0.851819    2.526763   -0.598096
  C      1.980008    1.792202   -0.833532
  C      2.065747    0.446833   -0.417225
  C      0.962942   -0.147590    0.252461
  C      1.048600   -1.491354    0.671229
  C      2.180724   -2.219585    0.433429
  C      3.272663   -1.637519   -0.229918
  C      3.217443   -0.336070   -0.644470
  H     -4.441170   -0.733517   -0.814025
  H     -3.452159   -1.257905   -2.195444
  H     -3.989446    0.435964   -2.076467
  H     -1.657018    0.184256   -1.250794
  H     -1.134720    2.534648    0.251688
  H      0.790259    3.556466   -0.911880
  H      2.825548    2.232071   -1.339270
  H      0.204516   -1.925213    1.187292
  H      2.240660   -3.247538    0.756361
  H      4.157637   -2.228866   -0.407767
  H      4.056042    0.115467   -1.152377

 Total Charge           Charge          ....    0
 Multiplicity           Mult            ....    1
 Number of Electrons    NEL             ....  106
 Basis Dimension        Dim             ....  355

ORBITAL ENERGIES
----------------

  NO   OCC          E(Eh)            E(eV)
   0   2.0000     -19.014210      -517.4030
   1   2.0000     -18.931845      -515.1617
   2   2.0000     -14.194305      -386.2467
   3   2.0000     -10.187897      -277.2268
   4   2.0000     -10.109337      -275.0890
   5   2.0000     -10.057042      -273.6660
   6   2.0000     -10.056731      -273.6576
   7   2.0000     -10.054474      -273.5961
   8   2.0000     -10.045236      -273.3448
   9   2.0000     -10.042651      -273.2744
  10   2.0000     -10.040913      -273.2271
  11   2.0000     -10.039989      -273.2020
  12   2.0000     -10.039707      -273.1943
  13   2.0000     -10.039096      -273.1777
  14   2.0000     -10.038333      -273.1569
  15   2.0000      -1.090634       -29.6777
  16   2.0000      -0.997984       -27.1565
  17   2.0000      -0.900925       -24.5154
  18   2.0000      -0.854552       -23.2535
  19   2.0000      -0.801120       -21.7996
  20   2.0000      -0.752595       -20.4792
  21   2.0000      -0.721971       -19.6458
  22   2.0000      -0.701546       -19.0900
  23   2.0000      -0.679179       -18.4814
  24   2.0000      -0.620882       -16.8951
  25   2.0000      -0.594499       -16.1771
  26   2.0000      -0.592927       -16.1344
  27   2.0000      -0.559318       -15.2198
  28   2.0000      -0.535373       -14.5682
  29   2.0000      -0.495410       -13.4808
  30   2.0000      -0.478185       -13.0121
  31   2.0000      -0.472086       -12.8461
  32   2.0000      -0.455703       -12.4003
  33   2.0000      -0.445185       -12.1141
  34   2.0000      -0.418886       -11.3985
  35   2.0000      -0.415818       -11.3150
  36   2.0000      -0.402378       -10.9493
  37   2.0000      -0.399592       -10.8735
  38   2.0000      -0.394690       -10.7401
  39   2.0000      -0.383626       -10.4390
  40   2.0000      -0.372923       -10.1477
  41   2.0000      -0.369316       -10.0496
  42   2.0000      -0.358034        -9.7426
  43   2.0000      -0.349482        -9.5099
  44   2.0000      -0.320865        -8.7312
  45   2.0000      -0.316938        -8.6243
  46   2.0000      -0.310440        -8.4475
  47   2.0000      -0.289748        -7.8845
  48   2.0000      -0.272343        -7.4108
  49   2.0000      -0.264255        -7.1907
  50   2.0000      -0.245260        -6.6739
  51   2.0000      -0.237790        -6.4706
  52   2.0000      -0.208994        -5.6870
  53   0.0000      -0.076033        -2.0690
  54   0.0000      -0.045783        -1.2458
  55   0.0000      -0.008964        -0.2439
  56   0.0000       0.015642         0.4256
  57   0.0000       0.054930         1.4947

MULLIKEN ATOMIC CHARGES
-----------------------
   0 C :   -0.409558
   1 N :   -0.194454
   2 C :    0.358702
   3 O :   -0.553554
   4 O :   -0.158732
   5 C :    0.169335
   6 C :   -0.176142
   7 C :   -0.175960
   8 C :   -0.267850
   9 C :    0.116079
  10 C :    0.023307
  11 C :   -0.274498
  12 C :   -0.183202
  13 C :   -0.169538
  14 C :   -0.229781
  15 H :    0.186726
  16 H :    0.172383
  17 H :    0.172115
  18 H :    0.301963
  19 H :    0.194787
  20 H :    0.184111
  21 H :    0.182325
  22 H :    0.189069
  23 H :    0.180297
  24 H :    0.180643
  25 H :    0.181427
Sum of atomic charges:    0.0000000

LOEWDIN ATOMIC CHARGES
----------------------
   0 C :   -0.103646
   1 N :   -0.592695
   2 C :    0.452868
   3 O :   -0.481004
   4 O :   -0.506094
   5 C :    0.191934
   6 C :   -0.122532
   7 C :   -0.157076
   8 C :   -0.144202
   9 C :   -0.064040
  10 C :   -0.030988
  11 C :   -0.137066
  12 C :   -0.161549
  13 C :   -0.164056
  14 C :   -0.143928
  15 H :    0.200896
  16 H :    0.182209
  17 H :    0.182146
  18 H :    0.294572
  19 H :    0.196324
  20 H :    0.183690
  21 H :    0.185496
  22 H :    0.192210
  23 H :    0.180962
  24 H :    0.180466
  25 H :    0.185106

  Mayer bond orders larger than 0.100000
B(  0-C ,  1-N ) :   0.8879 B(  0-C , 15-H ) :   0.9554 B(  0-C , 16-H ) :   0.9520
B(  0-C , 17-H ) :   0.9547 B(  1-N ,  2-C ) :   1.2175 B(  1-N , 18-H ) :   0.8968
B(  2-C ,  3-O ) :   1.8552 B(  2-C ,  4-O ) :   1.0617 B(  4-O ,  5-C ) :   0.8575
B(  5-C ,  6-C ) :   1.4918 B(  5-C , 10-C ) :   1.2747 B(  5-C , 11-C ) :  -0.1011
B(  6-C ,  7-C ) :   1.1995 B(  6-C , 19-H ) :   0.9382 B(  7-C ,  8-C ) :   1.4638
B(  7-C , 20-H ) :   0.9672 B(  8-C ,  9-C ) :   1.1792 B(  8-C , 21-H ) :   0.9555
B(  9-C , 10-C ) :   1.3416 B(  9-C , 14-C ) :   1.1888 B( 10-C , 11-C ) :   1.2377
B( 11-C , 12-C ) :   1.4625 B( 11-C , 22-H ) :   0.9685 B( 12-C , 13-C ) :   1.2332
B( 12-C , 23-H ) :   0.9623 B( 13-C , 14-C ) :   1.4760 B( 13-C , 24-H ) :   0.9591
B( 14-C , 25-H ) :   0.9569

Dispersion correction           -0.010959025
FINAL SINGLE POINT ENERGY      -668.989971531689

DIPOLE MOMENT
-------------

Method             : SCF
Type of density    : Electron Density
Multiplicity       :   1
Irrep              :   0
Energy             :  -668.9937240653003983 Eh
Relativity type    :
Basis              : AO
                                X                 Y                 Z
Electronic contribution:      1.961313032       1.037205289       4.899645810
Nuclear contribution   :     -0.456895876      -0.321985024      -7.428432681
                        -----------------------------------------
Total Dipole Moment    :      1.504417156       0.715220265      -2.528786871
                        -----------------------------------------
Magnitude (a.u.)       :      3.028130454
Magnitude (Debye)      :      7.696895931

Rotational constants in cm-1:             0.035338             0.014218             0.011800
Rotational constants in MHz :          1059.418050           426.232617           353.758801

                             ****ORCA TERMINATED NORMALLY****
TOTAL RUN TIME: 0 days 0 hours 0 minutes 57 seconds 72 msec
