                         Program Version 6.0.0  -   RELEASE  -
|  1> ! wb97x-v def2-tzvp def2/J RIJCOSX DEFGRID2 scfconv7 GCP(DFT/TZ) printgap
|  2> %output
|  3>     printlevel normal
|  4> end
|  5> * xyz 0 1
|  6> C -1.5197809965232616 -0.8362893719061291 0.7542038390713016
|  7> C -0.8082212361661686 0.13498817912614117 0.050559506135230275
|  8> C -1.4929478511881273 1.1439331151421666 -0.6246586181401094
|  9> C -2.880152069557712 1.171946065882859 -0.6028273399944866
| 10> C -3.611882437241496 0.2039907860371287 0.0920510090583716
| 11> C -2.905364585170919 -0.79621313212335 0.7706070629981392
| 12> Cl -3.7627951138999025 -2.0208355180194033 1.6673455786770224
| 13> Cl -5.34180280632413 0.2439941684304611 0.11774987033743887
| 14> Cl -3.7007882875370712 2.4439485032022783 -1.4664083846262046
| 15> C 0.6721427837886055 0.1497655664877275 0.05787220061765007
| 16> C 1.3181929377817614 1.300388251085202 0.507314358641291
| 17> C 2.7005059055005565 1.3756096109295506 0.5413119913037198
| 18> C 3.4833825320998564 0.29665614898436804 0.12551905795930818
| 19> C 2.848257302818559 -0.8620987371146901 -0.3402032990643686
| 20> C 1.4508276064341123 -0.9297248435307819 -0.37644877022732126
| 21> Cl 0.6851204322333123 -2.3489927965402635 -1.0310150728248741
| 22> Cl 3.8017855908629063 -2.2014324543085166 -0.8831337261691964
| 23> Cl 5.20952729816495 0.3890127932934562 0.17934613315476616
| 24> Cl 3.443515128709914 2.8373356648748653 1.1238389743608508
| 25> H -1.0017863876728454 -1.6100971294147357 1.3076357402009973
| 26> H -0.9483504046639025 1.9017559915308957 -1.1756915876338034
| 27> H 0.7263008271027841 2.1410160365517426 0.8502013022521102
| 28> *
| 29>
| 30>                          ****END OF INPUT****

CARTESIAN COORDINATES (ANGSTROEM)
---------------------------------
  C     -1.519781   -0.836289    0.754204
  C     -0.808221    0.134988    0.050560
  C     -1.492948    1.143933   -0.624659
  C     -2.880152    1.171946   -0.602827
  C     -3.611882    0.203991    0.092051
  C     -2.905365   -0.796213    0.770607
  Cl    -3.762795   -2.020836    1.667346
  Cl    -5.341803    0.243994    0.117750
  Cl    -3.700788    2.443949   -1.466408
  C      0.672143    0.149766    0.057872
  C      1.318193    1.300388    0.507314
  C      2.700506    1.375610    0.541312
  C      3.483383    0.296656    0.125519
  C      2.848257   -0.862099   -0.340203
  C      1.450828   -0.929725   -0.376449
  Cl     0.685120   -2.348993   -1.031015
  Cl     3.801786   -2.201432   -0.883134
  Cl     5.209527    0.389013    0.179346
  Cl     3.443515    2.837336    1.123839
  H     -1.001786   -1.610097    1.307636
  H     -0.948350    1.901756   -1.175692
  H      0.726301    2.141016    0.850201

 Total Charge           Charge          ....    0
 Multiplicity           Mult            ....    1
 Number of Electrons    NEL             ....  194
 Basis Dimension        Dim             ....  649

ORBITAL ENERGIES
----------------

  NO   OCC          E(Eh)            E(eV)
   0   2.0000    -107.171966     -2916.2975
   1   2.0000    -107.171792     -2916.2927
   2   2.0000    -107.171336     -2916.2803
   3   2.0000    -107.170404     -2916.2549
   4   2.0000    -107.166800     -2916.1569
   5   2.0000    -107.165799     -2916.1297
   6   2.0000    -107.164767     -2916.1016
   7   2.0000     -12.162160      -330.9492
   8   2.0000     -12.159769      -330.8841
   9   2.0000     -12.157116      -330.8119
  10   2.0000     -12.154830      -330.7497
  11   2.0000     -12.153222      -330.7060
  12   2.0000     -12.150861      -330.6417
  13   2.0000     -12.149558      -330.6063
  14   2.0000     -12.115734      -329.6859
  15   2.0000     -12.107593      -329.4644
  16   2.0000     -12.100947      -329.2835
  17   2.0000     -12.094713      -329.1139
  18   2.0000     -12.093685      -329.0859
  19   2.0000     -11.324976      -308.1683
  20   2.0000     -11.324828      -308.1642
  21   2.0000     -11.324464      -308.1543
  22   2.0000     -11.323446      -308.1266
  23   2.0000     -11.319784      -308.0270
  24   2.0000     -11.318851      -308.0016
  25   2.0000     -11.317819      -307.9735
  26   2.0000      -9.116955      -248.0850
  27   2.0000      -9.116664      -248.0770
  28   2.0000      -9.115837      -248.0545
  29   2.0000      -9.114951      -248.0304
  30   2.0000      -9.114289      -248.0124
  31   2.0000      -9.113788      -247.9988
  32   2.0000      -9.113608      -247.9939
  33   2.0000      -9.113430      -247.9890
  34   2.0000      -9.113321      -247.9861
  35   2.0000      -9.112792      -247.9717
  36   2.0000      -9.112219      -247.9561
  37   2.0000      -9.112094      -247.9527
  38   2.0000      -9.111629      -247.9400
  39   2.0000      -9.110464      -247.9083
  40   2.0000      -9.109303      -247.8767
  41   2.0000      -9.108775      -247.8624
  42   2.0000      -9.108587      -247.8573
  43   2.0000      -9.107665      -247.8322
  44   2.0000      -9.107454      -247.8264
  45   2.0000      -9.106634      -247.8041
  46   2.0000      -9.106504      -247.8006
  47   2.0000      -1.500401       -40.8280
  48   2.0000      -1.486742       -40.4563
  49   2.0000      -1.464275       -39.8449
  50   2.0000      -1.449285       -39.4371
  51   2.0000      -1.447142       -39.3787
  52   2.0000      -1.431967       -38.9658
  53   2.0000      -1.430461       -38.9248
  54   2.0000      -1.411454       -38.4076
  55   2.0000      -1.387283       -37.7499
  56   2.0000      -1.331021       -36.2189
  57   2.0000      -1.304823       -35.5060
  58   2.0000      -1.300851       -35.3979
  59   2.0000      -1.287184       -35.0261
  60   2.0000      -1.186411       -32.2839
  61   2.0000      -1.160622       -31.5821
  62   2.0000      -1.148719       -31.2582
  63   2.0000      -1.130575       -30.7645
  64   2.0000      -1.048434       -28.5293
  65   2.0000      -1.031149       -28.0590
  66   2.0000      -1.024292       -27.8724
  67   2.0000      -1.006249       -27.3814
  68   2.0000      -0.992277       -27.0012
  69   2.0000      -0.973465       -26.4893
  70   2.0000      -0.959006       -26.0959
  71   2.0000      -0.954571       -25.9752
  72   2.0000      -0.945788       -25.7362
  73   2.0000      -0.930647       -25.3242
  74   2.0000      -0.905500       -24.6399
  75   2.0000      -0.901350       -24.5270
  76   2.0000      -0.891796       -24.2670
  77   2.0000      -0.880361       -23.9558
  78   2.0000      -0.877567       -23.8798
  79   2.0000      -0.851058       -23.1585
  80   2.0000      -0.836533       -22.7632
  81   2.0000      -0.836135       -22.7524
  82   2.0000      -0.828457       -22.5435
  83   2.0000      -0.826032       -22.4775
  84   2.0000      -0.825540       -22.4641
  85   2.0000      -0.823183       -22.3999
  86   2.0000      -0.819434       -22.2979
  87   2.0000      -0.818173       -22.2636
  88   2.0000      -0.815403       -22.1883
  89   2.0000      -0.810414       -22.0525
  90   2.0000      -0.806365       -21.9423
  91   2.0000      -0.795076       -21.6351
  92   2.0000      -0.780727       -21.2447
  93   2.0000      -0.708469       -19.2784
  94   2.0000      -0.692425       -18.8418
  95   2.0000      -0.685822       -18.6622
  96   2.0000      -0.675528       -18.3821
  97   0.0000      -0.347630        -9.4595
  98   0.0000      -0.334919        -9.1136
  99   0.0000      -0.330694        -8.9986
 100   0.0000      -0.314465        -8.5570
 101   0.0000      -0.296909        -8.0793

MULLIKEN ATOMIC CHARGES
-----------------------
   0 C :   -0.313806
   1 C :    0.232626
   2 C :   -0.344048
   3 C :    0.134908
   4 C :   -0.020134
   5 C :    0.138160
   6 Cl:   -0.050276
   7 Cl:   -0.023909
   8 Cl:   -0.050584
   9 C :    0.148409
  10 C :   -0.305779
  11 C :    0.108565
  12 C :    0.006601
  13 C :    0.021375
  14 C :   -0.055202
  15 Cl:   -0.026373
  16 Cl:   -0.018512
  17 Cl:   -0.017843
  18 Cl:   -0.044549
  19 H :    0.157447
  20 H :    0.158962
  21 H :    0.163961
Sum of atomic charges:    0.0000000

LOEWDIN ATOMIC CHARGES
----------------------
   0 C :   -0.102284
   1 C :   -0.109296
   2 C :   -0.098827
   3 C :   -0.420004
   4 C :   -0.441589
   5 C :   -0.418387
   6 Cl:    0.413419
   7 Cl:    0.434645
   8 Cl:    0.413106
   9 C :   -0.104681
  10 C :   -0.094491
  11 C :   -0.426258
  12 C :   -0.442759
  13 C :   -0.437308
  14 C :   -0.387757
  15 Cl:    0.444868
  16 Cl:    0.439439
  17 Cl:    0.440816
  18 Cl:    0.419405
  19 H :    0.157264
  20 H :    0.158806
  21 H :    0.161872

  Mayer bond orders larger than 0.100000
B(  0-C ,  1-C ) :   1.3546 B(  0-C ,  5-C ) :   1.4245 B(  0-C , 19-H ) :   0.9550
B(  1-C ,  2-C ) :   1.3871 B(  1-C ,  9-C ) :   0.8197 B(  2-C ,  3-C ) :   1.4128
B(  2-C , 20-H ) :   0.9580 B(  3-C ,  4-C ) :   1.3109 B(  3-C ,  8-Cl) :   1.0802
B(  4-C ,  5-C ) :   1.3011 B(  4-C ,  7-Cl) :   1.2077 B(  5-C ,  6-Cl) :   1.0798
B(  9-C , 10-C ) :   1.3837 B(  9-C , 14-C ) :   1.3092 B( 10-C , 11-C ) :   1.4048
B( 10-C , 21-H ) :   0.9564 B( 11-C , 12-C ) :   1.3213 B( 11-C , 18-Cl) :   1.0847
B( 12-C , 13-C ) :   1.3160 B( 12-C , 17-Cl) :   1.2169 B( 13-C , 14-C ) :   1.3420
B( 13-C , 16-Cl) :   1.2126 B( 14-C , 15-Cl) :   1.2334

FINAL SINGLE POINT ENERGY     -3680.130195452172

DIPOLE MOMENT
-------------

Method             : SCF
Type of density    : Electron Density
Multiplicity       :   1
Irrep              :   0
Energy             : -3680.1411947405717910 Eh
Relativity type    :
Basis              : AO
                                X                 Y                 Z
Electronic contribution:      1.814553278      -3.063019786      -1.237917513
Nuclear contribution   :     -1.569277159       3.287618418       1.348713767
                        -----------------------------------------
Total Dipole Moment    :      0.245276119       0.224598632       0.110796254
                        -----------------------------------------
Magnitude (a.u.)       :      0.350543478
Magnitude (Debye)      :      0.891010711

Rotational constants in cm-1:             0.011520             0.003345             0.002879
Rotational constants in MHz :           345.360481           100.293126            86.296223

                             ****ORCA TERMINATED NORMALLY****
TOTAL RUN TIME: 0 days 0 hours 12 minutes 18 seconds 792 msec
