                         Program Version 6.0.0  -   RELEASE  -
|  1> ! wb97x-v def2-tzvp def2/J RIJCOSX DEFGRID2 scfconv7 GCP(DFT/TZ) printgap
|  2> %output
|  3>     printlevel normal
|  4> end
|  5> %cpcm
|  6>     smd true
|  7>     smdsolvent "water"
|  8> end
|  9> * xyz 0 1
| 10> C -1.5197809965232616 -0.8362893719061291 0.7542038390713016
| 11> C -0.8082212361661686 0.13498817912614117 0.050559506135230275
| 12> C -1.4929478511881273 1.1439331151421666 -0.6246586181401094
| 13> C -2.880152069557712 1.171946065882859 -0.6028273399944866
| 14> C -3.611882437241496 0.2039907860371287 0.0920510090583716
| 15> C -2.905364585170919 -0.79621313212335 0.7706070629981392
| 16> Cl -3.7627951138999025 -2.0208355180194033 1.6673455786770224
| 17> Cl -5.34180280632413 0.2439941684304611 0.11774987033743887
| 18> Cl -3.7007882875370712 2.4439485032022783 -1.4664083846262046
| 19> C 0.6721427837886055 0.1497655664877275 0.05787220061765007
| 20> C 1.3181929377817614 1.300388251085202 0.507314358641291
| 21> C 2.7005059055005565 1.3756096109295506 0.5413119913037198
| 22> C 3.4833825320998564 0.29665614898436804 0.12551905795930818
| 23> C 2.848257302818559 -0.8620987371146901 -0.3402032990643686
| 24> C 1.4508276064341123 -0.9297248435307819 -0.37644877022732126
| 25> Cl 0.6851204322333123 -2.3489927965402635 -1.0310150728248741
| 26> Cl 3.8017855908629063 -2.2014324543085166 -0.8831337261691964
| 27> Cl 5.20952729816495 0.3890127932934562 0.17934613315476616
| 28> Cl 3.443515128709914 2.8373356648748653 1.1238389743608508
| 29> H -1.0017863876728454 -1.6100971294147357 1.3076357402009973
| 30> H -0.9483504046639025 1.9017559915308957 -1.1756915876338034
| 31> H 0.7263008271027841 2.1410160365517426 0.8502013022521102
| 32> *
| 33>
| 34>                          ****END OF INPUT****

CARTESIAN COORDINATES (ANGSTROEM)
---------------------------------
  C     -1.519781   -0.836289    0.754204
  C     -0.808221    0.134988    0.050560
  C     -1.492948    1.143933   -0.624659
  C     -2.880152    1.171946   -0.602827
  C     -3.611882    0.203991    0.092051
  C     -2.905365   -0.796213    0.770607
  Cl    -3.762795   -2.020836    1.667346
  Cl    -5.341803    0.243994    0.117750
  Cl    -3.700788    2.443949   -1.466408
  C      0.672143    0.149766    0.057872
  C      1.318193    1.300388    0.507314
  C      2.700506    1.375610    0.541312
  C      3.483383    0.296656    0.125519
  C      2.848257   -0.862099   -0.340203
  C      1.450828   -0.929725   -0.376449
  Cl     0.685120   -2.348993   -1.031015
  Cl     3.801786   -2.201432   -0.883134
  Cl     5.209527    0.389013    0.179346
  Cl     3.443515    2.837336    1.123839
  H     -1.001786   -1.610097    1.307636
  H     -0.948350    1.901756   -1.175692
  H      0.726301    2.141016    0.850201

 Total Charge           Charge          ....    0
 Multiplicity           Mult            ....    1
 Number of Electrons    NEL             ....  194
 Basis Dimension        Dim             ....  649

ORBITAL ENERGIES
----------------

  NO   OCC          E(Eh)            E(eV)
   0   2.0000    -107.167135     -2916.1660
   1   2.0000    -107.166663     -2916.1531
   2   2.0000    -107.164519     -2916.0948
   3   2.0000    -107.163588     -2916.0695
   4   2.0000    -107.162811     -2916.0483
   5   2.0000    -107.160445     -2915.9840
   6   2.0000    -107.160284     -2915.9796
   7   2.0000     -12.151558      -330.6607
   8   2.0000     -12.149289      -330.5990
   9   2.0000     -12.145901      -330.5068
  10   2.0000     -12.144426      -330.4666
  11   2.0000     -12.142592      -330.4167
  12   2.0000     -12.140272      -330.3536
  13   2.0000     -12.139330      -330.3280
  14   2.0000     -12.101788      -329.3064
  15   2.0000     -12.093774      -329.0883
  16   2.0000     -12.084448      -328.8346
  17   2.0000     -12.080210      -328.7192
  18   2.0000     -12.079629      -328.7034
  19   2.0000     -11.320201      -308.0383
  20   2.0000     -11.319757      -308.0262
  21   2.0000     -11.317575      -307.9669
  22   2.0000     -11.316760      -307.9447
  23   2.0000     -11.315902      -307.9213
  24   2.0000     -11.313560      -307.8576
  25   2.0000     -11.313401      -307.8533
  26   2.0000      -9.112077      -247.9522
  27   2.0000      -9.111327      -247.9318
  28   2.0000      -9.109348      -247.8779
  29   2.0000      -9.109322      -247.8773
  30   2.0000      -9.109030      -247.8693
  31   2.0000      -9.108580      -247.8571
  32   2.0000      -9.108384      -247.8517
  33   2.0000      -9.108243      -247.8479
  34   2.0000      -9.107462      -247.8266
  35   2.0000      -9.106441      -247.7988
  36   2.0000      -9.106415      -247.7981
  37   2.0000      -9.105659      -247.7776
  38   2.0000      -9.105449      -247.7719
  39   2.0000      -9.105331      -247.7687
  40   2.0000      -9.104779      -247.7536
  41   2.0000      -9.104713      -247.7518
  42   2.0000      -9.104674      -247.7508
  43   2.0000      -9.102415      -247.6893
  44   2.0000      -9.102348      -247.6875
  45   2.0000      -9.102257      -247.6850
  46   2.0000      -9.102182      -247.6830
  47   2.0000      -1.491077       -40.5743
  48   2.0000      -1.479533       -40.2601
  49   2.0000      -1.456201       -39.6252
  50   2.0000      -1.441415       -39.2229
  51   2.0000      -1.441123       -39.2150
  52   2.0000      -1.426816       -38.8256
  53   2.0000      -1.425218       -38.7822
  54   2.0000      -1.400809       -38.1180
  55   2.0000      -1.377066       -37.4719
  56   2.0000      -1.320864       -35.9425
  57   2.0000      -1.293123       -35.1877
  58   2.0000      -1.289061       -35.0771
  59   2.0000      -1.276427       -34.7334
  60   2.0000      -1.174676       -31.9646
  61   2.0000      -1.148767       -31.2595
  62   2.0000      -1.137409       -30.9505
  63   2.0000      -1.119229       -30.4558
  64   2.0000      -1.036244       -28.1976
  65   2.0000      -1.020469       -27.7684
  66   2.0000      -1.012398       -27.5487
  67   2.0000      -0.997187       -27.1348
  68   2.0000      -0.983714       -26.7682
  69   2.0000      -0.964977       -26.2584
  70   2.0000      -0.950201       -25.8563
  71   2.0000      -0.944112       -25.6906
  72   2.0000      -0.937208       -25.5027
  73   2.0000      -0.920219       -25.0404
  74   2.0000      -0.893248       -24.3065
  75   2.0000      -0.886226       -24.1154
  76   2.0000      -0.882039       -24.0015
  77   2.0000      -0.870562       -23.6892
  78   2.0000      -0.865662       -23.5559
  79   2.0000      -0.843422       -22.9507
  80   2.0000      -0.831163       -22.6171
  81   2.0000      -0.829743       -22.5784
  82   2.0000      -0.823085       -22.3973
  83   2.0000      -0.820943       -22.3390
  84   2.0000      -0.820534       -22.3279
  85   2.0000      -0.818862       -22.2824
  86   2.0000      -0.815881       -22.2012
  87   2.0000      -0.811134       -22.0721
  88   2.0000      -0.810521       -22.0554
  89   2.0000      -0.804907       -21.9026
  90   2.0000      -0.802805       -21.8454
  91   2.0000      -0.785128       -21.3644
  92   2.0000      -0.771508       -20.9938
  93   2.0000      -0.697902       -18.9909
  94   2.0000      -0.680543       -18.5185
  95   2.0000      -0.674595       -18.3567
  96   2.0000      -0.663963       -18.0674
  97   0.0000      -0.339099        -9.2274
  98   0.0000      -0.323913        -8.8141
  99   0.0000      -0.322741        -8.7822
 100   0.0000      -0.300938        -8.1889
 101   0.0000      -0.285731        -7.7751

MULLIKEN ATOMIC CHARGES
-----------------------
   0 C :   -0.328466
   1 C :    0.203206
   2 C :   -0.336598
   3 C :    0.139326
   4 C :   -0.006751
   5 C :    0.143517
   6 Cl:   -0.071099
   7 Cl:   -0.047866
   8 Cl:   -0.070451
   9 C :    0.170273
  10 C :   -0.301110
  11 C :    0.114271
  12 C :    0.020655
  13 C :    0.027000
  14 C :   -0.037028
  15 Cl:   -0.048195
  16 Cl:   -0.040709
  17 Cl:   -0.040083
  18 Cl:   -0.062913
  19 H :    0.190407
  20 H :    0.189556
  21 H :    0.193058
Sum of atomic charges:    0.0000000

LOEWDIN ATOMIC CHARGES
----------------------
   0 C :   -0.094032
   1 C :   -0.103160
   2 C :   -0.081579
   3 C :   -0.421643
   4 C :   -0.443690
   5 C :   -0.421615
   6 Cl:    0.397987
   7 Cl:    0.417723
   8 Cl:    0.398637
   9 C :   -0.093101
  10 C :   -0.074706
  11 C :   -0.424099
  12 C :   -0.441483
  13 C :   -0.436374
  14 C :   -0.381470
  15 Cl:    0.433506
  16 Cl:    0.424315
  17 Cl:    0.425899
  18 Cl:    0.406702
  19 H :    0.167065
  20 H :    0.170971
  21 H :    0.174147

  Mayer bond orders larger than 0.100000
B(  0-C ,  1-C ) :   1.3528 B(  0-C ,  5-C ) :   1.4055 B(  0-C , 19-H ) :   0.9535
B(  1-C ,  2-C ) :   1.3992 B(  1-C ,  9-C ) :   0.8171 B(  2-C ,  3-C ) :   1.3908
B(  2-C , 20-H ) :   0.9582 B(  3-C ,  4-C ) :   1.3081 B(  3-C ,  8-Cl) :   1.0688
B(  4-C ,  5-C ) :   1.3028 B(  4-C ,  7-Cl) :   1.1764 B(  5-C ,  6-Cl) :   1.0658
B(  9-C , 10-C ) :   1.3975 B(  9-C , 14-C ) :   1.3020 B( 10-C , 11-C ) :   1.3851
B( 10-C , 21-H ) :   0.9549 B( 11-C , 12-C ) :   1.3198 B( 11-C , 18-Cl) :   1.0759
B( 12-C , 13-C ) :   1.3225 B( 12-C , 17-Cl) :   1.1852 B( 13-C , 14-C ) :   1.3486
B( 13-C , 16-Cl) :   1.1824 B( 14-C , 15-Cl) :   1.1883

FINAL SINGLE POINT ENERGY     -3680.131570373722

DIPOLE MOMENT
-------------

Method             : SCF
Type of density    : Electron Density
Multiplicity       :   1
Irrep              :   0
Energy             : -3680.1425696621222414 Eh
Relativity type    :
Basis              : AO
                                X                 Y                 Z
Electronic contribution:      1.916468399      -2.813555751      -1.144127920
Nuclear contribution   :     -1.569277159       3.287618418       1.348713767
                        -----------------------------------------
Total Dipole Moment    :      0.347191240       0.474062668       0.204585847
                        -----------------------------------------
Magnitude (a.u.)       :      0.622199758
Magnitude (Debye)      :      1.581506101

Rotational constants in cm-1:             0.011520             0.003345             0.002879
Rotational constants in MHz :           345.360481           100.293126            86.296223

                             ****ORCA TERMINATED NORMALLY****
TOTAL RUN TIME: 0 days 0 hours 13 minutes 14 seconds 880 msec
