                         Program Version 6.0.0  -   RELEASE  -
|  1> ! pbe def2-sv(p) def2/J RI DEFGRID1 loosescf d4 GCP(DFT/SV(P)) printgap
|  2> %output
|  3>     printlevel normal
|  4> end
|  5> * xyz 0 1
|  6> C -2.0942711204 -1.0398732518 -0.2008901648
|  7> C -1.1029021817 -0.4247408695 0.8110533475
|  8> H -1.5924897963 -0.4462643258 1.7916246705
|  9> C -0.7650608837 1.050284392 0.5111173887
| 10> H -1.6490447672 1.499535973 0.0442757363
| 11> C 0.4526266948 1.255889 -0.4184205403
| 12> H 0.810204753 2.2821742351 -0.2270327954
| 13> C 1.596401627 0.3093613028 -0.0289420288
| 14> H 2.3395523099 0.3377202529 -0.8366611794
| 15> C 1.0968481606 -1.1410328963 0.1010171231
| 16> H 1.8935231622 -1.7448583188 0.5627553884
| 17> O 0.0431790672 -1.251873087 1.0194399562
| 18> O 0.7756733494 -1.6278917424 -1.1647766967
| 19> O 2.1192070093 0.7674368234 1.1920335195
| 20> O 0.1996531929 1.0757133396 -1.7835345045
| 21> O -0.5658359493 1.7682533805 1.7074458892
| 22> O -1.8976116397 -0.6818202194 -1.5419520215
| 23> H -3.09996846 -0.6946178071 0.0492023614
| 24> H -2.0590274834 -2.1314130244 -0.0762255693
| 25> H 0.6687403288 -2.5912197523 -1.1345875857
| 26> H 2.9286479811 0.2866393452 1.416001036
| 27> H -0.5352629423 1.6415319596 -2.0599140555
| 28> H 0.2870945876 1.5035410648 2.0891380271
| 29> H -0.9668318034 -0.8514181963 -1.7838571865
| 30> *
| 31>
| 32>                          ****END OF INPUT****

CARTESIAN COORDINATES (ANGSTROEM)
---------------------------------
  C     -2.094271   -1.039873   -0.200890
  C     -1.102902   -0.424741    0.811053
  H     -1.592490   -0.446264    1.791625
  C     -0.765061    1.050284    0.511117
  H     -1.649045    1.499536    0.044276
  C      0.452627    1.255889   -0.418421
  H      0.810205    2.282174   -0.227033
  C      1.596402    0.309361   -0.028942
  H      2.339552    0.337720   -0.836661
  C      1.096848   -1.141033    0.101017
  H      1.893523   -1.744858    0.562755
  O      0.043179   -1.251873    1.019440
  O      0.775673   -1.627892   -1.164777
  O      2.119207    0.767437    1.192034
  O      0.199653    1.075713   -1.783535
  O     -0.565836    1.768253    1.707446
  O     -1.897612   -0.681820   -1.541952
  H     -3.099968   -0.694618    0.049202
  H     -2.059027   -2.131413   -0.076226
  H      0.668740   -2.591220   -1.134588
  H      2.928648    0.286639    1.416001
  H     -0.535263    1.641532   -2.059914
  H      0.287095    1.503541    2.089138
  H     -0.966832   -0.851418   -1.783857

 Total Charge           Charge          ....    0
 Multiplicity           Mult            ....    1
 Number of Electrons    NEL             ....   96
 Basis Dimension        Dim             ....  192

ORBITAL ENERGIES
----------------

  NO   OCC          E(Eh)            E(eV)
   0   2.0000     -18.783572      -511.1270
   1   2.0000     -18.778944      -511.0011
   2   2.0000     -18.765855      -510.6449
   3   2.0000     -18.755765      -510.3703
   4   2.0000     -18.735571      -509.8208
   5   2.0000     -18.724327      -509.5148
   6   2.0000      -9.996609      -272.0216
   7   2.0000      -9.953795      -270.8565
   8   2.0000      -9.945278      -270.6248
   9   2.0000      -9.938298      -270.4348
  10   2.0000      -9.935095      -270.3477
  11   2.0000      -9.921159      -269.9685
  12   2.0000      -0.990113       -26.9424
  13   2.0000      -0.953956       -25.9585
  14   2.0000      -0.935090       -25.4451
  15   2.0000      -0.924805       -25.1652
  16   2.0000      -0.910529       -24.7768
  17   2.0000      -0.900545       -24.5051
  18   2.0000      -0.700319       -19.0566
  19   2.0000      -0.691958       -18.8291
  20   2.0000      -0.614330       -16.7168
  21   2.0000      -0.596948       -16.2438
  22   2.0000      -0.565484       -15.3876
  23   2.0000      -0.537072       -14.6145
  24   2.0000      -0.498562       -13.5666
  25   2.0000      -0.484375       -13.1805
  26   2.0000      -0.471025       -12.8172
  27   2.0000      -0.460304       -12.5255
  28   2.0000      -0.446470       -12.1491
  29   2.0000      -0.429290       -11.6816
  30   2.0000      -0.420553       -11.4438
  31   2.0000      -0.399170       -10.8620
  32   2.0000      -0.384798       -10.4709
  33   2.0000      -0.367976       -10.0131
  34   2.0000      -0.357627        -9.7315
  35   2.0000      -0.349032        -9.4976
  36   2.0000      -0.337116        -9.1734
  37   2.0000      -0.316375        -8.6090
  38   2.0000      -0.309183        -8.4133
  39   2.0000      -0.293732        -7.9929
  40   2.0000      -0.280933        -7.6446
  41   2.0000      -0.273500        -7.4423
  42   2.0000      -0.252224        -6.8634
  43   2.0000      -0.238049        -6.4776
  44   2.0000      -0.235660        -6.4126
  45   2.0000      -0.231918        -6.3108
  46   2.0000      -0.205059        -5.5799
  47   2.0000      -0.190471        -5.1830
  48   0.0000       0.002224         0.0605
  49   0.0000       0.007078         0.1926
  50   0.0000       0.034901         0.9497
  51   0.0000       0.059132         1.6091
  52   0.0000       0.069219         1.8835

MULLIKEN ATOMIC CHARGES
-----------------------
   0 C :    0.037109
   1 C :    0.027299
   2 H :    0.075400
   3 C :    0.065668
   4 H :    0.068675
   5 C :    0.023187
   6 H :    0.079181
   7 C :    0.048688
   8 H :    0.084060
   9 C :    0.168732
  10 H :    0.050973
  11 O :   -0.310422
  12 O :   -0.389390
  13 O :   -0.419084
  14 O :   -0.401920
  15 O :   -0.433687
  16 O :   -0.463784
  17 H :    0.080619
  18 H :    0.060303
  19 H :    0.314252
  20 H :    0.311032
  21 H :    0.308395
  22 H :    0.303350
  23 H :    0.311364
Sum of atomic charges:   -0.0000000

LOEWDIN ATOMIC CHARGES
----------------------
   0 C :   -0.137933
   1 C :   -0.078481
   2 H :    0.123979
   3 C :   -0.069590
   4 H :    0.117973
   5 C :   -0.073011
   6 H :    0.107510
   7 C :   -0.076456
   8 H :    0.114474
   9 C :   -0.014398
  10 H :    0.092885
  11 O :   -0.148730
  12 O :   -0.293056
  13 O :   -0.304763
  14 O :   -0.300684
  15 O :   -0.322546
  16 O :   -0.353390
  17 H :    0.113856
  18 H :    0.090641
  19 H :    0.293526
  20 H :    0.293425
  21 H :    0.288674
  22 H :    0.275720
  23 H :    0.260377

  Mayer bond orders larger than 0.100000
B(  0-C ,  1-C ) :   1.0338 B(  0-C , 16-O ) :   1.1145 B(  0-C , 17-H ) :   0.9163
B(  0-C , 18-H ) :   0.9116 B(  1-C ,  2-H ) :   0.8861 B(  1-C ,  3-C ) :   0.9803
B(  1-C , 11-O ) :   0.9813 B(  3-C ,  4-H ) :   0.8902 B(  3-C ,  5-C ) :   0.9735
B(  3-C , 15-O ) :   1.0422 B(  5-C ,  6-H ) :   0.8999 B(  5-C ,  7-C ) :   1.0031
B(  5-C , 14-O ) :   1.0883 B(  7-C ,  8-H ) :   0.8896 B(  7-C ,  9-C ) :   0.9828
B(  7-C , 13-O ) :   1.0395 B(  9-C , 10-H ) :   0.9032 B(  9-C , 11-O ) :   1.0886
B(  9-C , 12-O ) :   1.1025 B( 12-O , 19-H ) :   0.8306 B( 13-O , 20-H ) :   0.8414
B( 14-O , 21-H ) :   0.8345 B( 15-O , 22-H ) :   0.8248 B( 16-O , 23-H ) :   0.7826

Dispersion correction           -0.026570997
FINAL SINGLE POINT ENERGY      -685.696345365288

DIPOLE MOMENT
-------------

Method             : SCF
Type of density    : Electron Density
Multiplicity       :   1
Irrep              :   0
Energy             :  -685.8294375827892964 Eh
Relativity type    :
Basis              : AO
                                X                 Y                 Z
Electronic contribution:      2.038688086       0.161387849       0.285165087
Nuclear contribution   :     -0.904597626      -0.851728923      -0.163526007
                        -----------------------------------------
Total Dipole Moment    :      1.134090460      -0.690341074       0.121639080
                        -----------------------------------------
Magnitude (a.u.)       :      1.333239677
Magnitude (Debye)      :      3.388825943

Rotational constants in cm-1:             0.039771             0.031448             0.027937
Rotational constants in MHz :          1192.317646           942.794069           837.544645

                             ****ORCA TERMINATED NORMALLY****
TOTAL RUN TIME: 0 days 0 hours 0 minutes 12 seconds 547 msec
