                         Program Version 6.0.0  -   RELEASE  -
|  1> ! wb97x-v def2-tzvp def2/J RIJCOSX DEFGRID2 scfconv7 GCP(DFT/TZ) printgap
|  2> %output
|  3>     printlevel normal
|  4> end
|  5> * xyz 0 1
|  6> C -1.651788221761672 -0.9783765974551691 -0.8335405641613869
|  7> C -0.9090492870611511 0.011301158728826914 0.008123363811214123
|  8> O -1.5157926517904636 0.8205766443449084 0.705366524049951
|  9> C 0.6256495443973026 0.01855220142903315 0.005877596865989812
| 10> C 1.0804158059217628 -0.27243868619621264 1.4471591481706427
| 11> C 1.0814978499222685 1.4282895135684166 -0.40737860262921466
| 12> C 1.2396987135313542 -1.0143083830224398 -0.9418109081302946
| 13> H -1.3786244398106087 -0.8534526999093137 -1.887368524259122
| 14> H -1.3606542475247487 -1.9980455858721002 -0.5580972628580437
| 15> H -2.727870144427275 -0.8504006984371519 -0.7090735948660424
| 16> H 0.7438844051779507 -1.2617791107765324 1.7757471923728434
| 17> H 2.174136485667583 -0.25212953140405886 1.4924993378061342
| 18> H 0.6902163913787187 0.4766225081748387 2.14148049233955
| 19> H 2.175094968611518 1.47543271718487 -0.39027022240423503
| 20> H 0.6905634816921106 2.1851726471439332 0.2776218363302973
| 21> H 0.7451422239420609 1.6680822887345885 -1.4218741246402813
| 22> H 2.3309272965332135 -0.9480201706894535 -0.8824127332761019
| 23> H 0.951504589075766 -0.8331204683844619 -1.9817904585090076
| 24> H 0.9538185804791395 -2.0358671894231937 -0.6738247072034494
| 25> *
| 26>
| 27>                          ****END OF INPUT****

CARTESIAN COORDINATES (ANGSTROEM)
---------------------------------
  C     -1.651788   -0.978377   -0.833541
  C     -0.909049    0.011301    0.008123
  O     -1.515793    0.820577    0.705367
  C      0.625650    0.018552    0.005878
  C      1.080416   -0.272439    1.447159
  C      1.081498    1.428290   -0.407379
  C      1.239699   -1.014308   -0.941811
  H     -1.378624   -0.853453   -1.887369
  H     -1.360654   -1.998046   -0.558097
  H     -2.727870   -0.850401   -0.709074
  H      0.743884   -1.261779    1.775747
  H      2.174136   -0.252130    1.492499
  H      0.690216    0.476623    2.141480
  H      2.175095    1.475433   -0.390270
  H      0.690563    2.185173    0.277622
  H      0.745142    1.668082   -1.421874
  H      2.330927   -0.948020   -0.882413
  H      0.951505   -0.833120   -1.981790
  H      0.953819   -2.035867   -0.673825

 Total Charge           Charge          ....    0
 Multiplicity           Mult            ....    1
 Number of Electrons    NEL             ....   56
 Basis Dimension        Dim             ....  289

ORBITAL ENERGIES
----------------

  NO   OCC          E(Eh)            E(eV)
   0   2.0000     -21.656081      -589.2919
   1   2.0000     -12.135271      -330.2175
   2   2.0000     -12.070135      -328.4451
   3   2.0000     -12.052325      -327.9604
   4   2.0000     -12.045779      -327.7823
   5   2.0000     -12.041086      -327.6546
   6   2.0000     -12.040001      -327.6251
   7   2.0000      -1.700068       -46.2612
   8   2.0000      -1.342337       -36.5269
   9   2.0000      -1.256035       -34.1784
  10   2.0000      -1.189072       -32.3563
  11   2.0000      -1.184301       -32.2265
  12   2.0000      -1.116642       -30.3854
  13   2.0000      -1.047670       -28.5085
  14   2.0000      -0.961491       -26.1635
  15   2.0000      -0.952694       -25.9241
  16   2.0000      -0.912435       -24.8286
  17   2.0000      -0.873644       -23.7731
  18   2.0000      -0.872203       -23.7339
  19   2.0000      -0.850619       -23.1465
  20   2.0000      -0.840822       -22.8799
  21   2.0000      -0.832409       -22.6510
  22   2.0000      -0.817987       -22.2586
  23   2.0000      -0.817479       -22.2447
  24   2.0000      -0.803960       -21.8769
  25   2.0000      -0.782777       -21.3004
  26   2.0000      -0.780834       -21.2476
  27   2.0000      -0.762292       -20.7430
  28   0.0000      -0.309207        -8.4140
  29   0.0000      -0.063302        -1.7225
  30   0.0000      -0.044063        -1.1990
  31   0.0000      -0.037330        -1.0158
  32   0.0000      -0.017389        -0.4732

MULLIKEN ATOMIC CHARGES
-----------------------
   0 C :   -0.335601
   1 C :    0.182318
   2 O :   -0.315508
   3 C :    0.090805
   4 C :   -0.365064
   5 C :   -0.363767
   6 C :   -0.359869
   7 H :    0.124212
   8 H :    0.124694
   9 H :    0.141346
  10 H :    0.109597
  11 H :    0.112740
  12 H :    0.140949
  13 H :    0.112077
  14 H :    0.141106
  15 H :    0.109549
  16 H :    0.120798
  17 H :    0.115644
  18 H :    0.113975
Sum of atomic charges:    0.0000000

LOEWDIN ATOMIC CHARGES
----------------------
   0 C :   -0.255980
   1 C :   -0.291115
   2 O :    0.110746
   3 C :   -0.329009
   4 C :   -0.245513
   5 C :   -0.246055
   6 C :   -0.256660
   7 H :    0.135485
   8 H :    0.135154
   9 H :    0.130925
  10 H :    0.121394
  11 H :    0.122312
  12 H :    0.129262
  13 H :    0.122024
  14 H :    0.129167
  15 H :    0.121536
  16 H :    0.125633
  17 H :    0.120457
  18 H :    0.120236

  Mayer bond orders larger than 0.100000
B(  0-C ,  1-C ) :   0.9682 B(  0-C ,  7-H ) :   0.9531 B(  0-C ,  8-H ) :   0.9553
B(  0-C ,  9-H ) :   0.9811 B(  1-C ,  2-O ) :   2.1429 B(  1-C ,  3-C ) :   0.8799
B(  3-C ,  4-C ) :   0.9734 B(  3-C ,  5-C ) :   0.9760 B(  3-C ,  6-C ) :   0.9636
B(  4-C , 10-H ) :   0.9725 B(  4-C , 11-H ) :   0.9777 B(  4-C , 12-H ) :   0.9741
B(  5-C , 13-H ) :   0.9777 B(  5-C , 14-H ) :   0.9733 B(  5-C , 15-H ) :   0.9734
B(  6-C , 16-H ) :   0.9735 B(  6-C , 17-H ) :   0.9803 B(  6-C , 18-H ) :   0.9769

FINAL SINGLE POINT ENERGY      -311.108883870077

DIPOLE MOMENT
-------------

Method             : SCF
Type of density    : Electron Density
Multiplicity       :   1
Irrep              :   0
Energy             :  -311.1221400023771366 Eh
Relativity type    :
Basis              : AO
                                X                 Y                 Z
Electronic contribution:     -5.049977162       2.310987036       1.987385800
Nuclear contribution   :      5.663256210      -3.036366165      -2.607819883
                        -----------------------------------------
Total Dipole Moment    :      0.613279048      -0.725379128      -0.620434083
                        -----------------------------------------
Magnitude (a.u.)       :      1.134559175
Magnitude (Debye)      :      2.883820241

Rotational constants in cm-1:             0.106512             0.077040             0.064154
Rotational constants in MHz :          3193.144306          2309.611113          1923.295091

                             ****ORCA TERMINATED NORMALLY****
TOTAL RUN TIME: 0 days 0 hours 2 minutes 22 seconds 653 msec
