                         Program Version 6.0.0  -   RELEASE  -
|  1> ! wb97x-v def2-tzvp def2/J RIJCOSX DEFGRID2 scfconv7 GCP(DFT/TZ) printgap
|  2> %output
|  3>     printlevel normal
|  4> end
|  5> %cpcm
|  6>     smd true
|  7>     smdsolvent "water"
|  8> end
|  9> * xyz 0 1
| 10> C -1.651788221761672 -0.9783765974551691 -0.8335405641613869
| 11> C -0.9090492870611511 0.011301158728826914 0.008123363811214123
| 12> O -1.5157926517904636 0.8205766443449084 0.705366524049951
| 13> C 0.6256495443973026 0.01855220142903315 0.005877596865989812
| 14> C 1.0804158059217628 -0.27243868619621264 1.4471591481706427
| 15> C 1.0814978499222685 1.4282895135684166 -0.40737860262921466
| 16> C 1.2396987135313542 -1.0143083830224398 -0.9418109081302946
| 17> H -1.3786244398106087 -0.8534526999093137 -1.887368524259122
| 18> H -1.3606542475247487 -1.9980455858721002 -0.5580972628580437
| 19> H -2.727870144427275 -0.8504006984371519 -0.7090735948660424
| 20> H 0.7438844051779507 -1.2617791107765324 1.7757471923728434
| 21> H 2.174136485667583 -0.25212953140405886 1.4924993378061342
| 22> H 0.6902163913787187 0.4766225081748387 2.14148049233955
| 23> H 2.175094968611518 1.47543271718487 -0.39027022240423503
| 24> H 0.6905634816921106 2.1851726471439332 0.2776218363302973
| 25> H 0.7451422239420609 1.6680822887345885 -1.4218741246402813
| 26> H 2.3309272965332135 -0.9480201706894535 -0.8824127332761019
| 27> H 0.951504589075766 -0.8331204683844619 -1.9817904585090076
| 28> H 0.9538185804791395 -2.0358671894231937 -0.6738247072034494
| 29> *
| 30>
| 31>                          ****END OF INPUT****

CARTESIAN COORDINATES (ANGSTROEM)
---------------------------------
  C     -1.651788   -0.978377   -0.833541
  C     -0.909049    0.011301    0.008123
  O     -1.515793    0.820577    0.705367
  C      0.625650    0.018552    0.005878
  C      1.080416   -0.272439    1.447159
  C      1.081498    1.428290   -0.407379
  C      1.239699   -1.014308   -0.941811
  H     -1.378624   -0.853453   -1.887369
  H     -1.360654   -1.998046   -0.558097
  H     -2.727870   -0.850401   -0.709074
  H      0.743884   -1.261779    1.775747
  H      2.174136   -0.252130    1.492499
  H      0.690216    0.476623    2.141480
  H      2.175095    1.475433   -0.390270
  H      0.690563    2.185173    0.277622
  H      0.745142    1.668082   -1.421874
  H      2.330927   -0.948020   -0.882413
  H      0.951505   -0.833120   -1.981790
  H      0.953819   -2.035867   -0.673825

 Total Charge           Charge          ....    0
 Multiplicity           Mult            ....    1
 Number of Electrons    NEL             ....   56
 Basis Dimension        Dim             ....  289

ORBITAL ENERGIES
----------------

  NO   OCC          E(Eh)            E(eV)
   0   2.0000     -21.665908      -589.5593
   1   2.0000     -12.141706      -330.3926
   2   2.0000     -12.062096      -328.2263
   3   2.0000     -12.038855      -327.5939
   4   2.0000     -12.030908      -327.3776
   5   2.0000     -12.030234      -327.3593
   6   2.0000     -12.027529      -327.2857
   7   2.0000      -1.713234       -46.6195
   8   2.0000      -1.333251       -36.2796
   9   2.0000      -1.247650       -33.9503
  10   2.0000      -1.174861       -31.9696
  11   2.0000      -1.174552       -31.9612
  12   2.0000      -1.117305       -30.4034
  13   2.0000      -1.052736       -28.6464
  14   2.0000      -0.964120       -26.2350
  15   2.0000      -0.944335       -25.6967
  16   2.0000      -0.921592       -25.0778
  17   2.0000      -0.863605       -23.4999
  18   2.0000      -0.863557       -23.4986
  19   2.0000      -0.845348       -23.0031
  20   2.0000      -0.829386       -22.5687
  21   2.0000      -0.820269       -22.3206
  22   2.0000      -0.808616       -22.0036
  23   2.0000      -0.802838       -21.8463
  24   2.0000      -0.791578       -21.5399
  25   2.0000      -0.772956       -21.0332
  26   2.0000      -0.769054       -20.9270
  27   2.0000      -0.756579       -20.5876
  28   0.0000      -0.306448        -8.3389
  29   0.0000      -0.055861        -1.5201
  30   0.0000      -0.035139        -0.9562
  31   0.0000      -0.021817        -0.5937
  32   0.0000      -0.002686        -0.0731

MULLIKEN ATOMIC CHARGES
-----------------------
   0 C :   -0.378183
   1 C :    0.260576
   2 O :   -0.455836
   3 C :    0.149252
   4 C :   -0.419909
   5 C :   -0.419167
   6 C :   -0.431912
   7 H :    0.162011
   8 H :    0.162717
   9 H :    0.141315
  10 H :    0.137266
  11 H :    0.137613
  12 H :    0.131685
  13 H :    0.137236
  14 H :    0.130933
  15 H :    0.136699
  16 H :    0.139129
  17 H :    0.139750
  18 H :    0.138824
Sum of atomic charges:    0.0000000

LOEWDIN ATOMIC CHARGES
----------------------
   0 C :   -0.250471
   1 C :   -0.269100
   2 O :    0.032266
   3 C :   -0.322992
   4 C :   -0.250186
   5 C :   -0.251262
   6 C :   -0.256482
   7 H :    0.148495
   8 H :    0.148315
   9 H :    0.130191
  10 H :    0.127297
  11 H :    0.128728
  12 H :    0.124120
  13 H :    0.128503
  14 H :    0.123694
  15 H :    0.127133
  16 H :    0.129031
  17 H :    0.126417
  18 H :    0.126302

  Mayer bond orders larger than 0.100000
B(  0-C ,  1-C ) :   1.0010 B(  0-C ,  7-H ) :   0.9423 B(  0-C ,  8-H ) :   0.9439
B(  0-C ,  9-H ) :   0.9714 B(  1-C ,  2-O ) :   1.9810 B(  1-C ,  3-C ) :   0.8894
B(  3-C ,  4-C ) :   0.9548 B(  3-C ,  5-C ) :   0.9575 B(  3-C ,  6-C ) :   0.9518
B(  4-C , 10-H ) :   0.9737 B(  4-C , 11-H ) :   0.9756 B(  4-C , 12-H ) :   0.9709
B(  5-C , 13-H ) :   0.9760 B(  5-C , 14-H ) :   0.9706 B(  5-C , 15-H ) :   0.9747
B(  6-C , 16-H ) :   0.9703 B(  6-C , 17-H ) :   0.9774 B(  6-C , 18-H ) :   0.9749

FINAL SINGLE POINT ENERGY      -311.115394261185

DIPOLE MOMENT
-------------

Method             : SCF
Type of density    : Electron Density
Multiplicity       :   1
Irrep              :   0
Energy             :  -311.1286503934846905 Eh
Relativity type    :
Basis              : AO
                                X                 Y                 Z
Electronic contribution:     -4.750277369       1.898013846       1.632550182
Nuclear contribution   :      5.663256210      -3.036366165      -2.607819883
                        -----------------------------------------
Total Dipole Moment    :      0.912978841      -1.138352318      -0.975269701
                        -----------------------------------------
Magnitude (a.u.)       :      1.755143115
Magnitude (Debye)      :      4.461219260

Rotational constants in cm-1:             0.106512             0.077040             0.064154
Rotational constants in MHz :          3193.144306          2309.611113          1923.295091

                             ****ORCA TERMINATED NORMALLY****
TOTAL RUN TIME: 0 days 0 hours 2 minutes 28 seconds 784 msec
