                         Program Version 6.0.0  -   RELEASE  -
|  1> ! r2scan-3c def2/J RI DEFGRID2 scfconv6 printgap
|  2> %output
|  3>     printlevel normal
|  4> end
|  5> %cpcm
|  6>     smd true
|  7>     smdsolvent "water"
|  8> end
|  9> * xyz 0 1
| 10> C 1.2703790557 2.76607e-05 -5.638e-07
| 11> C -0.1589998897 -6.93912e-05 2.4492e-06
| 12> N -1.3050284442 2.51472e-05 -1.3349e-06
| 13> H 1.6307168377 -0.5326289541 0.8779953463
| 14> H 1.6303889999 1.0268636031 0.0222478426
| 15> H 1.6307138967 -0.4940868375 -0.9002471055
| 16> *
| 17>
| 18>                          ****END OF INPUT****

CARTESIAN COORDINATES (ANGSTROEM)
---------------------------------
  C      1.270379    0.000028   -0.000001
  C     -0.159000   -0.000069    0.000002
  N     -1.305028    0.000025   -0.000001
  H      1.630717   -0.532629    0.877995
  H      1.630389    1.026864    0.022248
  H      1.630714   -0.494087   -0.900247

 Total Charge           Charge          ....    0
 Multiplicity           Mult            ....    1
 Number of Electrons    NEL             ....   22
 Basis Dimension        Dim             ....   77

ORBITAL ENERGIES
----------------

  NO   OCC          E(Eh)            E(eV)
   0   2.0000     -14.154780      -385.1711
   1   2.0000     -10.077604      -274.2255
   2   2.0000     -10.058201      -273.6976
   3   2.0000      -0.882086       -24.0028
   4   2.0000      -0.734081       -19.9754
   5   2.0000      -0.470510       -12.8032
   6   2.0000      -0.418291       -11.3823
   7   2.0000      -0.418287       -11.3822
   8   2.0000      -0.342493        -9.3197
   9   2.0000      -0.308252        -8.3880
  10   2.0000      -0.308248        -8.3879
  11   0.0000       0.012056         0.3281
  12   0.0000       0.012071         0.3285
  13   0.0000       0.071214         1.9378
  14   0.0000       0.165016         4.4903
  15   0.0000       0.174204         4.7403

MULLIKEN ATOMIC CHARGES
-----------------------
   0 C :   -0.566844
   1 C :    0.296151
   2 N :   -0.365120
   3 H :    0.211876
   4 H :    0.212106
   5 H :    0.211832
Sum of atomic charges:   -0.0000000

LOEWDIN ATOMIC CHARGES
----------------------
   0 C :   -0.351249
   1 C :    0.153298
   2 N :   -0.404249
   3 H :    0.200712
   4 H :    0.200795
   5 H :    0.200693

  Mayer bond orders larger than 0.100000
B(  0-C ,  1-C ) :   0.9697 B(  0-C ,  3-H ) :   0.9405 B(  0-C ,  4-H ) :   0.9405
B(  0-C ,  5-H ) :   0.9405 B(  1-C ,  2-N ) :   2.8820

Dispersion correction           -0.000752670
FINAL SINGLE POINT ENERGY      -132.721902420692

DIPOLE MOMENT
-------------

Method             : SCF
Type of density    : Electron Density
Multiplicity       :   1
Irrep              :   0
Energy             :  -132.7235437235643474 Eh
Relativity type    :
Basis              : AO
                                X                 Y                 Z
Electronic contribution:     -2.481425872       0.000152487       0.000079417
Nuclear contribution   :      4.582190102       0.000138811      -0.000003682
                        -----------------------------------------
Total Dipole Moment    :      2.100764230       0.000291299       0.000075735
                        -----------------------------------------
Magnitude (a.u.)       :      2.100764252
Magnitude (Debye)      :      5.339718373

Rotational constants in cm-1:             5.285535             0.317004             0.317002
Rotational constants in MHz :        158456.339171          9503.546943          9503.466115

                             ****ORCA TERMINATED NORMALLY****
TOTAL RUN TIME: 0 days 0 hours 0 minutes 7 seconds 875 msec
