                         Program Version 6.0.0  -   RELEASE  -
|  1> ! pbe def2-sv(p) def2/J RI DEFGRID1 loosescf d4 GCP(DFT/SV(P)) printgap
|  2> %output
|  3>     printlevel normal
|  4> end
|  5> * xyz 0 1
|  6> C -3.2322462914 0.2529210609 0.8315667539
|  7> O -1.8184042952 0.3295943511 0.6376617933
|  8> C -1.3143997652 -0.2701619376 -0.4334345351
|  9> O -2.0008845255 -0.8683649607 -1.2380734426
| 10> C 0.1881101515 -0.1615137132 -0.5094690391
| 11> C 0.8042824898 -1.0012547464 0.6179080056
| 12> C 2.3209973625 -1.1091788657 0.4228565538
| 13> C 2.8995786889 0.1616279016 -0.2117043642
| 14> C 2.0773817327 1.3778406649 0.198997568
| 15> C 0.6671146227 1.2969563423 -0.3972223257
| 16> H -3.5445580492 -0.7903599303 0.8903649773
| 17> H -3.7491498394 0.7302310983 -0.0017641881
| 18> H -3.4285094947 0.7737382655 1.7633890381
| 19> H 0.4832438513 -0.5923271135 -1.4702613348
| 20> H 0.5690329843 -0.5218078776 1.5685834898
| 21> H 0.358148406 -1.9976277125 0.6267569307
| 22> H 2.7851774362 -1.2846847272 1.3940491476
| 23> H 2.5503724929 -1.9661756376 -0.2117724841
| 24> H 3.9381124847 0.2873381237 0.0956105674
| 25> H 2.8862919997 0.0781174745 -1.2996494569
| 26> H 2.0238590032 1.4177234319 1.287450853
| 27> H 2.5611605189 2.2934935739 -0.1419129814
| 28> H -0.0251221511 1.8580649747 0.2311755138
| 29> H 0.6562152371 1.7453767666 -1.3918789366
| 30> *
| 31>
| 32>                          ****END OF INPUT****

CARTESIAN COORDINATES (ANGSTROEM)
---------------------------------
  C     -3.232246    0.252921    0.831567
  O     -1.818404    0.329594    0.637662
  C     -1.314400   -0.270162   -0.433435
  O     -2.000885   -0.868365   -1.238073
  C      0.188110   -0.161514   -0.509469
  C      0.804282   -1.001255    0.617908
  C      2.320997   -1.109179    0.422857
  C      2.899579    0.161628   -0.211704
  C      2.077382    1.377841    0.198998
  C      0.667115    1.296956   -0.397222
  H     -3.544558   -0.790360    0.890365
  H     -3.749150    0.730231   -0.001764
  H     -3.428509    0.773738    1.763389
  H      0.483244   -0.592327   -1.470261
  H      0.569033   -0.521808    1.568583
  H      0.358148   -1.997628    0.626757
  H      2.785177   -1.284685    1.394049
  H      2.550372   -1.966176   -0.211772
  H      3.938112    0.287338    0.095611
  H      2.886292    0.078117   -1.299649
  H      2.023859    1.417723    1.287451
  H      2.561161    2.293494   -0.141913
  H     -0.025122    1.858065    0.231176
  H      0.656215    1.745377   -1.391879

 Total Charge           Charge          ....    0
 Multiplicity           Mult            ....    1
 Number of Electrons    NEL             ....   78
 Basis Dimension        Dim             ....  168

ORBITAL ENERGIES
----------------

  NO   OCC          E(Eh)            E(eV)
   0   2.0000     -18.797317      -511.5010
   1   2.0000     -18.728992      -509.6418
   2   2.0000      -9.999672      -272.1049
   3   2.0000      -9.940950      -270.5070
   4   2.0000      -9.901469      -269.4327
   5   2.0000      -9.890005      -269.1207
   6   2.0000      -9.886703      -269.0309
   7   2.0000      -9.885827      -269.0070
   8   2.0000      -9.884623      -268.9743
   9   2.0000      -9.884266      -268.9646
  10   2.0000      -1.004202       -27.3257
  11   2.0000      -0.904466       -24.6118
  12   2.0000      -0.763734       -20.7823
  13   2.0000      -0.693325       -18.8663
  14   2.0000      -0.667736       -18.1700
  15   2.0000      -0.648104       -17.6358
  16   2.0000      -0.566450       -15.4139
  17   2.0000      -0.550240       -14.9728
  18   2.0000      -0.510000       -13.8778
  19   2.0000      -0.478926       -13.0322
  20   2.0000      -0.455891       -12.4054
  21   2.0000      -0.444362       -12.0917
  22   2.0000      -0.431146       -11.7321
  23   2.0000      -0.412063       -11.2128
  24   2.0000      -0.394285       -10.7290
  25   2.0000      -0.387346       -10.5402
  26   2.0000      -0.361315        -9.8319
  27   2.0000      -0.358613        -9.7583
  28   2.0000      -0.348448        -9.4818
  29   2.0000      -0.334181        -9.0935
  30   2.0000      -0.326188        -8.8760
  31   2.0000      -0.316440        -8.6108
  32   2.0000      -0.315795        -8.5932
  33   2.0000      -0.301248        -8.1974
  34   2.0000      -0.277189        -7.5427
  35   2.0000      -0.265048        -7.2123
  36   2.0000      -0.264486        -7.1970
  37   2.0000      -0.255291        -6.9468
  38   2.0000      -0.208945        -5.6857
  39   0.0000      -0.016092        -0.4379
  40   0.0000       0.028275         0.7694
  41   0.0000       0.046327         1.2606
  42   0.0000       0.055867         1.5202
  43   0.0000       0.069540         1.8923

MULLIKEN ATOMIC CHARGES
-----------------------
   0 C :   -0.102635
   1 O :   -0.247786
   2 C :    0.141186
   3 O :   -0.201948
   4 C :   -0.162451
   5 C :   -0.147046
   6 C :   -0.133068
   7 C :   -0.158382
   8 C :   -0.151630
   9 C :   -0.126443
  10 H :    0.118446
  11 H :    0.118658
  12 H :    0.119660
  13 H :    0.076694
  14 H :    0.084380
  15 H :    0.095504
  16 H :    0.082123
  17 H :    0.084736
  18 H :    0.086886
  19 H :    0.079730
  20 H :    0.077127
  21 H :    0.085947
  22 H :    0.093479
  23 H :    0.086830
Sum of atomic charges:    0.0000000

LOEWDIN ATOMIC CHARGES
----------------------
   0 C :   -0.201997
   1 O :   -0.069398
   2 C :    0.041818
   3 O :   -0.169639
   4 C :   -0.159909
   5 C :   -0.213899
   6 C :   -0.227312
   7 C :   -0.230351
   8 C :   -0.227851
   9 C :   -0.218353
  10 H :    0.119597
  11 H :    0.119836
  12 H :    0.119562
  13 H :    0.130138
  14 H :    0.119020
  15 H :    0.122377
  16 H :    0.118416
  17 H :    0.118358
  18 H :    0.118752
  19 H :    0.115304
  20 H :    0.115577
  21 H :    0.119217
  22 H :    0.120767
  23 H :    0.119968

  Mayer bond orders larger than 0.100000
B(  0-C ,  1-O ) :   0.9408 B(  0-C , 10-H ) :   0.9512 B(  0-C , 11-H ) :   0.9527
B(  0-C , 12-H ) :   0.9583 B(  1-O ,  2-C ) :   1.1989 B(  2-C ,  3-O ) :   2.0801
B(  2-C ,  4-C ) :   0.9684 B(  4-C ,  5-C ) :   1.1295 B(  4-C ,  9-C ) :   1.0744
B(  4-C , 13-H ) :   0.8730 B(  5-C ,  6-C ) :   1.1492 B(  5-C , 14-H ) :   0.8950
B(  5-C , 15-H ) :   0.9219 B(  6-C ,  7-C ) :   1.1405 B(  6-C , 16-H ) :   0.9171
B(  6-C , 17-H ) :   0.9198 B(  7-C ,  8-C ) :   1.1856 B(  7-C , 18-H ) :   0.9224
B(  7-C , 19-H ) :   0.9114 B(  8-C ,  9-C ) :   1.1518 B(  8-C , 20-H ) :   0.9062
B(  8-C , 21-H ) :   0.9193 B(  9-C , 22-H ) :   0.9069 B(  9-C , 23-H ) :   0.9173

Dispersion correction           -0.022790338
FINAL SINGLE POINT ENERGY      -462.696687203289

DIPOLE MOMENT
-------------

Method             : SCF
Type of density    : Electron Density
Multiplicity       :   1
Irrep              :   0
Energy             :  -462.7845370926685291 Eh
Relativity type    :
Basis              : AO
                                X                 Y                 Z
Electronic contribution:     -7.325842646      -1.512631793      -2.464638657
Nuclear contribution   :      7.509011823       1.897523993       3.124708819
                        -----------------------------------------
Total Dipole Moment    :      0.183169177       0.384892200       0.660070162
                        -----------------------------------------
Magnitude (a.u.)       :      0.785738870
Magnitude (Debye)      :      1.997189488

Rotational constants in cm-1:             0.092785             0.025784             0.024217
Rotational constants in MHz :          2781.632586           772.980910           725.993535

                             ****ORCA TERMINATED NORMALLY****
TOTAL RUN TIME: 0 days 0 hours 0 minutes 10 seconds 969 msec
