                         Program Version 6.0.0  -   RELEASE  -
|  1> ! pbe def2-sv(p) def2/J RI DEFGRID1 loosescf d4 GCP(DFT/SV(P)) printgap
|  2> %output
|  3>     printlevel normal
|  4> end
|  5> * xyz 0 1
|  6> C -1.1215698058 -1.3623794063 -0.435676732
|  7> C -0.6827023171 -0.1810216082 0.4327137548
|  8> C -1.5552839171 1.0426398158 0.2172238765
|  9> N 0.7104714113 0.1015773293 0.0513477117
| 10> O 0.9256802073 0.8739486923 -0.8568889327
| 11> O 1.5837420162 -0.4986297299 0.6485537229
| 12> H -0.4622703474 -2.2140688535 -0.2850199824
| 13> H -2.131873672 -1.6495038391 -0.1626661119
| 14> H -1.1063295058 -1.081392805 -1.4861578994
| 15> H -0.6528738353 -0.4845006581 1.4824222609
| 16> H -2.5803627866 0.8042443762 0.480934628
| 17> H -1.5207357796 1.3519123317 -0.8240318482
| 18> H -1.2186267486 1.8713093302 0.8347952749
| 19> *
| 20>
| 21>                          ****END OF INPUT****

CARTESIAN COORDINATES (ANGSTROEM)
---------------------------------
  C     -1.121570   -1.362379   -0.435677
  C     -0.682702   -0.181022    0.432714
  C     -1.555284    1.042640    0.217224
  N      0.710471    0.101577    0.051348
  O      0.925680    0.873949   -0.856889
  O      1.583742   -0.498630    0.648554
  H     -0.462270   -2.214069   -0.285020
  H     -2.131874   -1.649504   -0.162666
  H     -1.106330   -1.081393   -1.486158
  H     -0.652874   -0.484501    1.482422
  H     -2.580363    0.804244    0.480935
  H     -1.520736    1.351912   -0.824032
  H     -1.218627    1.871309    0.834795

 Total Charge           Charge          ....    0
 Multiplicity           Mult            ....    1
 Number of Electrons    NEL             ....   48
 Basis Dimension        Dim             ....   98

ORBITAL ENERGIES
----------------

  NO   OCC          E(Eh)            E(eV)
   0   2.0000     -18.777419      -510.9595
   1   2.0000     -18.772793      -510.8337
   2   2.0000     -14.203182      -386.4882
   3   2.0000      -9.956141      -270.9204
   4   2.0000      -9.905572      -269.5443
   5   2.0000      -9.898545      -269.3531
   6   2.0000      -1.130984       -30.7756
   7   2.0000      -0.959808       -26.1177
   8   2.0000      -0.776742       -21.1362
   9   2.0000      -0.644073       -17.5261
  10   2.0000      -0.635031       -17.2801
  11   2.0000      -0.512195       -13.9375
  12   2.0000      -0.491431       -13.3725
  13   2.0000      -0.475037       -12.9264
  14   2.0000      -0.448863       -12.2142
  15   2.0000      -0.420961       -11.4549
  16   2.0000      -0.381817       -10.3898
  17   2.0000      -0.375021       -10.2048
  18   2.0000      -0.365597        -9.9484
  19   2.0000      -0.332962        -9.0604
  20   2.0000      -0.328822        -8.9477
  21   2.0000      -0.270354        -7.3567
  22   2.0000      -0.250148        -6.8069
  23   2.0000      -0.230288        -6.2664
  24   0.0000      -0.092007        -2.5036
  25   0.0000       0.028128         0.7654
  26   0.0000       0.065167         1.7733
  27   0.0000       0.075438         2.0528
  28   0.0000       0.079109         2.1527

MULLIKEN ATOMIC CHARGES
-----------------------
   0 C :   -0.248648
   1 C :   -0.100791
   2 C :   -0.244508
   3 N :    0.193159
   4 O :   -0.213360
   5 O :   -0.219691
   6 H :    0.127438
   7 H :    0.123234
   8 H :    0.120959
   9 H :    0.102814
  10 H :    0.111807
  11 H :    0.125728
  12 H :    0.121857
Sum of atomic charges:   -0.0000000

LOEWDIN ATOMIC CHARGES
----------------------
   0 C :   -0.327561
   1 C :   -0.122229
   2 C :   -0.340751
   3 N :    0.242660
   4 O :   -0.182876
   5 O :   -0.190157
   6 H :    0.131361
   7 H :    0.132926
   8 H :    0.130859
   9 H :    0.132467
  10 H :    0.130335
  11 H :    0.133081
  12 H :    0.129885

  Mayer bond orders larger than 0.100000
B(  0-C ,  1-C ) :   1.1104 B(  0-C ,  6-H ) :   0.9418 B(  0-C ,  7-H ) :   0.9486
B(  0-C ,  8-H ) :   0.9402 B(  1-C ,  2-C ) :   1.1045 B(  1-C ,  3-N ) :   0.8548
B(  1-C ,  9-H ) :   0.9000 B(  2-C , 10-H ) :   0.9390 B(  2-C , 11-H ) :   0.9303
B(  2-C , 12-H ) :   0.9475 B(  3-N ,  4-O ) :   1.5507 B(  3-N ,  5-O ) :   1.5435
B(  4-O ,  5-O ) :   0.3089

Dispersion correction           -0.009139683
FINAL SINGLE POINT ENERGY      -322.973258364546

DIPOLE MOMENT
-------------

Method             : SCF
Type of density    : Electron Density
Multiplicity       :   1
Irrep              :   0
Energy             :  -323.0236949010389935 Eh
Relativity type    :
Basis              : AO
                                X                 Y                 Z
Electronic contribution:      7.717443933       1.064781103       0.212171717
Nuclear contribution   :     -9.033855849      -1.309188407       0.034976167
                        -----------------------------------------
Total Dipole Moment    :     -1.316411917      -0.244407304       0.247147884
                        -----------------------------------------
Magnitude (a.u.)       :      1.361527576
Magnitude (Debye)      :      3.460728070

Rotational constants in cm-1:             0.173980             0.107604             0.086114
Rotational constants in MHz :          5215.798816          3225.899492          2581.634835

                             ****ORCA TERMINATED NORMALLY****
TOTAL RUN TIME: 0 days 0 hours 0 minutes 6 seconds 353 msec
