                         Program Version 6.0.0  -   RELEASE  -
|  1> ! wb97x-v def2-tzvp def2/J RIJCOSX DEFGRID2 scfconv7 GCP(DFT/TZ) printgap
|  2> %output
|  3>     printlevel normal
|  4> end
|  5> * xyz 0 1
|  6> C -2.8090529207259154 1.0602144764230075 -0.0006120139739031246
|  7> O -2.226898358377833 -0.2528876357041584 0.0002681125237220555
|  8> C -0.8586205429356539 -0.33626083995920325 0.0001284491320726131
|  9> C -0.33005048545581894 -1.6334080999129224 4.741671558797511e-05
| 10> C 1.0468845671164104 -1.800831798094186 -0.00012806717774585842
| 11> C 1.911126205535928 -0.7063609437338164 -0.00021188623945863716
| 12> C 1.3619231519331791 0.572782583276756 -7.649833089701129e-05
| 13> C -0.019502666547630616 0.776371484643546 9.3104354996084e-05
| 14> O 2.14735072093783 1.7045035236159212 -0.00011004913510396454
| 15> H -2.5188968274524055 1.6176233858992697 -0.8982116671868011
| 16> H -2.5195314779843603 1.6186061060534507 0.8965875713673149
| 17> H -3.8881381284172756 0.903340147506367 -0.0008987333850287616
| 18> H -1.003064943369743 -2.4836752271813745 7.962883389440556e-05
| 19> H 1.4611421187973088 -2.8042156467320156 -0.0002413096849309429
| 20> H 2.9882482096394876 -0.8402829465686753 -0.00038547489243898704
| 21> H -0.4002251646922305 1.789630887331775 0.00021438318857016877
| 22> H 3.0770823866261177 1.4374887851656954 -0.000193675782124952
| 23> *
| 24>
| 25>                          ****END OF INPUT****

CARTESIAN COORDINATES (ANGSTROEM)
---------------------------------
  C     -2.809053    1.060214   -0.000612
  O     -2.226898   -0.252888    0.000268
  C     -0.858621   -0.336261    0.000128
  C     -0.330050   -1.633408    0.000047
  C      1.046885   -1.800832   -0.000128
  C      1.911126   -0.706361   -0.000212
  C      1.361923    0.572783   -0.000076
  C     -0.019503    0.776371    0.000093
  O      2.147351    1.704504   -0.000110
  H     -2.518897    1.617623   -0.898212
  H     -2.519531    1.618606    0.896588
  H     -3.888138    0.903340   -0.000899
  H     -1.003065   -2.483675    0.000080
  H      1.461142   -2.804216   -0.000241
  H      2.988248   -0.840283   -0.000385
  H     -0.400225    1.789631    0.000214
  H      3.077082    1.437489   -0.000194

 Total Charge           Charge          ....    0
 Multiplicity           Mult            ....    1
 Number of Electrons    NEL             ....   66
 Basis Dimension        Dim             ....  327

ORBITAL ENERGIES
----------------

  NO   OCC          E(Eh)            E(eV)
   0   2.0000     -21.703923      -590.5938
   1   2.0000     -21.703312      -590.5771
   2   2.0000     -12.116923      -329.7182
   3   2.0000     -12.114563      -329.6540
   4   2.0000     -12.101578      -329.3007
   5   2.0000     -12.057260      -328.0947
   6   2.0000     -12.044388      -327.7445
   7   2.0000     -12.043969      -327.7331
   8   2.0000     -12.038771      -327.5916
   9   2.0000      -1.716983       -46.7215
  10   2.0000      -1.716139       -46.6985
  11   2.0000      -1.386576       -37.7307
  12   2.0000      -1.298337       -35.3295
  13   2.0000      -1.282608       -34.9015
  14   2.0000      -1.227175       -33.3931
  15   2.0000      -1.159349       -31.5475
  16   2.0000      -1.115217       -30.3466
  17   2.0000      -1.083769       -29.4908
  18   2.0000      -1.016867       -27.6704
  19   2.0000      -1.013038       -27.5662
  20   2.0000      -0.976856       -26.5816
  21   2.0000      -0.974267       -26.5111
  22   2.0000      -0.948386       -25.8069
  23   2.0000      -0.947770       -25.7901
  24   2.0000      -0.925600       -25.1869
  25   2.0000      -0.889239       -24.1974
  26   2.0000      -0.842654       -22.9298
  27   2.0000      -0.835333       -22.7306
  28   2.0000      -0.824884       -22.4462
  29   2.0000      -0.823276       -22.4025
  30   2.0000      -0.763521       -20.7765
  31   2.0000      -0.642447       -17.4819
  32   2.0000      -0.634311       -17.2605
  33   0.0000      -0.249461        -6.7882
  34   0.0000      -0.243751        -6.6328
  35   0.0000      -0.184762        -5.0276
  36   0.0000      -0.150850        -4.1048
  37   0.0000      -0.087362        -2.3772

MULLIKEN ATOMIC CHARGES
-----------------------
   0 C :   -0.212257
   1 O :   -0.247587
   2 C :    0.342798
   3 C :   -0.252598
   4 C :   -0.078281
   5 C :   -0.242003
   6 C :    0.217111
   7 C :   -0.304320
   8 O :   -0.391903
   9 H :    0.124430
  10 H :    0.124415
  11 H :    0.137339
  12 H :    0.115841
  13 H :    0.119331
  14 H :    0.106479
  15 H :    0.127528
  16 H :    0.313676
Sum of atomic charges:    0.0000000

LOEWDIN ATOMIC CHARGES
----------------------
   0 C :   -0.310360
   1 O :    0.217287
   2 C :   -0.235663
   3 C :   -0.137497
   4 C :   -0.133470
   5 C :   -0.169056
   6 C :   -0.258452
   7 C :   -0.127285
   8 O :    0.064350
   9 H :    0.106831
  10 H :    0.106819
  11 H :    0.112487
  12 H :    0.145822
  13 H :    0.144121
  14 H :    0.137607
  15 H :    0.150969
  16 H :    0.185490

  Mayer bond orders larger than 0.100000
B(  0-C ,  1-O ) :   0.9468 B(  0-C ,  9-H ) :   0.9719 B(  0-C , 10-H ) :   0.9719
B(  0-C , 11-H ) :   0.9780 B(  1-O ,  2-C ) :   1.1535 B(  2-C ,  3-C ) :   1.3675
B(  2-C ,  7-C ) :   1.3435 B(  3-C ,  4-C ) :   1.4820 B(  3-C , 12-H ) :   0.9779
B(  4-C ,  5-C ) :   1.3941 B(  4-C , 13-H ) :   0.9657 B(  5-C ,  6-C ) :   1.4042
B(  5-C , 14-H ) :   0.9597 B(  6-C ,  7-C ) :   1.3923 B(  6-C ,  8-O ) :   1.1618
B(  7-C , 15-H ) :   0.9560 B(  8-O , 16-H ) :   0.8904

FINAL SINGLE POINT ENERGY      -422.018564365101

DIPOLE MOMENT
-------------

Method             : SCF
Type of density    : Electron Density
Multiplicity       :   1
Irrep              :   0
Energy             :  -422.0284114795005621 Eh
Relativity type    :
Basis              : AO
                                X                 Y                 Z
Electronic contribution:      2.855621000      -1.031769534       0.001807094
Nuclear contribution   :     -2.603161531       1.205255604      -0.002271648
                        -----------------------------------------
Total Dipole Moment    :      0.252459469       0.173486070      -0.000464554
                        -----------------------------------------
Magnitude (a.u.)       :      0.306322405
Magnitude (Debye)      :      0.778609676

Rotational constants in cm-1:             0.094480             0.043347             0.029885
Rotational constants in MHz :          2832.431140          1299.522388           895.943328

                             ****ORCA TERMINATED NORMALLY****
TOTAL RUN TIME: 0 days 0 hours 2 minutes 47 seconds 175 msec
