                         Program Version 6.0.0  -   RELEASE  -
|  1> ! wb97x-v def2-tzvp def2/J RIJCOSX DEFGRID2 scfconv7 GCP(DFT/TZ) printgap
|  2> %output
|  3>     printlevel normal
|  4> end
|  5> %cpcm
|  6>     smd true
|  7>     smdsolvent "water"
|  8> end
|  9> * xyz 0 1
| 10> C -2.8090529207259154 1.0602144764230075 -0.0006120139739031246
| 11> O -2.226898358377833 -0.2528876357041584 0.0002681125237220555
| 12> C -0.8586205429356539 -0.33626083995920325 0.0001284491320726131
| 13> C -0.33005048545581894 -1.6334080999129224 4.741671558797511e-05
| 14> C 1.0468845671164104 -1.800831798094186 -0.00012806717774585842
| 15> C 1.911126205535928 -0.7063609437338164 -0.00021188623945863716
| 16> C 1.3619231519331791 0.572782583276756 -7.649833089701129e-05
| 17> C -0.019502666547630616 0.776371484643546 9.3104354996084e-05
| 18> O 2.14735072093783 1.7045035236159212 -0.00011004913510396454
| 19> H -2.5188968274524055 1.6176233858992697 -0.8982116671868011
| 20> H -2.5195314779843603 1.6186061060534507 0.8965875713673149
| 21> H -3.8881381284172756 0.903340147506367 -0.0008987333850287616
| 22> H -1.003064943369743 -2.4836752271813745 7.962883389440556e-05
| 23> H 1.4611421187973088 -2.8042156467320156 -0.0002413096849309429
| 24> H 2.9882482096394876 -0.8402829465686753 -0.00038547489243898704
| 25> H -0.4002251646922305 1.789630887331775 0.00021438318857016877
| 26> H 3.0770823866261177 1.4374887851656954 -0.000193675782124952
| 27> *
| 28>
| 29>                          ****END OF INPUT****

CARTESIAN COORDINATES (ANGSTROEM)
---------------------------------
  C     -2.809053    1.060214   -0.000612
  O     -2.226898   -0.252888    0.000268
  C     -0.858621   -0.336261    0.000128
  C     -0.330050   -1.633408    0.000047
  C      1.046885   -1.800832   -0.000128
  C      1.911126   -0.706361   -0.000212
  C      1.361923    0.572783   -0.000076
  C     -0.019503    0.776371    0.000093
  O      2.147351    1.704504   -0.000110
  H     -2.518897    1.617623   -0.898212
  H     -2.519531    1.618606    0.896588
  H     -3.888138    0.903340   -0.000899
  H     -1.003065   -2.483675    0.000080
  H      1.461142   -2.804216   -0.000241
  H      2.988248   -0.840283   -0.000385
  H     -0.400225    1.789631    0.000214
  H      3.077082    1.437489   -0.000194

 Total Charge           Charge          ....    0
 Multiplicity           Mult            ....    1
 Number of Electrons    NEL             ....   66
 Basis Dimension        Dim             ....  327

ORBITAL ENERGIES
----------------

  NO   OCC          E(Eh)            E(eV)
   0   2.0000     -21.706097      -590.6529
   1   2.0000     -21.702401      -590.5523
   2   2.0000     -12.117779      -329.7415
   3   2.0000     -12.116929      -329.7184
   4   2.0000     -12.088183      -328.9362
   5   2.0000     -12.056351      -328.0700
   6   2.0000     -12.044775      -327.7550
   7   2.0000     -12.041735      -327.6723
   8   2.0000     -12.040438      -327.6370
   9   2.0000      -1.719239       -46.7829
  10   2.0000      -1.715816       -46.6897
  11   2.0000      -1.388535       -37.7840
  12   2.0000      -1.298395       -35.3311
  13   2.0000      -1.283744       -34.9324
  14   2.0000      -1.223887       -33.3037
  15   2.0000      -1.159061       -31.5396
  16   2.0000      -1.113435       -30.2981
  17   2.0000      -1.083035       -29.4709
  18   2.0000      -1.018416       -27.7125
  19   2.0000      -1.011547       -27.5256
  20   2.0000      -0.979018       -26.6404
  21   2.0000      -0.975544       -26.5459
  22   2.0000      -0.948973       -25.8229
  23   2.0000      -0.945992       -25.7417
  24   2.0000      -0.926793       -25.2193
  25   2.0000      -0.886962       -24.1355
  26   2.0000      -0.839814       -22.8525
  27   2.0000      -0.825701       -22.4685
  28   2.0000      -0.820243       -22.3200
  29   2.0000      -0.814660       -22.1680
  30   2.0000      -0.766178       -20.8488
  31   2.0000      -0.644981       -17.5508
  32   2.0000      -0.637372       -17.3438
  33   0.0000      -0.252056        -6.8588
  34   0.0000      -0.246120        -6.6973
  35   0.0000      -0.181826        -4.9477
  36   0.0000      -0.146749        -3.9932
  37   0.0000      -0.085922        -2.3380

MULLIKEN ATOMIC CHARGES
-----------------------
   0 C :   -0.227064
   1 O :   -0.303335
   2 C :    0.350103
   3 C :   -0.316179
   4 C :   -0.108333
   5 C :   -0.309271
   6 C :    0.246140
   7 C :   -0.348595
   8 O :   -0.466443
   9 H :    0.145587
  10 H :    0.145589
  11 H :    0.159032
  12 H :    0.151781
  13 H :    0.165753
  14 H :    0.169556
  15 H :    0.167159
  16 H :    0.378519
Sum of atomic charges:    0.0000000

LOEWDIN ATOMIC CHARGES
----------------------
   0 C :   -0.304977
   1 O :    0.192947
   2 C :   -0.248840
   3 C :   -0.154491
   4 C :   -0.141561
   5 C :   -0.165211
   6 C :   -0.268114
   7 C :   -0.131701
   8 O :    0.041729
   9 H :    0.114618
  10 H :    0.114611
  11 H :    0.118069
  12 H :    0.152140
  13 H :    0.154687
  14 H :    0.154177
  15 H :    0.161148
  16 H :    0.210769

  Mayer bond orders larger than 0.100000
B(  0-C ,  1-O ) :   0.9101 B(  0-C ,  9-H ) :   0.9692 B(  0-C , 10-H ) :   0.9692
B(  0-C , 11-H ) :   0.9698 B(  1-O ,  2-C ) :   1.1246 B(  2-C ,  3-C ) :   1.3286
B(  2-C ,  7-C ) :   1.3556 B(  3-C ,  4-C ) :   1.4583 B(  3-C , 12-H ) :   0.9846
B(  4-C ,  5-C ) :   1.3567 B(  4-C , 13-H ) :   0.9661 B(  5-C ,  6-C ) :   1.3961
B(  5-C , 14-H ) :   0.9702 B(  6-C ,  7-C ) :   1.3522 B(  6-C ,  8-O ) :   1.1274
B(  7-C , 15-H ) :   0.9598 B(  8-O , 16-H ) :   0.8490

FINAL SINGLE POINT ENERGY      -422.029574056313

DIPOLE MOMENT
-------------

Method             : SCF
Type of density    : Electron Density
Multiplicity       :   1
Irrep              :   0
Energy             :  -422.0394211707126146 Eh
Relativity type    :
Basis              : AO
                                X                 Y                 Z
Electronic contribution:      3.100554421      -0.934565594       0.001630593
Nuclear contribution   :     -2.603161531       1.205255604      -0.002271648
                        -----------------------------------------
Total Dipole Moment    :      0.497392889       0.270690010      -0.000641055
                        -----------------------------------------
Magnitude (a.u.)       :      0.566280124
Magnitude (Debye)      :      1.439369687

Rotational constants in cm-1:             0.094480             0.043347             0.029885
Rotational constants in MHz :          2832.431140          1299.522388           895.943328

                             ****ORCA TERMINATED NORMALLY****
TOTAL RUN TIME: 0 days 0 hours 2 minutes 52 seconds 226 msec
