                         Program Version 6.0.0  -   RELEASE  -
|  1> ! pbe def2-sv(p) def2/J RI DEFGRID1 loosescf d4 GCP(DFT/SV(P)) printgap
|  2> %output
|  3>     printlevel normal
|  4> end
|  5> * xyz 0 1
|  6> C -2.5198230169 -0.9901696076 0.3383228967
|  7> C -1.0765284238 -0.5143220376 0.5895184722
|  8> H -0.9207216555 -0.4500091444 1.6774334715
|  9> C -0.7977768941 0.8642655098 -0.0250004285
| 10> H -0.9351311761 0.7990400389 -1.1160371974
| 11> C 0.6628265387 1.2516405163 0.2334816785
| 12> H 0.8280765828 1.3478819572 1.3186513697
| 13> C 1.5816419622 0.1502901438 -0.3010236821
| 14> H 1.4721300895 0.0966219336 -1.3957453241
| 15> C 1.1620354491 -1.2048716244 0.3074697379
| 16> H 1.3494674247 -1.1687108859 1.3962232414
| 17> O -0.1901598303 -1.4758666464 0.0470795207
| 18> O 1.9241262586 -2.2428478441 -0.2004689216
| 19> O 2.9051550456 0.4721123492 0.0463045896
| 20> O 0.8934891199 2.4860193688 -0.4000956009
| 21> O -1.6905501544 1.7924457652 0.531950837
| 22> O -2.9918241277 -0.7445620496 -0.9592514097
| 23> H -3.1660552529 -0.5187830158 1.0844188894
| 24> H -2.5358944179 -2.0738755286 0.4696604332
| 25> H 1.4899274316 -2.5898321732 -0.9960055854
| 26> H 3.47359001 -0.2923645656 -0.1320311593
| 27> H 1.8359742791 2.6974858222 -0.3320181687
| 28> H -1.3960611361 2.6813583768 0.2793547186
| 29> H -3.2225711132 0.1917322063 -1.0381684869
| 30> *
| 31>
| 32>                          ****END OF INPUT****

CARTESIAN COORDINATES (ANGSTROEM)
---------------------------------
  C     -2.519823   -0.990170    0.338323
  C     -1.076528   -0.514322    0.589518
  H     -0.920722   -0.450009    1.677433
  C     -0.797777    0.864266   -0.025000
  H     -0.935131    0.799040   -1.116037
  C      0.662827    1.251641    0.233482
  H      0.828077    1.347882    1.318651
  C      1.581642    0.150290   -0.301024
  H      1.472130    0.096622   -1.395745
  C      1.162035   -1.204872    0.307470
  H      1.349467   -1.168711    1.396223
  O     -0.190160   -1.475867    0.047080
  O      1.924126   -2.242848   -0.200469
  O      2.905155    0.472112    0.046305
  O      0.893489    2.486019   -0.400096
  O     -1.690550    1.792446    0.531951
  O     -2.991824   -0.744562   -0.959251
  H     -3.166055   -0.518783    1.084419
  H     -2.535894   -2.073876    0.469660
  H      1.489927   -2.589832   -0.996006
  H      3.473590   -0.292365   -0.132031
  H      1.835974    2.697486   -0.332018
  H     -1.396061    2.681358    0.279355
  H     -3.222571    0.191732   -1.038168

 Total Charge           Charge          ....    0
 Multiplicity           Mult            ....    1
 Number of Electrons    NEL             ....   96
 Basis Dimension        Dim             ....  192

ORBITAL ENERGIES
----------------

  NO   OCC          E(Eh)            E(eV)
   0   2.0000     -18.776363      -510.9308
   1   2.0000     -18.768808      -510.7252
   2   2.0000     -18.761209      -510.5184
   3   2.0000     -18.760131      -510.4891
   4   2.0000     -18.759301      -510.4665
   5   2.0000     -18.747370      -510.1419
   6   2.0000      -9.990754      -271.8622
   7   2.0000      -9.947229      -270.6779
   8   2.0000      -9.945265      -270.6244
   9   2.0000      -9.945176      -270.6220
  10   2.0000      -9.941703      -270.5275
  11   2.0000      -9.931359      -270.2460
  12   2.0000      -0.991515       -26.9805
  13   2.0000      -0.951000       -25.8780
  14   2.0000      -0.940781       -25.5999
  15   2.0000      -0.924923       -25.1684
  16   2.0000      -0.921984       -25.0885
  17   2.0000      -0.916533       -24.9401
  18   2.0000      -0.708060       -19.2673
  19   2.0000      -0.692391       -18.8409
  20   2.0000      -0.618711       -16.8360
  21   2.0000      -0.588806       -16.0222
  22   2.0000      -0.562941       -15.3184
  23   2.0000      -0.535979       -14.5847
  24   2.0000      -0.509947       -13.8764
  25   2.0000      -0.493142       -13.4191
  26   2.0000      -0.480345       -13.0709
  27   2.0000      -0.453228       -12.3330
  28   2.0000      -0.444057       -12.0834
  29   2.0000      -0.435110       -11.8399
  30   2.0000      -0.423465       -11.5231
  31   2.0000      -0.417244       -11.3538
  32   2.0000      -0.392657       -10.6847
  33   2.0000      -0.371035       -10.0964
  34   2.0000      -0.358487        -9.7549
  35   2.0000      -0.350830        -9.5466
  36   2.0000      -0.331413        -9.0182
  37   2.0000      -0.322916        -8.7870
  38   2.0000      -0.313600        -8.5335
  39   2.0000      -0.297940        -8.1074
  40   2.0000      -0.289683        -7.8827
  41   2.0000      -0.275215        -7.4890
  42   2.0000      -0.259083        -7.0500
  43   2.0000      -0.244536        -6.6542
  44   2.0000      -0.233341        -6.3495
  45   2.0000      -0.225606        -6.1390
  46   2.0000      -0.219213        -5.9651
  47   2.0000      -0.207846        -5.6558
  48   0.0000       0.014356         0.3906
  49   0.0000       0.022135         0.6023
  50   0.0000       0.037554         1.0219
  51   0.0000       0.044404         1.2083
  52   0.0000       0.062993         1.7141

MULLIKEN ATOMIC CHARGES
-----------------------
   0 C :    0.078420
   1 C :    0.027925
   2 H :    0.056268
   3 C :    0.030584
   4 H :    0.056591
   5 C :    0.059937
   6 H :    0.055204
   7 C :    0.039513
   8 H :    0.044565
   9 C :    0.181463
  10 H :    0.050646
  11 O :   -0.307249
  12 O :   -0.393224
  13 O :   -0.425740
  14 O :   -0.427201
  15 O :   -0.426363
  16 O :   -0.434481
  17 H :    0.085650
  18 H :    0.092876
  19 H :    0.309499
  20 H :    0.308008
  21 H :    0.314988
  22 H :    0.314387
  23 H :    0.307731
Sum of atomic charges:    0.0000000

LOEWDIN ATOMIC CHARGES
----------------------
   0 C :   -0.122061
   1 C :   -0.063310
   2 H :    0.107641
   3 C :   -0.076416
   4 H :    0.101997
   5 C :   -0.076710
   6 H :    0.104053
   7 C :   -0.100296
   8 H :    0.101329
   9 C :   -0.002499
  10 H :    0.094979
  11 O :   -0.145177
  12 O :   -0.300190
  13 O :   -0.326159
  14 O :   -0.325802
  15 O :   -0.322040
  16 O :   -0.330441
  17 H :    0.108067
  18 H :    0.120480
  19 H :    0.292856
  20 H :    0.288576
  21 H :    0.293423
  22 H :    0.291447
  23 H :    0.286253

  Mayer bond orders larger than 0.100000
B(  0-C ,  1-C ) :   1.0061 B(  0-C , 16-O ) :   1.1071 B(  0-C , 17-H ) :   0.9195
B(  0-C , 18-H ) :   0.9206 B(  1-C ,  2-H ) :   0.8699 B(  1-C ,  3-C ) :   1.0234
B(  1-C , 11-O ) :   0.9777 B(  3-C ,  4-H ) :   0.8559 B(  3-C ,  5-C ) :   1.0349
B(  3-C , 15-O ) :   1.0645 B(  5-C ,  6-H ) :   0.8771 B(  5-C ,  7-C ) :   1.0073
B(  5-C , 14-O ) :   1.0799 B(  7-C ,  8-H ) :   0.8599 B(  7-C ,  9-C ) :   0.9803
B(  7-C , 13-O ) :   1.0687 B(  9-C , 10-H ) :   0.8766 B(  9-C , 11-O ) :   1.0309
B(  9-C , 12-O ) :   1.1166 B( 12-O , 19-H ) :   0.8386 B( 13-O , 20-H ) :   0.8324
B( 14-O , 21-H ) :   0.8363 B( 15-O , 22-H ) :   0.8336 B( 16-O , 23-H ) :   0.8409

Dispersion correction           -0.023938307
FINAL SINGLE POINT ENERGY      -685.703355259197

DIPOLE MOMENT
-------------

Method             : SCF
Type of density    : Electron Density
Multiplicity       :   1
Irrep              :   0
Energy             :  -685.8336987615222142 Eh
Relativity type    :
Basis              : AO
                                X                 Y                 Z
Electronic contribution:      2.042278277      -0.299881953      -1.185603194
Nuclear contribution   :     -1.607876281       0.680250025       1.126723516
                        -----------------------------------------
Total Dipole Moment    :      0.434401996       0.380368072      -0.058879679
                        -----------------------------------------
Magnitude (a.u.)       :      0.580389336
Magnitude (Debye)      :      1.475232452

Rotational constants in cm-1:             0.040829             0.026191             0.017416
Rotational constants in MHz :          1224.015231           785.183482           522.108052

                             ****ORCA TERMINATED NORMALLY****
TOTAL RUN TIME: 0 days 0 hours 0 minutes 12 seconds 146 msec
