                         Program Version 6.0.0  -   RELEASE  -
|  1> ! wb97x-v def2-tzvp def2/J RIJCOSX DEFGRID2 scfconv7 GCP(DFT/TZ) printgap
|  2> %output
|  3>     printlevel normal
|  4> end
|  5> * xyz 0 1
|  6> C -3.0323592637294414 -1.503771403190709 0.002630565136540965
|  7> C -1.7514879206289375 -0.7104977660618647 -0.0008686788408729304
|  8> C -0.5474373999540476 -1.3852271469525372 -0.0018679034135937668
|  9> C 0.6953001504662545 -0.7132092566010075 -0.001203837124513929
| 10> C 1.9343627256975422 -1.4017641228903912 -0.0009720467052044219
| 11> C 3.121721418137053 -0.7076061176792526 0.000408785867159902
| 12> C 3.1230331448273425 0.7059144252578308 0.0012354883164957878
| 13> C 1.9367319529386087 1.402185659652623 0.0006322443104291321
| 14> C 0.6966412237025765 0.716151868257685 -0.0004756318306613041
| 15> C -0.545109024889516 1.3918694242893705 -0.0003944311986052573
| 16> C -1.750869215788083 0.7189448297696667 -0.0002458664989284812
| 17> C -3.038988916258977 1.493549883623364 0.0009381023465135776
| 18> H -3.0946533841264383 -2.1308105026210584 0.8987947126503246
| 19> H -3.920397933281772 -0.8723021481604566 -0.02459707930027097
| 20> H -3.0713678833576856 -2.1763629801108295 -0.8608480555726823
| 21> H -0.5463816202592537 -2.4734224653736834 -0.002569605053014527
| 22> H 1.92881669980135 -2.488478026731299 -0.0016223755481325267
| 23> H 4.065647011322687 -1.2439847052363522 0.0008891187711356514
| 24> H 4.067926802045058 1.2405607328411234 0.0024298129516823835
| 25> H 1.933353401758573 2.4889357045239375 0.0012555781638438008
| 26> H -0.539839402880725 2.4793796176839593 -0.00016993069075668356
| 27> H -3.6485267285246223 1.261159475315258 -0.8795780362362215
| 28> H -3.647980672944489 1.258995795312242 0.8812808192821194
| 29> H -2.8403217431956604 2.5678827185530766 0.002004035599054067
| 30> *
| 31>
| 32>                          ****END OF INPUT****

CARTESIAN COORDINATES (ANGSTROEM)
---------------------------------
  C     -3.032359   -1.503771    0.002631
  C     -1.751488   -0.710498   -0.000869
  C     -0.547437   -1.385227   -0.001868
  C      0.695300   -0.713209   -0.001204
  C      1.934363   -1.401764   -0.000972
  C      3.121721   -0.707606    0.000409
  C      3.123033    0.705914    0.001235
  C      1.936732    1.402186    0.000632
  C      0.696641    0.716152   -0.000476
  C     -0.545109    1.391869   -0.000394
  C     -1.750869    0.718945   -0.000246
  C     -3.038989    1.493550    0.000938
  H     -3.094653   -2.130811    0.898795
  H     -3.920398   -0.872302   -0.024597
  H     -3.071368   -2.176363   -0.860848
  H     -0.546382   -2.473422   -0.002570
  H      1.928817   -2.488478   -0.001622
  H      4.065647   -1.243985    0.000889
  H      4.067927    1.240561    0.002430
  H      1.933353    2.488936    0.001256
  H     -0.539839    2.479380   -0.000170
  H     -3.648527    1.261159   -0.879578
  H     -3.647981    1.258996    0.881281
  H     -2.840322    2.567883    0.002004

 Total Charge           Charge          ....    0
 Multiplicity           Mult            ....    1
 Number of Electrons    NEL             ....   84
 Basis Dimension        Dim             ....  444

ORBITAL ENERGIES
----------------

  NO   OCC          E(Eh)            E(eV)
   0   2.0000     -12.060104      -328.1721
   1   2.0000     -12.058278      -328.1224
   2   2.0000     -12.056386      -328.0709
   3   2.0000     -12.054674      -328.0243
   4   2.0000     -12.050183      -327.9021
   5   2.0000     -12.049803      -327.8918
   6   2.0000     -12.048303      -327.8510
   7   2.0000     -12.046950      -327.8142
   8   2.0000     -12.045717      -327.7806
   9   2.0000     -12.045328      -327.7700
  10   2.0000     -12.044581      -327.7497
  11   2.0000     -12.043253      -327.7136
  12   2.0000      -1.399842       -38.0916
  13   2.0000      -1.354258       -36.8512
  14   2.0000      -1.302801       -35.4510
  15   2.0000      -1.285083       -34.9689
  16   2.0000      -1.261415       -34.3249
  17   2.0000      -1.198681       -32.6178
  18   2.0000      -1.190483       -32.3947
  19   2.0000      -1.111905       -30.2565
  20   2.0000      -1.099995       -29.9324
  21   2.0000      -1.083695       -29.4888
  22   2.0000      -0.985397       -26.8140
  23   2.0000      -0.981632       -26.7116
  24   2.0000      -0.964344       -26.2411
  25   2.0000      -0.911826       -24.8120
  26   2.0000      -0.895488       -24.3675
  27   2.0000      -0.895179       -24.3590
  28   2.0000      -0.872101       -23.7311
  29   2.0000      -0.856963       -23.3192
  30   2.0000      -0.847791       -23.0696
  31   2.0000      -0.840394       -22.8683
  32   2.0000      -0.828908       -22.5557
  33   2.0000      -0.826989       -22.5035
  34   2.0000      -0.815208       -22.1830
  35   2.0000      -0.809460       -22.0265
  36   2.0000      -0.786467       -21.4008
  37   2.0000      -0.786235       -21.3945
  38   2.0000      -0.713202       -19.4072
  39   2.0000      -0.674839       -18.3633
  40   2.0000      -0.620150       -16.8751
  41   2.0000      -0.593546       -16.1512
  42   0.0000      -0.279861        -7.6154
  43   0.0000      -0.254676        -6.9301
  44   0.0000      -0.193674        -5.2701
  45   0.0000      -0.132160        -3.5963
  46   0.0000      -0.063005        -1.7145

MULLIKEN ATOMIC CHARGES
-----------------------
   0 C :   -0.392340
   1 C :    0.091117
   2 C :   -0.279085
   3 C :    0.201587
   4 C :   -0.225360
   5 C :   -0.109350
   6 C :   -0.112863
   7 C :   -0.215415
   8 C :    0.170457
   9 C :   -0.299810
  10 C :    0.153019
  11 C :   -0.409979
  12 H :    0.128855
  13 H :    0.126456
  14 H :    0.128415
  15 H :    0.107115
  16 H :    0.111069
  17 H :    0.115179
  18 H :    0.115278
  19 H :    0.110781
  20 H :    0.103619
  21 H :    0.130703
  22 H :    0.131332
  23 H :    0.119220
Sum of atomic charges:    0.0000000

LOEWDIN ATOMIC CHARGES
----------------------
   0 C :   -0.250277
   1 C :   -0.137568
   2 C :   -0.076745
   3 C :   -0.094353
   4 C :   -0.102845
   5 C :   -0.144207
   6 C :   -0.144371
   7 C :   -0.102557
   8 C :   -0.094062
   9 C :   -0.080558
  10 C :   -0.141376
  11 C :   -0.254594
  12 H :    0.129318
  13 H :    0.123843
  14 H :    0.129135
  15 H :    0.147690
  16 H :    0.143975
  17 H :    0.140965
  18 H :    0.140940
  19 H :    0.144060
  20 H :    0.145994
  21 H :    0.126141
  22 H :    0.126280
  23 H :    0.125169

  Mayer bond orders larger than 0.100000
B(  0-C ,  1-C ) :   0.9049 B(  0-C , 12-H ) :   0.9797 B(  0-C , 13-H ) :   0.9984
B(  0-C , 14-H ) :   0.9819 B(  1-C ,  2-C ) :   1.5229 B(  1-C , 10-C ) :   1.2234
B(  2-C ,  3-C ) :   1.2030 B(  2-C , 15-H ) :   0.9881 B(  3-C ,  4-C ) :   1.2042
B(  3-C ,  8-C ) :   1.2680 B(  4-C ,  5-C ) :   1.5799 B(  4-C , 16-H ) :   0.9838
B(  5-C ,  6-C ) :   1.2647 B(  5-C , 17-H ) :   0.9767 B(  6-C ,  7-C ) :   1.5754
B(  6-C , 18-H ) :   0.9767 B(  7-C ,  8-C ) :   1.2048 B(  7-C , 19-H ) :   0.9861
B(  8-C ,  9-C ) :   1.2215 B(  9-C , 10-C ) :   1.5625 B(  9-C , 20-H ) :   0.9651
B( 10-C , 11-C ) :   0.8828 B( 11-C , 21-H ) :   0.9842 B( 11-C , 22-H ) :   0.9842
B( 11-C , 23-H ) :   0.9917

FINAL SINGLE POINT ENERGY      -464.538460731177

DIPOLE MOMENT
-------------

Method             : SCF
Type of density    : Electron Density
Multiplicity       :   1
Irrep              :   0
Energy             :  -464.5518493970769782 Eh
Relativity type    :
Basis              : AO
                                X                 Y                 Z
Electronic contribution:      8.439087689       0.056109734      -0.012808502
Nuclear contribution   :     -8.789765393      -0.082214895       0.015105543
                        -----------------------------------------
Total Dipole Moment    :     -0.350677704      -0.026105160       0.002297041
                        -----------------------------------------
Magnitude (a.u.)       :      0.351655525
Magnitude (Debye)      :      0.893837310

Rotational constants in cm-1:             0.071711             0.022410             0.017183
Rotational constants in MHz :          2149.839099           671.843619           515.138241

                             ****ORCA TERMINATED NORMALLY****
TOTAL RUN TIME: 0 days 0 hours 5 minutes 53 seconds 141 msec
