                         Program Version 6.0.0  -   RELEASE  -
|  1> ! wb97x-v def2-tzvp def2/J RIJCOSX DEFGRID2 scfconv7 GCP(DFT/TZ) printgap
|  2> %output
|  3>     printlevel normal
|  4> end
|  5> %cpcm
|  6>     smd true
|  7>     smdsolvent "water"
|  8> end
|  9> * xyz 0 1
| 10> C -3.0323592637294414 -1.503771403190709 0.002630565136540965
| 11> C -1.7514879206289375 -0.7104977660618647 -0.0008686788408729304
| 12> C -0.5474373999540476 -1.3852271469525372 -0.0018679034135937668
| 13> C 0.6953001504662545 -0.7132092566010075 -0.001203837124513929
| 14> C 1.9343627256975422 -1.4017641228903912 -0.0009720467052044219
| 15> C 3.121721418137053 -0.7076061176792526 0.000408785867159902
| 16> C 3.1230331448273425 0.7059144252578308 0.0012354883164957878
| 17> C 1.9367319529386087 1.402185659652623 0.0006322443104291321
| 18> C 0.6966412237025765 0.716151868257685 -0.0004756318306613041
| 19> C -0.545109024889516 1.3918694242893705 -0.0003944311986052573
| 20> C -1.750869215788083 0.7189448297696667 -0.0002458664989284812
| 21> C -3.038988916258977 1.493549883623364 0.0009381023465135776
| 22> H -3.0946533841264383 -2.1308105026210584 0.8987947126503246
| 23> H -3.920397933281772 -0.8723021481604566 -0.02459707930027097
| 24> H -3.0713678833576856 -2.1763629801108295 -0.8608480555726823
| 25> H -0.5463816202592537 -2.4734224653736834 -0.002569605053014527
| 26> H 1.92881669980135 -2.488478026731299 -0.0016223755481325267
| 27> H 4.065647011322687 -1.2439847052363522 0.0008891187711356514
| 28> H 4.067926802045058 1.2405607328411234 0.0024298129516823835
| 29> H 1.933353401758573 2.4889357045239375 0.0012555781638438008
| 30> H -0.539839402880725 2.4793796176839593 -0.00016993069075668356
| 31> H -3.6485267285246223 1.261159475315258 -0.8795780362362215
| 32> H -3.647980672944489 1.258995795312242 0.8812808192821194
| 33> H -2.8403217431956604 2.5678827185530766 0.002004035599054067
| 34> *
| 35>
| 36>                          ****END OF INPUT****

CARTESIAN COORDINATES (ANGSTROEM)
---------------------------------
  C     -3.032359   -1.503771    0.002631
  C     -1.751488   -0.710498   -0.000869
  C     -0.547437   -1.385227   -0.001868
  C      0.695300   -0.713209   -0.001204
  C      1.934363   -1.401764   -0.000972
  C      3.121721   -0.707606    0.000409
  C      3.123033    0.705914    0.001235
  C      1.936732    1.402186    0.000632
  C      0.696641    0.716152   -0.000476
  C     -0.545109    1.391869   -0.000394
  C     -1.750869    0.718945   -0.000246
  C     -3.038989    1.493550    0.000938
  H     -3.094653   -2.130811    0.898795
  H     -3.920398   -0.872302   -0.024597
  H     -3.071368   -2.176363   -0.860848
  H     -0.546382   -2.473422   -0.002570
  H      1.928817   -2.488478   -0.001622
  H      4.065647   -1.243985    0.000889
  H      4.067927    1.240561    0.002430
  H      1.933353    2.488936    0.001256
  H     -0.539839    2.479380   -0.000170
  H     -3.648527    1.261159   -0.879578
  H     -3.647981    1.258996    0.881281
  H     -2.840322    2.567883    0.002004

 Total Charge           Charge          ....    0
 Multiplicity           Mult            ....    1
 Number of Electrons    NEL             ....   84
 Basis Dimension        Dim             ....  444

ORBITAL ENERGIES
----------------

  NO   OCC          E(Eh)            E(eV)
   0   2.0000     -12.058994      -328.1419
   1   2.0000     -12.057848      -328.1107
   2   2.0000     -12.057133      -328.0913
   3   2.0000     -12.056117      -328.0636
   4   2.0000     -12.049885      -327.8940
   5   2.0000     -12.049603      -327.8864
   6   2.0000     -12.048042      -327.8439
   7   2.0000     -12.046601      -327.8047
   8   2.0000     -12.043567      -327.7221
   9   2.0000     -12.043208      -327.7124
  10   2.0000     -12.033281      -327.4422
  11   2.0000     -12.032285      -327.4151
  12   2.0000      -1.401252       -38.1300
  13   2.0000      -1.354118       -36.8474
  14   2.0000      -1.302669       -35.4474
  15   2.0000      -1.284587       -34.9554
  16   2.0000      -1.259599       -34.2754
  17   2.0000      -1.193774       -32.4842
  18   2.0000      -1.185720       -32.2651
  19   2.0000      -1.109850       -30.2006
  20   2.0000      -1.098430       -29.8898
  21   2.0000      -1.082716       -29.4622
  22   2.0000      -0.983309       -26.7572
  23   2.0000      -0.980510       -26.6810
  24   2.0000      -0.964026       -26.2325
  25   2.0000      -0.910218       -24.7683
  26   2.0000      -0.892026       -24.2733
  27   2.0000      -0.891334       -24.2544
  28   2.0000      -0.869679       -23.6652
  29   2.0000      -0.852587       -23.2001
  30   2.0000      -0.839722       -22.8500
  31   2.0000      -0.834626       -22.7113
  32   2.0000      -0.822220       -22.3737
  33   2.0000      -0.818380       -22.2692
  34   2.0000      -0.808342       -21.9961
  35   2.0000      -0.800342       -21.7784
  36   2.0000      -0.788716       -21.4621
  37   2.0000      -0.783123       -21.3099
  38   2.0000      -0.713829       -19.4243
  39   2.0000      -0.677171       -18.4268
  40   2.0000      -0.621808       -16.9203
  41   2.0000      -0.594859       -16.1869
  42   0.0000      -0.280984        -7.6460
  43   0.0000      -0.256553        -6.9812
  44   0.0000      -0.195536        -5.3208
  45   0.0000      -0.132133        -3.5955
  46   0.0000      -0.057389        -1.5616

MULLIKEN ATOMIC CHARGES
-----------------------
   0 C :   -0.418722
   1 C :    0.079794
   2 C :   -0.318315
   3 C :    0.173555
   4 C :   -0.267830
   5 C :   -0.152584
   6 C :   -0.156680
   7 C :   -0.256687
   8 C :    0.149130
   9 C :   -0.345415
  10 C :    0.126946
  11 C :   -0.431600
  12 H :    0.144644
  13 H :    0.149635
  14 H :    0.144519
  15 H :    0.151295
  16 H :    0.157635
  17 H :    0.159908
  18 H :    0.160012
  19 H :    0.157754
  20 H :    0.151718
  21 H :    0.148863
  22 H :    0.149138
  23 H :    0.143287
Sum of atomic charges:    0.0000000

LOEWDIN ATOMIC CHARGES
----------------------
   0 C :   -0.249922
   1 C :   -0.141228
   2 C :   -0.083867
   3 C :   -0.109808
   4 C :   -0.111465
   5 C :   -0.154469
   6 C :   -0.154673
   7 C :   -0.111369
   8 C :   -0.109696
   9 C :   -0.089183
  10 C :   -0.146218
  11 C :   -0.254972
  12 H :    0.133796
  13 H :    0.129397
  14 H :    0.133592
  15 H :    0.158326
  16 H :    0.154716
  17 H :    0.150563
  18 H :    0.150523
  19 H :    0.154762
  20 H :    0.157075
  21 H :    0.132013
  22 H :    0.132064
  23 H :    0.130045

  Mayer bond orders larger than 0.100000
B(  0-C ,  1-C ) :   0.9259 B(  0-C , 12-H ) :   0.9724 B(  0-C , 13-H ) :   0.9939
B(  0-C , 14-H ) :   0.9743 B(  1-C ,  2-C ) :   1.5040 B(  1-C , 10-C ) :   1.2030
B(  2-C ,  3-C ) :   1.1993 B(  2-C , 15-H ) :   1.0002 B(  3-C ,  4-C ) :   1.1933
B(  3-C ,  8-C ) :   1.2359 B(  4-C ,  5-C ) :   1.5589 B(  4-C , 16-H ) :   0.9889
B(  5-C ,  6-C ) :   1.2459 B(  5-C , 17-H ) :   0.9797 B(  6-C ,  7-C ) :   1.5547
B(  6-C , 18-H ) :   0.9799 B(  7-C ,  8-C ) :   1.1940 B(  7-C , 19-H ) :   0.9902
B(  8-C ,  9-C ) :   1.2052 B(  9-C , 10-C ) :   1.5447 B(  9-C , 20-H ) :   0.9822
B( 10-C , 11-C ) :   0.9102 B( 11-C , 21-H ) :   0.9762 B( 11-C , 22-H ) :   0.9762
B( 11-C , 23-H ) :   0.9855

FINAL SINGLE POINT ENERGY      -464.541471761677

DIPOLE MOMENT
-------------

Method             : SCF
Type of density    : Electron Density
Multiplicity       :   1
Irrep              :   0
Energy             :  -464.5548604275768980 Eh
Relativity type    :
Basis              : AO
                                X                 Y                 Z
Electronic contribution:      8.240040855       0.042941852      -0.011954517
Nuclear contribution   :     -8.789765393      -0.082214895       0.015105543
                        -----------------------------------------
Total Dipole Moment    :     -0.549724538      -0.039273042       0.003151027
                        -----------------------------------------
Magnitude (a.u.)       :      0.551134619
Magnitude (Debye)      :      1.400872873

Rotational constants in cm-1:             0.071711             0.022410             0.017183
Rotational constants in MHz :          2149.839099           671.843619           515.138241

                             ****ORCA TERMINATED NORMALLY****
TOTAL RUN TIME: 0 days 0 hours 6 minutes 3 seconds 568 msec
