                         Program Version 6.0.0  -   RELEASE  -
|  1> ! r2scan-3c def2/J RI DEFGRID2 scfconv6 printgap
|  2> %output
|  3>     printlevel normal
|  4> end
|  5> * xyz 0 1
|  6> C 1.7164429314 0.4461205995 0.6064168711
|  7> C 0.8969128703 0.3470204944 -0.6767817113
|  8> C -0.5662612534 -0.0846544045 -0.4729840834
|  9> H -1.0518319854 -0.0944769791 -1.4568962152
| 10> C -1.3378219328 0.8578961036 0.450018428
| 11> O -0.6642595222 -1.4296932432 -0.0350858101
| 12> H 1.731394915 -0.5041661634 1.1349257476
| 13> H 1.3212898084 1.2128644756 1.2670162405
| 14> H 2.7429291829 0.7076267308 0.3618693407
| 15> H 1.3642935237 -0.3807796221 -1.3438851002
| 16> H 0.8946757349 1.3133222645 -1.1830499988
| 17> H -0.9296724707 0.8313554979 1.4571166194
| 18> H -1.2827998064 1.8743914226 0.0721928337
| 19> H -2.3807654235 0.5538953115 0.49353068
| 20> H -0.3172565663 -1.4851938767 0.8662462298
| 21> *
| 22>
| 23>                          ****END OF INPUT****

CARTESIAN COORDINATES (ANGSTROEM)
---------------------------------
  C      1.716443    0.446121    0.606417
  C      0.896913    0.347020   -0.676782
  C     -0.566261   -0.084654   -0.472984
  H     -1.051832   -0.094477   -1.456896
  C     -1.337822    0.857896    0.450018
  O     -0.664260   -1.429693   -0.035086
  H      1.731395   -0.504166    1.134926
  H      1.321290    1.212864    1.267016
  H      2.742929    0.707627    0.361869
  H      1.364294   -0.380780   -1.343885
  H      0.894676    1.313322   -1.183050
  H     -0.929672    0.831355    1.457117
  H     -1.282800    1.874391    0.072193
  H     -2.380765    0.553895    0.493531
  H     -0.317257   -1.485194    0.866246

 Total Charge           Charge          ....    0
 Multiplicity           Mult            ....    1
 Number of Electrons    NEL             ....   42
 Basis Dimension        Dim             ....  150

ORBITAL ENERGIES
----------------

  NO   OCC          E(Eh)            E(eV)
   0   2.0000     -18.943282      -515.4729
   1   2.0000     -10.079386      -274.2740
   2   2.0000     -10.025763      -272.8149
   3   2.0000     -10.023238      -272.7462
   4   2.0000     -10.019674      -272.6492
   5   2.0000      -0.981820       -26.7167
   6   2.0000      -0.752595       -20.4792
   7   2.0000      -0.692213       -18.8361
   8   2.0000      -0.617877       -16.8133
   9   2.0000      -0.546716       -14.8769
  10   2.0000      -0.454912       -12.3788
  11   2.0000      -0.436665       -11.8823
  12   2.0000      -0.413750       -11.2587
  13   2.0000      -0.397704       -10.8221
  14   2.0000      -0.360463        -9.8087
  15   2.0000      -0.357476        -9.7274
  16   2.0000      -0.334965        -9.1149
  17   2.0000      -0.319073        -8.6824
  18   2.0000      -0.307514        -8.3679
  19   2.0000      -0.281768        -7.6673
  20   2.0000      -0.232803        -6.3349
  21   0.0000       0.060375         1.6429
  22   0.0000       0.103039         2.8038
  23   0.0000       0.113632         3.0921
  24   0.0000       0.128793         3.5046
  25   0.0000       0.138677         3.7736

MULLIKEN ATOMIC CHARGES
-----------------------
   0 C :   -0.516323
   1 C :   -0.202140
   2 C :   -0.001375
   3 H :    0.144473
   4 C :   -0.487655
   5 O :   -0.411309
   6 H :    0.139640
   7 H :    0.154187
   8 H :    0.152286
   9 H :    0.152362
  10 H :    0.133123
  11 H :    0.146113
  12 H :    0.145438
  13 H :    0.161059
  14 H :    0.290120
Sum of atomic charges:    0.0000000

LOEWDIN ATOMIC CHARGES
----------------------
   0 C :   -0.426386
   1 C :   -0.298784
   2 C :    0.039712
   3 H :    0.180567
   4 C :   -0.400950
   5 O :   -0.606951
   6 H :    0.147327
   7 H :    0.151241
   8 H :    0.155242
   9 H :    0.163231
  10 H :    0.156736
  11 H :    0.153074
  12 H :    0.158529
  13 H :    0.161479
  14 H :    0.265933

  Mayer bond orders larger than 0.100000
B(  0-C ,  1-C ) :   0.8635 B(  0-C ,  6-H ) :   0.9821 B(  0-C ,  7-H ) :   0.9814
B(  0-C ,  8-H ) :   0.9673 B(  1-C ,  2-C ) :   0.9181 B(  1-C ,  9-H ) :   0.9706
B(  1-C , 10-H ) :   0.9709 B(  2-C ,  3-H ) :   0.9635 B(  2-C ,  4-C ) :   0.9393
B(  2-C ,  5-O ) :   0.9344 B(  4-C , 11-H ) :   0.9727 B(  4-C , 12-H ) :   0.9704
B(  4-C , 13-H ) :   0.9677 B(  5-O , 14-H ) :   0.8960

Dispersion correction           -0.003262126
FINAL SINGLE POINT ENERGY      -233.603211039743

DIPOLE MOMENT
-------------

Method             : SCF
Type of density    : Electron Density
Multiplicity       :   1
Irrep              :   0
Energy             :  -233.6082490036858985 Eh
Relativity type    :
Basis              : AO
                                X                 Y                 Z
Electronic contribution:     -1.702583873      -3.242125926      -1.290828021
Nuclear contribution   :      1.953008601       3.758461542       1.565348605
                        -----------------------------------------
Total Dipole Moment    :      0.250424729       0.516335615       0.274520584
                        -----------------------------------------
Magnitude (a.u.)       :      0.636141937
Magnitude (Debye)      :      1.616944302

Rotational constants in cm-1:             0.214225             0.128383             0.105409
Rotational constants in MHz :          6422.310638          3848.813513          3160.081589

                             ****ORCA TERMINATED NORMALLY****
TOTAL RUN TIME: 0 days 0 hours 0 minutes 15 seconds 483 msec
