                         Program Version 6.0.0  -   RELEASE  -
|  1> ! r2scan-3c def2/J RI DEFGRID2 scfconv6 printgap
|  2> %output
|  3>     printlevel normal
|  4> end
|  5> %cpcm
|  6>     smd true
|  7>     smdsolvent "water"
|  8> end
|  9> * xyz 0 1
| 10> C 1.7164429314 0.4461205995 0.6064168711
| 11> C 0.8969128703 0.3470204944 -0.6767817113
| 12> C -0.5662612534 -0.0846544045 -0.4729840834
| 13> H -1.0518319854 -0.0944769791 -1.4568962152
| 14> C -1.3378219328 0.8578961036 0.450018428
| 15> O -0.6642595222 -1.4296932432 -0.0350858101
| 16> H 1.731394915 -0.5041661634 1.1349257476
| 17> H 1.3212898084 1.2128644756 1.2670162405
| 18> H 2.7429291829 0.7076267308 0.3618693407
| 19> H 1.3642935237 -0.3807796221 -1.3438851002
| 20> H 0.8946757349 1.3133222645 -1.1830499988
| 21> H -0.9296724707 0.8313554979 1.4571166194
| 22> H -1.2827998064 1.8743914226 0.0721928337
| 23> H -2.3807654235 0.5538953115 0.49353068
| 24> H -0.3172565663 -1.4851938767 0.8662462298
| 25> *
| 26>
| 27>                          ****END OF INPUT****

CARTESIAN COORDINATES (ANGSTROEM)
---------------------------------
  C      1.716443    0.446121    0.606417
  C      0.896913    0.347020   -0.676782
  C     -0.566261   -0.084654   -0.472984
  H     -1.051832   -0.094477   -1.456896
  C     -1.337822    0.857896    0.450018
  O     -0.664260   -1.429693   -0.035086
  H      1.731395   -0.504166    1.134926
  H      1.321290    1.212864    1.267016
  H      2.742929    0.707627    0.361869
  H      1.364294   -0.380780   -1.343885
  H      0.894676    1.313322   -1.183050
  H     -0.929672    0.831355    1.457117
  H     -1.282800    1.874391    0.072193
  H     -2.380765    0.553895    0.493531
  H     -0.317257   -1.485194    0.866246

 Total Charge           Charge          ....    0
 Multiplicity           Mult            ....    1
 Number of Electrons    NEL             ....   42
 Basis Dimension        Dim             ....  150

ORBITAL ENERGIES
----------------

  NO   OCC          E(Eh)            E(eV)
   0   2.0000     -18.948037      -515.6023
   1   2.0000     -10.074237      -274.1339
   2   2.0000     -10.016795      -272.5708
   3   2.0000     -10.009704      -272.3779
   4   2.0000     -10.009129      -272.3623
   5   2.0000      -0.985328       -26.8121
   6   2.0000      -0.743965       -20.2443
   7   2.0000      -0.682511       -18.5721
   8   2.0000      -0.608945       -16.5702
   9   2.0000      -0.541081       -14.7236
  10   2.0000      -0.449383       -12.2283
  11   2.0000      -0.430406       -11.7119
  12   2.0000      -0.404130       -10.9969
  13   2.0000      -0.392540       -10.6816
  14   2.0000      -0.349593        -9.5129
  15   2.0000      -0.346667        -9.4333
  16   2.0000      -0.331646        -9.0245
  17   2.0000      -0.310865        -8.4591
  18   2.0000      -0.299014        -8.1366
  19   2.0000      -0.278580        -7.5806
  20   2.0000      -0.237216        -6.4550
  21   0.0000       0.075933         2.0662
  22   0.0000       0.117002         3.1838
  23   0.0000       0.123176         3.3518
  24   0.0000       0.141059         3.8384
  25   0.0000       0.146559         3.9881

MULLIKEN ATOMIC CHARGES
-----------------------
   0 C :   -0.533874
   1 C :   -0.239471
   2 C :    0.024140
   3 H :    0.153714
   4 C :   -0.527292
   5 O :   -0.504616
   6 H :    0.156853
   7 H :    0.163512
   8 H :    0.160615
   9 H :    0.153302
  10 H :    0.150248
  11 H :    0.168859
  12 H :    0.163524
  13 H :    0.161457
  14 H :    0.349030
Sum of atomic charges:    0.0000000

LOEWDIN ATOMIC CHARGES
----------------------
   0 C :   -0.431389
   1 C :   -0.299631
   2 C :    0.039016
   3 H :    0.183144
   4 C :   -0.405166
   5 O :   -0.646780
   6 H :    0.153886
   7 H :    0.155191
   8 H :    0.156119
   9 H :    0.161509
  10 H :    0.163006
  11 H :    0.160992
  12 H :    0.165126
  13 H :    0.160420
  14 H :    0.284557

  Mayer bond orders larger than 0.100000
B(  0-C ,  1-C ) :   0.8733 B(  0-C ,  6-H ) :   0.9752 B(  0-C ,  7-H ) :   0.9766
B(  0-C ,  8-H ) :   0.9670 B(  1-C ,  2-C ) :   0.9182 B(  1-C ,  9-H ) :   0.9734
B(  1-C , 10-H ) :   0.9694 B(  2-C ,  3-H ) :   0.9629 B(  2-C ,  4-C ) :   0.9336
B(  2-C ,  5-O ) :   0.9162 B(  4-C , 11-H ) :   0.9692 B(  4-C , 12-H ) :   0.9664
B(  4-C , 13-H ) :   0.9652 B(  5-O , 14-H ) :   0.8682

Dispersion correction           -0.003262126
FINAL SINGLE POINT ENERGY      -233.610083732421

DIPOLE MOMENT
-------------

Method             : SCF
Type of density    : Electron Density
Multiplicity       :   1
Irrep              :   0
Energy             :  -233.6151216963637580 Eh
Relativity type    :
Basis              : AO
                                X                 Y                 Z
Electronic contribution:     -1.608987185      -3.037475134      -1.131674231
Nuclear contribution   :      1.953008601       3.758461542       1.565348605
                        -----------------------------------------
Total Dipole Moment    :      0.344021416       0.720986408       0.433674375
                        -----------------------------------------
Magnitude (a.u.)       :      0.908980527
Magnitude (Debye)      :      2.310444886

Rotational constants in cm-1:             0.214225             0.128383             0.105409
Rotational constants in MHz :          6422.310638          3848.813513          3160.081589

                             ****ORCA TERMINATED NORMALLY****
TOTAL RUN TIME: 0 days 0 hours 0 minutes 17 seconds 370 msec
