                         Program Version 6.0.0  -   RELEASE  -
|  1> ! r2scan-3c def2/J RI DEFGRID2 scfconv6 printgap
|  2> %output
|  3>     printlevel normal
|  4> end
|  5> * xyz 0 1
|  6> C 2.7173342515 2.5103705906 1.1852202416
|  7> C 2.2630754251 1.7139747801 -0.0358659997
|  8> C 3.0728982413 0.4039145331 -0.2068322433
|  9> C 2.0328028049 -0.6607157497 -0.0374434151
| 10> C 2.1226595941 -2.0343610193 -0.0801605655
| 11> C 0.9696946988 -2.7847443267 0.1086399757
| 12> C -0.2476620422 -2.1682837343 0.3398756706
| 13> C -0.3426502969 -0.7831635746 0.3819589797
| 14> C 0.8084603978 -0.0324745194 0.1852813087
| 15> O 0.8787440695 1.3162218616 0.1897812505
| 16> O -1.5422714184 -0.1231966613 0.6604955645
| 17> C -2.6195966815 -0.3630068162 -0.1339922362
| 18> O -2.6009513547 -1.0964190683 -1.105979505
| 19> N -3.6764469844 0.3195413396 0.3135528313
| 20> C -4.9648488696 0.3018338639 -0.3412731153
| 21> C 2.2946118349 2.5747114764 -1.2964920229
| 22> H 2.6579035834 1.8900368552 2.0764399099
| 23> H 3.7404092783 2.8465329346 1.0477405971
| 24> H 2.072104242 3.3738657762 1.3222326192
| 25> H 3.5387656459 0.3499866248 -1.1911775512
| 26> H 3.8553319255 0.3189661368 0.5475271231
| 27> H 3.0701127038 -2.5167698866 -0.2586917506
| 28> H 1.0165884504 -3.8611508294 0.0774559067
| 29> H -1.1427857444 -2.7537911154 0.4797762335
| 30> H -3.5466262271 0.9105127743 1.1207332817
| 31> H -5.221281198 1.2980775402 -0.6999933801
| 32> H -5.7306662725 -0.0460145301 0.350590482
| 33> H -4.899713216 -0.3813874789 -1.1856889236
| 34> H 3.3097672498 2.9049843859 -1.4939667276
| 35> H 1.654445767 3.4430558996 -1.166144233
| 36> H 1.9299038319 2.0023542777 -2.146496099
| 37> *
| 38>
| 39>                          ****END OF INPUT****

CARTESIAN COORDINATES (ANGSTROEM)
---------------------------------
  C      2.717334    2.510371    1.185220
  C      2.263075    1.713975   -0.035866
  C      3.072898    0.403915   -0.206832
  C      2.032803   -0.660716   -0.037443
  C      2.122660   -2.034361   -0.080161
  C      0.969695   -2.784744    0.108640
  C     -0.247662   -2.168284    0.339876
  C     -0.342650   -0.783164    0.381959
  C      0.808460   -0.032475    0.185281
  O      0.878744    1.316222    0.189781
  O     -1.542271   -0.123197    0.660496
  C     -2.619597   -0.363007   -0.133992
  O     -2.600951   -1.096419   -1.105980
  N     -3.676447    0.319541    0.313553
  C     -4.964849    0.301834   -0.341273
  C      2.294612    2.574711   -1.296492
  H      2.657904    1.890037    2.076440
  H      3.740409    2.846533    1.047741
  H      2.072104    3.373866    1.322233
  H      3.538766    0.349987   -1.191178
  H      3.855332    0.318966    0.547527
  H      3.070113   -2.516770   -0.258692
  H      1.016588   -3.861151    0.077456
  H     -1.142786   -2.753791    0.479776
  H     -3.546626    0.910513    1.120733
  H     -5.221281    1.298078   -0.699993
  H     -5.730666   -0.046015    0.350590
  H     -4.899713   -0.381387   -1.185689
  H      3.309767    2.904984   -1.493967
  H      1.654446    3.443056   -1.166144
  H      1.929904    2.002354   -2.146496

 Total Charge           Charge          ....    0
 Multiplicity           Mult            ....    1
 Number of Electrons    NEL             ....  118
 Basis Dimension        Dim             ....  399

ORBITAL ENERGIES
----------------

  NO   OCC          E(Eh)            E(eV)
   0   2.0000     -18.996924      -516.9326
   1   2.0000     -18.978586      -516.4336
   2   2.0000     -18.910357      -514.5770
   3   2.0000     -14.190302      -386.1377
   4   2.0000     -10.168534      -276.6999
   5   2.0000     -10.105655      -274.9888
   6   2.0000     -10.091063      -274.5918
   7   2.0000     -10.086664      -274.4721
   8   2.0000     -10.066913      -273.9346
   9   2.0000     -10.043127      -273.2874
  10   2.0000     -10.036956      -273.1195
  11   2.0000     -10.030121      -272.9335
  12   2.0000     -10.030043      -272.9313
  13   2.0000     -10.026924      -272.8465
  14   2.0000     -10.026199      -272.8267
  15   2.0000     -10.025059      -272.7957
  16   2.0000      -1.072599       -29.1869
  17   2.0000      -1.036467       -28.2037
  18   2.0000      -0.973436       -26.4885
  19   2.0000      -0.899958       -24.4891
  20   2.0000      -0.821375       -22.3508
  21   2.0000      -0.783459       -21.3190
  22   2.0000      -0.736615       -20.0443
  23   2.0000      -0.717670       -19.5288
  24   2.0000      -0.678764       -18.4701
  25   2.0000      -0.667478       -18.1630
  26   2.0000      -0.655535       -17.8380
  27   2.0000      -0.597645       -16.2628
  28   2.0000      -0.577908       -15.7257
  29   2.0000      -0.553570       -15.0634
  30   2.0000      -0.542167       -14.7531
  31   2.0000      -0.521962       -14.2033
  32   2.0000      -0.477542       -12.9946
  33   2.0000      -0.454302       -12.3622
  34   2.0000      -0.449243       -12.2245
  35   2.0000      -0.445077       -12.1112
  36   2.0000      -0.441878       -12.0241
  37   2.0000      -0.433212       -11.7883
  38   2.0000      -0.413035       -11.2393
  39   2.0000      -0.409028       -11.1302
  40   2.0000      -0.392253       -10.6738
  41   2.0000      -0.387051       -10.5322
  42   2.0000      -0.381379       -10.3778
  43   2.0000      -0.374508       -10.1909
  44   2.0000      -0.370491       -10.0816
  45   2.0000      -0.362776        -9.8716
  46   2.0000      -0.355847        -9.6831
  47   2.0000      -0.347568        -9.4578
  48   2.0000      -0.340439        -9.2638
  49   2.0000      -0.332552        -9.0492
  50   2.0000      -0.327020        -8.8987
  51   2.0000      -0.314944        -8.5701
  52   2.0000      -0.298536        -8.1236
  53   2.0000      -0.287130        -7.8132
  54   2.0000      -0.277733        -7.5575
  55   2.0000      -0.237482        -6.4622
  56   2.0000      -0.232020        -6.3136
  57   2.0000      -0.217688        -5.9236
  58   2.0000      -0.189423        -5.1545
  59   0.0000      -0.027271        -0.7421
  60   0.0000      -0.008674        -0.2360
  61   0.0000       0.033158         0.9023
  62   0.0000       0.052047         1.4163
  63   0.0000       0.069557         1.8928

MULLIKEN ATOMIC CHARGES
-----------------------
   0 C :   -0.492913
   1 C :    0.309465
   2 C :   -0.465346
   3 C :    0.225208
   4 C :   -0.279083
   5 C :   -0.153920
   6 C :   -0.217009
   7 C :    0.035255
   8 C :    0.078340
   9 O :   -0.180637
  10 O :   -0.159260
  11 C :    0.338371
  12 O :   -0.481550
  13 N :   -0.159952
  14 C :   -0.391998
  15 C :   -0.491574
  16 H :    0.158058
  17 H :    0.157070
  18 H :    0.160392
  19 H :    0.171412
  20 H :    0.171892
  21 H :    0.148545
  22 H :    0.145942
  23 H :    0.159106
  24 H :    0.251398
  25 H :    0.144259
  26 H :    0.144008
  27 H :    0.196830
  28 H :    0.157234
  29 H :    0.159697
  30 H :    0.160761
Sum of atomic charges:   -0.0000000

LOEWDIN ATOMIC CHARGES
----------------------
   0 C :   -0.368570
   1 C :    0.102655
   2 C :   -0.219489
   3 C :   -0.056106
   4 C :   -0.155932
   5 C :   -0.176921
   6 C :   -0.108788
   7 C :    0.213468
   8 C :    0.237915
   9 O :   -0.628619
  10 O :   -0.483939
  11 C :    0.458757
  12 O :   -0.414400
  13 N :   -0.604797
  14 C :   -0.108241
  15 C :   -0.368180
  16 H :    0.165629
  17 H :    0.160978
  18 H :    0.165328
  19 H :    0.175576
  20 H :    0.175039
  21 H :    0.169436
  22 H :    0.167773
  23 H :    0.185974
  24 H :    0.278851
  25 H :    0.169022
  26 H :    0.169331
  27 H :    0.205213
  28 H :    0.160861
  29 H :    0.165242
  30 H :    0.166932

  Mayer bond orders larger than 0.100000
B(  0-C ,  1-C ) :   0.9620 B(  0-C , 16-H ) :   0.9655 B(  0-C , 17-H ) :   0.9769
B(  0-C , 18-H ) :   0.9722 B(  1-C ,  2-C ) :   0.8851 B(  1-C ,  8-C ) :   0.1363
B(  1-C ,  9-O ) :   0.6385 B(  1-C , 15-C ) :   0.9598 B(  2-C ,  3-C ) :   0.6695
B(  2-C , 19-H ) :   0.9577 B(  2-C , 20-H ) :   0.9752 B(  3-C ,  4-C ) :   1.2994
B(  3-C ,  8-C ) :   1.3903 B(  4-C ,  5-C ) :   1.4111 B(  4-C , 21-H ) :   0.9401
B(  5-C ,  6-C ) :   1.3948 B(  5-C , 22-H ) :   0.9545 B(  6-C ,  7-C ) :   1.3307
B(  6-C , 23-H ) :   0.9270 B(  7-C ,  8-C ) :   1.6292 B(  7-C , 10-O ) :   0.8222
B(  8-C ,  9-O ) :   1.1251 B( 10-O , 11-C ) :   1.0792 B( 11-C , 12-O ) :   1.8392
B( 11-C , 13-N ) :   1.2783 B( 13-N , 14-C ) :   0.8980 B( 13-N , 24-H ) :   0.9077
B( 14-C , 25-H ) :   0.9610 B( 14-C , 26-H ) :   0.9633 B( 14-C , 27-H ) :   0.9592
B( 15-C , 28-H ) :   0.9775 B( 15-C , 29-H ) :   0.9720 B( 15-C , 30-H ) :   0.9643

Dispersion correction           -0.011836807
FINAL SINGLE POINT ENERGY      -746.591556735125

DIPOLE MOMENT
-------------

Method             : SCF
Type of density    : Electron Density
Multiplicity       :   1
Irrep              :   0
Energy             :  -746.5997755588643940 Eh
Relativity type    :
Basis              : AO
                                X                 Y                 Z
Electronic contribution:     -5.605817491      -8.267526149       1.612306271
Nuclear contribution   :      5.845930618       9.177792773      -1.052501385
                        -----------------------------------------
Total Dipole Moment    :      0.240113127       0.910266625       0.559804885
                        -----------------------------------------
Magnitude (a.u.)       :      1.095272182
Magnitude (Debye)      :      2.783960641

Rotational constants in cm-1:             0.028923             0.011278             0.008897
Rotational constants in MHz :           867.085842           338.108699           266.711311

                             ****ORCA TERMINATED NORMALLY****
TOTAL RUN TIME: 0 days 0 hours 1 minutes 9 seconds 53 msec
