                         Program Version 6.0.0  -   RELEASE  -
|  1> ! r2scan-3c def2/J RI DEFGRID2 scfconv6 printgap
|  2> %output
|  3>     printlevel normal
|  4> end
|  5> %cpcm
|  6>     smd true
|  7>     smdsolvent "water"
|  8> end
|  9> * xyz 0 1
| 10> C 2.7173342515 2.5103705906 1.1852202416
| 11> C 2.2630754251 1.7139747801 -0.0358659997
| 12> C 3.0728982413 0.4039145331 -0.2068322433
| 13> C 2.0328028049 -0.6607157497 -0.0374434151
| 14> C 2.1226595941 -2.0343610193 -0.0801605655
| 15> C 0.9696946988 -2.7847443267 0.1086399757
| 16> C -0.2476620422 -2.1682837343 0.3398756706
| 17> C -0.3426502969 -0.7831635746 0.3819589797
| 18> C 0.8084603978 -0.0324745194 0.1852813087
| 19> O 0.8787440695 1.3162218616 0.1897812505
| 20> O -1.5422714184 -0.1231966613 0.6604955645
| 21> C -2.6195966815 -0.3630068162 -0.1339922362
| 22> O -2.6009513547 -1.0964190683 -1.105979505
| 23> N -3.6764469844 0.3195413396 0.3135528313
| 24> C -4.9648488696 0.3018338639 -0.3412731153
| 25> C 2.2946118349 2.5747114764 -1.2964920229
| 26> H 2.6579035834 1.8900368552 2.0764399099
| 27> H 3.7404092783 2.8465329346 1.0477405971
| 28> H 2.072104242 3.3738657762 1.3222326192
| 29> H 3.5387656459 0.3499866248 -1.1911775512
| 30> H 3.8553319255 0.3189661368 0.5475271231
| 31> H 3.0701127038 -2.5167698866 -0.2586917506
| 32> H 1.0165884504 -3.8611508294 0.0774559067
| 33> H -1.1427857444 -2.7537911154 0.4797762335
| 34> H -3.5466262271 0.9105127743 1.1207332817
| 35> H -5.221281198 1.2980775402 -0.6999933801
| 36> H -5.7306662725 -0.0460145301 0.350590482
| 37> H -4.899713216 -0.3813874789 -1.1856889236
| 38> H 3.3097672498 2.9049843859 -1.4939667276
| 39> H 1.654445767 3.4430558996 -1.166144233
| 40> H 1.9299038319 2.0023542777 -2.146496099
| 41> *
| 42>
| 43>                          ****END OF INPUT****

CARTESIAN COORDINATES (ANGSTROEM)
---------------------------------
  C      2.717334    2.510371    1.185220
  C      2.263075    1.713975   -0.035866
  C      3.072898    0.403915   -0.206832
  C      2.032803   -0.660716   -0.037443
  C      2.122660   -2.034361   -0.080161
  C      0.969695   -2.784744    0.108640
  C     -0.247662   -2.168284    0.339876
  C     -0.342650   -0.783164    0.381959
  C      0.808460   -0.032475    0.185281
  O      0.878744    1.316222    0.189781
  O     -1.542271   -0.123197    0.660496
  C     -2.619597   -0.363007   -0.133992
  O     -2.600951   -1.096419   -1.105980
  N     -3.676447    0.319541    0.313553
  C     -4.964849    0.301834   -0.341273
  C      2.294612    2.574711   -1.296492
  H      2.657904    1.890037    2.076440
  H      3.740409    2.846533    1.047741
  H      2.072104    3.373866    1.322233
  H      3.538766    0.349987   -1.191178
  H      3.855332    0.318966    0.547527
  H      3.070113   -2.516770   -0.258692
  H      1.016588   -3.861151    0.077456
  H     -1.142786   -2.753791    0.479776
  H     -3.546626    0.910513    1.120733
  H     -5.221281    1.298078   -0.699993
  H     -5.730666   -0.046015    0.350590
  H     -4.899713   -0.381387   -1.185689
  H      3.309767    2.904984   -1.493967
  H      1.654446    3.443056   -1.166144
  H      1.929904    2.002354   -2.146496

 Total Charge           Charge          ....    0
 Multiplicity           Mult            ....    1
 Number of Electrons    NEL             ....  118
 Basis Dimension        Dim             ....  399

ORBITAL ENERGIES
----------------

  NO   OCC          E(Eh)            E(eV)
   0   2.0000     -19.011000      -517.3156
   1   2.0000     -18.987619      -516.6794
   2   2.0000     -18.933577      -515.2088
   3   2.0000     -14.191558      -386.1719
   4   2.0000     -10.185492      -277.1613
   5   2.0000     -10.101144      -274.8661
   6   2.0000     -10.100792      -274.8565
   7   2.0000     -10.095521      -274.7131
   8   2.0000     -10.056746      -273.6580
   9   2.0000     -10.043752      -273.3044
  10   2.0000     -10.037898      -273.1451
  11   2.0000     -10.035129      -273.0698
  12   2.0000     -10.034977      -273.0656
  13   2.0000     -10.032002      -272.9847
  14   2.0000     -10.014893      -272.5191
  15   2.0000     -10.014848      -272.5179
  16   2.0000      -1.088280       -29.6136
  17   2.0000      -1.044664       -28.4268
  18   2.0000      -0.994352       -27.0577
  19   2.0000      -0.903259       -24.5789
  20   2.0000      -0.829862       -22.5817
  21   2.0000      -0.779539       -21.2123
  22   2.0000      -0.739115       -20.1123
  23   2.0000      -0.723441       -19.6858
  24   2.0000      -0.678009       -18.4496
  25   2.0000      -0.657056       -17.8794
  26   2.0000      -0.654968       -17.8226
  27   2.0000      -0.601562       -16.3693
  28   2.0000      -0.582456       -15.8494
  29   2.0000      -0.554103       -15.0779
  30   2.0000      -0.543324       -14.7846
  31   2.0000      -0.527127       -14.3439
  32   2.0000      -0.483509       -13.1569
  33   2.0000      -0.463605       -12.6153
  34   2.0000      -0.452241       -12.3061
  35   2.0000      -0.445396       -12.1198
  36   2.0000      -0.440616       -11.9898
  37   2.0000      -0.436375       -11.8744
  38   2.0000      -0.420224       -11.4349
  39   2.0000      -0.404417       -11.0048
  40   2.0000      -0.397566       -10.8183
  41   2.0000      -0.386723       -10.5233
  42   2.0000      -0.379671       -10.3314
  43   2.0000      -0.374432       -10.1888
  44   2.0000      -0.369468       -10.0537
  45   2.0000      -0.358689        -9.7604
  46   2.0000      -0.356387        -9.6978
  47   2.0000      -0.346225        -9.4213
  48   2.0000      -0.338690        -9.2162
  49   2.0000      -0.335531        -9.1303
  50   2.0000      -0.324332        -8.8255
  51   2.0000      -0.319151        -8.6845
  52   2.0000      -0.297444        -8.0939
  53   2.0000      -0.293709        -7.9922
  54   2.0000      -0.289920        -7.8891
  55   2.0000      -0.263609        -7.1732
  56   2.0000      -0.239658        -6.5214
  57   2.0000      -0.226849        -6.1729
  58   2.0000      -0.198695        -5.4068
  59   0.0000      -0.036179        -0.9845
  60   0.0000      -0.018947        -0.5156
  61   0.0000       0.018097         0.4924
  62   0.0000       0.048707         1.3254
  63   0.0000       0.074505         2.0274

MULLIKEN ATOMIC CHARGES
-----------------------
   0 C :   -0.536493
   1 C :    0.348666
   2 C :   -0.457633
   3 C :    0.188420
   4 C :   -0.294450
   5 C :   -0.195294
   6 C :   -0.264863
   7 C :    0.004605
   8 C :    0.097825
   9 O :   -0.224850
  10 O :   -0.168173
  11 C :    0.369470
  12 O :   -0.566320
  13 N :   -0.187037
  14 C :   -0.405518
  15 C :   -0.536103
  16 H :    0.168990
  17 H :    0.180824
  18 H :    0.172640
  19 H :    0.197292
  20 H :    0.198684
  21 H :    0.182156
  22 H :    0.179288
  23 H :    0.189303
  24 H :    0.307654
  25 H :    0.170757
  26 H :    0.170946
  27 H :    0.186437
  28 H :    0.181363
  29 H :    0.172445
  30 H :    0.168969
Sum of atomic charges:   -0.0000000

LOEWDIN ATOMIC CHARGES
----------------------
   0 C :   -0.372296
   1 C :    0.107441
   2 C :   -0.212962
   3 C :   -0.050002
   4 C :   -0.158624
   5 C :   -0.187432
   6 C :   -0.130236
   7 C :    0.197071
   8 C :    0.229280
   9 O :   -0.654269
  10 O :   -0.490716
  11 C :    0.460286
  12 O :   -0.483893
  13 N :   -0.578412
  14 C :   -0.103497
  15 C :   -0.372427
  16 H :    0.167904
  17 H :    0.171234
  18 H :    0.167451
  19 H :    0.186299
  20 H :    0.186472
  21 H :    0.182962
  22 H :    0.179194
  23 H :    0.194303
  24 H :    0.295446
  25 H :    0.181032
  26 H :    0.181793
  27 H :    0.199895
  28 H :    0.171319
  29 H :    0.167400
  30 H :    0.167982

  Mayer bond orders larger than 0.100000
B(  0-C ,  1-C ) :   0.9518 B(  0-C , 16-H ) :   0.9631 B(  0-C , 17-H ) :   0.9676
B(  0-C , 18-H ) :   0.9712 B(  1-C ,  2-C ) :   0.8826 B(  1-C ,  8-C ) :   0.1294
B(  1-C ,  9-O ) :   0.6348 B(  1-C , 15-C ) :   0.9476 B(  2-C ,  3-C ) :   0.6787
B(  2-C , 19-H ) :   0.9545 B(  2-C , 20-H ) :   0.9698 B(  3-C ,  4-C ) :   1.2829
B(  3-C ,  8-C ) :   1.3582 B(  4-C ,  5-C ) :   1.3692 B(  4-C , 21-H ) :   0.9595
B(  5-C ,  6-C ) :   1.3559 B(  5-C , 22-H ) :   0.9685 B(  6-C ,  7-C ) :   1.2779
B(  6-C , 23-H ) :   0.9527 B(  7-C ,  8-C ) :   1.5843 B(  7-C , 10-O ) :   0.7991
B(  8-C ,  9-O ) :   1.1141 B( 10-O , 11-C ) :   1.0802 B( 11-C , 12-O ) :   1.7608
B( 11-C , 13-N ) :   1.3351 B( 13-N , 14-C ) :   0.8890 B( 13-N , 24-H ) :   0.8854
B( 14-C , 25-H ) :   0.9532 B( 14-C , 26-H ) :   0.9546 B( 14-C , 27-H ) :   0.9595
B( 15-C , 28-H ) :   0.9681 B( 15-C , 29-H ) :   0.9713 B( 15-C , 30-H ) :   0.9632

Dispersion correction           -0.011836807
FINAL SINGLE POINT ENERGY      -746.606715805879

DIPOLE MOMENT
-------------

Method             : SCF
Type of density    : Electron Density
Multiplicity       :   1
Irrep              :   0
Energy             :  -746.6149346296185740 Eh
Relativity type    :
Basis              : AO
                                X                 Y                 Z
Electronic contribution:     -5.291110380      -7.916527000       1.924021794
Nuclear contribution   :      5.845930618       9.177792773      -1.052501385
                        -----------------------------------------
Total Dipole Moment    :      0.554820239       1.261265773       0.871520409
                        -----------------------------------------
Magnitude (a.u.)       :      1.630387890
Magnitude (Debye)      :      4.144116678

Rotational constants in cm-1:             0.028923             0.011278             0.008897
Rotational constants in MHz :           867.085842           338.108699           266.711311

                             ****ORCA TERMINATED NORMALLY****
TOTAL RUN TIME: 0 days 0 hours 1 minutes 35 seconds 221 msec
