                         Program Version 6.0.0  -   RELEASE  -
|  1> ! pbe def2-sv(p) def2/J RI DEFGRID1 loosescf d4 GCP(DFT/SV(P)) printgap
|  2> %output
|  3>     printlevel normal
|  4> end
|  5> * xyz 0 1
|  6> C -2.4624690774 -0.5274135962 -0.1828402405
|  7> C -1.0156387896 -0.2280267008 0.2239344862
|  8> H -0.9101456501 -0.348085616 1.3135925457
|  9> C -0.6228375847 1.2205284577 -0.1461826502
| 10> H -1.1657317596 1.5206402369 -1.0489617661
| 11> C 0.8958121119 1.2965379604 -0.4308882904
| 12> H 1.2353308256 2.3067124062 -0.1571356772
| 13> C 1.6267924906 0.2776001782 0.4531257708
| 14> H 2.7013217387 0.3325460521 0.2397167799
| 15> C 1.1605670489 -1.1493573909 0.0546397942
| 16> H 1.2342818607 -1.8125539069 0.9343602088
| 17> O -0.1656409394 -1.1554596335 -0.4282147902
| 18> O 1.9766473982 -1.6998394094 -0.9133122094
| 19> O 1.3481735981 0.5908886082 1.7953979983
| 20> O 1.2279241883 0.9963975808 -1.7612067143
| 21> O -1.0087795185 2.1305977359 0.8483894108
| 22> O -2.9830934934 -1.6965553489 0.3925694128
| 23> H -2.4933727313 -0.689301245 -1.2617648781
| 24> H -3.0751767273 0.3453717796 0.076701895
| 25> H 1.8528145556 -1.1970096884 -1.7369026972
| 26> H 1.9927677179 0.1659333493 2.3782293506
| 27> H 0.8459622031 1.6584600224 -2.3545851195
| 28> H -0.4948701197 1.9494734859 1.6517226878
| 29> H -3.0185301416 -1.5981838695 1.3548811471
| 30> *
| 31>
| 32>                          ****END OF INPUT****

CARTESIAN COORDINATES (ANGSTROEM)
---------------------------------
  C     -2.462469   -0.527414   -0.182840
  C     -1.015639   -0.228027    0.223934
  H     -0.910146   -0.348086    1.313593
  C     -0.622838    1.220528   -0.146183
  H     -1.165732    1.520640   -1.048962
  C      0.895812    1.296538   -0.430888
  H      1.235331    2.306712   -0.157136
  C      1.626792    0.277600    0.453126
  H      2.701322    0.332546    0.239717
  C      1.160567   -1.149357    0.054640
  H      1.234282   -1.812554    0.934360
  O     -0.165641   -1.155460   -0.428215
  O      1.976647   -1.699839   -0.913312
  O      1.348174    0.590889    1.795398
  O      1.227924    0.996398   -1.761207
  O     -1.008780    2.130598    0.848389
  O     -2.983093   -1.696555    0.392569
  H     -2.493373   -0.689301   -1.261765
  H     -3.075177    0.345372    0.076702
  H      1.852815   -1.197010   -1.736903
  H      1.992768    0.165933    2.378229
  H      0.845962    1.658460   -2.354585
  H     -0.494870    1.949473    1.651723
  H     -3.018530   -1.598184    1.354881

 Total Charge           Charge          ....    0
 Multiplicity           Mult            ....    1
 Number of Electrons    NEL             ....   96
 Basis Dimension        Dim             ....  192

ORBITAL ENERGIES
----------------

  NO   OCC          E(Eh)            E(eV)
   0   2.0000     -18.781749      -511.0774
   1   2.0000     -18.772798      -510.8338
   2   2.0000     -18.756556      -510.3918
   3   2.0000     -18.750268      -510.2207
   4   2.0000     -18.746169      -510.1092
   5   2.0000     -18.739469      -509.9269
   6   2.0000      -9.980958      -271.5957
   7   2.0000      -9.950995      -270.7804
   8   2.0000      -9.949973      -270.7525
   9   2.0000      -9.942899      -270.5600
  10   2.0000      -9.937194      -270.4048
  11   2.0000      -9.927050      -270.1288
  12   2.0000      -0.978624       -26.6297
  13   2.0000      -0.951604       -25.8945
  14   2.0000      -0.945690       -25.7335
  15   2.0000      -0.929292       -25.2873
  16   2.0000      -0.918246       -24.9868
  17   2.0000      -0.901434       -24.5293
  18   2.0000      -0.702386       -19.1129
  19   2.0000      -0.687393       -18.7049
  20   2.0000      -0.613832       -16.7032
  21   2.0000      -0.589655       -16.0453
  22   2.0000      -0.563919       -15.3450
  23   2.0000      -0.529579       -14.4106
  24   2.0000      -0.511252       -13.9119
  25   2.0000      -0.494573       -13.4580
  26   2.0000      -0.476437       -12.9645
  27   2.0000      -0.459696       -12.5090
  28   2.0000      -0.453170       -12.3314
  29   2.0000      -0.436337       -11.8733
  30   2.0000      -0.407639       -11.0924
  31   2.0000      -0.392021       -10.6674
  32   2.0000      -0.382547       -10.4096
  33   2.0000      -0.371587       -10.1114
  34   2.0000      -0.364747        -9.9253
  35   2.0000      -0.345738        -9.4080
  36   2.0000      -0.336435        -9.1549
  37   2.0000      -0.326453        -8.8832
  38   2.0000      -0.304069        -8.2741
  39   2.0000      -0.295719        -8.0469
  40   2.0000      -0.277152        -7.5417
  41   2.0000      -0.272558        -7.4167
  42   2.0000      -0.258915        -7.0454
  43   2.0000      -0.246772        -6.7150
  44   2.0000      -0.239084        -6.5058
  45   2.0000      -0.219271        -5.9667
  46   2.0000      -0.210292        -5.7223
  47   2.0000      -0.191433        -5.2092
  48   0.0000      -0.002148        -0.0584
  49   0.0000       0.017000         0.4626
  50   0.0000       0.030277         0.8239
  51   0.0000       0.055555         1.5117
  52   0.0000       0.068093         1.8529

MULLIKEN ATOMIC CHARGES
-----------------------
   0 C :    0.075650
   1 C :    0.021954
   2 H :    0.034883
   3 C :    0.045641
   4 H :    0.050302
   5 C :    0.063941
   6 H :    0.069597
   7 C :   -0.051567
   8 H :    0.084237
   9 C :    0.237439
  10 H :    0.045638
  11 O :   -0.289959
  12 O :   -0.395818
  13 O :   -0.419786
  14 O :   -0.420563
  15 O :   -0.426836
  16 O :   -0.428323
  17 H :    0.086854
  18 H :    0.083750
  19 H :    0.304886
  20 H :    0.318088
  21 H :    0.312044
  22 H :    0.305752
  23 H :    0.292196
Sum of atomic charges:    0.0000000

LOEWDIN ATOMIC CHARGES
----------------------
   0 C :   -0.127354
   1 C :   -0.080189
   2 H :    0.094706
   3 C :   -0.075201
   4 H :    0.110137
   5 C :   -0.072787
   6 H :    0.104773
   7 C :   -0.095379
   8 H :    0.113810
   9 C :    0.003490
  10 H :    0.090306
  11 O :   -0.147914
  12 O :   -0.296963
  13 O :   -0.314181
  14 O :   -0.312549
  15 O :   -0.314927
  16 O :   -0.331568
  17 H :    0.119432
  18 H :    0.101855
  19 H :    0.280573
  20 H :    0.297355
  21 H :    0.292819
  22 H :    0.278868
  23 H :    0.280888

  Mayer bond orders larger than 0.100000
B(  0-C ,  1-C ) :   1.0281 B(  0-C , 16-O ) :   1.0848 B(  0-C , 17-H ) :   0.9026
B(  0-C , 18-H ) :   0.9211 B(  1-C ,  2-H ) :   0.8645 B(  1-C ,  3-C ) :   0.9646
B(  1-C , 11-O ) :   1.0316 B(  3-C ,  4-H ) :   0.8855 B(  3-C ,  5-C ) :   0.9631
B(  3-C , 15-O ) :   1.0301 B(  5-C ,  6-H ) :   0.8927 B(  5-C ,  7-C ) :   1.0288
B(  5-C , 14-O ) :   1.0422 B(  7-C ,  8-H ) :   0.8982 B(  7-C ,  9-C ) :   0.9266
B(  7-C , 13-O ) :   1.0450 B(  9-C , 10-H ) :   0.9031 B(  9-C , 11-O ) :   1.0348
B(  9-C , 12-O ) :   1.1477 B( 12-O , 19-H ) :   0.8267 B( 13-O , 20-H ) :   0.8408
B( 14-O , 21-H ) :   0.8416 B( 15-O , 22-H ) :   0.8314 B( 16-O , 23-H ) :   0.8541

Dispersion correction           -0.024776260
FINAL SINGLE POINT ENERGY      -685.690094327156

DIPOLE MOMENT
-------------

Method             : SCF
Type of density    : Electron Density
Multiplicity       :   1
Irrep              :   0
Energy             :  -685.8204671429660948 Eh
Relativity type    :
Basis              : AO
                                X                 Y                 Z
Electronic contribution:      1.842199722      -1.448351999      -0.666394128
Nuclear contribution   :     -1.209401850       2.458788063       1.302936599
                        -----------------------------------------
Total Dipole Moment    :      0.632797872       1.010436065       0.636542471
                        -----------------------------------------
Magnitude (a.u.)       :      1.351517852
Magnitude (Debye)      :      3.435285373

Rotational constants in cm-1:             0.038744             0.026778             0.021786
Rotational constants in MHz :          1161.518126           802.769900           653.140680

                             ****ORCA TERMINATED NORMALLY****
TOTAL RUN TIME: 0 days 0 hours 0 minutes 11 seconds 930 msec
