                         Program Version 6.0.0  -   RELEASE  -
|  1> ! wb97x-v def2-tzvp def2/J RIJCOSX DEFGRID2 scfconv7 GCP(DFT/TZ) printgap
|  2> %output
|  3>     printlevel normal
|  4> end
|  5> %cpcm
|  6>     smd true
|  7>     smdsolvent "water"
|  8> end
|  9> * xyz 0 1
| 10> C -2.5035669489199748 0.0733359451825035 0.0021970790412574282
| 11> C -1.234067835123155 -0.7638120205715764 -0.0035511446248245025
| 12> C 0.019439739506861047 0.06381409677393549 0.007563210596486488
| 13> O 0.0687986815601081 1.2816590702677249 0.033060048668557294
| 14> O 1.1223061952031417 -0.7145659453813454 -0.012721187696426581
| 15> C 2.391478688947116 -0.012615772139666082 -0.004545753192981245
| 16> H -2.555770706809177 0.7048841108385503 0.8934853005865531
| 17> H -2.552932562133312 0.7204544716865814 -0.8780474843800581
| 18> H -3.379789911541212 -0.57996597189384 -0.004883359823368193
| 19> H -1.1880706750961902 -1.415361288979443 -0.8841538970093401
| 20> H -1.1909113548618306 -1.431319423851576 0.8653654234620751
| 21> H 2.47540865060933 0.6278280374195454 -0.886189793079009
| 22> H 3.152537375838041 -0.7918834034950295 -0.027731723684363857
| 23> H 2.4872415645845565 0.5858007326862266 0.9049394392019338
| 24> *
| 25>
| 26>                          ****END OF INPUT****

CARTESIAN COORDINATES (ANGSTROEM)
---------------------------------
  C     -2.503567    0.073336    0.002197
  C     -1.234068   -0.763812   -0.003551
  C      0.019440    0.063814    0.007563
  O      0.068799    1.281659    0.033060
  O      1.122306   -0.714566   -0.012721
  C      2.391479   -0.012616   -0.004546
  H     -2.555771    0.704884    0.893485
  H     -2.552933    0.720454   -0.878047
  H     -3.379790   -0.579966   -0.004883
  H     -1.188071   -1.415361   -0.884154
  H     -1.190911   -1.431319    0.865365
  H      2.475409    0.627828   -0.886190
  H      3.152537   -0.791883   -0.027732
  H      2.487242    0.585801    0.904939

 Total Charge           Charge          ....    0
 Multiplicity           Mult            ....    1
 Number of Electrons    NEL             ....   48
 Basis Dimension        Dim             ....  234

ORBITAL ENERGIES
----------------

  NO   OCC          E(Eh)            E(eV)
   0   2.0000     -21.721825      -591.0809
   1   2.0000     -21.669191      -589.6487
   2   2.0000     -12.184771      -331.5645
   3   2.0000     -12.092024      -329.0407
   4   2.0000     -12.053957      -328.0048
   5   2.0000     -12.032851      -327.4305
   6   2.0000      -1.763331       -47.9827
   7   2.0000      -1.702237       -46.3202
   8   2.0000      -1.313330       -35.7375
   9   2.0000      -1.252379       -34.0790
  10   2.0000      -1.146327       -31.1931
  11   2.0000      -1.109918       -30.2024
  12   2.0000      -1.072268       -29.1779
  13   2.0000      -1.001007       -27.2388
  14   2.0000      -0.998340       -27.1662
  15   2.0000      -0.947590       -25.7852
  16   2.0000      -0.917513       -24.9668
  17   2.0000      -0.866743       -23.5853
  18   2.0000      -0.864191       -23.5158
  19   2.0000      -0.837098       -22.7786
  20   2.0000      -0.828768       -22.5519
  21   2.0000      -0.816301       -22.2127
  22   2.0000      -0.791944       -21.5499
  23   2.0000      -0.773276       -21.0419
  24   0.0000      -0.304984        -8.2990
  25   0.0000      -0.176503        -4.8029
  26   0.0000      -0.105855        -2.8805
  27   0.0000      -0.030180        -0.8212
  28   0.0000       0.007679         0.2090

MULLIKEN ATOMIC CHARGES
-----------------------
   0 C :   -0.387120
   1 C :   -0.179962
   2 C :    0.395061
   3 O :   -0.473099
   4 O :   -0.275219
   5 C :   -0.226949
   6 H :    0.128464
   7 H :    0.128689
   8 H :    0.138120
   9 H :    0.148157
  10 H :    0.148450
  11 H :    0.149469
  12 H :    0.156454
  13 H :    0.149484
Sum of atomic charges:   -0.0000000

LOEWDIN ATOMIC CHARGES
----------------------
   0 C :   -0.300370
   1 C :   -0.247420
   2 C :   -0.443818
   3 O :    0.025178
   4 O :    0.213045
   5 C :   -0.287037
   6 H :    0.122721
   7 H :    0.122808
   8 H :    0.124603
   9 H :    0.160088
  10 H :    0.160458
  11 H :    0.115432
  12 H :    0.118922
  13 H :    0.115390

  Mayer bond orders larger than 0.100000
B(  0-C ,  1-C ) :   0.9863 B(  0-C ,  6-H ) :   0.9735 B(  0-C ,  7-H ) :   0.9738
B(  0-C ,  8-H ) :   0.9749 B(  1-C ,  2-C ) :   1.0086 B(  1-C ,  9-H ) :   0.9443
B(  1-C , 10-H ) :   0.9430 B(  2-C ,  3-O ) :   1.9081 B(  2-C ,  4-O ) :   1.2132
B(  4-O ,  5-C ) :   0.8821 B(  5-C , 11-H ) :   0.9734 B(  5-C , 12-H ) :   0.9671
B(  5-C , 13-H ) :   0.9734

FINAL SINGLE POINT ENERGY      -307.727160193695

DIPOLE MOMENT
-------------

Method             : SCF
Type of density    : Electron Density
Multiplicity       :   1
Irrep              :   0
Energy             :  -307.7366074524954342 Eh
Relativity type    :
Basis              : AO
                                X                 Y                 Z
Electronic contribution:      2.834451348       0.402862313       0.021047362
Nuclear contribution   :     -2.594191038      -1.456618936      -0.043904386
                        -----------------------------------------
Total Dipole Moment    :      0.240260310      -1.053756623      -0.022857024
                        -----------------------------------------
Magnitude (a.u.)       :      1.081041387
Magnitude (Debye)      :      2.747788835

Rotational constants in cm-1:             0.317135             0.071071             0.060021
Rotational constants in MHz :          9507.479852          2130.642262          1799.381630

                             ****ORCA TERMINATED NORMALLY****
TOTAL RUN TIME: 0 days 0 hours 1 minutes 27 seconds 933 msec
