                         Program Version 6.0.0  -   RELEASE  -
|  1> ! r2scan-3c def2/J RI DEFGRID2 scfconv6 printgap
|  2> %output
|  3>     printlevel normal
|  4> end
|  5> * xyz 0 1
|  6> C -0.1411653483 -1.2032777484 1.14737e-05
|  7> C -1.5254522332 -1.1369395475 -2.36025e-05
|  8> N -2.203424281 -2.97956e-05 -2.69562e-05
|  9> C -1.5254988168 1.1369088384 -1.16518e-05
| 10> C -0.1412130922 1.2033023741 2.08035e-05
| 11> C 0.5664468716 2.46982e-05 0.0001214921
| 12> C 1.9813395224 5.06814e-05 2.53128e-05
| 13> N 3.1285211761 -2.89372e-05 -6.47164e-05
| 14> H 0.3762098197 -2.1489365857 -0.0001281407
| 15> H -2.1235533904 -2.0371579165 -2.26415e-05
| 16> H -2.1236358207 2.0371031632 -3.71373e-05
| 17> H 0.3761241836 2.1489817687 -0.0002520349
| 18> *
| 19>
| 20>                          ****END OF INPUT****

CARTESIAN COORDINATES (ANGSTROEM)
---------------------------------
  C     -0.141165   -1.203278    0.000011
  C     -1.525452   -1.136940   -0.000024
  N     -2.203424   -0.000030   -0.000027
  C     -1.525499    1.136909   -0.000012
  C     -0.141213    1.203302    0.000021
  C      0.566447    0.000025    0.000121
  C      1.981340    0.000051    0.000025
  N      3.128521   -0.000029   -0.000065
  H      0.376210   -2.148937   -0.000128
  H     -2.123553   -2.037158   -0.000023
  H     -2.123636    2.037103   -0.000037
  H      0.376124    2.148982   -0.000252

 Total Charge           Charge          ....    0
 Multiplicity           Mult            ....    1
 Number of Electrons    NEL             ....   54
 Basis Dimension        Dim             ....  182

ORBITAL ENERGIES
----------------

  NO   OCC          E(Eh)            E(eV)
   0   2.0000     -14.184076      -385.9683
   1   2.0000     -14.174222      -385.7002
   2   2.0000     -10.113343      -275.1980
   3   2.0000     -10.096510      -274.7400
   4   2.0000     -10.096503      -274.7398
   5   2.0000     -10.085513      -274.4408
   6   2.0000     -10.081462      -274.3305
   7   2.0000     -10.081454      -274.3303
   8   2.0000      -0.945964       -25.7410
   9   2.0000      -0.896228       -24.3876
  10   2.0000      -0.821839       -22.3634
  11   2.0000      -0.765496       -20.8302
  12   2.0000      -0.665117       -18.0987
  13   2.0000      -0.637498       -17.3472
  14   2.0000      -0.559394       -15.2219
  15   2.0000      -0.493731       -13.4351
  16   2.0000      -0.476022       -12.9532
  17   2.0000      -0.440933       -11.9984
  18   2.0000      -0.430473       -11.7138
  19   2.0000      -0.416332       -11.3290
  20   2.0000      -0.373744       -10.1701
  21   2.0000      -0.362209        -9.8562
  22   2.0000      -0.345134        -9.3916
  23   2.0000      -0.327267        -8.9054
  24   2.0000      -0.287879        -7.8336
  25   2.0000      -0.279872        -7.6157
  26   2.0000      -0.251608        -6.8466
  27   0.0000      -0.108136        -2.9425
  28   0.0000      -0.071249        -1.9388
  29   0.0000      -0.008561        -0.2330
  30   0.0000       0.028020         0.7625
  31   0.0000       0.046312         1.2602

MULLIKEN ATOMIC CHARGES
-----------------------
   0 C :   -0.112988
   1 C :   -0.105587
   2 N :   -0.172345
   3 C :   -0.105595
   4 C :   -0.112969
   5 C :    0.036870
   6 C :    0.187925
   7 N :   -0.225836
   8 H :    0.165487
   9 H :    0.139778
  10 H :    0.139777
  11 H :    0.165485
Sum of atomic charges:    0.0000000

LOEWDIN ATOMIC CHARGES
----------------------
   0 C :   -0.097297
   1 C :    0.095661
   2 N :   -0.595308
   3 C :    0.095661
   4 C :   -0.097300
   5 C :   -0.038610
   6 C :    0.164961
   7 N :   -0.277818
   8 H :    0.184362
   9 H :    0.190664
  10 H :    0.190664
  11 H :    0.184361

  Mayer bond orders larger than 0.100000
B(  0-C ,  1-C ) :   1.3508 B(  0-C ,  5-C ) :   1.3436 B(  0-C ,  8-H ) :   0.9400
B(  1-C ,  2-N ) :   1.4597 B(  1-C ,  9-H ) :   0.9878 B(  2-N ,  3-C ) :   1.4597
B(  3-C ,  4-C ) :   1.3508 B(  3-C , 10-H ) :   0.9878 B(  4-C ,  5-C ) :   1.3436
B(  4-C , 11-H ) :   0.9400 B(  5-C ,  6-C ) :   1.0216 B(  6-C ,  7-N ) :   2.8284

Dispersion correction           -0.003888833
FINAL SINGLE POINT ENERGY      -340.435953225847

DIPOLE MOMENT
-------------

Method             : SCF
Type of density    : Electron Density
Multiplicity       :   1
Irrep              :   0
Energy             :  -340.4369547158310070 Eh
Relativity type    :
Basis              : AO
                                X                 Y                 Z
Electronic contribution:      2.423435813       0.000048462       0.000369147
Nuclear contribution   :     -3.273691486      -0.000009302      -0.000413259
                        -----------------------------------------
Total Dipole Moment    :     -0.850255673       0.000039160      -0.000044112
                        -----------------------------------------
Magnitude (a.u.)       :      0.850255675
Magnitude (Debye)      :      2.161178174

Rotational constants in cm-1:             0.201867             0.052375             0.041586
Rotational constants in MHz :          6051.831550          1570.170705          1246.707664

                             ****ORCA TERMINATED NORMALLY****
TOTAL RUN TIME: 0 days 0 hours 0 minutes 15 seconds 785 msec
