                         Program Version 6.0.0  -   RELEASE  -
|  1> ! r2scan-3c def2/J RI DEFGRID2 scfconv6 printgap
|  2> %output
|  3>     printlevel normal
|  4> end
|  5> %cpcm
|  6>     smd true
|  7>     smdsolvent "water"
|  8> end
|  9> * xyz 0 1
| 10> C -0.1411653483 -1.2032777484 1.14737e-05
| 11> C -1.5254522332 -1.1369395475 -2.36025e-05
| 12> N -2.203424281 -2.97956e-05 -2.69562e-05
| 13> C -1.5254988168 1.1369088384 -1.16518e-05
| 14> C -0.1412130922 1.2033023741 2.08035e-05
| 15> C 0.5664468716 2.46982e-05 0.0001214921
| 16> C 1.9813395224 5.06814e-05 2.53128e-05
| 17> N 3.1285211761 -2.89372e-05 -6.47164e-05
| 18> H 0.3762098197 -2.1489365857 -0.0001281407
| 19> H -2.1235533904 -2.0371579165 -2.26415e-05
| 20> H -2.1236358207 2.0371031632 -3.71373e-05
| 21> H 0.3761241836 2.1489817687 -0.0002520349
| 22> *
| 23>
| 24>                          ****END OF INPUT****

CARTESIAN COORDINATES (ANGSTROEM)
---------------------------------
  C     -0.141165   -1.203278    0.000011
  C     -1.525452   -1.136940   -0.000024
  N     -2.203424   -0.000030   -0.000027
  C     -1.525499    1.136909   -0.000012
  C     -0.141213    1.203302    0.000021
  C      0.566447    0.000025    0.000121
  C      1.981340    0.000051    0.000025
  N      3.128521   -0.000029   -0.000065
  H      0.376210   -2.148937   -0.000128
  H     -2.123553   -2.037158   -0.000023
  H     -2.123636    2.037103   -0.000037
  H      0.376124    2.148982   -0.000252

 Total Charge           Charge          ....    0
 Multiplicity           Mult            ....    1
 Number of Electrons    NEL             ....   54
 Basis Dimension        Dim             ....  182

ORBITAL ENERGIES
----------------

  NO   OCC          E(Eh)            E(eV)
   0   2.0000     -14.174616      -385.7109
   1   2.0000     -14.173606      -385.6834
   2   2.0000     -10.099323      -274.8166
   3   2.0000     -10.089937      -274.5611
   4   2.0000     -10.079552      -274.2786
   5   2.0000     -10.079544      -274.2783
   6   2.0000     -10.064000      -273.8554
   7   2.0000     -10.063992      -273.8551
   8   2.0000      -0.933573       -25.4038
   9   2.0000      -0.897268       -24.4159
  10   2.0000      -0.809324       -22.0228
  11   2.0000      -0.748338       -20.3633
  12   2.0000      -0.652533       -17.7563
  13   2.0000      -0.621281       -16.9059
  14   2.0000      -0.542701       -14.7677
  15   2.0000      -0.478821       -13.0294
  16   2.0000      -0.454793       -12.3756
  17   2.0000      -0.427115       -11.6224
  18   2.0000      -0.409584       -11.1453
  19   2.0000      -0.404324       -11.0022
  20   2.0000      -0.358805        -9.7636
  21   2.0000      -0.357580        -9.7302
  22   2.0000      -0.355327        -9.6690
  23   2.0000      -0.324950        -8.8423
  24   2.0000      -0.280758        -7.6398
  25   2.0000      -0.263192        -7.1618
  26   2.0000      -0.244306        -6.6479
  27   0.0000      -0.098478        -2.6797
  28   0.0000      -0.054713        -1.4888
  29   0.0000      -0.007647        -0.2081
  30   0.0000       0.033856         0.9213
  31   0.0000       0.059107         1.6084

MULLIKEN ATOMIC CHARGES
-----------------------
   0 C :   -0.120295
   1 C :   -0.123840
   2 N :   -0.220177
   3 C :   -0.123850
   4 C :   -0.120269
   5 C :    0.020360
   6 C :    0.256008
   7 N :   -0.320005
   8 H :    0.204959
   9 H :    0.171077
  10 H :    0.171076
  11 H :    0.204957
Sum of atomic charges:    0.0000000

LOEWDIN ATOMIC CHARGES
----------------------
   0 C :   -0.082582
   1 C :    0.094339
   2 N :   -0.631792
   3 C :    0.094339
   4 C :   -0.082584
   5 C :   -0.043364
   6 C :    0.192267
   7 N :   -0.340887
   8 H :    0.198448
   9 H :    0.201685
  10 H :    0.201684
  11 H :    0.198447

  Mayer bond orders larger than 0.100000
B(  0-C ,  1-C ) :   1.3676 B(  0-C ,  5-C ) :   1.3272 B(  0-C ,  8-H ) :   0.9321
B(  1-C ,  2-N ) :   1.4585 B(  1-C ,  9-H ) :   0.9728 B(  2-N ,  3-C ) :   1.4585
B(  3-C ,  4-C ) :   1.3676 B(  3-C , 10-H ) :   0.9728 B(  4-C ,  5-C ) :   1.3272
B(  4-C , 11-H ) :   0.9321 B(  5-C ,  6-C ) :   1.0227 B(  6-C ,  7-N ) :   2.8318

Dispersion correction           -0.003888833
FINAL SINGLE POINT ENERGY      -340.445294998276

DIPOLE MOMENT
-------------

Method             : SCF
Type of density    : Electron Density
Multiplicity       :   1
Irrep              :   0
Energy             :  -340.4462964882602023 Eh
Relativity type    :
Basis              : AO
                                X                 Y                 Z
Electronic contribution:      2.230395659       0.000070005       0.000352471
Nuclear contribution   :     -3.273691486      -0.000009302      -0.000413259
                        -----------------------------------------
Total Dipole Moment    :     -1.043295827       0.000060703      -0.000060788
                        -----------------------------------------
Magnitude (a.u.)       :      1.043295831
Magnitude (Debye)      :      2.651847256

Rotational constants in cm-1:             0.201867             0.052375             0.041586
Rotational constants in MHz :          6051.831550          1570.170705          1246.707664

                             ****ORCA TERMINATED NORMALLY****
TOTAL RUN TIME: 0 days 0 hours 0 minutes 23 seconds 424 msec
