                         Program Version 6.0.0  -   RELEASE  -
|  1> ! pbe def2-sv(p) def2/J RI DEFGRID1 loosescf d4 GCP(DFT/SV(P)) printgap
|  2> %output
|  3>     printlevel normal
|  4> end
|  5> * xyz 0 1
|  6> C -2.3295218377 -0.8089260469 -0.6432425892
|  7> C -1.0588261265 -0.5624127497 0.1849298899
|  8> H -1.1932783723 -0.9699402433 1.2007152051
|  9> C -0.7344025027 0.9489176032 0.329765939
| 10> H -1.568644309 1.5248186476 -0.087691721
| 11> C 0.5511764512 1.2742855676 -0.4509317806
| 12> H 0.8226607249 2.3185985477 -0.2633514684
| 13> C 1.7080215041 0.383594841 0.0552330084
| 14> H 2.5141056326 0.4276688679 -0.6892208206
| 15> C 1.2282517652 -1.0904477969 0.1916713508
| 16> H 1.1148607633 -1.3200920138 1.2654794809
| 17> O -0.0096291259 -1.2669527204 -0.4627861081
| 18> O 2.1336934714 -2.0057746841 -0.3099142479
| 19> O 2.13782099 0.8949520218 1.2950942234
| 20> O 0.3805168942 1.1599271205 -1.8377492668
| 21> O -0.6329454035 1.3304000923 1.6804596533
| 22> O -3.456113769 -0.1643188099 -0.1163822661
| 23> H -2.4840511242 -1.8915804154 -0.7279333573
| 24> H -2.1930792111 -0.397054549 -1.6454523342
| 25> H 2.0387335331 -2.0701423662 -1.2723700117
| 26> H 2.9836568809 0.4979934536 1.5475930955
| 27> H 0.1228722155 0.2476323947 -2.0436721081
| 28> H 0.2911853529 1.2464101505 1.9714882894
| 29> H -3.6619992127 -0.5206439815 0.759442961
| 30> *
| 31>
| 32>                          ****END OF INPUT****

CARTESIAN COORDINATES (ANGSTROEM)
---------------------------------
  C     -2.329522   -0.808926   -0.643243
  C     -1.058826   -0.562413    0.184930
  H     -1.193278   -0.969940    1.200715
  C     -0.734403    0.948918    0.329766
  H     -1.568644    1.524819   -0.087692
  C      0.551176    1.274286   -0.450932
  H      0.822661    2.318599   -0.263351
  C      1.708022    0.383595    0.055233
  H      2.514106    0.427669   -0.689221
  C      1.228252   -1.090448    0.191671
  H      1.114861   -1.320092    1.265479
  O     -0.009629   -1.266953   -0.462786
  O      2.133693   -2.005775   -0.309914
  O      2.137821    0.894952    1.295094
  O      0.380517    1.159927   -1.837749
  O     -0.632945    1.330400    1.680460
  O     -3.456114   -0.164319   -0.116382
  H     -2.484051   -1.891580   -0.727933
  H     -2.193079   -0.397055   -1.645452
  H      2.038734   -2.070142   -1.272370
  H      2.983657    0.497993    1.547593
  H      0.122872    0.247632   -2.043672
  H      0.291185    1.246410    1.971488
  H     -3.661999   -0.520644    0.759443

 Total Charge           Charge          ....    0
 Multiplicity           Mult            ....    1
 Number of Electrons    NEL             ....   96
 Basis Dimension        Dim             ....  192

ORBITAL ENERGIES
----------------

  NO   OCC          E(Eh)            E(eV)
   0   2.0000     -18.790994      -511.3290
   1   2.0000     -18.782601      -511.1005
   2   2.0000     -18.770909      -510.7824
   3   2.0000     -18.757493      -510.4173
   4   2.0000     -18.754229      -510.3285
   5   2.0000     -18.736899      -509.8569
   6   2.0000      -9.997716      -272.0517
   7   2.0000      -9.950250      -270.7601
   8   2.0000      -9.947233      -270.6780
   9   2.0000      -9.945072      -270.6192
  10   2.0000      -9.940442      -270.4932
  11   2.0000      -9.934419      -270.3293
  12   2.0000      -0.999321       -27.1929
  13   2.0000      -0.956122       -26.0174
  14   2.0000      -0.941193       -25.6112
  15   2.0000      -0.933186       -25.3933
  16   2.0000      -0.924472       -25.1562
  17   2.0000      -0.913165       -24.8485
  18   2.0000      -0.699178       -19.0256
  19   2.0000      -0.693986       -18.8843
  20   2.0000      -0.620415       -16.8824
  21   2.0000      -0.599590       -16.3157
  22   2.0000      -0.571602       -15.5541
  23   2.0000      -0.540826       -14.7166
  24   2.0000      -0.506835       -13.7917
  25   2.0000      -0.496330       -13.5058
  26   2.0000      -0.491944       -13.3865
  27   2.0000      -0.462856       -12.5949
  28   2.0000      -0.457280       -12.4432
  29   2.0000      -0.443304       -12.0629
  30   2.0000      -0.407971       -11.1015
  31   2.0000      -0.402839       -10.9618
  32   2.0000      -0.394573       -10.7369
  33   2.0000      -0.379033       -10.3140
  34   2.0000      -0.357141        -9.7183
  35   2.0000      -0.352871        -9.6021
  36   2.0000      -0.332858        -9.0575
  37   2.0000      -0.326484        -8.8841
  38   2.0000      -0.320954        -8.7336
  39   2.0000      -0.304407        -8.2833
  40   2.0000      -0.285217        -7.7611
  41   2.0000      -0.277666        -7.5557
  42   2.0000      -0.264324        -7.1926
  43   2.0000      -0.256903        -6.9907
  44   2.0000      -0.238467        -6.4890
  45   2.0000      -0.229096        -6.2340
  46   2.0000      -0.214126        -5.8267
  47   2.0000      -0.201297        -5.4776
  48   0.0000       0.003440         0.0936
  49   0.0000       0.016955         0.4614
  50   0.0000       0.023044         0.6271
  51   0.0000       0.037852         1.0300
  52   0.0000       0.050435         1.3724

MULLIKEN ATOMIC CHARGES
-----------------------
   0 C :    0.078887
   1 C :   -0.019582
   2 H :    0.057436
   3 C :    0.046737
   4 H :    0.090517
   5 C :    0.029443
   6 H :    0.089657
   7 C :    0.013931
   8 H :    0.065530
   9 C :    0.199761
  10 H :    0.051000
  11 O :   -0.315502
  12 O :   -0.385665
  13 O :   -0.420968
  14 O :   -0.419755
  15 O :   -0.430845
  16 O :   -0.423171
  17 H :    0.086042
  18 H :    0.077626
  19 H :    0.304599
  20 H :    0.317530
  21 H :    0.299205
  22 H :    0.303714
  23 H :    0.303874
Sum of atomic charges:    0.0000000

LOEWDIN ATOMIC CHARGES
----------------------
   0 C :   -0.125779
   1 C :   -0.082266
   2 H :    0.103179
   3 C :   -0.076821
   4 H :    0.121569
   5 C :   -0.072289
   6 H :    0.123654
   7 C :   -0.100151
   8 H :    0.109196
   9 C :   -0.003077
  10 H :    0.096997
  11 O :   -0.158124
  12 O :   -0.296843
  13 O :   -0.309450
  14 O :   -0.311611
  15 O :   -0.327076
  16 O :   -0.321251
  17 H :    0.101439
  18 H :    0.112207
  19 H :    0.288718
  20 H :    0.297649
  21 H :    0.269339
  22 H :    0.271846
  23 H :    0.288946

  Mayer bond orders larger than 0.100000
B(  0-C ,  1-C ) :   1.0318 B(  0-C , 16-O ) :   1.0732 B(  0-C , 17-H ) :   0.9154
B(  0-C , 18-H ) :   0.9101 B(  1-C ,  2-H ) :   0.8776 B(  1-C ,  3-C ) :   0.9366
B(  1-C , 11-O ) :   0.9639 B(  3-C ,  4-H ) :   0.8945 B(  3-C ,  5-C ) :   1.0100
B(  3-C , 15-O ) :   1.0727 B(  5-C ,  6-H ) :   0.8905 B(  5-C ,  7-C ) :   0.9720
B(  5-C , 14-O ) :   1.0475 B(  7-C ,  8-H ) :   0.8895 B(  7-C ,  9-C ) :   0.9649
B(  7-C , 13-O ) :   1.0246 B(  9-C , 10-H ) :   0.8714 B(  9-C , 11-O ) :   1.0292
B(  9-C , 12-O ) :   1.1359 B( 12-O , 19-H ) :   0.8404 B( 13-O , 20-H ) :   0.8384
B( 14-O , 21-H ) :   0.8259 B( 15-O , 22-H ) :   0.8117 B( 16-O , 23-H ) :   0.8483

Dispersion correction           -0.024878964
FINAL SINGLE POINT ENERGY      -685.688691950000

DIPOLE MOMENT
-------------

Method             : SCF
Type of density    : Electron Density
Multiplicity       :   1
Irrep              :   0
Energy             :  -685.8207430885704525 Eh
Relativity type    :
Basis              : AO
                                X                 Y                 Z
Electronic contribution:      1.910256075      -0.107877172       0.122699008
Nuclear contribution   :     -1.129781398      -0.851060039       0.017782770
                        -----------------------------------------
Total Dipole Moment    :      0.780474678      -0.958937210       0.140481777
                        -----------------------------------------
Magnitude (a.u.)       :      1.244361855
Magnitude (Debye)      :      3.162916474

Rotational constants in cm-1:             0.043196             0.024845             0.021288
Rotational constants in MHz :          1294.991129           744.825911           638.212688

                             ****ORCA TERMINATED NORMALLY****
TOTAL RUN TIME: 0 days 0 hours 0 minutes 12 seconds 172 msec
