                         Program Version 6.0.0  -   RELEASE  -
|  1> ! wb97x-v def2-tzvp def2/J RIJCOSX DEFGRID2 scfconv7 GCP(DFT/TZ) printgap
|  2> %output
|  3>     printlevel normal
|  4> end
|  5> * xyz 0 1
|  6> C 2.475140150811558 -1.1635429290462644 0.21178204122244446
|  7> C 1.7066565225290011 0.11873832236892964 0.10574998166660508
|  8> O 2.2834923281167647 1.2010118044905385 0.013539447294581515
|  9> C 0.21771288553139145 0.06776323213468093 0.11333989713834845
| 10> C -0.5223382427887209 1.2518853054882657 0.03920642959692913
| 11> C -1.9046656714513752 1.1788476045929515 0.048183833132586916
| 12> C -2.5048595912184655 -0.07368327302861717 0.1303780717104333
| 13> N -1.8190332257174595 -1.2243124473614795 0.19983591239762827
| 14> C -0.48359526411810944 -1.139127686347637 0.1905149529850559
| 15> H 2.204618155271661 -1.6973107043128504 1.1293864326795264
| 16> H 3.5446129672424815 -0.9518994391608169 0.2093136419712779
| 17> H 2.2270887487779722 -1.822851695243382 -0.6276097294981159
| 18> H -0.011553507894055536 2.2066466297769973 -0.023444617592804036
| 19> H -2.5157611207896453 2.0729357697323847 -0.006351130952651815
| 20> H -3.588904887758943 -0.15866256614232913 0.13931004072320266
| 21> H 0.0493290952687791 -2.08393225647456 0.24863912756578205
| 22> *
| 23>
| 24>                          ****END OF INPUT****

CARTESIAN COORDINATES (ANGSTROEM)
---------------------------------
  C      2.475140   -1.163543    0.211782
  C      1.706657    0.118738    0.105750
  O      2.283492    1.201012    0.013539
  C      0.217713    0.067763    0.113340
  C     -0.522338    1.251885    0.039206
  C     -1.904666    1.178848    0.048184
  C     -2.504860   -0.073683    0.130378
  N     -1.819033   -1.224312    0.199836
  C     -0.483595   -1.139128    0.190515
  H      2.204618   -1.697311    1.129386
  H      3.544613   -0.951899    0.209314
  H      2.227089   -1.822852   -0.627610
  H     -0.011554    2.206647   -0.023445
  H     -2.515761    2.072936   -0.006351
  H     -3.588905   -0.158663    0.139310
  H      0.049329   -2.083932    0.248639

 Total Charge           Charge          ....    0
 Multiplicity           Mult            ....    1
 Number of Electrons    NEL             ....   64
 Basis Dimension        Dim             ....  321

ORBITAL ENERGIES
----------------

  NO   OCC          E(Eh)            E(eV)
   0   2.0000     -21.668648      -589.6339
   1   2.0000     -16.540411      -450.0875
   2   2.0000     -12.152109      -330.6757
   3   2.0000     -12.104546      -329.3814
   4   2.0000     -12.102552      -329.3272
   5   2.0000     -12.084786      -328.8437
   6   2.0000     -12.077502      -328.6455
   7   2.0000     -12.072388      -328.5064
   8   2.0000     -12.060800      -328.1911
   9   2.0000      -1.711737       -46.5787
  10   2.0000      -1.534653       -41.7600
  11   2.0000      -1.368212       -37.2309
  12   2.0000      -1.325377       -36.0654
  13   2.0000      -1.268474       -34.5169
  14   2.0000      -1.186430       -32.2844
  15   2.0000      -1.158097       -31.5134
  16   2.0000      -1.104808       -30.0633
  17   2.0000      -1.030839       -28.0505
  18   2.0000      -1.015579       -27.6353
  19   2.0000      -0.982621       -26.7385
  20   2.0000      -0.962307       -26.1857
  21   2.0000      -0.918861       -25.0035
  22   2.0000      -0.917521       -24.9670
  23   2.0000      -0.886921       -24.1344
  24   2.0000      -0.868880       -23.6434
  25   2.0000      -0.845300       -23.0018
  26   2.0000      -0.844788       -22.9879
  27   2.0000      -0.840023       -22.8582
  28   2.0000      -0.819520       -22.3003
  29   2.0000      -0.780079       -21.2270
  30   2.0000      -0.716872       -19.5071
  31   2.0000      -0.672971       -18.3125
  32   0.0000      -0.352410        -9.5896
  33   0.0000      -0.299923        -8.1613
  34   0.0000      -0.230830        -6.2812
  35   0.0000      -0.097113        -2.6426
  36   0.0000      -0.083798        -2.2803

MULLIKEN ATOMIC CHARGES
-----------------------
   0 C :   -0.374117
   1 C :    0.229955
   2 O :   -0.319402
   3 C :    0.054677
   4 C :   -0.177344
   5 C :   -0.064820
   6 C :   -0.038222
   7 N :   -0.212752
   8 C :   -0.087612
   9 H :    0.139230
  10 H :    0.146729
  11 H :    0.138918
  12 H :    0.162031
  13 H :    0.132912
  14 H :    0.130310
  15 H :    0.139506
Sum of atomic charges:   -0.0000000

LOEWDIN ATOMIC CHARGES
----------------------
   0 C :   -0.254804
   1 C :   -0.298044
   2 O :    0.111637
   3 C :   -0.140055
   4 C :   -0.051815
   5 C :   -0.144232
   6 C :   -0.180479
   7 N :    0.123050
   8 C :   -0.157190
   9 H :    0.136215
  10 H :    0.133998
  11 H :    0.136841
  12 H :    0.158491
  13 H :    0.146708
  14 H :    0.137801
  15 H :    0.141878

  Mayer bond orders larger than 0.100000
B(  0-C ,  1-C ) :   0.9951 B(  0-C ,  9-H ) :   0.9584 B(  0-C , 10-H ) :   0.9767
B(  0-C , 11-H ) :   0.9558 B(  1-C ,  2-O ) :   2.1072 B(  1-C ,  3-C ) :   0.9374
B(  2-O ,  3-C ) :  -0.1196 B(  3-C ,  4-C ) :   1.3896 B(  3-C ,  8-C ) :   1.3164
B(  4-C ,  5-C ) :   1.4589 B(  4-C , 12-H ) :   0.9439 B(  5-C ,  6-C ) :   1.3831
B(  5-C , 13-H ) :   0.9661 B(  6-C ,  7-N ) :   1.4868 B(  6-C , 14-H ) :   0.9832
B(  7-N ,  8-C ) :   1.5404 B(  8-C , 15-H ) :   0.9903

FINAL SINGLE POINT ENERGY      -400.950351406278

DIPOLE MOMENT
-------------

Method             : SCF
Type of density    : Electron Density
Multiplicity       :   1
Irrep              :   0
Energy             :  -400.9589422756778845 Eh
Relativity type    :
Basis              : AO
                                X                 Y                 Z
Electronic contribution:     -2.107291274       2.199823624      -0.199088923
Nuclear contribution   :      1.772908258      -2.409714689       0.233734340
                        -----------------------------------------
Total Dipole Moment    :     -0.334383016      -0.209891066       0.034645417
                        -----------------------------------------
Magnitude (a.u.)       :      0.396316245
Magnitude (Debye)      :      1.007355838

Rotational constants in cm-1:             0.125146             0.041375             0.031277
Rotational constants in MHz :          3751.795865          1240.392841           937.650123

                             ****ORCA TERMINATED NORMALLY****
TOTAL RUN TIME: 0 days 0 hours 2 minutes 42 seconds 173 msec
