                         Program Version 6.0.0  -   RELEASE  -
|  1> ! wb97x-v def2-tzvp def2/J RIJCOSX DEFGRID2 scfconv7 GCP(DFT/TZ) printgap
|  2> %output
|  3>     printlevel normal
|  4> end
|  5> %cpcm
|  6>     smd true
|  7>     smdsolvent "water"
|  8> end
|  9> * xyz 0 1
| 10> C 2.475140150811558 -1.1635429290462644 0.21178204122244446
| 11> C 1.7066565225290011 0.11873832236892964 0.10574998166660508
| 12> O 2.2834923281167647 1.2010118044905385 0.013539447294581515
| 13> C 0.21771288553139145 0.06776323213468093 0.11333989713834845
| 14> C -0.5223382427887209 1.2518853054882657 0.03920642959692913
| 15> C -1.9046656714513752 1.1788476045929515 0.048183833132586916
| 16> C -2.5048595912184655 -0.07368327302861717 0.1303780717104333
| 17> N -1.8190332257174595 -1.2243124473614795 0.19983591239762827
| 18> C -0.48359526411810944 -1.139127686347637 0.1905149529850559
| 19> H 2.204618155271661 -1.6973107043128504 1.1293864326795264
| 20> H 3.5446129672424815 -0.9518994391608169 0.2093136419712779
| 21> H 2.2270887487779722 -1.822851695243382 -0.6276097294981159
| 22> H -0.011553507894055536 2.2066466297769973 -0.023444617592804036
| 23> H -2.5157611207896453 2.0729357697323847 -0.006351130952651815
| 24> H -3.588904887758943 -0.15866256614232913 0.13931004072320266
| 25> H 0.0493290952687791 -2.08393225647456 0.24863912756578205
| 26> *
| 27>
| 28>                          ****END OF INPUT****

CARTESIAN COORDINATES (ANGSTROEM)
---------------------------------
  C      2.475140   -1.163543    0.211782
  C      1.706657    0.118738    0.105750
  O      2.283492    1.201012    0.013539
  C      0.217713    0.067763    0.113340
  C     -0.522338    1.251885    0.039206
  C     -1.904666    1.178848    0.048184
  C     -2.504860   -0.073683    0.130378
  N     -1.819033   -1.224312    0.199836
  C     -0.483595   -1.139128    0.190515
  H      2.204618   -1.697311    1.129386
  H      3.544613   -0.951899    0.209314
  H      2.227089   -1.822852   -0.627610
  H     -0.011554    2.206647   -0.023445
  H     -2.515761    2.072936   -0.006351
  H     -3.588905   -0.158663    0.139310
  H      0.049329   -2.083932    0.248639

 Total Charge           Charge          ....    0
 Multiplicity           Mult            ....    1
 Number of Electrons    NEL             ....   64
 Basis Dimension        Dim             ....  321

ORBITAL ENERGIES
----------------

  NO   OCC          E(Eh)            E(eV)
   0   2.0000     -21.673055      -589.7538
   1   2.0000     -16.537086      -449.9970
   2   2.0000     -12.154993      -330.7542
   3   2.0000     -12.096570      -329.1644
   4   2.0000     -12.094028      -329.0952
   5   2.0000     -12.076828      -328.6272
   6   2.0000     -12.070259      -328.4485
   7   2.0000     -12.060442      -328.1813
   8   2.0000     -12.043182      -327.7116
   9   2.0000      -1.719550       -46.7913
  10   2.0000      -1.530471       -41.6462
  11   2.0000      -1.361179       -37.0396
  12   2.0000      -1.316667       -35.8283
  13   2.0000      -1.257939       -34.2303
  14   2.0000      -1.179403       -32.0932
  15   2.0000      -1.148900       -31.2632
  16   2.0000      -1.107002       -30.1231
  17   2.0000      -1.031522       -28.0691
  18   2.0000      -1.006792       -27.3962
  19   2.0000      -0.973183       -26.4817
  20   2.0000      -0.959941       -26.1213
  21   2.0000      -0.924771       -25.1643
  22   2.0000      -0.905443       -24.6384
  23   2.0000      -0.879979       -23.9455
  24   2.0000      -0.859821       -23.3969
  25   2.0000      -0.841331       -22.8938
  26   2.0000      -0.829514       -22.5722
  27   2.0000      -0.824975       -22.4487
  28   2.0000      -0.815326       -22.1862
  29   2.0000      -0.776903       -21.1406
  30   2.0000      -0.711613       -19.3640
  31   2.0000      -0.664262       -18.0755
  32   0.0000      -0.345658        -9.4058
  33   0.0000      -0.292734        -7.9657
  34   0.0000      -0.222922        -6.0660
  35   0.0000      -0.088980        -2.4213
  36   0.0000      -0.077998        -2.1224

MULLIKEN ATOMIC CHARGES
-----------------------
   0 C :   -0.396466
   1 C :    0.301664
   2 O :   -0.443694
   3 C :    0.052715
   4 C :   -0.186039
   5 C :   -0.120586
   6 C :   -0.036591
   7 N :   -0.284032
   8 C :   -0.074744
   9 H :    0.169968
  10 H :    0.149613
  11 H :    0.170082
  12 H :    0.171717
  13 H :    0.175621
  14 H :    0.168868
  15 H :    0.181903
Sum of atomic charges:   -0.0000000

LOEWDIN ATOMIC CHARGES
----------------------
   0 C :   -0.247175
   1 C :   -0.278793
   2 O :    0.039970
   3 C :   -0.139232
   4 C :   -0.050015
   5 C :   -0.138248
   6 C :   -0.178558
   7 N :    0.085763
   8 C :   -0.147396
   9 H :    0.148585
  10 H :    0.133953
  11 H :    0.149304
  12 H :    0.161758
  13 H :    0.158762
  14 H :    0.147456
  15 H :    0.153866

  Mayer bond orders larger than 0.100000
B(  0-C ,  1-C ) :   1.0278 B(  0-C ,  9-H ) :   0.9455 B(  0-C , 10-H ) :   0.9672
B(  0-C , 11-H ) :   0.9430 B(  1-C ,  2-O ) :   1.9787 B(  1-C ,  3-C ) :   0.9529
B(  2-O ,  3-C ) :  -0.1127 B(  3-C ,  4-C ) :   1.3383 B(  3-C ,  8-C ) :   1.3470
B(  4-C ,  5-C ) :   1.4721 B(  4-C , 12-H ) :   0.9532 B(  5-C ,  6-C ) :   1.4091
B(  5-C , 13-H ) :   0.9605 B(  6-C ,  7-N ) :   1.4690 B(  6-C , 14-H ) :   0.9629
B(  7-N ,  8-C ) :   1.5232 B(  8-C , 15-H ) :   0.9633

FINAL SINGLE POINT ENERGY      -400.963535584885

DIPOLE MOMENT
-------------

Method             : SCF
Type of density    : Electron Density
Multiplicity       :   1
Irrep              :   0
Energy             :  -400.9721264542850463 Eh
Relativity type    :
Basis              : AO
                                X                 Y                 Z
Electronic contribution:     -2.307891680       2.006411553      -0.177786896
Nuclear contribution   :      1.772908258      -2.409714689       0.233734340
                        -----------------------------------------
Total Dipole Moment    :     -0.534983422      -0.403303137       0.055947444
                        -----------------------------------------
Magnitude (a.u.)       :      0.672302609
Magnitude (Debye)      :      1.708857427

Rotational constants in cm-1:             0.125146             0.041375             0.031277
Rotational constants in MHz :          3751.795865          1240.392841           937.650123

                             ****ORCA TERMINATED NORMALLY****
TOTAL RUN TIME: 0 days 0 hours 2 minutes 37 seconds 48 msec
