                         Program Version 6.0.0  -   RELEASE  -
|  1> ! pbe def2-sv(p) def2/J RI DEFGRID1 loosescf d4 GCP(DFT/SV(P)) printgap
|  2> %output
|  3>     printlevel normal
|  4> end
|  5> * xyz 0 1
|  6> C -1.7461964649 -1.0153124048 -0.7357898299
|  7> C -1.0598836614 -0.4948220542 0.5344142405
|  8> H -1.7674595932 -0.6247898949 1.3626109791
|  9> C -0.7189527606 0.9985514449 0.4157516273
| 10> H -1.5695056414 1.4941867287 -0.0711431059
| 11> C 0.5313495005 1.2441749998 -0.4458138198
| 12> H 0.8420710827 2.2857849111 -0.2600529857
| 13> C 1.6838908442 0.3414802448 0.0316068966
| 14> H 2.4913600007 0.348761163 -0.7094024046
| 15> C 1.2401437734 -1.1281040871 0.182166624
| 16> H 1.9956227239 -1.638302992 0.8008614842
| 17> O 0.0565930968 -1.2831691182 0.9250083607
| 18> O 1.16265814 -1.6940068025 -1.0884942092
| 19> O 2.2410512412 0.82304601 1.2259656003
| 20> O 0.1965080411 1.0615071578 -1.794705653
| 21> O -0.449485427 1.5719481391 1.6770304188
| 22> O -3.0201393778 -0.4101127204 -0.8002766341
| 23> H -1.8408079212 -2.1057096202 -0.6489081637
| 24> H -1.1417688404 -0.7660310388 -1.6119938328
| 25> H 1.0470374047 -2.6534176061 -1.0192854457
| 26> H 1.5177979175 1.0285657625 1.843985866
| 27> H 0.9598751602 1.270073933 -2.3516524175
| 28> H -1.244442752 1.5394895522 2.227894046
| 29> H -3.4311703119 -0.633402542 -1.6466465094
| 30> *
| 31>
| 32>                          ****END OF INPUT****

CARTESIAN COORDINATES (ANGSTROEM)
---------------------------------
  C     -1.746196   -1.015312   -0.735790
  C     -1.059884   -0.494822    0.534414
  H     -1.767460   -0.624790    1.362611
  C     -0.718953    0.998551    0.415752
  H     -1.569506    1.494187   -0.071143
  C      0.531350    1.244175   -0.445814
  H      0.842071    2.285785   -0.260053
  C      1.683891    0.341480    0.031607
  H      2.491360    0.348761   -0.709402
  C      1.240144   -1.128104    0.182167
  H      1.995623   -1.638303    0.800861
  O      0.056593   -1.283169    0.925008
  O      1.162658   -1.694007   -1.088494
  O      2.241051    0.823046    1.225966
  O      0.196508    1.061507   -1.794706
  O     -0.449485    1.571948    1.677030
  O     -3.020139   -0.410113   -0.800277
  H     -1.840808   -2.105710   -0.648908
  H     -1.141769   -0.766031   -1.611994
  H      1.047037   -2.653418   -1.019285
  H      1.517798    1.028566    1.843986
  H      0.959875    1.270074   -2.351652
  H     -1.244443    1.539490    2.227894
  H     -3.431170   -0.633403   -1.646647

 Total Charge           Charge          ....    0
 Multiplicity           Mult            ....    1
 Number of Electrons    NEL             ....   96
 Basis Dimension        Dim             ....  192

ORBITAL ENERGIES
----------------

  NO   OCC          E(Eh)            E(eV)
   0   2.0000     -18.767364      -510.6859
   1   2.0000     -18.761382      -510.5232
   2   2.0000     -18.757671      -510.4222
   3   2.0000     -18.756064      -510.3785
   4   2.0000     -18.745986      -510.1042
   5   2.0000     -18.733799      -509.7726
   6   2.0000      -9.975433      -271.4453
   7   2.0000      -9.942402      -270.5465
   8   2.0000      -9.941301      -270.5166
   9   2.0000      -9.939151      -270.4580
  10   2.0000      -9.932672      -270.2818
  11   2.0000      -9.919732      -269.9296
  12   2.0000      -0.974672       -26.5222
  13   2.0000      -0.944471       -25.7004
  14   2.0000      -0.931661       -25.3518
  15   2.0000      -0.920504       -25.0482
  16   2.0000      -0.911398       -24.8004
  17   2.0000      -0.905480       -24.6394
  18   2.0000      -0.701304       -19.0835
  19   2.0000      -0.680257       -18.5107
  20   2.0000      -0.619200       -16.8493
  21   2.0000      -0.576852       -15.6969
  22   2.0000      -0.563914       -15.3449
  23   2.0000      -0.517117       -14.0715
  24   2.0000      -0.505245       -13.7484
  25   2.0000      -0.477073       -12.9818
  26   2.0000      -0.470775       -12.8104
  27   2.0000      -0.453000       -12.3268
  28   2.0000      -0.442905       -12.0521
  29   2.0000      -0.412320       -11.2198
  30   2.0000      -0.409287       -11.1373
  31   2.0000      -0.393556       -10.7092
  32   2.0000      -0.389383       -10.5957
  33   2.0000      -0.369610       -10.0576
  34   2.0000      -0.361006        -9.8235
  35   2.0000      -0.346684        -9.4337
  36   2.0000      -0.323065        -8.7911
  37   2.0000      -0.312799        -8.5117
  38   2.0000      -0.308048        -8.3824
  39   2.0000      -0.287651        -7.8274
  40   2.0000      -0.284036        -7.7290
  41   2.0000      -0.252768        -6.8782
  42   2.0000      -0.245294        -6.6748
  43   2.0000      -0.237457        -6.4615
  44   2.0000      -0.227532        -6.1915
  45   2.0000      -0.217013        -5.9052
  46   2.0000      -0.210681        -5.7329
  47   2.0000      -0.197650        -5.3783
  48   0.0000       0.012342         0.3358
  49   0.0000       0.022880         0.6226
  50   0.0000       0.029745         0.8094
  51   0.0000       0.036327         0.9885
  52   0.0000       0.070900         1.9293

MULLIKEN ATOMIC CHARGES
-----------------------
   0 C :    0.001700
   1 C :    0.046313
   2 H :    0.058904
   3 C :    0.037284
   4 H :    0.088383
   5 C :    0.035553
   6 H :    0.077004
   7 C :    0.043877
   8 H :    0.061983
   9 C :    0.190017
  10 H :    0.065699
  11 O :   -0.313361
  12 O :   -0.394486
  13 O :   -0.430890
  14 O :   -0.398971
  15 O :   -0.428559
  16 O :   -0.441640
  17 H :    0.058650
  18 H :    0.113874
  19 H :    0.301343
  20 H :    0.303796
  21 H :    0.307816
  22 H :    0.312061
  23 H :    0.303651
Sum of atomic charges:   -0.0000000

LOEWDIN ATOMIC CHARGES
----------------------
   0 C :   -0.151234
   1 C :   -0.062112
   2 H :    0.111195
   3 C :   -0.068393
   4 H :    0.115746
   5 C :   -0.070790
   6 H :    0.105785
   7 C :   -0.081872
   8 H :    0.112602
   9 C :   -0.010535
  10 H :    0.099166
  11 O :   -0.144292
  12 O :   -0.309024
  13 O :   -0.319274
  14 O :   -0.304416
  15 O :   -0.311045
  16 O :   -0.345978
  17 H :    0.091381
  18 H :    0.110850
  19 H :    0.285064
  20 H :    0.274265
  21 H :    0.290885
  22 H :    0.293278
  23 H :    0.288748

  Mayer bond orders larger than 0.100000
B(  0-C ,  1-C ) :   1.0657 B(  0-C , 16-O ) :   1.0585 B(  0-C , 17-H ) :   0.9065
B(  0-C , 18-H ) :   0.8889 B(  1-C ,  2-H ) :   0.8921 B(  1-C ,  3-C ) :   1.0077
B(  1-C , 11-O ) :   1.0162 B(  3-C ,  4-H ) :   0.8864 B(  3-C ,  5-C ) :   1.0052
B(  3-C , 15-O ) :   1.0114 B(  5-C ,  6-H ) :   0.9018 B(  5-C ,  7-C ) :   0.9793
B(  5-C , 14-O ) :   1.0780 B(  7-C ,  8-H ) :   0.8898 B(  7-C ,  9-C ) :   0.9752
B(  7-C , 13-O ) :   1.0651 B(  9-C , 10-H ) :   0.9033 B(  9-C , 11-O ) :   1.0540
B(  9-C , 12-O ) :   1.1181 B( 12-O , 19-H ) :   0.8389 B( 13-O , 20-H ) :   0.8130
B( 14-O , 21-H ) :   0.8424 B( 15-O , 22-H ) :   0.8423 B( 16-O , 23-H ) :   0.8505

Dispersion correction           -0.025805826
FINAL SINGLE POINT ENERGY      -685.694538475043

DIPOLE MOMENT
-------------

Method             : SCF
Type of density    : Electron Density
Multiplicity       :   1
Irrep              :   0
Energy             :  -685.8253514482640867 Eh
Relativity type    :
Basis              : AO
                                X                 Y                 Z
Electronic contribution:      1.424289713       0.081128612       1.387666016
Nuclear contribution   :     -2.006215770      -0.425646579      -1.952754449
                        -----------------------------------------
Total Dipole Moment    :     -0.581926058      -0.344517968      -0.565088433
                        -----------------------------------------
Magnitude (a.u.)       :      0.881280604
Magnitude (Debye)      :      2.240037277

Rotational constants in cm-1:             0.040712             0.028709             0.024859
Rotational constants in MHz :          1220.526896           860.660051           745.264327

                             ****ORCA TERMINATED NORMALLY****
TOTAL RUN TIME: 0 days 0 hours 0 minutes 12 seconds 632 msec
