                         Program Version 6.0.0  -   RELEASE  -
|  1> ! pbe def2-sv(p) def2/J RI DEFGRID1 loosescf d4 GCP(DFT/SV(P)) printgap
|  2> %output
|  3>     printlevel normal
|  4> end
|  5> * xyz 0 1
|  6> C -2.280357568 -1.1119751251 -0.0760302047
|  7> C -0.8841593236 -0.5614708739 0.2440007445
|  8> H -0.7266765182 -0.5637942909 1.3324789244
|  9> C -0.7203930415 0.8780327739 -0.274570068
| 10> H -1.0773326808 0.9024561038 -1.317636315
| 11> C 0.7713493533 1.2814476308 -0.2756367452
| 12> H 0.836954103 2.2636573414 0.214392364
| 13> C 1.6293808872 0.2756021547 0.5125442433
| 14> H 2.6866403761 0.5127054324 0.3250481445
| 15> C 1.4111838375 -1.1498732611 -0.0392724821
| 16> H 1.7263184499 -1.869170883 0.733512257
| 17> O 0.0618329337 -1.4084048283 -0.3835688296
| 18> O 2.1998203791 -1.398897369 -1.1449619689
| 19> O 1.3522081804 0.269804242 1.8876500854
| 20> O 1.3139943557 1.3261961438 -1.5731688366
| 21> O -1.4288837501 1.8055645242 0.5074411249
| 22> O -3.2875177198 -0.3872034229 0.5891579116
| 23> H -2.3055026078 -2.1762631967 0.174112113
| 24> H -2.4724331509 -1.0071281071 -1.1463717706
| 25> H 1.987178943 -0.7472432658 -1.8369109819
| 26> H 1.6055750431 1.1190032991 2.279237911
| 27> H 0.9306656929 2.0649486334 -2.0673162763
| 28> H -2.3515394981 1.5027256498 0.5728311127
| 29> H -3.3265928452 -0.6621937588 1.5161745535
| 30> *
| 31>
| 32>                          ****END OF INPUT****

CARTESIAN COORDINATES (ANGSTROEM)
---------------------------------
  C     -2.280358   -1.111975   -0.076030
  C     -0.884159   -0.561471    0.244001
  H     -0.726677   -0.563794    1.332479
  C     -0.720393    0.878033   -0.274570
  H     -1.077333    0.902456   -1.317636
  C      0.771349    1.281448   -0.275637
  H      0.836954    2.263657    0.214392
  C      1.629381    0.275602    0.512544
  H      2.686640    0.512705    0.325048
  C      1.411184   -1.149873   -0.039272
  H      1.726318   -1.869171    0.733512
  O      0.061833   -1.408405   -0.383569
  O      2.199820   -1.398897   -1.144962
  O      1.352208    0.269804    1.887650
  O      1.313994    1.326196   -1.573169
  O     -1.428884    1.805565    0.507441
  O     -3.287518   -0.387203    0.589158
  H     -2.305503   -2.176263    0.174112
  H     -2.472433   -1.007128   -1.146372
  H      1.987179   -0.747243   -1.836911
  H      1.605575    1.119003    2.279238
  H      0.930666    2.064949   -2.067316
  H     -2.351539    1.502726    0.572831
  H     -3.326593   -0.662194    1.516175

 Total Charge           Charge          ....    0
 Multiplicity           Mult            ....    1
 Number of Electrons    NEL             ....   96
 Basis Dimension        Dim             ....  192

ORBITAL ENERGIES
----------------

  NO   OCC          E(Eh)            E(eV)
   0   2.0000     -18.773348      -510.8488
   1   2.0000     -18.770951      -510.7836
   2   2.0000     -18.762444      -510.5521
   3   2.0000     -18.757694      -510.4228
   4   2.0000     -18.741940      -509.9941
   5   2.0000     -18.739729      -509.9340
   6   2.0000      -9.976068      -271.4626
   7   2.0000      -9.947420      -270.6831
   8   2.0000      -9.942688      -270.5543
   9   2.0000      -9.938641      -270.4442
  10   2.0000      -9.937153      -270.4037
  11   2.0000      -9.934045      -270.3191
  12   2.0000      -0.972183       -26.4544
  13   2.0000      -0.947260       -25.7762
  14   2.0000      -0.945049       -25.7161
  15   2.0000      -0.934969       -25.4418
  16   2.0000      -0.919118       -25.0105
  17   2.0000      -0.899629       -24.4801
  18   2.0000      -0.697418       -18.9777
  19   2.0000      -0.686334       -18.6761
  20   2.0000      -0.622425       -16.9370
  21   2.0000      -0.579269       -15.7627
  22   2.0000      -0.571254       -15.5446
  23   2.0000      -0.517380       -14.0786
  24   2.0000      -0.504817       -13.7368
  25   2.0000      -0.487608       -13.2685
  26   2.0000      -0.469045       -12.7634
  27   2.0000      -0.461862       -12.5679
  28   2.0000      -0.447151       -12.1676
  29   2.0000      -0.443139       -12.0584
  30   2.0000      -0.416568       -11.3354
  31   2.0000      -0.400170       -10.8892
  32   2.0000      -0.386430       -10.5153
  33   2.0000      -0.368295       -10.0218
  34   2.0000      -0.358884        -9.7657
  35   2.0000      -0.353571        -9.6212
  36   2.0000      -0.324005        -8.8166
  37   2.0000      -0.321943        -8.7605
  38   2.0000      -0.309979        -8.4350
  39   2.0000      -0.288702        -7.8560
  40   2.0000      -0.286867        -7.8060
  41   2.0000      -0.263773        -7.1776
  42   2.0000      -0.248927        -6.7736
  43   2.0000      -0.243047        -6.6136
  44   2.0000      -0.235724        -6.4144
  45   2.0000      -0.221982        -6.0404
  46   2.0000      -0.218147        -5.9361
  47   2.0000      -0.194071        -5.2810
  48   0.0000       0.009804         0.2668
  49   0.0000       0.012238         0.3330
  50   0.0000       0.020989         0.5712
  51   0.0000       0.051318         1.3964
  52   0.0000       0.068988         1.8773

MULLIKEN ATOMIC CHARGES
-----------------------
   0 C :    0.079277
   1 C :   -0.033539
   2 H :    0.069227
   3 C :    0.081577
   4 H :    0.029213
   5 C :    0.078951
   6 H :    0.057632
   7 C :   -0.033550
   8 H :    0.082808
   9 C :    0.214925
  10 H :    0.068544
  11 O :   -0.309498
  12 O :   -0.392388
  13 O :   -0.401034
  14 O :   -0.427150
  15 O :   -0.431084
  16 O :   -0.438962
  17 H :    0.094079
  18 H :    0.086519
  19 H :    0.300024
  20 H :    0.307313
  21 H :    0.312413
  22 H :    0.295826
  23 H :    0.308879
Sum of atomic charges:   -0.0000000

LOEWDIN ATOMIC CHARGES
----------------------
   0 C :   -0.124536
   1 C :   -0.089939
   2 H :    0.105225
   3 C :   -0.072168
   4 H :    0.093758
   5 C :   -0.068406
   6 H :    0.104047
   7 C :   -0.093332
   8 H :    0.112305
   9 C :    0.014012
  10 H :    0.102509
  11 O :   -0.154533
  12 O :   -0.296785
  13 O :   -0.306363
  14 O :   -0.313560
  15 O :   -0.332373
  16 O :   -0.323097
  17 H :    0.107820
  18 H :    0.115061
  19 H :    0.274623
  20 H :    0.290167
  21 H :    0.293233
  22 H :    0.270662
  23 H :    0.291670

  Mayer bond orders larger than 0.100000
B(  0-C ,  1-C ) :   1.0219 B(  0-C , 16-O ) :   1.0363 B(  0-C , 17-H ) :   0.9236
B(  0-C , 18-H ) :   0.9129 B(  1-C ,  2-H ) :   0.8570 B(  1-C ,  3-C ) :   1.0381
B(  1-C , 11-O ) :   1.0117 B(  3-C ,  4-H ) :   0.8734 B(  3-C ,  5-C ) :   0.9697
B(  3-C , 15-O ) :   1.0961 B(  5-C ,  6-H ) :   0.8802 B(  5-C ,  7-C ) :   1.0172
B(  5-C , 14-O ) :   1.0321 B(  7-C ,  8-H ) :   0.9001 B(  7-C ,  9-C ) :   0.9610
B(  7-C , 13-O ) :   1.0613 B(  9-C , 10-H ) :   0.9039 B(  9-C , 11-O ) :   1.0221
B(  9-C , 12-O ) :   1.1629 B( 12-O , 19-H ) :   0.8196 B( 13-O , 20-H ) :   0.8433
B( 14-O , 21-H ) :   0.8412 B( 15-O , 22-H ) :   0.8086 B( 16-O , 22-H ) :   0.1049
B( 16-O , 23-H ) :   0.8440

Dispersion correction           -0.024780692
FINAL SINGLE POINT ENERGY      -685.693193112056

DIPOLE MOMENT
-------------

Method             : SCF
Type of density    : Electron Density
Multiplicity       :   1
Irrep              :   0
Energy             :  -685.8246152732399423 Eh
Relativity type    :
Basis              : AO
                                X                 Y                 Z
Electronic contribution:      1.861798244      -0.346827166      -0.367036886
Nuclear contribution   :     -2.329856973       1.259936760       0.729612456
                        -----------------------------------------
Total Dipole Moment    :     -0.468058729       0.913109594       0.362575570
                        -----------------------------------------
Magnitude (a.u.)       :      1.088259687
Magnitude (Debye)      :      2.766136297

Rotational constants in cm-1:             0.044382             0.024623             0.021627
Rotational constants in MHz :          1330.551657           738.164583           648.353500

                             ****ORCA TERMINATED NORMALLY****
TOTAL RUN TIME: 0 days 0 hours 0 minutes 12 seconds 30 msec
