                         Program Version 6.0.0  -   RELEASE  -
|  1> ! wb97x-v def2-tzvp def2/J RIJCOSX DEFGRID2 scfconv7 GCP(DFT/TZ) printgap
|  2> %output
|  3>     printlevel normal
|  4> end
|  5> * xyz 0 1
|  6> C 3.3701180723450204 0.03179301870295848 0.15249315261444793
|  7> N 1.9491813393079591 -0.23646475177637172 0.37097560276250446
|  8> C 1.6511278150049427 -1.2152148335121897 1.416521997275328
|  9> C 1.057262121612218 0.21750541795909706 -0.5326030285575954
| 10> O 1.4128760123956299 0.82427921279794 -1.5663512382346305
| 11> C -0.4027534725807678 0.025190739887303495 -0.2718269130167209
| 12> C -1.203605607242952 -0.46642799941185453 -1.3064456209629753
| 13> C -2.577792596128618 -0.5838272204527984 -1.1299084713440875
| 14> C -3.1647203623798617 -0.18336813014544046 0.06913764104611024
| 15> C -2.371971139140448 0.32828232908506944 1.0940582171770363
| 16> C -0.9935978425884984 0.4246546384505803 0.9302264495628572
| 17> H 3.508304888653746 1.0349919242910142 -0.2534846146859972
| 18> H 3.810678741697014 -0.6956531982366599 -0.5408472966837377
| 19> H 3.8878816116102213 -0.03950865268008708 1.1119243514942303
| 20> H 2.3215614190086002 -2.0740487706889494 1.2990139516713062
| 21> H 0.6247502730407253 -1.5695867275459978 1.3362903350477882
| 22> H 1.8073214000707154 -0.7858386100874332 2.412081928652503
| 23> H -0.7427963347033194 -0.7621737749140158 -2.243830604864523
| 24> H -3.192320116816449 -0.9829102323811584 -1.930633386758799
| 25> H -4.238516979357089 -0.2658061938161999 0.20283766988594987
| 26> H -2.826969157529869 0.6534420830782005 2.024304374491651
| 27> H -0.3799868418763705 0.8237820352509649 1.731888795186976
| 28> *
| 29>
| 30>                          ****END OF INPUT****

CARTESIAN COORDINATES (ANGSTROEM)
---------------------------------
  C      3.370118    0.031793    0.152493
  N      1.949181   -0.236465    0.370976
  C      1.651128   -1.215215    1.416522
  C      1.057262    0.217505   -0.532603
  O      1.412876    0.824279   -1.566351
  C     -0.402753    0.025191   -0.271827
  C     -1.203606   -0.466428   -1.306446
  C     -2.577793   -0.583827   -1.129908
  C     -3.164720   -0.183368    0.069138
  C     -2.371971    0.328282    1.094058
  C     -0.993598    0.424655    0.930226
  H      3.508305    1.034992   -0.253485
  H      3.810679   -0.695653   -0.540847
  H      3.887882   -0.039509    1.111924
  H      2.321561   -2.074049    1.299014
  H      0.624750   -1.569587    1.336290
  H      1.807321   -0.785839    2.412082
  H     -0.742796   -0.762174   -2.243831
  H     -3.192320   -0.982910   -1.930633
  H     -4.238517   -0.265806    0.202838
  H     -2.826969    0.653442    2.024304
  H     -0.379987    0.823782    1.731889

 Total Charge           Charge          ....    0
 Multiplicity           Mult            ....    1
 Number of Electrons    NEL             ....   80
 Basis Dimension        Dim             ....  407

ORBITAL ENERGIES
----------------

  NO   OCC          E(Eh)            E(eV)
   0   2.0000     -21.624936      -588.4444
   1   2.0000     -16.562797      -450.6966
   2   2.0000     -12.145723      -330.5019
   3   2.0000     -12.089303      -328.9667
   4   2.0000     -12.077764      -328.6527
   5   2.0000     -12.066753      -328.3530
   6   2.0000     -12.062912      -328.2485
   7   2.0000     -12.060833      -328.1919
   8   2.0000     -12.059188      -328.1472
   9   2.0000     -12.058424      -328.1264
  10   2.0000     -12.056621      -328.0773
  11   2.0000      -1.671322       -45.4790
  12   2.0000      -1.530712       -41.6528
  13   2.0000      -1.393128       -37.9090
  14   2.0000      -1.299404       -35.3586
  15   2.0000      -1.281872       -34.8815
  16   2.0000      -1.243553       -33.8388
  17   2.0000      -1.234166       -33.5834
  18   2.0000      -1.134405       -30.8687
  19   2.0000      -1.114551       -30.3285
  20   2.0000      -1.063076       -28.9278
  21   2.0000      -1.018431       -27.7129
  22   2.0000      -1.007962       -27.4281
  23   2.0000      -0.960994       -26.1500
  24   2.0000      -0.958474       -26.0814
  25   2.0000      -0.934849       -25.4385
  26   2.0000      -0.926260       -25.2048
  27   2.0000      -0.902031       -24.5455
  28   2.0000      -0.882736       -24.0205
  29   2.0000      -0.867838       -23.6151
  30   2.0000      -0.857280       -23.3278
  31   2.0000      -0.846096       -23.0234
  32   2.0000      -0.840559       -22.8728
  33   2.0000      -0.829223       -22.5643
  34   2.0000      -0.815087       -22.1796
  35   2.0000      -0.813539       -22.1375
  36   2.0000      -0.779434       -21.2095
  37   2.0000      -0.739085       -20.1115
  38   2.0000      -0.652950       -17.7677
  39   2.0000      -0.646266       -17.5858
  40   0.0000      -0.305319        -8.3081
  41   0.0000      -0.243604        -6.6288
  42   0.0000      -0.230743        -6.2788
  43   0.0000      -0.128773        -3.5041
  44   0.0000      -0.099233        -2.7003

MULLIKEN ATOMIC CHARGES
-----------------------
   0 C :   -0.284785
   1 N :   -0.072507
   2 C :   -0.315961
   3 C :    0.235771
   4 O :   -0.404060
   5 C :    0.137715
   6 C :   -0.207723
   7 C :   -0.112272
   8 C :   -0.118606
   9 C :   -0.099946
  10 C :   -0.214958
  11 H :    0.154395
  12 H :    0.127366
  13 H :    0.120627
  14 H :    0.132567
  15 H :    0.162444
  16 H :    0.130498
  17 H :    0.135504
  18 H :    0.121317
  19 H :    0.121511
  20 H :    0.120023
  21 H :    0.131080
Sum of atomic charges:    0.0000000

LOEWDIN ATOMIC CHARGES
----------------------
   0 C :   -0.270864
   1 N :    0.158846
   2 C :   -0.277969
   3 C :   -0.377073
   4 O :    0.031515
   5 C :   -0.116642
   6 C :   -0.084513
   7 C :   -0.133190
   8 C :   -0.133143
   9 C :   -0.138784
  10 C :   -0.105824
  11 H :    0.127224
  12 H :    0.115594
  13 H :    0.115422
  14 H :    0.117208
  15 H :    0.129521
  16 H :    0.112234
  17 H :    0.153613
  18 H :    0.143349
  19 H :    0.142432
  20 H :    0.142648
  21 H :    0.148397

  Mayer bond orders larger than 0.100000
B(  0-C ,  1-N ) :   0.9294 B(  0-C , 11-H ) :   0.9691 B(  0-C , 12-H ) :   0.9783
B(  0-C , 13-H ) :   0.9692 B(  1-N ,  2-C ) :   0.9226 B(  1-N ,  3-C ) :   1.2826
B(  2-C , 14-H ) :   0.9699 B(  2-C , 15-H ) :   0.9693 B(  2-C , 16-H ) :   0.9788
B(  3-C ,  4-O ) :   2.0237 B(  3-C ,  5-C ) :   0.8770 B(  5-C ,  6-C ) :   1.4176
B(  5-C , 10-C ) :   1.3585 B(  6-C ,  7-C ) :   1.4446 B(  6-C , 17-H ) :   0.9657
B(  7-C ,  8-C ) :   1.4123 B(  7-C , 18-H ) :   0.9757 B(  8-C ,  9-C ) :   1.4258
B(  8-C , 19-H ) :   0.9716 B(  9-C , 10-C ) :   1.4409 B(  9-C , 20-H ) :   0.9739
B( 10-C , 21-H ) :   0.9690

FINAL SINGLE POINT ENERGY      -479.587153033489

DIPOLE MOMENT
-------------

Method             : SCF
Type of density    : Electron Density
Multiplicity       :   1
Irrep              :   0
Energy             :  -479.6001273474889217 Eh
Relativity type    :
Basis              : AO
                                X                 Y                 Z
Electronic contribution:     -4.508016933       2.664468183      -4.170058861
Nuclear contribution   :      4.408709238      -3.539514889       5.476008948
                        -----------------------------------------
Total Dipole Moment    :     -0.099307695      -0.875046706       1.305950087
                        -----------------------------------------
Magnitude (a.u.)       :      1.575142656
Magnitude (Debye)      :      4.003694452

Rotational constants in cm-1:             0.081364             0.023965             0.020654
Rotational constants in MHz :          2439.217972           718.441357           619.179995

                             ****ORCA TERMINATED NORMALLY****
TOTAL RUN TIME: 0 days 0 hours 5 minutes 43 seconds 307 msec
