                         Program Version 6.0.0  -   RELEASE  -
|  1> ! wb97x-v def2-tzvp def2/J RIJCOSX DEFGRID2 scfconv7 GCP(DFT/TZ) printgap
|  2> %output
|  3>     printlevel normal
|  4> end
|  5> %cpcm
|  6>     smd true
|  7>     smdsolvent "water"
|  8> end
|  9> * xyz 0 1
| 10> C 3.3701180723450204 0.03179301870295848 0.15249315261444793
| 11> N 1.9491813393079591 -0.23646475177637172 0.37097560276250446
| 12> C 1.6511278150049427 -1.2152148335121897 1.416521997275328
| 13> C 1.057262121612218 0.21750541795909706 -0.5326030285575954
| 14> O 1.4128760123956299 0.82427921279794 -1.5663512382346305
| 15> C -0.4027534725807678 0.025190739887303495 -0.2718269130167209
| 16> C -1.203605607242952 -0.46642799941185453 -1.3064456209629753
| 17> C -2.577792596128618 -0.5838272204527984 -1.1299084713440875
| 18> C -3.1647203623798617 -0.18336813014544046 0.06913764104611024
| 19> C -2.371971139140448 0.32828232908506944 1.0940582171770363
| 20> C -0.9935978425884984 0.4246546384505803 0.9302264495628572
| 21> H 3.508304888653746 1.0349919242910142 -0.2534846146859972
| 22> H 3.810678741697014 -0.6956531982366599 -0.5408472966837377
| 23> H 3.8878816116102213 -0.03950865268008708 1.1119243514942303
| 24> H 2.3215614190086002 -2.0740487706889494 1.2990139516713062
| 25> H 0.6247502730407253 -1.5695867275459978 1.3362903350477882
| 26> H 1.8073214000707154 -0.7858386100874332 2.412081928652503
| 27> H -0.7427963347033194 -0.7621737749140158 -2.243830604864523
| 28> H -3.192320116816449 -0.9829102323811584 -1.930633386758799
| 29> H -4.238516979357089 -0.2658061938161999 0.20283766988594987
| 30> H -2.826969157529869 0.6534420830782005 2.024304374491651
| 31> H -0.3799868418763705 0.8237820352509649 1.731888795186976
| 32> *
| 33>
| 34>                          ****END OF INPUT****

CARTESIAN COORDINATES (ANGSTROEM)
---------------------------------
  C      3.370118    0.031793    0.152493
  N      1.949181   -0.236465    0.370976
  C      1.651128   -1.215215    1.416522
  C      1.057262    0.217505   -0.532603
  O      1.412876    0.824279   -1.566351
  C     -0.402753    0.025191   -0.271827
  C     -1.203606   -0.466428   -1.306446
  C     -2.577793   -0.583827   -1.129908
  C     -3.164720   -0.183368    0.069138
  C     -2.371971    0.328282    1.094058
  C     -0.993598    0.424655    0.930226
  H      3.508305    1.034992   -0.253485
  H      3.810679   -0.695653   -0.540847
  H      3.887882   -0.039509    1.111924
  H      2.321561   -2.074049    1.299014
  H      0.624750   -1.569587    1.336290
  H      1.807321   -0.785839    2.412082
  H     -0.742796   -0.762174   -2.243831
  H     -3.192320   -0.982910   -1.930633
  H     -4.238517   -0.265806    0.202838
  H     -2.826969    0.653442    2.024304
  H     -0.379987    0.823782    1.731889

 Total Charge           Charge          ....    0
 Multiplicity           Mult            ....    1
 Number of Electrons    NEL             ....   80
 Basis Dimension        Dim             ....  407

ORBITAL ENERGIES
----------------

  NO   OCC          E(Eh)            E(eV)
   0   2.0000     -21.644429      -588.9748
   1   2.0000     -16.564711      -450.7487
   2   2.0000     -12.158369      -330.8460
   3   2.0000     -12.071059      -328.4702
   4   2.0000     -12.067882      -328.3838
   5   2.0000     -12.067344      -328.3691
   6   2.0000     -12.058790      -328.1364
   7   2.0000     -12.057626      -328.1047
   8   2.0000     -12.055848      -328.0563
   9   2.0000     -12.053705      -327.9980
  10   2.0000     -12.052631      -327.9688
  11   2.0000      -1.693438       -46.0808
  12   2.0000      -1.530543       -41.6482
  13   2.0000      -1.391911       -37.8758
  14   2.0000      -1.298746       -35.3407
  15   2.0000      -1.279125       -34.8068
  16   2.0000      -1.235428       -33.6177
  17   2.0000      -1.229095       -33.4454
  18   2.0000      -1.133937       -30.8560
  19   2.0000      -1.111458       -30.2443
  20   2.0000      -1.070965       -29.1424
  21   2.0000      -1.019680       -27.7469
  22   2.0000      -1.013424       -27.5767
  23   2.0000      -0.959571       -26.1113
  24   2.0000      -0.953319       -25.9411
  25   2.0000      -0.933413       -25.3995
  26   2.0000      -0.922807       -25.1109
  27   2.0000      -0.899437       -24.4749
  28   2.0000      -0.882538       -24.0151
  29   2.0000      -0.877638       -23.8817
  30   2.0000      -0.860743       -23.4220
  31   2.0000      -0.839609       -22.8469
  32   2.0000      -0.826534       -22.4911
  33   2.0000      -0.819105       -22.2890
  34   2.0000      -0.815011       -22.1776
  35   2.0000      -0.809915       -22.0389
  36   2.0000      -0.779403       -21.2086
  37   2.0000      -0.735638       -20.0177
  38   2.0000      -0.652386       -17.7523
  39   2.0000      -0.644733       -17.5441
  40   0.0000      -0.309911        -8.4331
  41   0.0000      -0.241494        -6.5714
  42   0.0000      -0.232250        -6.3198
  43   0.0000      -0.121043        -3.2937
  44   0.0000      -0.094784        -2.5792

MULLIKEN ATOMIC CHARGES
-----------------------
   0 C :   -0.324775
   1 N :   -0.053024
   2 C :   -0.326900
   3 C :    0.320338
   4 O :   -0.565249
   5 C :    0.124291
   6 C :   -0.257292
   7 C :   -0.160039
   8 C :   -0.154728
   9 C :   -0.142217
  10 C :   -0.234387
  11 H :    0.148788
  12 H :    0.151544
  13 H :    0.157236
  14 H :    0.157652
  15 H :    0.171674
  16 H :    0.154879
  17 H :    0.164301
  18 H :    0.163280
  19 H :    0.165055
  20 H :    0.164121
  21 H :    0.175451
Sum of atomic charges:    0.0000000

LOEWDIN ATOMIC CHARGES
----------------------
   0 C :   -0.268610
   1 N :    0.175798
   2 C :   -0.264248
   3 C :   -0.369285
   4 O :   -0.063269
   5 C :   -0.128236
   6 C :   -0.099721
   7 C :   -0.139462
   8 C :   -0.135020
   9 C :   -0.139990
  10 C :   -0.100606
  11 H :    0.123374
  12 H :    0.121753
  13 H :    0.128161
  14 H :    0.126501
  15 H :    0.132485
  16 H :    0.122213
  17 H :    0.157737
  18 H :    0.153347
  19 H :    0.152992
  20 H :    0.153552
  21 H :    0.160533

  Mayer bond orders larger than 0.100000
B(  0-C ,  1-N ) :   0.9165 B(  0-C , 11-H ) :   0.9672 B(  0-C , 12-H ) :   0.9720
B(  0-C , 13-H ) :   0.9646 B(  1-N ,  2-C ) :   0.9101 B(  1-N ,  3-C ) :   1.3584
B(  2-C , 14-H ) :   0.9643 B(  2-C , 15-H ) :   0.9635 B(  2-C , 16-H ) :   0.9726
B(  3-C ,  4-O ) :   1.8379 B(  3-C ,  5-C ) :   0.8989 B(  5-C ,  6-C ) :   1.3638
B(  5-C , 10-C ) :   1.3472 B(  6-C ,  7-C ) :   1.4416 B(  6-C , 17-H ) :   0.9722
B(  7-C ,  8-C ) :   1.3957 B(  7-C , 18-H ) :   0.9775 B(  8-C ,  9-C ) :   1.4012
B(  8-C , 19-H ) :   0.9723 B(  9-C , 10-C ) :   1.4266 B(  9-C , 20-H ) :   0.9752
B( 10-C , 21-H ) :   0.9705

FINAL SINGLE POINT ENERGY      -479.601549346550

DIPOLE MOMENT
-------------

Method             : SCF
Type of density    : Electron Density
Multiplicity       :   1
Irrep              :   0
Energy             :  -479.6145236605505033 Eh
Relativity type    :
Basis              : AO
                                X                 Y                 Z
Electronic contribution:     -4.563107827       2.219628913      -3.396081064
Nuclear contribution   :      4.408709238      -3.539514889       5.476008948
                        -----------------------------------------
Total Dipole Moment    :     -0.154398589      -1.319885976       2.079927884
                        -----------------------------------------
Magnitude (a.u.)       :      2.468205404
Magnitude (Debye)      :      6.273679561

Rotational constants in cm-1:             0.081364             0.023965             0.020654
Rotational constants in MHz :          2439.217972           718.441357           619.179995

                             ****ORCA TERMINATED NORMALLY****
TOTAL RUN TIME: 0 days 0 hours 5 minutes 26 seconds 874 msec
