                         Program Version 6.0.0  -   RELEASE  -
|  1> ! r2scan-3c def2/J RI DEFGRID2 scfconv6 printgap
|  2> %output
|  3>     printlevel normal
|  4> end
|  5> * xyz 0 1
|  6> C -2.7407149061 -0.2854279989 -5.57808e-05
|  7> C -2.3666647356 1.0660450184 8.41065e-05
|  8> C -1.0454319204 1.4181848243 9.97644e-05
|  9> C -0.0286031178 0.4383303209 7.9663e-06
| 10> C -0.4091496995 -0.9320778114 -2.00948e-05
| 11> C -1.7822808239 -1.2585753137 -9.38987e-05
| 12> C 0.5802794601 -1.935729838 3.08978e-05
| 13> C 1.9053040886 -1.600663584 6.79711e-05
| 14> C 2.2960935962 -0.2587061403 2.17014e-05
| 15> C 1.3600072479 0.7495284753 -7.4346e-06
| 16> O 1.8257801767 2.0274314678 -7.54058e-05
| 17> H -3.7879651466 -0.5473264864 -0.0002446288
| 18> H -3.1302129429 1.829178598 0.0001056874
| 19> H -0.7920783889 2.4689943475 0.0001643607
| 20> H -2.0597778912 -2.302534455 -0.0002242508
| 21> H 0.2712904802 -2.9700495145 6.05425e-05
| 22> H 2.6654377854 -2.3668020296 8.05519e-05
| 23> H 3.3405251584 0.0113156029 -4.16867e-05
| 24> H 1.0987786998 2.6667938911 -0.0003147272
| 25> *
| 26>
| 27>                          ****END OF INPUT****

CARTESIAN COORDINATES (ANGSTROEM)
---------------------------------
  C     -2.740715   -0.285428   -0.000056
  C     -2.366665    1.066045    0.000084
  C     -1.045432    1.418185    0.000100
  C     -0.028603    0.438330    0.000008
  C     -0.409150   -0.932078   -0.000020
  C     -1.782281   -1.258575   -0.000094
  C      0.580279   -1.935730    0.000031
  C      1.905304   -1.600664    0.000068
  C      2.296094   -0.258706    0.000022
  C      1.360007    0.749528   -0.000007
  O      1.825780    2.027431   -0.000075
  H     -3.787965   -0.547326   -0.000245
  H     -3.130213    1.829179    0.000106
  H     -0.792078    2.468994    0.000164
  H     -2.059778   -2.302534   -0.000224
  H      0.271290   -2.970050    0.000061
  H      2.665438   -2.366802    0.000081
  H      3.340525    0.011316   -0.000042
  H      1.098779    2.666794   -0.000315

 Total Charge           Charge          ....    0
 Multiplicity           Mult            ....    1
 Number of Electrons    NEL             ....   76
 Basis Dimension        Dim             ....  254

ORBITAL ENERGIES
----------------

  NO   OCC          E(Eh)            E(eV)
   0   2.0000     -18.990303      -516.7524
   1   2.0000     -10.102211      -274.8951
   2   2.0000     -10.052756      -273.5494
   3   2.0000     -10.050011      -273.4747
   4   2.0000     -10.049452      -273.4595
   5   2.0000     -10.042754      -273.2772
   6   2.0000     -10.041089      -273.2319
   7   2.0000     -10.040371      -273.2124
   8   2.0000     -10.037763      -273.1414
   9   2.0000     -10.030385      -272.9407
  10   2.0000     -10.029819      -272.9252
  11   2.0000      -1.034025       -28.1373
  12   2.0000      -0.848144       -23.0792
  13   2.0000      -0.796388       -21.6708
  14   2.0000      -0.743536       -20.2326
  15   2.0000      -0.718913       -19.5626
  16   2.0000      -0.693935       -18.8829
  17   2.0000      -0.605245       -16.4695
  18   2.0000      -0.597040       -16.2463
  19   2.0000      -0.572114       -15.5680
  20   2.0000      -0.528945       -14.3933
  21   2.0000      -0.488816       -13.3014
  22   2.0000      -0.471050       -12.8179
  23   2.0000      -0.455983       -12.4079
  24   2.0000      -0.424612       -11.5543
  25   2.0000      -0.410392       -11.1673
  26   2.0000      -0.397589       -10.8189
  27   2.0000      -0.394760       -10.7420
  28   2.0000      -0.374806       -10.1990
  29   2.0000      -0.353955        -9.6316
  30   2.0000      -0.349988        -9.5237
  31   2.0000      -0.346906        -9.4398
  32   2.0000      -0.314323        -8.5532
  33   2.0000      -0.307888        -8.3781
  34   2.0000      -0.303749        -8.2654
  35   2.0000      -0.255776        -6.9600
  36   2.0000      -0.236730        -6.4418
  37   2.0000      -0.191515        -5.2114
  38   0.0000      -0.066861        -1.8194
  39   0.0000      -0.040291        -1.0964
  40   0.0000       0.004230         0.1151
  41   0.0000       0.038786         1.0554
  42   0.0000       0.064756         1.7621

MULLIKEN ATOMIC CHARGES
-----------------------
   0 C :   -0.147118
   1 C :   -0.171343
   2 C :   -0.249976
   3 C :    0.022801
   4 C :    0.206174
   5 C :   -0.213649
   6 C :   -0.289489
   7 C :   -0.118686
   8 C :   -0.286599
   9 C :    0.354164
  10 O :   -0.400316
  11 H :    0.145924
  12 H :    0.144787
  13 H :    0.102481
  14 H :    0.144321
  15 H :    0.143546
  16 H :    0.146725
  17 H :    0.157778
  18 H :    0.308474
Sum of atomic charges:    0.0000000

LOEWDIN ATOMIC CHARGES
----------------------
   0 C :   -0.163818
   1 C :   -0.162232
   2 C :   -0.150779
   3 C :   -0.047691
   4 C :   -0.050304
   5 C :   -0.137210
   6 C :   -0.171958
   7 C :   -0.150170
   8 C :   -0.145743
   9 C :    0.203381
  10 O :   -0.494078
  11 H :    0.168658
  12 H :    0.168355
  13 H :    0.159636
  14 H :    0.171821
  15 H :    0.170042
  16 H :    0.169288
  17 H :    0.181077
  18 H :    0.281726

  Mayer bond orders larger than 0.100000
B(  0-C ,  1-C ) :   1.2771 B(  0-C ,  5-C ) :   1.5099 B(  0-C , 11-H ) :   0.9500
B(  1-C ,  2-C ) :   1.5547 B(  1-C , 12-H ) :   0.9475 B(  2-C ,  3-C ) :   1.1743
B(  2-C ,  9-C ) :  -0.1084 B(  2-C , 13-H ) :   0.9630 B(  3-C ,  4-C ) :   1.4381
B(  3-C ,  9-C ) :   1.1934 B(  4-C ,  5-C ) :   1.1945 B(  4-C ,  6-C ) :   1.1842
B(  5-C , 14-H ) :   0.9526 B(  6-C ,  7-C ) :   1.4942 B(  6-C , 15-H ) :   0.9459
B(  7-C ,  8-C ) :   1.2572 B(  7-C , 16-H ) :   0.9506 B(  8-C ,  9-C ) :   1.4633
B(  8-C , 10-O ) :   0.1069 B(  8-C , 17-H ) :   0.9392 B(  9-C , 10-O ) :   0.9715
B( 10-O , 18-H ) :   0.8691

Dispersion correction           -0.007532998
FINAL SINGLE POINT ENERGY      -461.003107697175

DIPOLE MOMENT
-------------

Method             : SCF
Type of density    : Electron Density
Multiplicity       :   1
Irrep              :   0
Energy             :  -461.0006719085452005 Eh
Relativity type    :
Basis              : AO
                                X                 Y                 Z
Electronic contribution:      1.727339974       1.256340347       0.000182561
Nuclear contribution   :     -2.218943860      -1.105564020      -0.000389661
                        -----------------------------------------
Total Dipole Moment    :     -0.491603886       0.150776327      -0.000207101
                        -----------------------------------------
Magnitude (a.u.)       :      0.514206111
Magnitude (Debye)      :      1.307008064

Rotational constants in cm-1:             0.065721             0.037774             0.023987
Rotational constants in MHz :          1970.279456          1132.424126           719.112199

                             ****ORCA TERMINATED NORMALLY****
TOTAL RUN TIME: 0 days 0 hours 0 minutes 31 seconds 135 msec
