                         Program Version 6.0.0  -   RELEASE  -
|  1> ! r2scan-3c def2/J RI DEFGRID2 scfconv6 printgap
|  2> %output
|  3>     printlevel normal
|  4> end
|  5> %cpcm
|  6>     smd true
|  7>     smdsolvent "water"
|  8> end
|  9> * xyz 0 1
| 10> C -2.7407149061 -0.2854279989 -5.57808e-05
| 11> C -2.3666647356 1.0660450184 8.41065e-05
| 12> C -1.0454319204 1.4181848243 9.97644e-05
| 13> C -0.0286031178 0.4383303209 7.9663e-06
| 14> C -0.4091496995 -0.9320778114 -2.00948e-05
| 15> C -1.7822808239 -1.2585753137 -9.38987e-05
| 16> C 0.5802794601 -1.935729838 3.08978e-05
| 17> C 1.9053040886 -1.600663584 6.79711e-05
| 18> C 2.2960935962 -0.2587061403 2.17014e-05
| 19> C 1.3600072479 0.7495284753 -7.4346e-06
| 20> O 1.8257801767 2.0274314678 -7.54058e-05
| 21> H -3.7879651466 -0.5473264864 -0.0002446288
| 22> H -3.1302129429 1.829178598 0.0001056874
| 23> H -0.7920783889 2.4689943475 0.0001643607
| 24> H -2.0597778912 -2.302534455 -0.0002242508
| 25> H 0.2712904802 -2.9700495145 6.05425e-05
| 26> H 2.6654377854 -2.3668020296 8.05519e-05
| 27> H 3.3405251584 0.0113156029 -4.16867e-05
| 28> H 1.0987786998 2.6667938911 -0.0003147272
| 29> *
| 30>
| 31>                          ****END OF INPUT****

CARTESIAN COORDINATES (ANGSTROEM)
---------------------------------
  C     -2.740715   -0.285428   -0.000056
  C     -2.366665    1.066045    0.000084
  C     -1.045432    1.418185    0.000100
  C     -0.028603    0.438330    0.000008
  C     -0.409150   -0.932078   -0.000020
  C     -1.782281   -1.258575   -0.000094
  C      0.580279   -1.935730    0.000031
  C      1.905304   -1.600664    0.000068
  C      2.296094   -0.258706    0.000022
  C      1.360007    0.749528   -0.000007
  O      1.825780    2.027431   -0.000075
  H     -3.787965   -0.547326   -0.000245
  H     -3.130213    1.829179    0.000106
  H     -0.792078    2.468994    0.000164
  H     -2.059778   -2.302534   -0.000224
  H      0.271290   -2.970050    0.000061
  H      2.665438   -2.366802    0.000081
  H      3.340525    0.011316   -0.000042
  H      1.098779    2.666794   -0.000315

 Total Charge           Charge          ....    0
 Multiplicity           Mult            ....    1
 Number of Electrons    NEL             ....   76
 Basis Dimension        Dim             ....  254

ORBITAL ENERGIES
----------------

  NO   OCC          E(Eh)            E(eV)
   0   2.0000     -18.987685      -516.6812
   1   2.0000     -10.102769      -274.9103
   2   2.0000     -10.051499      -273.5152
   3   2.0000     -10.049475      -273.4601
   4   2.0000     -10.041747      -273.2498
   5   2.0000     -10.036592      -273.1096
   6   2.0000     -10.036300      -273.1016
   7   2.0000     -10.036241      -273.1000
   8   2.0000     -10.035447      -273.0784
   9   2.0000     -10.029916      -272.9279
  10   2.0000     -10.028254      -272.8827
  11   2.0000      -1.031437       -28.0668
  12   2.0000      -0.847267       -23.0553
  13   2.0000      -0.794963       -21.6320
  14   2.0000      -0.740782       -20.1577
  15   2.0000      -0.717160       -19.5149
  16   2.0000      -0.691232       -18.8094
  17   2.0000      -0.601364       -16.3639
  18   2.0000      -0.593939       -16.1619
  19   2.0000      -0.567845       -15.4518
  20   2.0000      -0.523104       -14.2344
  21   2.0000      -0.484223       -13.1764
  22   2.0000      -0.467608       -12.7243
  23   2.0000      -0.450518       -12.2592
  24   2.0000      -0.420922       -11.4539
  25   2.0000      -0.402151       -10.9431
  26   2.0000      -0.396845       -10.7987
  27   2.0000      -0.394474       -10.7342
  28   2.0000      -0.370023       -10.0688
  29   2.0000      -0.352309        -9.5868
  30   2.0000      -0.347939        -9.4679
  31   2.0000      -0.345222        -9.3940
  32   2.0000      -0.307663        -8.3719
  33   2.0000      -0.305232        -8.3058
  34   2.0000      -0.304562        -8.2875
  35   2.0000      -0.255512        -6.9528
  36   2.0000      -0.238172        -6.4810
  37   2.0000      -0.192744        -5.2448
  38   0.0000      -0.065998        -1.7959
  39   0.0000      -0.040969        -1.1148
  40   0.0000       0.003721         0.1013
  41   0.0000       0.063970         1.7407
  42   0.0000       0.065611         1.7854

MULLIKEN ATOMIC CHARGES
-----------------------
   0 C :   -0.174141
   1 C :   -0.205664
   2 C :   -0.249250
   3 C :   -0.001471
   4 C :    0.150829
   5 C :   -0.232387
   6 C :   -0.311689
   7 C :   -0.161174
   8 C :   -0.318465
   9 C :    0.346132
  10 O :   -0.449361
  11 H :    0.179240
  12 H :    0.178962
  13 H :    0.157431
  14 H :    0.179383
  15 H :    0.177410
  16 H :    0.179948
  17 H :    0.185013
  18 H :    0.369255
Sum of atomic charges:    0.0000000

LOEWDIN ATOMIC CHARGES
----------------------
   0 C :   -0.169292
   1 C :   -0.169671
   2 C :   -0.147016
   3 C :   -0.057864
   4 C :   -0.065800
   5 C :   -0.148759
   6 C :   -0.182910
   7 C :   -0.161265
   8 C :   -0.162473
   9 C :    0.194923
  10 O :   -0.508013
  11 H :    0.179770
  12 H :    0.180016
  13 H :    0.181177
  14 H :    0.183721
  15 H :    0.181720
  16 H :    0.180418
  17 H :    0.189119
  18 H :    0.302198

  Mayer bond orders larger than 0.100000
B(  0-C ,  1-C ) :   1.2358 B(  0-C ,  5-C ) :   1.4744 B(  0-C , 11-H ) :   0.9600
B(  1-C ,  2-C ) :   1.5078 B(  1-C , 12-H ) :   0.9614 B(  2-C ,  3-C ) :   1.1975
B(  2-C ,  9-C ) :  -0.1137 B(  2-C , 13-H ) :   0.9722 B(  3-C ,  4-C ) :   1.3490
B(  3-C ,  9-C ) :   1.1801 B(  4-C ,  5-C ) :   1.1948 B(  4-C ,  6-C ) :   1.1761
B(  5-C , 14-H ) :   0.9594 B(  6-C ,  7-C ) :   1.4594 B(  6-C , 15-H ) :   0.9613
B(  7-C ,  8-C ) :   1.2337 B(  7-C , 16-H ) :   0.9628 B(  8-C ,  9-C ) :   1.4122
B(  8-C , 10-O ) :   0.1018 B(  8-C , 17-H ) :   0.9559 B(  9-C , 10-O ) :   0.9742
B( 10-O , 18-H ) :   0.8413

Dispersion correction           -0.007532998
FINAL SINGLE POINT ENERGY      -461.013421968582

DIPOLE MOMENT
-------------

Method             : SCF
Type of density    : Electron Density
Multiplicity       :   1
Irrep              :   0
Energy             :  -461.0109861799518853 Eh
Relativity type    :
Basis              : AO
                                X                 Y                 Z
Electronic contribution:      1.469285396       1.429982072       0.000094865
Nuclear contribution   :     -2.218943860      -1.105564020      -0.000389661
                        -----------------------------------------
Total Dipole Moment    :     -0.749658463       0.324418051      -0.000294796
                        -----------------------------------------
Magnitude (a.u.)       :      0.816844520
Magnitude (Debye)      :      2.076253768

Rotational constants in cm-1:             0.065721             0.037774             0.023987
Rotational constants in MHz :          1970.279456          1132.424126           719.112199

                             ****ORCA TERMINATED NORMALLY****
TOTAL RUN TIME: 0 days 0 hours 0 minutes 37 seconds 704 msec
