                         Program Version 6.0.0  -   RELEASE  -
|  1> ! pbe def2-sv(p) def2/J RI DEFGRID1 loosescf d4 GCP(DFT/SV(P)) printgap
|  2> %output
|  3>     printlevel normal
|  4> end
|  5> * xyz 0 1
|  6> C -1.8943868358 -0.6552582221 0.1720355106
|  7> C -0.9502214586 0.4787192732 -0.2046863041
|  8> C 0.5068507116 0.0946574642 -0.0172592617
|  9> O 0.8724089629 -1.0032405665 0.3878108781
| 10> N 1.3806853228 1.0626983583 -0.3327588903
| 11> H -1.7489815351 -0.9355182876 1.212539072
| 12> H -2.9279781981 -0.354269433 0.0265043228
| 13> H -1.6905780288 -1.5321121959 -0.437817481
| 14> H -1.1527146971 1.3557862931 0.4125865476
| 15> H -1.0969441967 0.7559105226 -1.2500952635
| 16> H 1.0729361758 1.9591835456 -0.6664605864
| 17> H 2.3666894053 0.8838913902 -0.2342479602
| 18> *
| 19>
| 20>                          ****END OF INPUT****

CARTESIAN COORDINATES (ANGSTROEM)
---------------------------------
  C     -1.894387   -0.655258    0.172036
  C     -0.950221    0.478719   -0.204686
  C      0.506851    0.094657   -0.017259
  O      0.872409   -1.003241    0.387811
  N      1.380685    1.062698   -0.332759
  H     -1.748982   -0.935518    1.212539
  H     -2.927978   -0.354269    0.026504
  H     -1.690578   -1.532112   -0.437817
  H     -1.152715    1.355786    0.412587
  H     -1.096944    0.755911   -1.250095
  H      1.072936    1.959184   -0.666461
  H      2.366689    0.883891   -0.234248

 Total Charge           Charge          ....    0
 Multiplicity           Mult            ....    1
 Number of Electrons    NEL             ....   40
 Basis Dimension        Dim             ....   84

ORBITAL ENERGIES
----------------

  NO   OCC          E(Eh)            E(eV)
   0   2.0000     -18.706568      -509.0316
   1   2.0000     -14.006977      -381.1492
   2   2.0000      -9.975801      -271.4554
   3   2.0000      -9.892806      -269.1969
   4   2.0000      -9.870810      -268.5984
   5   2.0000      -0.922842       -25.1118
   6   2.0000      -0.816497       -22.2180
   7   2.0000      -0.693830       -18.8801
   8   2.0000      -0.584258       -15.8985
   9   2.0000      -0.517346       -14.0777
  10   2.0000      -0.484794       -13.1919
  11   2.0000      -0.422279       -11.4908
  12   2.0000      -0.417306       -11.3555
  13   2.0000      -0.349949        -9.5226
  14   2.0000      -0.341011        -9.2794
  15   2.0000      -0.326785        -8.8923
  16   2.0000      -0.310705        -8.4547
  17   2.0000      -0.299067        -8.1380
  18   2.0000      -0.224590        -6.1114
  19   2.0000      -0.193401        -5.2627
  20   0.0000       0.002503         0.0681
  21   0.0000       0.025209         0.6860
  22   0.0000       0.053976         1.4688
  23   0.0000       0.080822         2.1993
  24   0.0000       0.101518         2.7624

MULLIKEN ATOMIC CHARGES
-----------------------
   0 C :   -0.252970
   1 C :   -0.245462
   2 C :    0.039813
   3 O :   -0.219821
   4 N :   -0.303796
   5 H :    0.111504
   6 H :    0.095324
   7 H :    0.111615
   8 H :    0.104912
   9 H :    0.105097
  10 H :    0.223709
  11 H :    0.230075
Sum of atomic charges:    0.0000000

LOEWDIN ATOMIC CHARGES
----------------------
   0 C :   -0.335591
   1 C :   -0.268533
   2 C :    0.011660
   3 O :   -0.205907
   4 N :   -0.295423
   5 H :    0.126046
   6 H :    0.117417
   7 H :    0.126114
   8 H :    0.130281
   9 H :    0.130416
  10 H :    0.230462
  11 H :    0.233057

  Mayer bond orders larger than 0.100000
B(  0-C ,  1-C ) :   1.1748 B(  0-C ,  5-H ) :   0.9543 B(  0-C ,  6-H ) :   0.9474
B(  0-C ,  7-H ) :   0.9541 B(  1-C ,  2-C ) :   0.9752 B(  1-C ,  8-H ) :   0.9092
B(  1-C ,  9-H ) :   0.9090 B(  2-C ,  3-O ) :   2.1014 B(  2-C ,  4-N ) :   1.2921
B(  4-N , 10-H ) :   0.8738 B(  4-N , 11-H ) :   0.8670

Dispersion correction           -0.007408351
FINAL SINGLE POINT ENERGY      -247.974098105264

DIPOLE MOMENT
-------------

Method             : SCF
Type of density    : Electron Density
Multiplicity       :   1
Irrep              :   0
Energy             :  -248.0201675804522381 Eh
Relativity type    :
Basis              : AO
                                X                 Y                 Z
Electronic contribution:      4.836062325      -0.635616626       0.388836171
Nuclear contribution   :     -4.836891609       1.991950267      -0.875130879
                        -----------------------------------------
Total Dipole Moment    :     -0.000829284       1.356333641      -0.486294708
                        -----------------------------------------
Magnitude (a.u.)       :      1.440876183
Magnitude (Debye)      :      3.662416201

Rotational constants in cm-1:             0.329737             0.128658             0.095841
Rotational constants in MHz :          9885.255094          3857.058035          2873.246589

                             ****ORCA TERMINATED NORMALLY****
TOTAL RUN TIME: 0 days 0 hours 0 minutes 4 seconds 453 msec
