                         Program Version 6.0.0  -   RELEASE  -
|  1> ! r2scan-3c def2/J RI DEFGRID2 scfconv6 printgap
|  2> %output
|  3>     printlevel normal
|  4> end
|  5> * xyz 0 1
|  6> C -2.5646098831 -0.6602404142 -0.3263467868
|  7> C -1.1845471614 -0.2916172858 0.226209849
|  8> H -1.2386105125 -0.2333520569 1.3233993879
|  9> C -0.7054753733 1.0606582409 -0.3160133397
| 10> H -0.7125498206 1.0162150486 -1.4189029097
| 11> C 0.7344129039 1.3377259797 0.1601534932
| 12> H 0.7362843251 1.4480315407 1.2508651314
| 13> C 1.6350293889 0.1593018726 -0.2180553759
| 14> H 1.6851972541 0.0822968821 -1.3182330001
| 15> C 1.0145723745 -1.1456024956 0.3316512957
| 16> H 1.0158438428 -1.0946884135 1.4339923399
| 17> O -0.2894995296 -1.3226360207 -0.1572830478
| 18> O 1.7709038783 -2.2488635755 -0.0195245671
| 19> O 2.9177886017 0.3585307655 0.3143699032
| 20> O 1.1824060824 2.5737498301 -0.3339603414
| 21> O -1.5816068239 2.0616527731 0.127448075
| 22> O -3.1043693221 -1.7941711691 0.2975367745
| 23> H -2.4785286477 -0.814999308 -1.409122023
| 24> H -3.2488048603 0.1659206576 -0.1291827461
| 25> H 1.5148040736 -2.5431344047 -0.9084513983
| 26> H 3.4089177591 -0.4773360613 0.2740567953
| 27> H 1.4795731708 2.4818147087 -1.2509117145
| 28> H -1.1317207115 2.9185087595 0.0416554322
| 29> H -2.4891210379 -2.5327657467 0.1792196568
| 30> *
| 31>
| 32>                          ****END OF INPUT****

CARTESIAN COORDINATES (ANGSTROEM)
---------------------------------
  C     -2.564610   -0.660240   -0.326347
  C     -1.184547   -0.291617    0.226210
  H     -1.238611   -0.233352    1.323399
  C     -0.705475    1.060658   -0.316013
  H     -0.712550    1.016215   -1.418903
  C      0.734413    1.337726    0.160153
  H      0.736284    1.448032    1.250865
  C      1.635029    0.159302   -0.218055
  H      1.685197    0.082297   -1.318233
  C      1.014572   -1.145602    0.331651
  H      1.015844   -1.094688    1.433992
  O     -0.289500   -1.322636   -0.157283
  O      1.770904   -2.248864   -0.019525
  O      2.917789    0.358531    0.314370
  O      1.182406    2.573750   -0.333960
  O     -1.581607    2.061653    0.127448
  O     -3.104369   -1.794171    0.297537
  H     -2.478529   -0.814999   -1.409122
  H     -3.248805    0.165921   -0.129183
  H      1.514804   -2.543134   -0.908451
  H      3.408918   -0.477336    0.274057
  H      1.479573    2.481815   -1.250912
  H     -1.131721    2.918509    0.041655
  H     -2.489121   -2.532766    0.179220

 Total Charge           Charge          ....    0
 Multiplicity           Mult            ....    1
 Number of Electrons    NEL             ....   96
 Basis Dimension        Dim             ....  318

ORBITAL ENERGIES
----------------

  NO   OCC          E(Eh)            E(eV)
   0   2.0000     -18.986318      -516.6440
   1   2.0000     -18.984377      -516.5912
   2   2.0000     -18.972171      -516.2590
   3   2.0000     -18.965299      -516.0720
   4   2.0000     -18.962600      -515.9986
   5   2.0000     -18.951796      -515.7046
   6   2.0000     -10.152530      -276.2644
   7   2.0000     -10.101381      -274.8726
   8   2.0000     -10.100571      -274.8505
   9   2.0000     -10.098914      -274.8054
  10   2.0000     -10.097640      -274.7707
  11   2.0000     -10.081550      -274.3329
  12   2.0000      -1.067864       -29.0581
  13   2.0000      -1.022484       -27.8232
  14   2.0000      -1.010878       -27.5074
  15   2.0000      -0.997895       -27.1541
  16   2.0000      -0.992771       -27.0147
  17   2.0000      -0.986665       -26.8485
  18   2.0000      -0.760099       -20.6834
  19   2.0000      -0.744578       -20.2610
  20   2.0000      -0.660329       -17.9685
  21   2.0000      -0.629027       -17.1167
  22   2.0000      -0.602600       -16.3976
  23   2.0000      -0.582006       -15.8372
  24   2.0000      -0.530351       -14.4316
  25   2.0000      -0.522890       -14.2285
  26   2.0000      -0.499130       -13.5820
  27   2.0000      -0.483580       -13.1589
  28   2.0000      -0.475197       -12.9308
  29   2.0000      -0.459970       -12.5164
  30   2.0000      -0.449975       -12.2444
  31   2.0000      -0.438558       -11.9338
  32   2.0000      -0.422029       -11.4840
  33   2.0000      -0.397502       -10.8166
  34   2.0000      -0.385355       -10.4860
  35   2.0000      -0.369028       -10.0418
  36   2.0000      -0.358831        -9.7643
  37   2.0000      -0.356710        -9.7066
  38   2.0000      -0.337368        -9.1803
  39   2.0000      -0.331471        -9.0198
  40   2.0000      -0.315255        -8.5785
  41   2.0000      -0.302838        -8.2406
  42   2.0000      -0.289113        -7.8672
  43   2.0000      -0.271089        -7.3767
  44   2.0000      -0.266612        -7.2549
  45   2.0000      -0.244900        -6.6641
  46   2.0000      -0.242458        -6.5976
  47   2.0000      -0.234410        -6.3786
  48   0.0000       0.026025         0.7082
  49   0.0000       0.042023         1.1435
  50   0.0000       0.057590         1.5671
  51   0.0000       0.069863         1.9011
  52   0.0000       0.078785         2.1438

MULLIKEN ATOMIC CHARGES
-----------------------
   0 C :   -0.286385
   1 C :   -0.068706
   2 H :    0.185667
   3 C :    0.108262
   4 H :    0.162513
   5 C :   -0.156886
   6 H :    0.181703
   7 C :    0.067511
   8 H :    0.158492
   9 C :   -0.132542
  10 H :    0.160400
  11 O :   -0.212264
  12 O :   -0.385625
  13 O :   -0.412385
  14 O :   -0.396562
  15 O :   -0.440624
  16 O :   -0.410407
  17 H :    0.140521
  18 H :    0.171155
  19 H :    0.324467
  20 H :    0.312400
  21 H :    0.302145
  22 H :    0.316364
  23 H :    0.310787
Sum of atomic charges:    0.0000000

LOEWDIN ATOMIC CHARGES
----------------------
   0 C :    0.044004
   1 C :    0.118729
   2 H :    0.191151
   3 C :    0.102892
   4 H :    0.176260
   5 C :    0.101161
   6 H :    0.203733
   7 C :    0.103958
   8 H :    0.174312
   9 C :    0.295140
  10 H :    0.197617
  11 O :   -0.689735
  12 O :   -0.495780
  13 O :   -0.561885
  14 O :   -0.559071
  15 O :   -0.581469
  16 O :   -0.587985
  17 H :    0.167409
  18 H :    0.198484
  19 H :    0.284914
  20 H :    0.283231
  21 H :    0.273859
  22 H :    0.285621
  23 H :    0.273450

  Mayer bond orders larger than 0.100000
B(  0-C ,  1-C ) :   0.9323 B(  0-C , 16-O ) :   1.0074 B(  0-C , 17-H ) :   0.9950
B(  0-C , 18-H ) :   0.9627 B(  1-C ,  2-H ) :   0.9562 B(  1-C ,  3-C ) :   0.8326
B(  1-C , 11-O ) :   0.7849 B(  3-C ,  4-H ) :   0.9500 B(  3-C ,  5-C ) :   0.8508
B(  3-C , 15-O ) :   0.8462 B(  5-C ,  6-H ) :   0.9891 B(  5-C ,  7-C ) :   0.9368
B(  5-C , 14-O ) :   1.0548 B(  7-C ,  8-H ) :   0.9476 B(  7-C ,  9-C ) :   0.7580
B(  7-C , 13-O ) :   0.8916 B(  9-C , 10-H ) :   1.0089 B(  9-C , 11-O ) :   0.9666
B(  9-C , 12-O ) :   1.0971 B( 12-O , 19-H ) :   0.8696 B( 13-O , 20-H ) :   0.8734
B( 14-O , 21-H ) :   0.8896 B( 15-O , 22-H ) :   0.8686 B( 16-O , 23-H ) :   0.8788

Dispersion correction           -0.007981811
FINAL SINGLE POINT ENERGY      -687.075723905224

DIPOLE MOMENT
-------------

Method             : SCF
Type of density    : Electron Density
Multiplicity       :   1
Irrep              :   0
Energy             :  -687.0871261199118862 Eh
Relativity type    :
Basis              : AO
                                X                 Y                 Z
Electronic contribution:      2.013061656      -0.641347580       0.759519329
Nuclear contribution   :     -1.355254781       0.385251642      -1.808797121
                        -----------------------------------------
Total Dipole Moment    :      0.657806875      -0.256095938      -1.049277791
                        -----------------------------------------
Magnitude (a.u.)       :      1.264625992
Magnitude (Debye)      :      3.214423816

Rotational constants in cm-1:             0.039122             0.026006             0.016335
Rotational constants in MHz :          1172.857376           779.626224           489.711707

                             ****ORCA TERMINATED NORMALLY****
TOTAL RUN TIME: 0 days 0 hours 0 minutes 43 seconds 496 msec
