                         Program Version 6.0.0  -   RELEASE  -
|  1> ! r2scan-3c def2/J RI DEFGRID2 scfconv6 printgap
|  2> %output
|  3>     printlevel normal
|  4> end
|  5> %cpcm
|  6>     smd true
|  7>     smdsolvent "water"
|  8> end
|  9> * xyz 0 1
| 10> C -2.5646098831 -0.6602404142 -0.3263467868
| 11> C -1.1845471614 -0.2916172858 0.226209849
| 12> H -1.2386105125 -0.2333520569 1.3233993879
| 13> C -0.7054753733 1.0606582409 -0.3160133397
| 14> H -0.7125498206 1.0162150486 -1.4189029097
| 15> C 0.7344129039 1.3377259797 0.1601534932
| 16> H 0.7362843251 1.4480315407 1.2508651314
| 17> C 1.6350293889 0.1593018726 -0.2180553759
| 18> H 1.6851972541 0.0822968821 -1.3182330001
| 19> C 1.0145723745 -1.1456024956 0.3316512957
| 20> H 1.0158438428 -1.0946884135 1.4339923399
| 21> O -0.2894995296 -1.3226360207 -0.1572830478
| 22> O 1.7709038783 -2.2488635755 -0.0195245671
| 23> O 2.9177886017 0.3585307655 0.3143699032
| 24> O 1.1824060824 2.5737498301 -0.3339603414
| 25> O -1.5816068239 2.0616527731 0.127448075
| 26> O -3.1043693221 -1.7941711691 0.2975367745
| 27> H -2.4785286477 -0.814999308 -1.409122023
| 28> H -3.2488048603 0.1659206576 -0.1291827461
| 29> H 1.5148040736 -2.5431344047 -0.9084513983
| 30> H 3.4089177591 -0.4773360613 0.2740567953
| 31> H 1.4795731708 2.4818147087 -1.2509117145
| 32> H -1.1317207115 2.9185087595 0.0416554322
| 33> H -2.4891210379 -2.5327657467 0.1792196568
| 34> *
| 35>
| 36>                          ****END OF INPUT****

CARTESIAN COORDINATES (ANGSTROEM)
---------------------------------
  C     -2.564610   -0.660240   -0.326347
  C     -1.184547   -0.291617    0.226210
  H     -1.238611   -0.233352    1.323399
  C     -0.705475    1.060658   -0.316013
  H     -0.712550    1.016215   -1.418903
  C      0.734413    1.337726    0.160153
  H      0.736284    1.448032    1.250865
  C      1.635029    0.159302   -0.218055
  H      1.685197    0.082297   -1.318233
  C      1.014572   -1.145602    0.331651
  H      1.015844   -1.094688    1.433992
  O     -0.289500   -1.322636   -0.157283
  O      1.770904   -2.248864   -0.019525
  O      2.917789    0.358531    0.314370
  O      1.182406    2.573750   -0.333960
  O     -1.581607    2.061653    0.127448
  O     -3.104369   -1.794171    0.297537
  H     -2.478529   -0.814999   -1.409122
  H     -3.248805    0.165921   -0.129183
  H      1.514804   -2.543134   -0.908451
  H      3.408918   -0.477336    0.274057
  H      1.479573    2.481815   -1.250912
  H     -1.131721    2.918509    0.041655
  H     -2.489121   -2.532766    0.179220

 Total Charge           Charge          ....    0
 Multiplicity           Mult            ....    1
 Number of Electrons    NEL             ....   96
 Basis Dimension        Dim             ....  318

ORBITAL ENERGIES
----------------

  NO   OCC          E(Eh)            E(eV)
   0   2.0000     -18.977571      -516.4060
   1   2.0000     -18.970601      -516.2163
   2   2.0000     -18.962936      -516.0077
   3   2.0000     -18.961477      -515.9680
   4   2.0000     -18.960196      -515.9332
   5   2.0000     -18.956642      -515.8365
   6   2.0000     -10.138347      -275.8785
   7   2.0000     -10.089562      -274.5509
   8   2.0000     -10.088679      -274.5269
   9   2.0000     -10.086614      -274.4707
  10   2.0000     -10.086495      -274.4675
  11   2.0000     -10.076584      -274.1978
  12   2.0000      -1.056567       -28.7507
  13   2.0000      -1.014607       -27.6088
  14   2.0000      -1.004942       -27.3459
  15   2.0000      -0.995159       -27.0796
  16   2.0000      -0.986686       -26.8491
  17   2.0000      -0.982342       -26.7309
  18   2.0000      -0.749622       -20.3983
  19   2.0000      -0.734165       -19.9776
  20   2.0000      -0.651388       -17.7252
  21   2.0000      -0.618097       -16.8193
  22   2.0000      -0.593051       -16.1377
  23   2.0000      -0.570046       -15.5117
  24   2.0000      -0.519664       -14.1408
  25   2.0000      -0.514052       -13.9881
  26   2.0000      -0.488407       -13.2902
  27   2.0000      -0.474385       -12.9087
  28   2.0000      -0.468263       -12.7421
  29   2.0000      -0.448396       -12.2015
  30   2.0000      -0.439734       -11.9658
  31   2.0000      -0.433170       -11.7871
  32   2.0000      -0.414251       -11.2723
  33   2.0000      -0.396846       -10.7987
  34   2.0000      -0.376251       -10.2383
  35   2.0000      -0.362507        -9.8643
  36   2.0000      -0.355709        -9.6793
  37   2.0000      -0.348808        -9.4916
  38   2.0000      -0.333622        -9.0783
  39   2.0000      -0.329025        -8.9532
  40   2.0000      -0.307741        -8.3740
  41   2.0000      -0.302037        -8.2188
  42   2.0000      -0.283363        -7.7107
  43   2.0000      -0.265996        -7.2381
  44   2.0000      -0.260510        -7.0888
  45   2.0000      -0.246739        -6.7141
  46   2.0000      -0.235599        -6.4110
  47   2.0000      -0.229062        -6.2331
  48   0.0000       0.041297         1.1237
  49   0.0000       0.062951         1.7130
  50   0.0000       0.078540         2.1372
  51   0.0000       0.089795         2.4434
  52   0.0000       0.098596         2.6829

MULLIKEN ATOMIC CHARGES
-----------------------
   0 C :   -0.283411
   1 C :   -0.063700
   2 H :    0.201525
   3 C :    0.071365
   4 H :    0.187307
   5 C :   -0.110621
   6 H :    0.192697
   7 C :    0.052871
   8 H :    0.190599
   9 C :   -0.108956
  10 H :    0.178324
  11 O :   -0.245343
  12 O :   -0.437332
  13 O :   -0.488055
  14 O :   -0.470193
  15 O :   -0.505956
  16 O :   -0.486195
  17 H :    0.162521
  18 H :    0.174800
  19 H :    0.372878
  20 H :    0.349979
  21 H :    0.357379
  22 H :    0.351063
  23 H :    0.356455
Sum of atomic charges:    0.0000000

LOEWDIN ATOMIC CHARGES
----------------------
   0 C :    0.040527
   1 C :    0.119340
   2 H :    0.196654
   3 C :    0.108214
   4 H :    0.189333
   5 C :    0.102350
   6 H :    0.207154
   7 C :    0.109665
   8 H :    0.191277
   9 C :    0.297091
  10 H :    0.205079
  11 O :   -0.695607
  12 O :   -0.512076
  13 O :   -0.594537
  14 O :   -0.583727
  15 O :   -0.609558
  16 O :   -0.622822
  17 H :    0.177646
  18 H :    0.197971
  19 H :    0.301745
  20 H :    0.296438
  21 H :    0.292552
  22 H :    0.296639
  23 H :    0.288654

  Mayer bond orders larger than 0.100000
B(  0-C ,  1-C ) :   0.9226 B(  0-C , 16-O ) :   0.9889 B(  0-C , 17-H ) :   0.9827
B(  0-C , 18-H ) :   0.9640 B(  1-C ,  2-H ) :   0.9506 B(  1-C ,  3-C ) :   0.8611
B(  1-C , 11-O ) :   0.7888 B(  3-C ,  4-H ) :   0.9467 B(  3-C ,  5-C ) :   0.8758
B(  3-C , 15-O ) :   0.8364 B(  5-C ,  6-H ) :   0.9725 B(  5-C ,  7-C ) :   0.9222
B(  5-C , 14-O ) :   1.0332 B(  7-C ,  8-H ) :   0.9454 B(  7-C ,  9-C ) :   0.7879
B(  7-C , 13-O ) :   0.8764 B(  9-C , 10-H ) :   0.9927 B(  9-C , 11-O ) :   0.9540
B(  9-C , 12-O ) :   1.0912 B( 12-O , 19-H ) :   0.8425 B( 13-O , 20-H ) :   0.8563
B( 14-O , 21-H ) :   0.8617 B( 15-O , 22-H ) :   0.8530 B( 16-O , 23-H ) :   0.8552

Dispersion correction           -0.007981811
FINAL SINGLE POINT ENERGY      -687.110469469776

DIPOLE MOMENT
-------------

Method             : SCF
Type of density    : Electron Density
Multiplicity       :   1
Irrep              :   0
Energy             :  -687.1218716844638266 Eh
Relativity type    :
Basis              : AO
                                X                 Y                 Z
Electronic contribution:      2.242637157      -0.784933091       0.238224118
Nuclear contribution   :     -1.355254781       0.385251642      -1.808797121
                        -----------------------------------------
Total Dipole Moment    :      0.887382376      -0.399681448      -1.570573003
                        -----------------------------------------
Magnitude (a.u.)       :      1.847672130
Magnitude (Debye)      :      4.696409324

Rotational constants in cm-1:             0.039122             0.026006             0.016335
Rotational constants in MHz :          1172.857376           779.626224           489.711707

                             ****ORCA TERMINATED NORMALLY****
TOTAL RUN TIME: 0 days 0 hours 0 minutes 51 seconds 896 msec
