                         Program Version 6.0.0  -   RELEASE  -
|  1> ! pbe def2-sv(p) def2/J RI DEFGRID1 loosescf d4 GCP(DFT/SV(P)) printgap
|  2> %output
|  3>     printlevel normal
|  4> end
|  5> * xyz 0 1
|  6> C -2.5216548053 0.7330655786 -0.0047636902
|  7> C -1.2142505454 -0.0071544716 0.0032494582
|  8> C -1.1939900955 -1.3916192696 0.0002732489
|  9> C 3.93474e-05 -2.0902620845 0.0018866052
| 10> C 1.1940552885 -1.3915660737 0.0001051635
| 11> C 1.2142525415 -0.0071207904 0.0031622929
| 12> C -2.26897e-05 0.6986929678 0.0121527122
| 13> N -5.11762e-05 2.0804438059 -0.0458734226
| 14> C 2.5216359126 0.7331450052 -0.0046776812
| 15> H -3.3493135762 0.0303836361 -0.0515489042
| 16> H -2.6375612819 1.3317080984 0.8998344255
| 17> H -2.5827591322 1.3958749807 -0.8668281396
| 18> H -2.130254551 -1.932458742 -0.0035618906
| 19> H 7.09917e-05 -3.1702312476 0.0008312521
| 20> H 2.130324719 -1.9323976407 -0.0034673659
| 21> H -0.8438261405 2.5272442626 0.2723880153
| 22> H 0.8437172429 2.5272963294 0.2723261226
| 23> H 3.3493541914 0.0305385542 -0.0516652236
| 24> H 2.5826488132 1.3961606334 -0.8665801237
| 25> H 2.6375358674 1.3315775462 0.9000603878
| 26> *
| 27>
| 28>                          ****END OF INPUT****

CARTESIAN COORDINATES (ANGSTROEM)
---------------------------------
  C     -2.521655    0.733066   -0.004764
  C     -1.214251   -0.007154    0.003249
  C     -1.193990   -1.391619    0.000273
  C      0.000039   -2.090262    0.001887
  C      1.194055   -1.391566    0.000105
  C      1.214253   -0.007121    0.003162
  C     -0.000023    0.698693    0.012153
  N     -0.000051    2.080444   -0.045873
  C      2.521636    0.733145   -0.004678
  H     -3.349314    0.030384   -0.051549
  H     -2.637561    1.331708    0.899834
  H     -2.582759    1.395875   -0.866828
  H     -2.130255   -1.932459   -0.003562
  H      0.000071   -3.170231    0.000831
  H      2.130325   -1.932398   -0.003467
  H     -0.843826    2.527244    0.272388
  H      0.843717    2.527296    0.272326
  H      3.349354    0.030539   -0.051665
  H      2.582649    1.396161   -0.866580
  H      2.637536    1.331578    0.900060

 Total Charge           Charge          ....    0
 Multiplicity           Mult            ....    1
 Number of Electrons    NEL             ....   66
 Basis Dimension        Dim             ....  148

ORBITAL ENERGIES
----------------

  NO   OCC          E(Eh)            E(eV)
   0   2.0000     -13.991346      -380.7239
   1   2.0000      -9.916430      -269.8398
   2   2.0000      -9.884735      -268.9773
   3   2.0000      -9.884713      -268.9767
   4   2.0000      -9.882043      -268.9041
   5   2.0000      -9.882018      -268.9034
   6   2.0000      -9.873998      -268.6851
   7   2.0000      -9.873980      -268.6847
   8   2.0000      -9.867648      -268.5124
   9   2.0000      -0.834624       -22.7113
  10   2.0000      -0.750517       -20.4226
  11   2.0000      -0.699695       -19.0397
  12   2.0000      -0.660757       -17.9801
  13   2.0000      -0.612467       -16.6661
  14   2.0000      -0.599928       -16.3249
  15   2.0000      -0.521085       -14.1794
  16   2.0000      -0.518299       -14.1036
  17   2.0000      -0.462234       -12.5780
  18   2.0000      -0.458716       -12.4823
  19   2.0000      -0.402102       -10.9418
  20   2.0000      -0.390960       -10.6386
  21   2.0000      -0.383789       -10.4434
  22   2.0000      -0.370405       -10.0792
  23   2.0000      -0.363221        -9.8837
  24   2.0000      -0.356397        -9.6981
  25   2.0000      -0.348106        -9.4724
  26   2.0000      -0.325981        -8.8704
  27   2.0000      -0.311271        -8.4701
  28   2.0000      -0.291964        -7.9447
  29   2.0000      -0.284453        -7.7404
  30   2.0000      -0.266969        -7.2646
  31   2.0000      -0.203827        -5.5464
  32   2.0000      -0.166783        -4.5384
  33   0.0000      -0.014355        -0.3906
  34   0.0000      -0.003829        -0.1042
  35   0.0000       0.026445         0.7196
  36   0.0000       0.053855         1.4655
  37   0.0000       0.059002         1.6055

MULLIKEN ATOMIC CHARGES
-----------------------
   0 C :   -0.257041
   1 C :    0.022397
   2 C :   -0.163917
   3 C :   -0.033212
   4 C :   -0.163933
   5 C :    0.022424
   6 C :   -0.002174
   7 N :   -0.340661
   8 C :   -0.257049
   9 H :    0.101329
  10 H :    0.107816
  11 H :    0.114592
  12 H :    0.025739
  13 H :    0.034878
  14 H :    0.025738
  15 H :    0.219668
  16 H :    0.219669
  17 H :    0.101333
  18 H :    0.114580
  19 H :    0.107825
Sum of atomic charges:   -0.0000000

LOEWDIN ATOMIC CHARGES
----------------------
   0 C :   -0.328842
   1 C :   -0.081080
   2 C :   -0.128050
   3 C :   -0.156975
   4 C :   -0.128052
   5 C :   -0.081074
   6 C :   -0.006246
   7 N :   -0.313857
   8 C :   -0.328845
   9 H :    0.128268
  10 H :    0.121377
  11 H :    0.126563
  12 H :    0.117274
  13 H :    0.118157
  14 H :    0.117275
  15 H :    0.223949
  16 H :    0.223950
  17 H :    0.128268
  18 H :    0.126558
  19 H :    0.121382

  Mayer bond orders larger than 0.100000
B(  0-C ,  1-C ) :   1.1133 B(  0-C ,  9-H ) :   0.9333 B(  0-C , 10-H ) :   0.9270
B(  0-C , 11-H ) :   0.9283 B(  1-C ,  2-C ) :   1.4070 B(  1-C ,  6-C ) :   1.3511
B(  2-C ,  3-C ) :   1.3354 B(  2-C , 12-H ) :   0.9602 B(  3-C ,  4-C ) :   1.3354
B(  3-C , 13-H ) :   0.9649 B(  4-C ,  5-C ) :   1.4071 B(  4-C , 14-H ) :   0.9602
B(  5-C ,  6-C ) :   1.3511 B(  5-C ,  8-C ) :   1.1133 B(  6-C ,  7-N ) :   1.2832
B(  7-N , 15-H ) :   0.8653 B(  7-N , 16-H ) :   0.8653 B(  8-C , 17-H ) :   0.9333
B(  8-C , 18-H ) :   0.9282 B(  8-C , 19-H ) :   0.9271

Dispersion correction           -0.020761602
FINAL SINGLE POINT ENERGY      -365.399064965195

DIPOLE MOMENT
-------------

Method             : SCF
Type of density    : Electron Density
Multiplicity       :   1
Irrep              :   0
Energy             :  -365.4595975027364148 Eh
Relativity type    :
Basis              : AO
                                X                 Y                 Z
Electronic contribution:      0.000067145      -2.555620122      -0.133764333
Nuclear contribution   :     -0.000059250       3.328479965       0.470510477
                        -----------------------------------------
Total Dipole Moment    :      0.000007895       0.772859844       0.336746144
                        -----------------------------------------
Magnitude (a.u.)       :      0.843036360
Magnitude (Debye)      :      2.142828133

Rotational constants in cm-1:             0.076704             0.058856             0.033747
Rotational constants in MHz :          2299.542558          1764.465782          1011.717492

                             ****ORCA TERMINATED NORMALLY****
TOTAL RUN TIME: 0 days 0 hours 0 minutes 10 seconds 228 msec
