                         Program Version 6.0.0  -   RELEASE  -
|  1> ! pbe def2-sv(p) def2/J RI DEFGRID1 loosescf d4 GCP(DFT/SV(P)) printgap
|  2> %output
|  3>     printlevel normal
|  4> end
|  5> * xyz 0 1
|  6> C -3.0824997181 0.3854545416 -0.0005945287
|  7> C -1.6228091483 0.0419446192 0.0003799008
|  8> C -1.1873570319 -1.2747909667 0.0002784141
|  9> C 0.1628746317 -1.5695664249 0.0001044776
| 10> C 1.1061788381 -0.5507868937 -3.27395e-05
| 11> C 0.6924745574 0.7852155776 0.0001004551
| 12> C -0.6673665549 1.0509087039 0.0002677169
| 13> C 1.6972230529 1.9031041365 9.88927e-05
| 14> O 2.4245077274 -0.9129093996 -0.000264281
| 15> H -3.6907337154 -0.5147182939 0.0155109147
| 16> H -3.3305301852 0.9900508643 0.87026917
| 17> H -3.3355177217 0.961123742 -0.8895933527
| 18> H -1.9053657224 -2.0815022418 0.000362025
| 19> H 0.5116654047 -2.5907657249 7.6779e-05
| 20> H -0.9959276853 2.0808417929 0.000430185
| 21> H 2.3289554833 1.8592534666 -0.8872716256
| 22> H 1.1860895776 2.8614802786 0.0018395183
| 23> H 2.3313492697 1.8573139672 0.8856447895
| 24> H 2.9875454459 -0.1252141673 -0.0002541729
| 25> *
| 26>
| 27>                          ****END OF INPUT****

CARTESIAN COORDINATES (ANGSTROEM)
---------------------------------
  C     -3.082500    0.385455   -0.000595
  C     -1.622809    0.041945    0.000380
  C     -1.187357   -1.274791    0.000278
  C      0.162875   -1.569566    0.000104
  C      1.106179   -0.550787   -0.000033
  C      0.692475    0.785216    0.000100
  C     -0.667367    1.050909    0.000268
  C      1.697223    1.903104    0.000099
  O      2.424508   -0.912909   -0.000264
  H     -3.690734   -0.514718    0.015511
  H     -3.330530    0.990051    0.870269
  H     -3.335518    0.961124   -0.889593
  H     -1.905366   -2.081502    0.000362
  H      0.511665   -2.590766    0.000077
  H     -0.995928    2.080842    0.000430
  H      2.328955    1.859253   -0.887272
  H      1.186090    2.861480    0.001840
  H      2.331349    1.857314    0.885645
  H      2.987545   -0.125214   -0.000254

 Total Charge           Charge          ....    0
 Multiplicity           Mult            ....    1
 Number of Electrons    NEL             ....   66
 Basis Dimension        Dim             ....  146

ORBITAL ENERGIES
----------------

  NO   OCC          E(Eh)            E(eV)
   0   2.0000     -18.777030      -510.9490
   1   2.0000      -9.942075      -270.5376
   2   2.0000      -9.896712      -269.3032
   3   2.0000      -9.895875      -269.2804
   4   2.0000      -9.889260      -269.1004
   5   2.0000      -9.883587      -268.9461
   6   2.0000      -9.882772      -268.9239
   7   2.0000      -9.878847      -268.8171
   8   2.0000      -9.877924      -268.7920
   9   2.0000      -0.956770       -26.0350
  10   2.0000      -0.771500       -20.9936
  11   2.0000      -0.702178       -19.1072
  12   2.0000      -0.680894       -18.5281
  13   2.0000      -0.621488       -16.9116
  14   2.0000      -0.606667       -16.5083
  15   2.0000      -0.541690       -14.7401
  16   2.0000      -0.521794       -14.1987
  17   2.0000      -0.484008       -13.1705
  18   2.0000      -0.435932       -11.8623
  19   2.0000      -0.402351       -10.9485
  20   2.0000      -0.393980       -10.7207
  21   2.0000      -0.381309       -10.3759
  22   2.0000      -0.370363       -10.0781
  23   2.0000      -0.366383        -9.9698
  24   2.0000      -0.354768        -9.6537
  25   2.0000      -0.344646        -9.3783
  26   2.0000      -0.341541        -9.2938
  27   2.0000      -0.319800        -8.7022
  28   2.0000      -0.302754        -8.2384
  29   2.0000      -0.285581        -7.7711
  30   2.0000      -0.280224        -7.6253
  31   2.0000      -0.217857        -5.9282
  32   2.0000      -0.183044        -4.9809
  33   0.0000      -0.027063        -0.7364
  34   0.0000      -0.012504        -0.3403
  35   0.0000       0.018989         0.5167
  36   0.0000       0.051985         1.4146
  37   0.0000       0.075027         2.0416

MULLIKEN ATOMIC CHARGES
-----------------------
   0 C :   -0.222265
   1 C :    0.079814
   2 C :   -0.122741
   3 C :   -0.126181
   4 C :    0.145089
   5 C :    0.022850
   6 C :   -0.219095
   7 C :   -0.285876
   8 O :   -0.338000
   9 H :    0.097378
  10 H :    0.109779
  11 H :    0.110307
  12 H :    0.034424
  13 H :    0.038477
  14 H :    0.015933
  15 H :    0.118655
  16 H :    0.111973
  17 H :    0.118553
  18 H :    0.310925
Sum of atomic charges:    0.0000000

LOEWDIN ATOMIC CHARGES
----------------------
   0 C :   -0.322574
   1 C :   -0.069182
   2 C :   -0.123434
   3 C :   -0.146792
   4 C :    0.021524
   5 C :   -0.091077
   6 C :   -0.120680
   7 C :   -0.335093
   8 O :   -0.240070
   9 H :    0.122513
  10 H :    0.128339
  11 H :    0.128584
  12 H :    0.120722
  13 H :    0.129024
  14 H :    0.117189
  15 H :    0.126816
  16 H :    0.133603
  17 H :    0.126749
  18 H :    0.293838

  Mayer bond orders larger than 0.100000
B(  0-C ,  1-C ) :   1.0931 B(  0-C ,  9-H ) :   0.9459 B(  0-C , 10-H ) :   0.9382
B(  0-C , 11-H ) :   0.9378 B(  1-C ,  2-C ) :   1.3879 B(  1-C ,  6-C ) :   1.3435
B(  2-C ,  3-C ) :   1.3433 B(  2-C , 12-H ) :   0.9631 B(  3-C ,  4-C ) :   1.3733
B(  3-C , 13-H ) :   0.9628 B(  4-C ,  5-C ) :   1.3055 B(  4-C ,  8-O ) :   1.2248
B(  5-C ,  6-C ) :   1.3915 B(  5-C ,  7-C ) :   1.0828 B(  6-C , 14-H ) :   0.9606
B(  7-C , 15-H ) :   0.9305 B(  7-C , 16-H ) :   0.9334 B(  7-C , 17-H ) :   0.9305
B(  8-O , 18-H ) :   0.8323

Dispersion correction           -0.018980761
FINAL SINGLE POINT ENERGY      -385.239858939364

DIPOLE MOMENT
-------------

Method             : SCF
Type of density    : Electron Density
Multiplicity       :   1
Irrep              :   0
Energy             :  -385.2988427880503650 Eh
Relativity type    :
Basis              : AO
                                X                 Y                 Z
Electronic contribution:      3.838062057      -4.307526034       0.001666307
Nuclear contribution   :     -3.634625489       4.956760641      -0.002805073
                        -----------------------------------------
Total Dipole Moment    :      0.203436568       0.649234606      -0.001138765
                        -----------------------------------------
Magnitude (a.u.)       :      0.680362630
Magnitude (Debye)      :      1.729344371

Rotational constants in cm-1:             0.100279             0.044011             0.030940
Rotational constants in MHz :          3006.289494          1319.416783           927.559290

                             ****ORCA TERMINATED NORMALLY****
TOTAL RUN TIME: 0 days 0 hours 0 minutes 12 seconds 995 msec
