                         Program Version 6.0.0  -   RELEASE  -
|  1> ! r2scan-3c def2/J RI DEFGRID2 scfconv6 printgap
|  2> %output
|  3>     printlevel normal
|  4> end
|  5> * xyz 0 1
|  6> C -2.3771584024 0.3517836932 -1.2203542566
|  7> C -1.7262260255 -0.0592012473 0.0654187522
|  8> C -2.4009406251 -0.4281145386 1.142305034
|  9> C -0.2428497071 -0.0231592693 0.0521573523
| 10> C 0.4845435261 -1.1278689429 -0.3744506511
| 11> C 1.8673986139 -1.0877768667 -0.4030601888
| 12> C 2.5376923936 0.0582602097 -0.0093540678
| 13> C 1.8196360214 1.1631919782 0.4163096631
| 14> C 0.4367810326 1.1230786773 0.4466190156
| 15> H -2.0433147429 -0.2968283791 -2.029231493
| 16> H -3.4595526848 0.2990023939 -1.1427891302
| 17> H -2.0852795805 1.3702384609 -1.4736403125
| 18> H -1.9006667224 -0.7178808815 2.0510438661
| 19> H -3.4776458284 -0.455867994 1.1555203417
| 20> H -0.0397558344 -2.0223493316 -0.6787275154
| 21> H 2.4232810293 -1.9528255204 -0.7334198176
| 22> H 3.6166987745 0.0897975603 -0.033142185
| 23> H 2.3380575272 2.0586987741 0.7257266981
| 24> H -0.1251799855 1.9832124048 0.7811822862
| 25> *
| 26>
| 27>                          ****END OF INPUT****

CARTESIAN COORDINATES (ANGSTROEM)
---------------------------------
  C     -2.377158    0.351784   -1.220354
  C     -1.726226   -0.059201    0.065419
  C     -2.400941   -0.428115    1.142305
  C     -0.242850   -0.023159    0.052157
  C      0.484544   -1.127869   -0.374451
  C      1.867399   -1.087777   -0.403060
  C      2.537692    0.058260   -0.009354
  C      1.819636    1.163192    0.416310
  C      0.436781    1.123079    0.446619
  H     -2.043315   -0.296828   -2.029231
  H     -3.459553    0.299002   -1.142789
  H     -2.085280    1.370238   -1.473640
  H     -1.900667   -0.717881    2.051044
  H     -3.477646   -0.455868    1.155520
  H     -0.039756   -2.022349   -0.678728
  H      2.423281   -1.952826   -0.733420
  H      3.616699    0.089798   -0.033142
  H      2.338058    2.058699    0.725727
  H     -0.125180    1.983212    0.781182

 Total Charge           Charge          ....    0
 Multiplicity           Mult            ....    1
 Number of Electrons    NEL             ....   64
 Basis Dimension        Dim             ....  221

ORBITAL ENERGIES
----------------

  NO   OCC          E(Eh)            E(eV)
   0   2.0000     -10.045135      -273.3420
   1   2.0000     -10.043087      -273.2863
   2   2.0000     -10.035325      -273.0751
   3   2.0000     -10.035241      -273.0728
   4   2.0000     -10.034287      -273.0468
   5   2.0000     -10.034174      -273.0437
   6   2.0000     -10.033752      -273.0323
   7   2.0000     -10.028287      -272.8836
   8   2.0000     -10.017314      -272.5850
   9   2.0000      -0.833198       -22.6725
  10   2.0000      -0.776101       -21.1188
  11   2.0000      -0.716829       -19.5059
  12   2.0000      -0.703919       -19.1546
  13   2.0000      -0.657306       -17.8862
  14   2.0000      -0.583094       -15.8668
  15   2.0000      -0.576073       -15.6758
  16   2.0000      -0.517119       -14.0715
  17   2.0000      -0.473124       -12.8744
  18   2.0000      -0.435557       -11.8521
  19   2.0000      -0.427146       -11.6232
  20   2.0000      -0.410435       -11.1685
  21   2.0000      -0.405538       -11.0353
  22   2.0000      -0.391350       -10.6492
  23   2.0000      -0.381456       -10.3799
  24   2.0000      -0.355187        -9.6651
  25   2.0000      -0.340992        -9.2789
  26   2.0000      -0.334699        -9.1076
  27   2.0000      -0.314036        -8.5453
  28   2.0000      -0.298194        -8.1143
  29   2.0000      -0.240094        -6.5333
  30   2.0000      -0.232612        -6.3297
  31   2.0000      -0.230989        -6.2855
  32   0.0000      -0.032992        -0.8978
  33   0.0000      -0.030635        -0.8336
  34   0.0000      -0.010995        -0.2992
  35   0.0000       0.073356         1.9961
  36   0.0000       0.101823         2.7707

MULLIKEN ATOMIC CHARGES
-----------------------
   0 C :   -0.487090
   1 C :    0.013054
   2 C :   -0.357372
   3 C :    0.180796
   4 C :   -0.207822
   5 C :   -0.151769
   6 C :   -0.142476
   7 C :   -0.151099
   8 C :   -0.207197
   9 H :    0.162071
  10 H :    0.148214
  11 H :    0.161938
  12 H :    0.151301
  13 H :    0.139997
  14 H :    0.154719
  15 H :    0.145231
  16 H :    0.146763
  17 H :    0.145234
  18 H :    0.155507
Sum of atomic charges:    0.0000000

LOEWDIN ATOMIC CHARGES
----------------------
   0 C :   -0.378414
   1 C :   -0.115047
   2 C :   -0.299927
   3 C :   -0.077539
   4 C :   -0.147472
   5 C :   -0.161102
   6 C :   -0.170252
   7 C :   -0.161139
   8 C :   -0.147416
   9 H :    0.165155
  10 H :    0.157965
  11 H :    0.165341
  12 H :    0.164480
  13 H :    0.157215
  14 H :    0.173264
  15 H :    0.167306
  16 H :    0.166731
  17 H :    0.167312
  18 H :    0.173538

  Mayer bond orders larger than 0.100000
B(  0-C ,  1-C ) :   0.9183 B(  0-C ,  9-H ) :   0.9684 B(  0-C , 10-H ) :   0.9830
B(  0-C , 11-H ) :   0.9677 B(  1-C ,  2-C ) :   1.8980 B(  1-C ,  3-C ) :   0.8698
B(  2-C , 12-H ) :   0.9741 B(  2-C , 13-H ) :   0.9695 B(  3-C ,  4-C ) :   1.4138
B(  3-C ,  8-C ) :   1.4178 B(  4-C ,  5-C ) :   1.4243 B(  4-C , 14-H ) :   0.9474
B(  5-C ,  6-C ) :   1.4249 B(  5-C , 15-H ) :   0.9487 B(  6-C ,  7-C ) :   1.4257
B(  6-C , 16-H ) :   0.9464 B(  7-C ,  8-C ) :   1.4220 B(  7-C , 17-H ) :   0.9488
B(  8-C , 18-H ) :   0.9475

Dispersion correction           -0.006484875
FINAL SINGLE POINT ENERGY      -348.852695545182

DIPOLE MOMENT
-------------

Method             : SCF
Type of density    : Electron Density
Multiplicity       :   1
Irrep              :   0
Energy             :  -348.8512765345604976 Eh
Relativity type    :
Basis              : AO
                                X                 Y                 Z
Electronic contribution:      4.459165779      -0.277761878       1.125921063
Nuclear contribution   :     -4.459450684       0.333235086      -1.292305746
                        -----------------------------------------
Total Dipole Moment    :     -0.000284905       0.055473208      -0.166384683
                        -----------------------------------------
Magnitude (a.u.)       :      0.175388770
Magnitude (Debye)      :      0.445802825

Rotational constants in cm-1:             0.119815             0.037404             0.034547
Rotational constants in MHz :          3591.960117          1121.333566          1035.683031

                             ****ORCA TERMINATED NORMALLY****
TOTAL RUN TIME: 0 days 0 hours 0 minutes 19 seconds 749 msec
