                         Program Version 6.0.0  -   RELEASE  -
|  1> ! r2scan-3c def2/J RI DEFGRID2 scfconv6 printgap
|  2> %output
|  3>     printlevel normal
|  4> end
|  5> %cpcm
|  6>     smd true
|  7>     smdsolvent "water"
|  8> end
|  9> * xyz 0 1
| 10> C -2.3771584024 0.3517836932 -1.2203542566
| 11> C -1.7262260255 -0.0592012473 0.0654187522
| 12> C -2.4009406251 -0.4281145386 1.142305034
| 13> C -0.2428497071 -0.0231592693 0.0521573523
| 14> C 0.4845435261 -1.1278689429 -0.3744506511
| 15> C 1.8673986139 -1.0877768667 -0.4030601888
| 16> C 2.5376923936 0.0582602097 -0.0093540678
| 17> C 1.8196360214 1.1631919782 0.4163096631
| 18> C 0.4367810326 1.1230786773 0.4466190156
| 19> H -2.0433147429 -0.2968283791 -2.029231493
| 20> H -3.4595526848 0.2990023939 -1.1427891302
| 21> H -2.0852795805 1.3702384609 -1.4736403125
| 22> H -1.9006667224 -0.7178808815 2.0510438661
| 23> H -3.4776458284 -0.455867994 1.1555203417
| 24> H -0.0397558344 -2.0223493316 -0.6787275154
| 25> H 2.4232810293 -1.9528255204 -0.7334198176
| 26> H 3.6166987745 0.0897975603 -0.033142185
| 27> H 2.3380575272 2.0586987741 0.7257266981
| 28> H -0.1251799855 1.9832124048 0.7811822862
| 29> *
| 30>
| 31>                          ****END OF INPUT****

CARTESIAN COORDINATES (ANGSTROEM)
---------------------------------
  C     -2.377158    0.351784   -1.220354
  C     -1.726226   -0.059201    0.065419
  C     -2.400941   -0.428115    1.142305
  C     -0.242850   -0.023159    0.052157
  C      0.484544   -1.127869   -0.374451
  C      1.867399   -1.087777   -0.403060
  C      2.537692    0.058260   -0.009354
  C      1.819636    1.163192    0.416310
  C      0.436781    1.123079    0.446619
  H     -2.043315   -0.296828   -2.029231
  H     -3.459553    0.299002   -1.142789
  H     -2.085280    1.370238   -1.473640
  H     -1.900667   -0.717881    2.051044
  H     -3.477646   -0.455868    1.155520
  H     -0.039756   -2.022349   -0.678728
  H      2.423281   -1.952826   -0.733420
  H      3.616699    0.089798   -0.033142
  H      2.338058    2.058699    0.725727
  H     -0.125180    1.983212    0.781182

 Total Charge           Charge          ....    0
 Multiplicity           Mult            ....    1
 Number of Electrons    NEL             ....   64
 Basis Dimension        Dim             ....  221

ORBITAL ENERGIES
----------------

  NO   OCC          E(Eh)            E(eV)
   0   2.0000     -10.045082      -273.3406
   1   2.0000     -10.043616      -273.3007
   2   2.0000     -10.033715      -273.0313
   3   2.0000     -10.033672      -273.0301
   4   2.0000     -10.033184      -273.0168
   5   2.0000     -10.033141      -273.0156
   6   2.0000     -10.031847      -272.9804
   7   2.0000     -10.020241      -272.6646
   8   2.0000     -10.014562      -272.5101
   9   2.0000      -0.833893       -22.6914
  10   2.0000      -0.774846       -21.0846
  11   2.0000      -0.716318       -19.4920
  12   2.0000      -0.702734       -19.1224
  13   2.0000      -0.653044       -17.7702
  14   2.0000      -0.581286       -15.8176
  15   2.0000      -0.574331       -15.6283
  16   2.0000      -0.514410       -13.9978
  17   2.0000      -0.469767       -12.7830
  18   2.0000      -0.431742       -11.7483
  19   2.0000      -0.426063       -11.5938
  20   2.0000      -0.407049       -11.0764
  21   2.0000      -0.401659       -10.9297
  22   2.0000      -0.387767       -10.5517
  23   2.0000      -0.374874       -10.2008
  24   2.0000      -0.350660        -9.5419
  25   2.0000      -0.342203        -9.3118
  26   2.0000      -0.330604        -8.9962
  27   2.0000      -0.310367        -8.4455
  28   2.0000      -0.295237        -8.0338
  29   2.0000      -0.242425        -6.5967
  30   2.0000      -0.234411        -6.3786
  31   2.0000      -0.232427        -6.3247
  32   0.0000      -0.034547        -0.9401
  33   0.0000      -0.032170        -0.8754
  34   0.0000      -0.011231        -0.3056
  35   0.0000       0.079725         2.1694
  36   0.0000       0.103540         2.8175

MULLIKEN ATOMIC CHARGES
-----------------------
   0 C :   -0.527771
   1 C :    0.037403
   2 C :   -0.435106
   3 C :    0.165728
   4 C :   -0.225436
   5 C :   -0.193209
   6 C :   -0.173246
   7 C :   -0.193192
   8 C :   -0.225623
   9 H :    0.180661
  10 H :    0.167915
  11 H :    0.180047
  12 H :    0.170401
  13 H :    0.168906
  14 H :    0.183300
  15 H :    0.177985
  16 H :    0.179854
  17 H :    0.177935
  18 H :    0.183449
Sum of atomic charges:   -0.0000000

LOEWDIN ATOMIC CHARGES
----------------------
   0 C :   -0.384503
   1 C :   -0.113892
   2 C :   -0.322451
   3 C :   -0.086373
   4 C :   -0.156269
   5 C :   -0.170365
   6 C :   -0.180515
   7 C :   -0.170443
   8 C :   -0.156304
   9 H :    0.171371
  10 H :    0.164616
  11 H :    0.171370
  12 H :    0.168345
  13 H :    0.165815
  14 H :    0.182742
  15 H :    0.178341
  16 H :    0.177438
  17 H :    0.178328
  18 H :    0.182748

  Mayer bond orders larger than 0.100000
B(  0-C ,  1-C ) :   0.9113 B(  0-C ,  9-H ) :   0.9633 B(  0-C , 10-H ) :   0.9766
B(  0-C , 11-H ) :   0.9627 B(  1-C ,  2-C ) :   1.8785 B(  1-C ,  3-C ) :   0.8463
B(  2-C , 12-H ) :   0.9757 B(  2-C , 13-H ) :   0.9672 B(  3-C ,  4-C ) :   1.3869
B(  3-C ,  8-C ) :   1.3884 B(  4-C ,  5-C ) :   1.3995 B(  4-C , 14-H ) :   0.9517
B(  5-C ,  6-C ) :   1.3881 B(  5-C , 15-H ) :   0.9572 B(  6-C ,  7-C ) :   1.3890
B(  6-C , 16-H ) :   0.9526 B(  7-C ,  8-C ) :   1.3983 B(  7-C , 17-H ) :   0.9571
B(  8-C , 18-H ) :   0.9520

Dispersion correction           -0.006484875
FINAL SINGLE POINT ENERGY      -348.853306990949

DIPOLE MOMENT
-------------

Method             : SCF
Type of density    : Electron Density
Multiplicity       :   1
Irrep              :   0
Energy             :  -348.8518879803280015 Eh
Relativity type    :
Basis              : AO
                                X                 Y                 Z
Electronic contribution:      4.462123131      -0.246015114       1.027688548
Nuclear contribution   :     -4.459450684       0.333235086      -1.292305746
                        -----------------------------------------
Total Dipole Moment    :      0.002672447       0.087219972      -0.264617197
                        -----------------------------------------
Magnitude (a.u.)       :      0.278633678
Magnitude (Debye)      :      0.708230525

Rotational constants in cm-1:             0.119815             0.037404             0.034547
Rotational constants in MHz :          3591.960117          1121.333566          1035.683031

                             ****ORCA TERMINATED NORMALLY****
TOTAL RUN TIME: 0 days 0 hours 0 minutes 24 seconds 14 msec
