                         Program Version 6.0.0  -   RELEASE  -
|  1> ! r2scan-3c def2/J RI DEFGRID2 scfconv6 printgap
|  2> %output
|  3>     printlevel normal
|  4> end
|  5> * xyz 0 1
|  6> C -0.4213952169 -1.0415041685 4.94809e-05
|  7> C 0.943801416 -1.2073084876 2.54514e-05
|  8> C 1.7826958786 -0.0895510819 -0.0001005711
|  9> C 1.2250251957 1.1941661612 -1.77446e-05
| 10> C -0.1394972612 1.3549425143 7.6659e-06
| 11> C -0.9860906976 0.2395143673 -4.9534e-05
| 12> C -2.4248502521 0.4065340671 -2.89396e-05
| 13> O -3.2479785293 -0.4921285585 7.96e-06
| 14> O 3.1212635393 -0.1911175179 2.99024e-05
| 15> H -1.0855908596 -1.8927362182 0.0001463176
| 16> H 1.3672679818 -2.2003365185 3.04396e-05
| 17> H 1.8916816376 2.0413406361 0.0003507757
| 18> H -0.5675956137 2.3456229174 0.0003967824
| 19> H -2.7640161816 1.4596516089 -1.9673e-05
| 20> H 3.4116729327 -1.1177791392 -0.000144932
| 21> *
| 22>
| 23>                          ****END OF INPUT****

CARTESIAN COORDINATES (ANGSTROEM)
---------------------------------
  C     -0.421395   -1.041504    0.000049
  C      0.943801   -1.207308    0.000025
  C      1.782696   -0.089551   -0.000101
  C      1.225025    1.194166   -0.000018
  C     -0.139497    1.354943    0.000008
  C     -0.986091    0.239514   -0.000050
  C     -2.424850    0.406534   -0.000029
  O     -3.247979   -0.492129    0.000008
  O      3.121264   -0.191118    0.000030
  H     -1.085591   -1.892736    0.000146
  H      1.367268   -2.200337    0.000030
  H      1.891682    2.041341    0.000351
  H     -0.567596    2.345623    0.000397
  H     -2.764016    1.459652   -0.000020
  H      3.411673   -1.117779   -0.000145

 Total Charge           Charge          ....    0
 Multiplicity           Mult            ....    1
 Number of Electrons    NEL             ....   64
 Basis Dimension        Dim             ....  211

ORBITAL ENERGIES
----------------

  NO   OCC          E(Eh)            E(eV)
   0   2.0000     -19.012946      -517.3686
   1   2.0000     -18.936758      -515.2954
   2   2.0000     -10.125739      -275.5354
   3   2.0000     -10.110285      -275.1148
   4   2.0000     -10.061589      -273.7897
   5   2.0000     -10.057748      -273.6852
   6   2.0000     -10.056311      -273.6461
   7   2.0000     -10.051571      -273.5171
   8   2.0000     -10.048997      -273.4471
   9   2.0000      -1.060532       -28.8586
  10   2.0000      -0.998000       -27.1570
  11   2.0000      -0.844813       -22.9885
  12   2.0000      -0.744207       -20.2509
  13   2.0000      -0.741722       -20.1833
  14   2.0000      -0.634654       -17.2698
  15   2.0000      -0.612785       -16.6747
  16   2.0000      -0.551477       -15.0064
  17   2.0000      -0.541496       -14.7349
  18   2.0000      -0.488122       -13.2825
  19   2.0000      -0.448905       -12.2153
  20   2.0000      -0.426532       -11.6065
  21   2.0000      -0.412843       -11.2340
  22   2.0000      -0.410504       -11.1704
  23   2.0000      -0.406716       -11.0673
  24   2.0000      -0.374358       -10.1868
  25   2.0000      -0.372568       -10.1381
  26   2.0000      -0.363750        -9.8981
  27   2.0000      -0.324632        -8.8337
  28   2.0000      -0.321475        -8.7478
  29   2.0000      -0.261264        -7.1093
  30   2.0000      -0.228209        -6.2099
  31   2.0000      -0.218599        -5.9484
  32   0.0000      -0.088295        -2.4026
  33   0.0000      -0.052011        -1.4153
  34   0.0000       0.012937         0.3520
  35   0.0000       0.037631         1.0240
  36   0.0000       0.074425         2.0252

MULLIKEN ATOMIC CHARGES
-----------------------
   0 C :   -0.148452
   1 C :   -0.318551
   2 C :    0.446911
   3 C :   -0.300478
   4 C :   -0.187592
   5 C :    0.198003
   6 C :    0.000932
   7 O :   -0.357643
   8 O :   -0.395996
   9 H :    0.182246
  10 H :    0.142234
  11 H :    0.159104
  12 H :    0.156218
  13 H :    0.100537
  14 H :    0.322527
Sum of atomic charges:    0.0000000

LOEWDIN ATOMIC CHARGES
----------------------
   0 C :   -0.087714
   1 C :   -0.161656
   2 C :    0.202856
   3 C :   -0.139053
   4 C :   -0.118148
   5 C :   -0.120924
   6 C :    0.205038
   7 O :   -0.474007
   8 O :   -0.472635
   9 H :    0.189616
  10 H :    0.171890
  11 H :    0.182916
  12 H :    0.175462
  13 H :    0.155173
  14 H :    0.291187

  Mayer bond orders larger than 0.100000
B(  0-C ,  1-C ) :   1.4471 B(  0-C ,  5-C ) :   1.3722 B(  0-C ,  9-H ) :   0.9513
B(  1-C ,  2-C ) :   1.2853 B(  1-C , 10-H ) :   0.9359 B(  2-C ,  3-C ) :   1.3924
B(  2-C ,  8-O ) :   0.9462 B(  3-C ,  4-C ) :   1.4301 B(  3-C , 11-H ) :   0.9538
B(  4-C ,  5-C ) :   1.3414 B(  4-C , 12-H ) :   0.9260 B(  5-C ,  6-C ) :   0.8629
B(  5-C ,  7-O ) :  -0.1180 B(  5-C , 13-H ) :  -0.1328 B(  6-C ,  7-O ) :   1.9401
B(  6-C , 13-H ) :   1.0548 B(  8-O , 14-H ) :   0.8756

Dispersion correction           -0.004924935
FINAL SINGLE POINT ENERGY      -420.713598773997

DIPOLE MOMENT
-------------

Method             : SCF
Type of density    : Electron Density
Multiplicity       :   1
Irrep              :   0
Energy             :  -420.7136095983289579 Eh
Relativity type    :
Basis              : AO
                                X                 Y                 Z
Electronic contribution:     -0.552354328      -0.590715409      -0.000612938
Nuclear contribution   :      2.112223062       0.586328343       0.000713302
                        -----------------------------------------
Total Dipole Moment    :      1.559868735      -0.004387067       0.000100364
                        -----------------------------------------
Magnitude (a.u.)       :      1.559874907
Magnitude (Debye)      :      3.964886919

Rotational constants in cm-1:             0.170989             0.033538             0.028038
Rotational constants in MHz :          5126.128912          1005.434755           840.566690

                             ****ORCA TERMINATED NORMALLY****
TOTAL RUN TIME: 0 days 0 hours 0 minutes 24 seconds 688 msec
