                         Program Version 6.0.0  -   RELEASE  -
|  1> ! r2scan-3c def2/J RI DEFGRID2 scfconv6 printgap
|  2> %output
|  3>     printlevel normal
|  4> end
|  5> %cpcm
|  6>     smd true
|  7>     smdsolvent "water"
|  8> end
|  9> * xyz 0 1
| 10> C -0.4213952169 -1.0415041685 4.94809e-05
| 11> C 0.943801416 -1.2073084876 2.54514e-05
| 12> C 1.7826958786 -0.0895510819 -0.0001005711
| 13> C 1.2250251957 1.1941661612 -1.77446e-05
| 14> C -0.1394972612 1.3549425143 7.6659e-06
| 15> C -0.9860906976 0.2395143673 -4.9534e-05
| 16> C -2.4248502521 0.4065340671 -2.89396e-05
| 17> O -3.2479785293 -0.4921285585 7.96e-06
| 18> O 3.1212635393 -0.1911175179 2.99024e-05
| 19> H -1.0855908596 -1.8927362182 0.0001463176
| 20> H 1.3672679818 -2.2003365185 3.04396e-05
| 21> H 1.8916816376 2.0413406361 0.0003507757
| 22> H -0.5675956137 2.3456229174 0.0003967824
| 23> H -2.7640161816 1.4596516089 -1.9673e-05
| 24> H 3.4116729327 -1.1177791392 -0.000144932
| 25> *
| 26>
| 27>                          ****END OF INPUT****

CARTESIAN COORDINATES (ANGSTROEM)
---------------------------------
  C     -0.421395   -1.041504    0.000049
  C      0.943801   -1.207308    0.000025
  C      1.782696   -0.089551   -0.000101
  C      1.225025    1.194166   -0.000018
  C     -0.139497    1.354943    0.000008
  C     -0.986091    0.239514   -0.000050
  C     -2.424850    0.406534   -0.000029
  O     -3.247979   -0.492129    0.000008
  O      3.121264   -0.191118    0.000030
  H     -1.085591   -1.892736    0.000146
  H      1.367268   -2.200337    0.000030
  H      1.891682    2.041341    0.000351
  H     -0.567596    2.345623    0.000397
  H     -2.764016    1.459652   -0.000020
  H      3.411673   -1.117779   -0.000145

 Total Charge           Charge          ....    0
 Multiplicity           Mult            ....    1
 Number of Electrons    NEL             ....   64
 Basis Dimension        Dim             ....  211

ORBITAL ENERGIES
----------------

  NO   OCC          E(Eh)            E(eV)
   0   2.0000     -18.997404      -516.9457
   1   2.0000     -18.947889      -515.5983
   2   2.0000     -10.117161      -275.3020
   3   2.0000     -10.116539      -275.2850
   4   2.0000     -10.052339      -273.5380
   5   2.0000     -10.050075      -273.4764
   6   2.0000     -10.043955      -273.3099
   7   2.0000     -10.043107      -273.2868
   8   2.0000     -10.040882      -273.2263
   9   2.0000      -1.044489       -28.4220
  10   2.0000      -1.012163       -27.5424
  11   2.0000      -0.837220       -22.7819
  12   2.0000      -0.736155       -20.0318
  13   2.0000      -0.732608       -19.9353
  14   2.0000      -0.625912       -17.0319
  15   2.0000      -0.602579       -16.3970
  16   2.0000      -0.545161       -14.8346
  17   2.0000      -0.526722       -14.3328
  18   2.0000      -0.482752       -13.1364
  19   2.0000      -0.443838       -12.0775
  20   2.0000      -0.419464       -11.4142
  21   2.0000      -0.409863       -11.1529
  22   2.0000      -0.401991       -10.9387
  23   2.0000      -0.400528       -10.8989
  24   2.0000      -0.378482       -10.2990
  25   2.0000      -0.373712       -10.1692
  26   2.0000      -0.354215        -9.6387
  27   2.0000      -0.320071        -8.7096
  28   2.0000      -0.313000        -8.5172
  29   2.0000      -0.253531        -6.8989
  30   2.0000      -0.231816        -6.3080
  31   2.0000      -0.223441        -6.0801
  32   0.0000      -0.089557        -2.4370
  33   0.0000      -0.043418        -1.1815
  34   0.0000       0.015594         0.4243
  35   0.0000       0.077849         2.1184
  36   0.0000       0.092642         2.5209

MULLIKEN ATOMIC CHARGES
-----------------------
   0 C :   -0.160238
   1 C :   -0.332725
   2 C :    0.416537
   3 C :   -0.330566
   4 C :   -0.202576
   5 C :    0.162401
   6 C :    0.044403
   7 O :   -0.463353
   8 O :   -0.423052
   9 H :    0.196335
  10 H :    0.191421
  11 H :    0.190293
  12 H :    0.193626
  13 H :    0.136927
  14 H :    0.380567
Sum of atomic charges:    0.0000000

LOEWDIN ATOMIC CHARGES
----------------------
   0 C :   -0.099748
   1 C :   -0.149347
   2 C :    0.204583
   3 C :   -0.145886
   4 C :   -0.112760
   5 C :   -0.135617
   6 C :    0.216357
   7 O :   -0.557986
   8 O :   -0.473034
   9 H :    0.191995
  10 H :    0.191493
  11 H :    0.192687
  12 H :    0.189476
  13 H :    0.173535
  14 H :    0.314254

  Mayer bond orders larger than 0.100000
B(  0-C ,  1-C ) :   1.4410 B(  0-C ,  5-C ) :   1.2704 B(  0-C ,  9-H ) :   0.9579
B(  1-C ,  2-C ) :   1.2850 B(  1-C , 10-H ) :   0.9506 B(  2-C ,  3-C ) :   1.3326
B(  2-C ,  8-O ) :   0.9704 B(  3-C ,  4-C ) :   1.4327 B(  3-C , 11-H ) :   0.9585
B(  4-C ,  5-C ) :   1.3327 B(  4-C , 12-H ) :   0.9285 B(  5-C ,  6-C ) :   0.9378
B(  5-C ,  7-O ) :  -0.1104 B(  5-C , 13-H ) :  -0.1015 B(  6-C ,  7-O ) :   1.8536
B(  6-C , 13-H ) :   1.0230 B(  8-O , 14-H ) :   0.8431

Dispersion correction           -0.004924935
FINAL SINGLE POINT ENERGY      -420.728590779732

DIPOLE MOMENT
-------------

Method             : SCF
Type of density    : Electron Density
Multiplicity       :   1
Irrep              :   0
Energy             :  -420.7286016040642949 Eh
Relativity type    :
Basis              : AO
                                X                 Y                 Z
Electronic contribution:      0.171441339      -0.520346710      -0.000576723
Nuclear contribution   :      2.112223062       0.586328343       0.000713302
                        -----------------------------------------
Total Dipole Moment    :      2.283664402       0.065981632       0.000136579
                        -----------------------------------------
Magnitude (a.u.)       :      2.284617407
Magnitude (Debye)      :      5.807035955

Rotational constants in cm-1:             0.170989             0.033538             0.028038
Rotational constants in MHz :          5126.128912          1005.434755           840.566690

                             ****ORCA TERMINATED NORMALLY****
TOTAL RUN TIME: 0 days 0 hours 0 minutes 26 seconds 506 msec
