                         Program Version 6.0.0  -   RELEASE  -
|  1> ! pbe def2-sv(p) def2/J RI DEFGRID1 loosescf d4 GCP(DFT/SV(P)) printgap
|  2> %output
|  3>     printlevel normal
|  4> end
|  5> * xyz 0 1
|  6> C -2.0982372321 0.1069084812 0.0001278951
|  7> C -0.7135497417 0.6705075247 -0.0001663359
|  8> C 0.4432066907 0.0194069576 -0.0002208693
|  9> C 1.7494529033 0.7622804805 0.000133948
| 10> C 0.6042350841 -1.472045257 4.6039e-06
| 11> H -2.6374661766 0.4545318617 -0.8809276007
| 12> H -2.1071666306 -0.9782171024 0.0041962554
| 13> H -2.639235654 0.4608211354 0.8775381034
| 14> H -0.6884957229 1.7544645653 -0.0009724011
| 15> H 2.3319737543 0.4994357227 -0.8821694046
| 16> H 1.5929794811 1.8376797859 0.0059844838
| 17> H 2.3364952089 0.4902484624 0.876579857
| 18> H 1.1820511749 -1.7803712975 -0.8705686514
| 19> H 1.153372676 -1.7831570739 0.8880950249
| 20> H -0.3470498327 -1.9928312563 -0.0163166972
| 21> *
| 22>
| 23>                          ****END OF INPUT****

CARTESIAN COORDINATES (ANGSTROEM)
---------------------------------
  C     -2.098237    0.106908    0.000128
  C     -0.713550    0.670508   -0.000166
  C      0.443207    0.019407   -0.000221
  C      1.749453    0.762280    0.000134
  C      0.604235   -1.472045    0.000005
  H     -2.637466    0.454532   -0.880928
  H     -2.107167   -0.978217    0.004196
  H     -2.639236    0.460821    0.877538
  H     -0.688496    1.754465   -0.000972
  H      2.331974    0.499436   -0.882169
  H      1.592979    1.837680    0.005984
  H      2.336495    0.490248    0.876580
  H      1.182051   -1.780371   -0.870569
  H      1.153373   -1.783157    0.888095
  H     -0.347050   -1.992831   -0.016317

 Total Charge           Charge          ....    0
 Multiplicity           Mult            ....    1
 Number of Electrons    NEL             ....   40
 Basis Dimension        Dim             ....   90

ORBITAL ENERGIES
----------------

  NO   OCC          E(Eh)            E(eV)
   0   2.0000      -9.888994      -269.0932
   1   2.0000      -9.875545      -268.7272
   2   2.0000      -9.874789      -268.7067
   3   2.0000      -9.874728      -268.7050
   4   2.0000      -9.872967      -268.6571
   5   2.0000      -0.727963       -19.8089
   6   2.0000      -0.656471       -17.8635
   7   2.0000      -0.615510       -16.7489
   8   2.0000      -0.563529       -15.3344
   9   2.0000      -0.451821       -12.2947
  10   2.0000      -0.411409       -11.1950
  11   2.0000      -0.387067       -10.5326
  12   2.0000      -0.383933       -10.4474
  13   2.0000      -0.358737        -9.7617
  14   2.0000      -0.338467        -9.2102
  15   2.0000      -0.335512        -9.1297
  16   2.0000      -0.320833        -8.7303
  17   2.0000      -0.309846        -8.4313
  18   2.0000      -0.281961        -7.6725
  19   2.0000      -0.200038        -5.4433
  20   0.0000       0.002957         0.0805
  21   0.0000       0.042631         1.1601
  22   0.0000       0.066754         1.8165
  23   0.0000       0.076055         2.0696
  24   0.0000       0.101336         2.7575

MULLIKEN ATOMIC CHARGES
-----------------------
   0 C :   -0.222030
   1 C :   -0.200337
   2 C :   -0.090104
   3 C :   -0.231838
   4 C :   -0.225630
   5 H :    0.108006
   6 H :    0.100367
   7 H :    0.107859
   8 H :    0.047620
   9 H :    0.102368
  10 H :    0.096871
  11 H :    0.102131
  12 H :    0.103177
  13 H :    0.103900
  14 H :    0.097641
Sum of atomic charges:   -0.0000000

LOEWDIN ATOMIC CHARGES
----------------------
   0 C :   -0.336661
   1 C :   -0.165514
   2 C :   -0.080595
   3 C :   -0.321312
   4 C :   -0.325625
   5 H :    0.127565
   6 H :    0.119688
   7 H :    0.127575
   8 H :    0.114067
   9 H :    0.123350
  10 H :    0.120453
  11 H :    0.123258
  12 H :    0.126604
  13 H :    0.126959
  14 H :    0.120188

  Mayer bond orders larger than 0.100000
B(  0-C ,  1-C ) :   1.1148 B(  0-C ,  5-H ) :   0.9360 B(  0-C ,  6-H ) :   0.9395
B(  0-C ,  7-H ) :   0.9360 B(  1-C ,  2-C ) :   1.9662 B(  1-C ,  8-H ) :   0.9118
B(  2-C ,  3-C ) :   1.0989 B(  2-C ,  4-C ) :   1.1215 B(  3-C ,  9-H ) :   0.9375
B(  3-C , 10-H ) :   0.9443 B(  3-C , 11-H ) :   0.9379 B(  4-C , 12-H ) :   0.9336
B(  4-C , 13-H ) :   0.9332 B(  4-C , 14-H ) :   0.9337

Dispersion correction           -0.010093716
FINAL SINGLE POINT ENERGY      -196.036328392970

DIPOLE MOMENT
-------------

Method             : SCF
Type of density    : Electron Density
Multiplicity       :   1
Irrep              :   0
Energy             :  -196.0837463082331737 Eh
Relativity type    :
Basis              : AO
                                X                 Y                 Z
Electronic contribution:     -0.141578150       0.901443085      -0.000876672
Nuclear contribution   :      0.166486291      -0.973254561       0.001350000
                        -----------------------------------------
Total Dipole Moment    :      0.024908142      -0.071811476       0.000473328
                        -----------------------------------------
Magnitude (a.u.)       :      0.076010050
Magnitude (Debye)      :      0.193202193

Rotational constants in cm-1:             0.272256             0.118155             0.086344
Rotational constants in MHz :          8162.020619          3542.204124          2588.521921

                             ****ORCA TERMINATED NORMALLY****
TOTAL RUN TIME: 0 days 0 hours 0 minutes 4 seconds 527 msec
