                         Program Version 6.0.0  -   RELEASE  -
|  1> ! pbe def2-sv(p) def2/J RI DEFGRID1 loosescf d4 GCP(DFT/SV(P)) printgap
|  2> %output
|  3>     printlevel normal
|  4> end
|  5> * xyz 0 1
|  6> C 3.6840151918 -0.282406667 0.1443408766
|  7> C 2.2054808146 -0.1873679805 0.0052339303
|  8> C 1.5605149489 0.9892738482 -0.0319952745
|  9> C 0.1260988804 1.1229646385 -0.216201883
| 10> O -0.4142135586 2.2253877588 -0.2536361325
| 11> C -0.6484012092 -0.1682316862 -0.4242229729
| 12> H -0.5350630931 -0.390182279 -1.4956243619
| 13> C 0.0098237906 -1.2990128261 0.3653530399
| 14> C 1.4532087197 -1.4750591436 -0.0934244347
| 15> C -2.1511238275 0.0287846775 -0.1538253299
| 16> C -2.9843952423 -1.1023710645 -0.7515356747
| 17> C -2.4513437222 0.1853129279 1.3358112686
| 18> H 4.1524541131 0.6955708841 0.0871531572
| 19> H 4.0898927753 -0.9241324214 -0.6352598895
| 20> H 3.9328606269 -0.7368147967 1.1024111149
| 21> H 2.1003126699 1.9226494882 0.0550479209
| 22> H 0.0008712909 -1.0547514162 1.4286678561
| 23> H -0.5439007563 -2.225884557 0.2185868515
| 24> H 1.952704061 -2.2437401793 0.4977302312
| 25> H 1.4679053305 -1.8034106042 -1.1379334787
| 26> H -2.4301749228 0.9661601532 -0.6505734977
| 27> H -2.7696866391 -2.0456713766 -0.2559361413
| 28> H -2.7825255125 -1.2117426558 -1.8144726025
| 29> H -4.0426955887 -0.8880765001 -0.6253684736
| 30> H -1.8310347051 0.9690848961 1.7661576249
| 31> H -2.2733492693 -0.7437605184 1.8709087646
| 32> H -3.4930493864 0.4643393945 1.4752481726
| 33> *
| 34>
| 35>                          ****END OF INPUT****

CARTESIAN COORDINATES (ANGSTROEM)
---------------------------------
  C      3.684015   -0.282407    0.144341
  C      2.205481   -0.187368    0.005234
  C      1.560515    0.989274   -0.031995
  C      0.126099    1.122965   -0.216202
  O     -0.414214    2.225388   -0.253636
  C     -0.648401   -0.168232   -0.424223
  H     -0.535063   -0.390182   -1.495624
  C      0.009824   -1.299013    0.365353
  C      1.453209   -1.475059   -0.093424
  C     -2.151124    0.028785   -0.153825
  C     -2.984395   -1.102371   -0.751536
  C     -2.451344    0.185313    1.335811
  H      4.152454    0.695571    0.087153
  H      4.089893   -0.924132   -0.635260
  H      3.932861   -0.736815    1.102411
  H      2.100313    1.922649    0.055048
  H      0.000871   -1.054751    1.428668
  H     -0.543901   -2.225885    0.218587
  H      1.952704   -2.243740    0.497730
  H      1.467905   -1.803411   -1.137933
  H     -2.430175    0.966160   -0.650573
  H     -2.769687   -2.045671   -0.255936
  H     -2.782526   -1.211743   -1.814473
  H     -4.042696   -0.888077   -0.625368
  H     -1.831035    0.969085    1.766158
  H     -2.273349   -0.743761    1.870909
  H     -3.493049    0.464339    1.475248

 Total Charge           Charge          ....    0
 Multiplicity           Mult            ....    1
 Number of Electrons    NEL             ....   84
 Basis Dimension        Dim             ....  186

ORBITAL ENERGIES
----------------

  NO   OCC          E(Eh)            E(eV)
   0   2.0000     -18.724258      -509.5130
   1   2.0000      -9.960190      -271.0305
   2   2.0000      -9.922735      -270.0113
   3   2.0000      -9.902682      -269.4657
   4   2.0000      -9.896201      -269.2893
   5   2.0000      -9.896152      -269.2880
   6   2.0000      -9.895106      -269.2595
   7   2.0000      -9.889061      -269.0950
   8   2.0000      -9.888350      -269.0757
   9   2.0000      -9.870615      -268.5931
  10   2.0000      -9.866798      -268.4892
  11   2.0000      -0.918915       -25.0050
  12   2.0000      -0.775470       -21.1016
  13   2.0000      -0.730434       -19.8761
  14   2.0000      -0.683228       -18.5916
  15   2.0000      -0.656632       -17.8679
  16   2.0000      -0.620970       -16.8974
  17   2.0000      -0.607013       -16.5177
  18   2.0000      -0.561564       -15.2809
  19   2.0000      -0.519663       -14.1408
  20   2.0000      -0.490864       -13.3571
  21   2.0000      -0.463937       -12.6244
  22   2.0000      -0.431623       -11.7450
  23   2.0000      -0.422350       -11.4927
  24   2.0000      -0.404198       -10.9988
  25   2.0000      -0.395944       -10.7742
  26   2.0000      -0.385916       -10.5013
  27   2.0000      -0.377453       -10.2710
  28   2.0000      -0.372963       -10.1488
  29   2.0000      -0.360743        -9.8163
  30   2.0000      -0.347598        -9.4586
  31   2.0000      -0.343969        -9.3599
  32   2.0000      -0.337640        -9.1876
  33   2.0000      -0.326694        -8.8898
  34   2.0000      -0.320959        -8.7337
  35   2.0000      -0.309741        -8.4285
  36   2.0000      -0.300606        -8.1799
  37   2.0000      -0.282550        -7.6886
  38   2.0000      -0.276582        -7.5262
  39   2.0000      -0.267564        -7.2808
  40   2.0000      -0.232779        -6.3342
  41   2.0000      -0.186041        -5.0624
  42   0.0000      -0.078502        -2.1362
  43   0.0000       0.013689         0.3725
  44   0.0000       0.035241         0.9590
  45   0.0000       0.048201         1.3116
  46   0.0000       0.062885         1.7112

MULLIKEN ATOMIC CHARGES
-----------------------
   0 C :   -0.214188
   1 C :   -0.101053
   2 C :   -0.105300
   3 C :    0.088969
   4 O :   -0.180947
   5 C :   -0.185897
   6 H :    0.085331
   7 C :   -0.153696
   8 C :   -0.066911
   9 C :   -0.113877
  10 C :   -0.234108
  11 C :   -0.265632
  12 H :    0.112630
  13 H :    0.117841
  14 H :    0.122887
  15 H :    0.041303
  16 H :    0.102160
  17 H :    0.086805
  18 H :    0.089984
  19 H :    0.099374
  20 H :    0.082885
  21 H :    0.093641
  22 H :    0.092411
  23 H :    0.099357
  24 H :    0.112150
  25 H :    0.094526
  26 H :    0.099352
Sum of atomic charges:   -0.0000000

LOEWDIN ATOMIC CHARGES
----------------------
   0 C :   -0.321635
   1 C :   -0.014686
   2 C :   -0.170349
   3 C :    0.042174
   4 O :   -0.143782
   5 C :   -0.158968
   6 H :    0.134860
   7 C :   -0.209765
   8 C :   -0.212461
   9 C :   -0.148518
  10 C :   -0.329349
  11 C :   -0.330709
  12 H :    0.129676
  13 H :    0.135665
  14 H :    0.138703
  15 H :    0.128157
  16 H :    0.123597
  17 H :    0.119371
  18 H :    0.125362
  19 H :    0.136950
  20 H :    0.124123
  21 H :    0.112072
  22 H :    0.115128
  23 H :    0.119829
  24 H :    0.121653
  25 H :    0.112515
  26 H :    0.120386

  Mayer bond orders larger than 0.100000
B(  0-C ,  1-C ) :   1.1294 B(  0-C , 12-H ) :   0.9419 B(  0-C , 13-H ) :   0.9285
B(  0-C , 14-H ) :   0.9214 B(  1-C ,  2-C ) :   1.7158 B(  1-C ,  8-C ) :   1.0733
B(  2-C ,  3-C ) :   1.0756 B(  2-C , 15-H ) :   0.9362 B(  3-C ,  4-O ) :   2.0816
B(  3-C ,  5-C ) :   0.9422 B(  5-C ,  6-H ) :   0.8569 B(  5-C ,  7-C ) :   1.0605
B(  5-C ,  9-C ) :   1.0540 B(  7-C ,  8-C ) :   1.1255 B(  7-C , 16-H ) :   0.9097
B(  7-C , 17-H ) :   0.9073 B(  8-C , 18-H ) :   0.9069 B(  8-C , 19-H ) :   0.8703
B(  9-C , 10-C ) :   1.1126 B(  9-C , 11-C ) :   1.1105 B(  9-C , 20-H ) :   0.8791
B( 10-C , 21-H ) :   0.9402 B( 10-C , 22-H ) :   0.9491 B( 10-C , 23-H ) :   0.9503
B( 11-C , 24-H ) :   0.9465 B( 11-C , 25-H ) :   0.9413 B( 11-C , 26-H ) :   0.9487

Dispersion correction           -0.028134051
FINAL SINGLE POINT ENERGY      -464.845567511855

DIPOLE MOMENT
-------------

Method             : SCF
Type of density    : Electron Density
Multiplicity       :   1
Irrep              :   0
Energy             :  -464.9311926549496548 Eh
Relativity type    :
Basis              : AO
                                X                 Y                 Z
Electronic contribution:      3.664743126       7.410068852      -1.744064049
Nuclear contribution   :     -2.824843973      -8.645380850       1.766318284
                        -----------------------------------------
Total Dipole Moment    :      0.839899153      -1.235311997       0.022254235
                        -----------------------------------------
Magnitude (a.u.)       :      1.493961702
Magnitude (Debye)      :      3.797348867

Rotational constants in cm-1:             0.066493             0.024313             0.020136
Rotational constants in MHz :          1993.401226           728.888911           603.672073

                             ****ORCA TERMINATED NORMALLY****
TOTAL RUN TIME: 0 days 0 hours 0 minutes 10 seconds 619 msec
