                         Program Version 6.0.0  -   RELEASE  -
|  1> ! pbe def2-sv(p) def2/J RI DEFGRID1 loosescf d4 GCP(DFT/SV(P)) printgap
|  2> %output
|  3>     printlevel normal
|  4> end
|  5> * xyz 0 1
|  6> C -1.8046582191 -0.6048401392 -1.0997660703
|  7> C -1.2437815904 -0.5043022322 0.3365789292
|  8> H -2.0476710035 -0.7858970951 1.0298626484
|  9> C -0.7867179116 0.9155824669 0.6888360912
| 10> H -1.5845431287 1.608533523 0.3905878161
| 11> C 0.478882975 1.3234217281 -0.0955425391
| 12> H 1.0836398329 1.9812841299 0.5468077108
| 13> C 1.3583312023 0.1077330223 -0.4239748896
| 14> H 1.0881090675 -0.2913603239 -1.4140544174
| 15> C 1.104645665 -1.0089327136 0.5964537914
| 16> H 1.325761877 -0.6300336661 1.6142170518
| 17> O -0.222154902 -1.4735059868 0.5433159285
| 18> O 1.9428781871 -2.0668289653 0.2764495654
| 19> O 2.7010854238 0.5189499239 -0.4082817836
| 20> O 0.0652699235 2.0097513791 -1.2510176895
| 21> O -0.5816295569 0.964184121 2.080649141
| 22> O -3.1640180935 -0.2535740537 -1.1678788821
| 23> H -1.7466219615 -1.6529807394 -1.4017268937
| 24> H -1.2109884862 0.003390297 -1.7884040461
| 25> H 1.6525997916 -2.8600614892 0.7513018793
| 26> H 3.2668171312 -0.2650761944 -0.477129782
| 27> H 0.842375072 2.3544223568 -1.7143952268
| 28> H -0.5354018508 1.8843889075 2.3788884474
| 29> H -3.2582454376 0.7069033638 -1.1093163608
| 30> *
| 31>
| 32>                          ****END OF INPUT****

CARTESIAN COORDINATES (ANGSTROEM)
---------------------------------
  C     -1.804658   -0.604840   -1.099766
  C     -1.243782   -0.504302    0.336579
  H     -2.047671   -0.785897    1.029863
  C     -0.786718    0.915582    0.688836
  H     -1.584543    1.608534    0.390588
  C      0.478883    1.323422   -0.095543
  H      1.083640    1.981284    0.546808
  C      1.358331    0.107733   -0.423975
  H      1.088109   -0.291360   -1.414054
  C      1.104646   -1.008933    0.596454
  H      1.325762   -0.630034    1.614217
  O     -0.222155   -1.473506    0.543316
  O      1.942878   -2.066829    0.276450
  O      2.701085    0.518950   -0.408282
  O      0.065270    2.009751   -1.251018
  O     -0.581630    0.964184    2.080649
  O     -3.164018   -0.253574   -1.167879
  H     -1.746622   -1.652981   -1.401727
  H     -1.210988    0.003390   -1.788404
  H      1.652600   -2.860061    0.751302
  H      3.266817   -0.265076   -0.477130
  H      0.842375    2.354422   -1.714395
  H     -0.535402    1.884389    2.378888
  H     -3.258245    0.706903   -1.109316

 Total Charge           Charge          ....    0
 Multiplicity           Mult            ....    1
 Number of Electrons    NEL             ....   96
 Basis Dimension        Dim             ....  192

ORBITAL ENERGIES
----------------

  NO   OCC          E(Eh)            E(eV)
   0   2.0000     -18.763273      -510.5746
   1   2.0000     -18.762574      -510.5556
   2   2.0000     -18.761636      -510.5301
   3   2.0000     -18.760764      -510.5063
   4   2.0000     -18.752919      -510.2929
   5   2.0000     -18.744889      -510.0744
   6   2.0000      -9.978665      -271.5333
   7   2.0000      -9.952830      -270.8303
   8   2.0000      -9.948144      -270.7027
   9   2.0000      -9.939076      -270.4560
  10   2.0000      -9.938664      -270.4448
  11   2.0000      -9.922637      -270.0087
  12   2.0000      -0.978988       -26.6396
  13   2.0000      -0.947053       -25.7706
  14   2.0000      -0.938284       -25.5320
  15   2.0000      -0.925069       -25.1724
  16   2.0000      -0.920318       -25.0431
  17   2.0000      -0.906705       -24.6727
  18   2.0000      -0.707296       -19.2465
  19   2.0000      -0.685225       -18.6459
  20   2.0000      -0.616126       -16.7656
  21   2.0000      -0.588754       -16.0208
  22   2.0000      -0.567684       -15.4475
  23   2.0000      -0.519731       -14.1426
  24   2.0000      -0.505028       -13.7425
  25   2.0000      -0.481520       -13.1028
  26   2.0000      -0.479605       -13.0507
  27   2.0000      -0.462282       -12.5793
  28   2.0000      -0.447418       -12.1749
  29   2.0000      -0.440694       -11.9919
  30   2.0000      -0.407725       -11.0947
  31   2.0000      -0.394746       -10.7416
  32   2.0000      -0.383996       -10.4491
  33   2.0000      -0.372397       -10.1334
  34   2.0000      -0.361215        -9.8292
  35   2.0000      -0.351955        -9.5772
  36   2.0000      -0.326561        -8.8862
  37   2.0000      -0.322447        -8.7742
  38   2.0000      -0.312828        -8.5125
  39   2.0000      -0.292817        -7.9680
  40   2.0000      -0.277974        -7.5641
  41   2.0000      -0.262101        -7.1321
  42   2.0000      -0.243929        -6.6376
  43   2.0000      -0.239910        -6.5283
  44   2.0000      -0.239023        -6.5041
  45   2.0000      -0.226361        -6.1596
  46   2.0000      -0.216606        -5.8941
  47   2.0000      -0.194930        -5.3043
  48   0.0000       0.014576         0.3966
  49   0.0000       0.020849         0.5673
  50   0.0000       0.028269         0.7692
  51   0.0000       0.036322         0.9884
  52   0.0000       0.056358         1.5336

MULLIKEN ATOMIC CHARGES
-----------------------
   0 C :    0.021545
   1 C :    0.053806
   2 H :    0.076450
   3 C :   -0.008686
   4 H :    0.057200
   5 C :    0.113797
   6 H :    0.053116
   7 C :    0.003184
   8 H :    0.055152
   9 C :    0.208921
  10 H :    0.046991
  11 O :   -0.323501
  12 O :   -0.399712
  13 O :   -0.426588
  14 O :   -0.415718
  15 O :   -0.405455
  16 O :   -0.433980
  17 H :    0.091005
  18 H :    0.096298
  19 H :    0.311257
  20 H :    0.309713
  21 H :    0.311455
  22 H :    0.304153
  23 H :    0.299597
Sum of atomic charges:    0.0000000

LOEWDIN ATOMIC CHARGES
----------------------
   0 C :   -0.141717
   1 C :   -0.060061
   2 H :    0.118275
   3 C :   -0.070595
   4 H :    0.103232
   5 C :   -0.066705
   6 H :    0.107232
   7 C :   -0.093214
   8 H :    0.106655
   9 C :   -0.006520
  10 H :    0.086169
  11 O :   -0.154247
  12 O :   -0.310702
  13 O :   -0.323066
  14 O :   -0.318172
  15 O :   -0.310652
  16 O :   -0.332265
  17 H :    0.117633
  18 H :    0.103327
  19 H :    0.293177
  20 H :    0.288190
  21 H :    0.293341
  22 H :    0.288889
  23 H :    0.281793

  Mayer bond orders larger than 0.100000
B(  0-C ,  1-C ) :   1.0151 B(  0-C , 16-O ) :   1.0651 B(  0-C , 17-H ) :   0.9161
B(  0-C , 18-H ) :   0.9057 B(  1-C ,  2-H ) :   0.8834 B(  1-C ,  3-C ) :   1.0381
B(  1-C , 11-O ) :   0.9888 B(  3-C ,  4-H ) :   0.8851 B(  3-C ,  5-C ) :   0.9902
B(  3-C , 15-O ) :   1.0414 B(  5-C ,  6-H ) :   0.8624 B(  5-C ,  7-C ) :   1.0269
B(  5-C , 14-O ) :   1.0546 B(  7-C ,  8-H ) :   0.8427 B(  7-C ,  9-C ) :   1.0641
B(  7-C , 13-O ) :   1.0722 B(  9-C , 10-H ) :   0.8796 B(  9-C , 11-O ) :   1.0299
B(  9-C , 12-O ) :   1.1450 B( 12-O , 19-H ) :   0.8381 B( 13-O , 20-H ) :   0.8343
B( 14-O , 21-H ) :   0.8431 B( 15-O , 22-H ) :   0.8467 B( 16-O , 23-H ) :   0.8509

Dispersion correction           -0.024678798
FINAL SINGLE POINT ENERGY      -685.686525470120

DIPOLE MOMENT
-------------

Method             : SCF
Type of density    : Electron Density
Multiplicity       :   1
Irrep              :   0
Energy             :  -685.8160108245226638 Eh
Relativity type    :
Basis              : AO
                                X                 Y                 Z
Electronic contribution:      1.551855439      -1.136575830       1.293575285
Nuclear contribution   :     -1.043677931       1.922085088      -1.118490834
                        -----------------------------------------
Total Dipole Moment    :      0.508177508       0.785509258       0.175084451
                        -----------------------------------------
Magnitude (a.u.)       :      0.951800262
Magnitude (Debye)      :      2.419284003

Rotational constants in cm-1:             0.038992             0.025406             0.021997
Rotational constants in MHz :          1168.961909           761.643936           659.440306

                             ****ORCA TERMINATED NORMALLY****
TOTAL RUN TIME: 0 days 0 hours 0 minutes 12 seconds 149 msec
