                         Program Version 6.0.0  -   RELEASE  -
|  1> ! pbe def2-sv(p) def2/J RI DEFGRID1 loosescf d4 GCP(DFT/SV(P)) printgap
|  2> %output
|  3>     printlevel normal
|  4> end
|  5> * xyz 0 1
|  6> C -2.7793991104 1.2578536441 0.8182672909
|  7> C -1.6675811743 0.5658406463 0.0967131668
|  8> C -0.8341431768 1.1515522691 -0.7541316408
|  9> C 0.2541524562 0.3549089451 -1.395134434
| 10> C 1.0007893202 -0.5317133813 -0.3698802268
| 11> H 1.4428079322 -1.3599137286 -0.9293438629
| 12> C 0.0500584362 -1.1186625848 0.6944560961
| 13> C -1.4358941651 -0.9000816131 0.3801017484
| 14> H -2.0257657758 -1.2125891091 1.2574529054
| 15> O -1.7813578778 -1.7355135935 -0.7192608324
| 16> C 2.1246513739 0.2529115879 0.2742255071
| 17> C 1.9034664938 1.3412023541 0.9946076524
| 18> C 3.5038925277 -0.276478909 0.0277903927
| 19> H -3.7346248478 0.777156953 0.611533508
| 20> H -2.83863422 2.3006861648 0.5185731228
| 21> H -2.6113545711 1.2095541336 1.8941501863
| 22> H -0.9264415236 2.1976758483 -1.0075574379
| 23> H -0.1901090662 -0.3034095316 -2.1459602822
| 24> H 0.9692795467 1.0080757966 -1.8960815858
| 25> H 0.2182638951 -2.1917209466 0.790599104
| 26> H 0.2494118089 -0.654128773 1.6607773778
| 27> H -2.7042032927 -1.5788942679 -0.956199519
| 28> H 2.7085055301 1.8990272647 1.4424849063
| 29> H 0.909099482 1.7206517153 1.1585575078
| 30> H 3.7076260189 -0.3039549575 -1.0420073542
| 31> H 4.2544408801 0.3418346734 0.5127373255
| 32> H 3.5853121848 -1.294132966 0.4074127384
| 33> *
| 34>
| 35>                          ****END OF INPUT****

CARTESIAN COORDINATES (ANGSTROEM)
---------------------------------
  C     -2.779399    1.257854    0.818267
  C     -1.667581    0.565841    0.096713
  C     -0.834143    1.151552   -0.754132
  C      0.254152    0.354909   -1.395134
  C      1.000789   -0.531713   -0.369880
  H      1.442808   -1.359914   -0.929344
  C      0.050058   -1.118663    0.694456
  C     -1.435894   -0.900082    0.380102
  H     -2.025766   -1.212589    1.257453
  O     -1.781358   -1.735514   -0.719261
  C      2.124651    0.252912    0.274226
  C      1.903466    1.341202    0.994608
  C      3.503893   -0.276479    0.027790
  H     -3.734625    0.777157    0.611534
  H     -2.838634    2.300686    0.518573
  H     -2.611355    1.209554    1.894150
  H     -0.926442    2.197676   -1.007557
  H     -0.190109   -0.303410   -2.145960
  H      0.969280    1.008076   -1.896082
  H      0.218264   -2.191721    0.790599
  H      0.249412   -0.654129    1.660777
  H     -2.704203   -1.578894   -0.956200
  H      2.708506    1.899027    1.442485
  H      0.909099    1.720652    1.158558
  H      3.707626   -0.303955   -1.042007
  H      4.254441    0.341835    0.512737
  H      3.585312   -1.294133    0.407413

 Total Charge           Charge          ....    0
 Multiplicity           Mult            ....    1
 Number of Electrons    NEL             ....   84
 Basis Dimension        Dim             ....  186

ORBITAL ENERGIES
----------------

  NO   OCC          E(Eh)            E(eV)
   0   2.0000     -18.741407      -509.9796
   1   2.0000      -9.936106      -270.3752
   2   2.0000      -9.892643      -269.1925
   3   2.0000      -9.891003      -269.1479
   4   2.0000      -9.886498      -269.0253
   5   2.0000      -9.883779      -268.9513
   6   2.0000      -9.880756      -268.8690
   7   2.0000      -9.879577      -268.8370
   8   2.0000      -9.879506      -268.8350
   9   2.0000      -9.876223      -268.7457
  10   2.0000      -9.860231      -268.3105
  11   2.0000      -0.918140       -24.9839
  12   2.0000      -0.759980       -20.6801
  13   2.0000      -0.718219       -19.5437
  14   2.0000      -0.672170       -18.2907
  15   2.0000      -0.658406       -17.9161
  16   2.0000      -0.610123       -16.6023
  17   2.0000      -0.605665       -16.4810
  18   2.0000      -0.548875       -14.9356
  19   2.0000      -0.527726       -14.3601
  20   2.0000      -0.479490       -13.0476
  21   2.0000      -0.469010       -12.7624
  22   2.0000      -0.437404       -11.9024
  23   2.0000      -0.422912       -11.5080
  24   2.0000      -0.397918       -10.8279
  25   2.0000      -0.391582       -10.6555
  26   2.0000      -0.378663       -10.3039
  27   2.0000      -0.372375       -10.1328
  28   2.0000      -0.369266       -10.0482
  29   2.0000      -0.356029        -9.6880
  30   2.0000      -0.347027        -9.4431
  31   2.0000      -0.344375        -9.3709
  32   2.0000      -0.334938        -9.1141
  33   2.0000      -0.326842        -8.8938
  34   2.0000      -0.313740        -8.5373
  35   2.0000      -0.296421        -8.0660
  36   2.0000      -0.287495        -7.8231
  37   2.0000      -0.276541        -7.5251
  38   2.0000      -0.253469        -6.8972
  39   2.0000      -0.216075        -5.8797
  40   2.0000      -0.209493        -5.7006
  41   2.0000      -0.200310        -5.4507
  42   0.0000      -0.023806        -0.6478
  43   0.0000      -0.002376        -0.0647
  44   0.0000       0.026855         0.7308
  45   0.0000       0.046975         1.2783
  46   0.0000       0.060284         1.6404

MULLIKEN ATOMIC CHARGES
-----------------------
   0 C :   -0.200685
   1 C :   -0.061646
   2 C :   -0.263814
   3 C :    0.058589
   4 C :   -0.150625
   5 H :    0.051897
   6 C :   -0.033146
   7 C :    0.050342
   8 H :    0.041828
   9 O :   -0.425787
  10 C :   -0.084199
  11 C :   -0.236819
  12 C :   -0.211139
  13 H :    0.097119
  14 H :    0.098456
  15 H :    0.109960
  16 H :    0.041953
  17 H :    0.086910
  18 H :    0.080519
  19 H :    0.076924
  20 H :    0.089701
  21 H :    0.296154
  22 H :    0.077313
  23 H :    0.099900
  24 H :    0.108200
  25 H :    0.094298
  26 H :    0.107796
Sum of atomic charges:    0.0000000

LOEWDIN ATOMIC CHARGES
----------------------
   0 C :   -0.322988
   1 C :   -0.093822
   2 C :   -0.136139
   3 C :   -0.209509
   4 C :   -0.122684
   5 H :    0.120075
   6 C :   -0.205567
   7 C :   -0.038504
   8 H :    0.096482
   9 O :   -0.329688
  10 C :   -0.048308
  11 C :   -0.275897
  12 C :   -0.321860
  13 H :    0.121702
  14 H :    0.124319
  15 H :    0.128024
  16 H :    0.116058
  17 H :    0.131184
  18 H :    0.120594
  19 H :    0.124763
  20 H :    0.126672
  21 H :    0.283472
  22 H :    0.115780
  23 H :    0.119508
  24 H :    0.127389
  25 H :    0.121181
  26 H :    0.127761

  Mayer bond orders larger than 0.100000
B(  0-C ,  1-C ) :   1.1397 B(  0-C , 13-H ) :   0.9307 B(  0-C , 14-H ) :   0.9422
B(  0-C , 15-H ) :   0.9268 B(  1-C ,  2-C ) :   1.8550 B(  1-C ,  7-C ) :   1.0027
B(  2-C ,  3-C ) :   1.0878 B(  2-C , 16-H ) :   0.9457 B(  3-C ,  4-C ) :   1.0996
B(  3-C , 17-H ) :   0.8522 B(  3-C , 18-H ) :   0.9096 B(  4-C ,  5-H ) :   0.8749
B(  4-C ,  6-C ) :   1.0779 B(  4-C , 10-C ) :   0.9954 B(  6-C ,  7-C ) :   1.0991
B(  6-C , 19-H ) :   0.8862 B(  6-C , 20-H ) :   0.9094 B(  7-C ,  8-H ) :   0.8982
B(  7-C ,  9-O ) :   1.0212 B(  9-O , 21-H ) :   0.8532 B( 10-C , 11-C ) :   2.0562
B( 10-C , 12-C ) :   1.1357 B( 11-C , 22-H ) :   0.9029 B( 11-C , 23-H ) :   0.8897
B( 12-C , 24-H ) :   0.9283 B( 12-C , 25-H ) :   0.9418 B( 12-C , 26-H ) :   0.9288

Dispersion correction           -0.029381989
FINAL SINGLE POINT ENERGY      -464.783267548546

DIPOLE MOMENT
-------------

Method             : SCF
Type of density    : Electron Density
Multiplicity       :   1
Irrep              :   0
Energy             :  -464.8716562418676403 Eh
Relativity type    :
Basis              : AO
                                X                 Y                 Z
Electronic contribution:     -3.227911358      -2.258745193      -2.060992077
Nuclear contribution   :      2.800856462       2.372141471       2.125660154
                        -----------------------------------------
Total Dipole Moment    :     -0.427054896       0.113396278       0.064668076
                        -----------------------------------------
Magnitude (a.u.)       :      0.446560814
Magnitude (Debye)      :      1.135067384

Rotational constants in cm-1:             0.063306             0.025825             0.022573
Rotational constants in MHz :          1897.871962           774.216740           676.707411

                             ****ORCA TERMINATED NORMALLY****
TOTAL RUN TIME: 0 days 0 hours 0 minutes 12 seconds 510 msec
