                         Program Version 6.0.0  -   RELEASE  -
|  1> ! pbe def2-sv(p) def2/J RI DEFGRID1 loosescf d4 GCP(DFT/SV(P)) printgap
|  2> %output
|  3>     printlevel normal
|  4> end
|  5> * xyz 0 1
|  6> C 5.1524370067 0.6916788594 0.0013990174
|  7> C 5.1524446921 -0.6916836111 0.000993812
|  8> C 3.9545762381 -1.3902522278 9.52582e-05
|  9> C 2.7582836242 -0.695652633 -0.0004654011
| 10> C 2.7582829469 0.6956522774 -0.0001968198
| 11> C 3.954568688 1.3902510199 0.0007919319
| 12> O 1.5776511378 1.4250172485 -0.0009183808
| 13> C 0.4305721447 0.7002390532 -0.0006814861
| 14> C 0.4305839825 -0.7002481909 -0.000734838
| 15> C -0.7792574976 -1.3868370191 -0.0002945979
| 16> C -1.9902154923 -0.6945766562 0.000122007
| 17> C -1.9902311008 0.6945967946 6.49267e-05
| 18> C -0.7792586296 1.3868400477 -0.0003190487
| 19> Cl -0.7526912802 3.103723727 -0.00041679
| 20> Cl -3.4711640543 1.5604276448 0.0005285486
| 21> Cl -3.471167196 -1.5604371168 0.0007183693
| 22> Cl -0.7526958706 -3.1037119667 -0.0002552391
| 23> O 1.5776470894 -1.4250282049 -0.0012453172
| 24> H 6.0823942716 1.2356837337 0.0023460206
| 25> H 6.0824023063 -1.2356818029 0.0015840627
| 26> H 3.9240780087 -2.4669403421 -0.0001355482
| 27> H 3.9240851618 2.4669399184 0.0010974964
| 28> *
| 29>
| 30>                          ****END OF INPUT****

CARTESIAN COORDINATES (ANGSTROEM)
---------------------------------
  C      5.152437    0.691679    0.001399
  C      5.152445   -0.691684    0.000994
  C      3.954576   -1.390252    0.000095
  C      2.758284   -0.695653   -0.000465
  C      2.758283    0.695652   -0.000197
  C      3.954569    1.390251    0.000792
  O      1.577651    1.425017   -0.000918
  C      0.430572    0.700239   -0.000681
  C      0.430584   -0.700248   -0.000735
  C     -0.779257   -1.386837   -0.000295
  C     -1.990215   -0.694577    0.000122
  C     -1.990231    0.694597    0.000065
  C     -0.779259    1.386840   -0.000319
  Cl    -0.752691    3.103724   -0.000417
  Cl    -3.471164    1.560428    0.000529
  Cl    -3.471167   -1.560437    0.000718
  Cl    -0.752696   -3.103712   -0.000255
  O      1.577647   -1.425028   -0.001245
  H      6.082394    1.235684    0.002346
  H      6.082402   -1.235682    0.001584
  H      3.924078   -2.466940   -0.000136
  H      3.924085    2.466940    0.001097

 Total Charge           Charge          ....    0
 Multiplicity           Mult            ....    1
 Number of Electrons    NEL             ....  160
 Basis Dimension        Dim             ....  276

ORBITAL ENERGIES
----------------

  NO   OCC          E(Eh)            E(eV)
   0   2.0000    -100.656735     -2739.0090
   1   2.0000    -100.656687     -2739.0077
   2   2.0000    -100.656273     -2738.9964
   3   2.0000    -100.656189     -2738.9942
   4   2.0000     -18.837811      -512.6029
   5   2.0000     -18.837628      -512.5979
   6   2.0000      -9.991351      -271.8785
   7   2.0000      -9.991130      -271.8725
   8   2.0000      -9.980111      -271.5726
   9   2.0000      -9.979878      -271.5663
  10   2.0000      -9.976597      -271.4770
  11   2.0000      -9.976372      -271.4709
  12   2.0000      -9.974960      -271.4325
  13   2.0000      -9.974845      -271.4293
  14   2.0000      -9.914834      -269.7963
  15   2.0000      -9.914750      -269.7941
  16   2.0000      -9.911500      -269.7056
  17   2.0000      -9.911254      -269.6989
  18   2.0000      -9.192288      -250.1349
  19   2.0000      -9.192249      -250.1338
  20   2.0000      -9.191990      -250.1268
  21   2.0000      -9.191922      -250.1249
  22   2.0000      -7.024090      -191.1352
  23   2.0000      -7.024083      -191.1350
  24   2.0000      -7.023768      -191.1265
  25   2.0000      -7.023752      -191.1260
  26   2.0000      -7.012202      -190.8117
  27   2.0000      -7.012201      -190.8117
  28   2.0000      -7.011932      -190.8044
  29   2.0000      -7.011921      -190.8041
  30   2.0000      -7.011215      -190.7849
  31   2.0000      -7.011210      -190.7847
  32   2.0000      -7.010914      -190.7767
  33   2.0000      -7.010878      -190.7757
  34   2.0000      -1.041951       -28.3529
  35   2.0000      -1.007214       -27.4077
  36   2.0000      -0.868634       -23.6367
  37   2.0000      -0.829066       -22.5600
  38   2.0000      -0.814858       -22.1734
  39   2.0000      -0.796020       -21.6608
  40   2.0000      -0.781322       -21.2609
  41   2.0000      -0.761452       -20.7202
  42   2.0000      -0.711714       -19.3667
  43   2.0000      -0.704577       -19.1725
  44   2.0000      -0.664146       -18.0723
  45   2.0000      -0.661396       -17.9975
  46   2.0000      -0.615778       -16.7562
  47   2.0000      -0.591085       -16.0842
  48   2.0000      -0.566522       -15.4158
  49   2.0000      -0.550489       -14.9796
  50   2.0000      -0.534346       -14.5403
  51   2.0000      -0.503862       -13.7108
  52   2.0000      -0.476137       -12.9563
  53   2.0000      -0.462859       -12.5950
  54   2.0000      -0.454726       -12.3737
  55   2.0000      -0.449678       -12.2364
  56   2.0000      -0.426237       -11.5985
  57   2.0000      -0.423709       -11.5297
  58   2.0000      -0.411013       -11.1842
  59   2.0000      -0.400746       -10.9048
  60   2.0000      -0.398774       -10.8512
  61   2.0000      -0.395604       -10.7649
  62   2.0000      -0.392407       -10.6779
  63   2.0000      -0.383050       -10.4233
  64   2.0000      -0.352130        -9.5819
  65   2.0000      -0.347988        -9.4692
  66   2.0000      -0.346409        -9.4263
  67   2.0000      -0.343377        -9.3438
  68   2.0000      -0.313155        -8.5214
  69   2.0000      -0.312018        -8.4905
  70   2.0000      -0.299319        -8.1449
  71   2.0000      -0.297714        -8.1012
  72   2.0000      -0.293426        -7.9845
  73   2.0000      -0.279425        -7.6035
  74   2.0000      -0.277865        -7.5611
  75   2.0000      -0.258266        -7.0278
  76   2.0000      -0.248056        -6.7499
  77   2.0000      -0.241976        -6.5845
  78   2.0000      -0.215474        -5.8634
  79   2.0000      -0.190944        -5.1959
  80   0.0000      -0.071051        -1.9334
  81   0.0000      -0.062093        -1.6896
  82   0.0000      -0.053851        -1.4654
  83   0.0000      -0.053171        -1.4469
  84   0.0000      -0.027377        -0.7450

MULLIKEN ATOMIC CHARGES
-----------------------
   0 C :   -0.037948
   1 C :   -0.037954
   2 C :   -0.156994
   3 C :    0.208624
   4 C :    0.208635
   5 C :   -0.157004
   6 O :   -0.192256
   7 C :    0.121540
   8 C :    0.121528
   9 C :   -0.022664
  10 C :   -0.016773
  11 C :   -0.016700
  12 C :   -0.022702
  13 Cl:   -0.009495
  14 Cl:   -0.017993
  15 Cl:   -0.018004
  16 Cl:   -0.009497
  17 O :   -0.192248
  18 H :    0.064565
  19 H :    0.064565
  20 H :    0.059389
  21 H :    0.059387
Sum of atomic charges:   -0.0000000

LOEWDIN ATOMIC CHARGES
----------------------
   0 C :   -0.121298
   1 C :   -0.121301
   2 C :   -0.128669
   3 C :    0.021970
   4 C :    0.021969
   5 C :   -0.128671
   6 O :   -0.016194
   7 C :   -0.007248
   8 C :   -0.007251
   9 C :   -0.179882
  10 C :   -0.187018
  11 C :   -0.187032
  12 C :   -0.179878
  13 Cl:    0.175095
  14 Cl:    0.172317
  15 Cl:    0.172293
  16 Cl:    0.175102
  17 O :   -0.016190
  18 H :    0.130601
  19 H :    0.130602
  20 H :    0.140340
  21 H :    0.140341

  Mayer bond orders larger than 0.100000
B(  0-C ,  1-C ) :   1.3716 B(  0-C ,  5-C ) :   1.3230 B(  0-C , 18-H ) :   0.9691
B(  1-C ,  2-C ) :   1.3230 B(  1-C , 19-H ) :   0.9691 B(  2-C ,  3-C ) :   1.3891
B(  2-C ,  5-C ) :   0.1012 B(  2-C , 20-H ) :   0.9681 B(  3-C ,  4-C ) :   1.2963
B(  3-C , 17-O ) :   1.0229 B(  4-C ,  5-C ) :   1.3891 B(  4-C ,  6-O ) :   1.0229
B(  5-C , 21-H ) :   0.9681 B(  6-O ,  7-C ) :   1.1545 B(  7-C ,  8-C ) :   1.2222
B(  7-C , 12-C ) :   1.3821 B(  8-C ,  9-C ) :   1.3821 B(  8-C , 17-O ) :   1.1545
B(  9-C , 10-C ) :   1.4313 B(  9-C , 16-Cl) :   1.0940 B( 10-C , 11-C ) :   1.4316
B( 10-C , 15-Cl) :   1.1084 B( 11-C , 12-C ) :   1.4313 B( 11-C , 14-Cl) :   1.1084
B( 12-C , 13-Cl) :   1.0940

Dispersion correction           -0.041240942
FINAL SINGLE POINT ENERGY     -2448.385338072635

DIPOLE MOMENT
-------------

Method             : SCF
Type of density    : Electron Density
Multiplicity       :   1
Irrep              :   0
Energy             : -2448.4222315970710042 Eh
Relativity type    :
Basis              : AO
                                X                 Y                 Z
Electronic contribution:    -29.044876004       0.000016721      -0.003266845
Nuclear contribution   :     30.160945695      -0.000001819       0.003785976
                        -----------------------------------------
Total Dipole Moment    :      1.116069690       0.000014901       0.000519131
                        -----------------------------------------
Magnitude (a.u.)       :      1.116069811
Magnitude (Debye)      :      2.836824013

Rotational constants in cm-1:             0.015680             0.007053             0.004865
Rotational constants in MHz :           470.060198           211.443532           145.841017

                             ****ORCA TERMINATED NORMALLY****
TOTAL RUN TIME: 0 days 0 hours 0 minutes 20 seconds 744 msec
