                         Program Version 6.0.0  -   RELEASE  -
|  1> ! pbe def2-sv(p) def2/J RI DEFGRID1 loosescf d4 GCP(DFT/SV(P)) printgap
|  2> %output
|  3>     printlevel normal
|  4> end
|  5> * xyz 0 1
|  6> C -1.9319527648 -0.5606984425 -0.7742352007
|  7> C -1.21261047 -0.0725236672 0.4971714141
|  8> H -1.9275950976 -0.0347424944 1.3282084751
|  9> C -0.6144483252 1.3337696891 0.3301079445
| 10> H -1.3465399371 1.9667756357 -0.1814960853
| 11> C 0.676458444 1.3133325014 -0.5123122582
| 12> H 1.1516642586 2.300612313 -0.3778099541
| 13> C 1.6482650252 0.2436787596 0.0311097748
| 14> H 2.4446353329 0.0647942427 -0.7038428388
| 15> C 0.9460028081 -1.1100756147 0.2352274342
| 16> H 1.5886696308 -1.7256863416 0.8896958843
| 17> O -0.2431442179 -1.0116138302 0.9610175842
| 18> O 0.7962647593 -1.7072324612 -1.0146303425
| 19> O 2.1756837362 0.6277876469 1.2790190562
| 20> O 0.3343156909 1.1199769704 -1.8580358704
| 21> O -0.3809588407 1.9357315484 1.5787139634
| 22> O -2.2769816899 -1.9218849976 -0.6944309265
| 23> H -1.2750848912 -0.4633335736 -1.6389673905
| 24> H -2.8185149059 0.0656808838 -0.931663599
| 25> H 0.1806813896 -2.4539337168 -0.943170696
| 26> H 2.8313607874 1.3304248669 1.1587427762
| 27> H 1.131806629 1.1178413339 -2.4068494784
| 28> H 0.2911669756 1.4144999749 2.0505226189
| 29> H -2.865240913 -2.0621804646 0.0610141527
| 30> *
| 31>
| 32>                          ****END OF INPUT****

CARTESIAN COORDINATES (ANGSTROEM)
---------------------------------
  C     -1.931953   -0.560698   -0.774235
  C     -1.212610   -0.072524    0.497171
  H     -1.927595   -0.034742    1.328208
  C     -0.614448    1.333770    0.330108
  H     -1.346540    1.966776   -0.181496
  C      0.676458    1.313333   -0.512312
  H      1.151664    2.300612   -0.377810
  C      1.648265    0.243679    0.031110
  H      2.444635    0.064794   -0.703843
  C      0.946003   -1.110076    0.235227
  H      1.588670   -1.725686    0.889696
  O     -0.243144   -1.011614    0.961018
  O      0.796265   -1.707232   -1.014630
  O      2.175684    0.627788    1.279019
  O      0.334316    1.119977   -1.858036
  O     -0.380959    1.935732    1.578714
  O     -2.276982   -1.921885   -0.694431
  H     -1.275085   -0.463334   -1.638967
  H     -2.818515    0.065681   -0.931664
  H      0.180681   -2.453934   -0.943171
  H      2.831361    1.330425    1.158743
  H      1.131807    1.117841   -2.406849
  H      0.291167    1.414500    2.050523
  H     -2.865241   -2.062180    0.061014

 Total Charge           Charge          ....    0
 Multiplicity           Mult            ....    1
 Number of Electrons    NEL             ....   96
 Basis Dimension        Dim             ....  192

ORBITAL ENERGIES
----------------

  NO   OCC          E(Eh)            E(eV)
   0   2.0000     -18.775861      -510.9172
   1   2.0000     -18.762842      -510.5629
   2   2.0000     -18.761101      -510.5155
   3   2.0000     -18.751988      -510.2675
   4   2.0000     -18.745926      -510.1026
   5   2.0000     -18.737697      -509.8787
   6   2.0000      -9.982788      -271.6455
   7   2.0000      -9.950615      -270.7700
   8   2.0000      -9.946940      -270.6700
   9   2.0000      -9.939544      -270.4687
  10   2.0000      -9.935652      -270.3628
  11   2.0000      -9.918943      -269.9081
  12   2.0000      -0.979010       -26.6402
  13   2.0000      -0.949139       -25.8274
  14   2.0000      -0.937094       -25.4996
  15   2.0000      -0.921471       -25.0745
  16   2.0000      -0.917542       -24.9676
  17   2.0000      -0.900223       -24.4963
  18   2.0000      -0.698296       -19.0016
  19   2.0000      -0.690888       -18.8000
  20   2.0000      -0.617832       -16.8121
  21   2.0000      -0.582930       -15.8623
  22   2.0000      -0.571849       -15.5608
  23   2.0000      -0.525120       -14.2892
  24   2.0000      -0.499789       -13.6000
  25   2.0000      -0.480522       -13.0757
  26   2.0000      -0.474740       -12.9183
  27   2.0000      -0.462261       -12.5788
  28   2.0000      -0.439528       -11.9602
  29   2.0000      -0.416225       -11.3261
  30   2.0000      -0.412865       -11.2346
  31   2.0000      -0.398328       -10.8391
  32   2.0000      -0.382484       -10.4079
  33   2.0000      -0.377158       -10.2630
  34   2.0000      -0.362019        -9.8510
  35   2.0000      -0.345939        -9.4135
  36   2.0000      -0.334335        -9.0977
  37   2.0000      -0.328071        -8.9273
  38   2.0000      -0.298130        -8.1125
  39   2.0000      -0.287534        -7.8242
  40   2.0000      -0.280693        -7.6380
  41   2.0000      -0.263628        -7.1737
  42   2.0000      -0.252049        -6.8586
  43   2.0000      -0.237571        -6.4646
  44   2.0000      -0.232652        -6.3308
  45   2.0000      -0.219657        -5.9772
  46   2.0000      -0.210753        -5.7349
  47   2.0000      -0.198895        -5.4122
  48   0.0000       0.005340         0.1453
  49   0.0000       0.017498         0.4762
  50   0.0000       0.028266         0.7691
  51   0.0000       0.060800         1.6545
  52   0.0000       0.064904         1.7661

MULLIKEN ATOMIC CHARGES
-----------------------
   0 C :    0.013967
   1 C :   -0.003736
   2 H :    0.064510
   3 C :    0.078457
   4 H :    0.076476
   5 C :    0.050219
   6 H :    0.054847
   7 C :   -0.015964
   8 H :    0.067492
   9 C :    0.228605
  10 H :    0.063910
  11 O :   -0.312002
  12 O :   -0.409822
  13 O :   -0.412811
  14 O :   -0.394041
  15 O :   -0.432541
  16 O :   -0.434924
  17 H :    0.122467
  18 H :    0.072421
  19 H :    0.310889
  20 H :    0.311894
  21 H :    0.304496
  22 H :    0.300098
  23 H :    0.295094
Sum of atomic charges:    0.0000000

LOEWDIN ATOMIC CHARGES
----------------------
   0 C :   -0.156955
   1 C :   -0.075160
   2 H :    0.111695
   3 C :   -0.060389
   4 H :    0.121049
   5 C :   -0.079055
   6 H :    0.095022
   7 C :   -0.091777
   8 H :    0.105387
   9 C :    0.004322
  10 H :    0.097079
  11 O :   -0.141049
  12 O :   -0.315226
  13 O :   -0.304039
  14 O :   -0.301916
  15 O :   -0.320988
  16 O :   -0.334046
  17 H :    0.122334
  18 H :    0.099501
  19 H :    0.287492
  20 H :    0.293482
  21 H :    0.288104
  22 H :    0.272550
  23 H :    0.282584

  Mayer bond orders larger than 0.100000
B(  0-C ,  1-C ) :   1.0341 B(  0-C , 16-O ) :   1.0418 B(  0-C , 17-H ) :   0.8867
B(  0-C , 18-H ) :   0.9119 B(  1-C ,  2-H ) :   0.8936 B(  1-C ,  3-C ) :   1.0115
B(  1-C , 11-O ) :   1.0033 B(  3-C ,  4-H ) :   0.8899 B(  3-C ,  5-C ) :   0.9793
B(  3-C , 15-O ) :   1.0557 B(  5-C ,  6-H ) :   0.9018 B(  5-C ,  7-C ) :   0.9603
B(  5-C , 14-O ) :   1.0710 B(  7-C ,  8-H ) :   0.8933 B(  7-C ,  9-C ) :   0.9819
B(  7-C , 13-O ) :   1.0405 B(  9-C , 10-H ) :   0.9011 B(  9-C , 11-O ) :   1.0773
B(  9-C , 12-O ) :   1.1290 B( 12-O , 19-H ) :   0.8167 B( 13-O , 20-H ) :   0.8410
B( 14-O , 21-H ) :   0.8397 B( 15-O , 22-H ) :   0.8199 B( 16-O , 23-H ) :   0.8523

Dispersion correction           -0.026143226
FINAL SINGLE POINT ENERGY      -685.694196609483

DIPOLE MOMENT
-------------

Method             : SCF
Type of density    : Electron Density
Multiplicity       :   1
Irrep              :   0
Energy             :  -685.8255579075479318 Eh
Relativity type    :
Basis              : AO
                                X                 Y                 Z
Electronic contribution:      1.294131941      -1.170722381       1.428618033
Nuclear contribution   :     -0.569087069       1.412543751      -1.587048271
                        -----------------------------------------
Total Dipole Moment    :      0.725044872       0.241821370      -0.158430238
                        -----------------------------------------
Magnitude (a.u.)       :      0.780556073
Magnitude (Debye)      :      1.984015865

Rotational constants in cm-1:             0.042111             0.028582             0.025536
Rotational constants in MHz :          1262.450707           856.874553           765.556259

                             ****ORCA TERMINATED NORMALLY****
TOTAL RUN TIME: 0 days 0 hours 0 minutes 12 seconds 396 msec
