                         Program Version 6.0.0  -   RELEASE  -
|  1> ! pbe def2-sv(p) def2/J RI DEFGRID1 loosescf d4 GCP(DFT/SV(P)) printgap
|  2> %output
|  3>     printlevel normal
|  4> end
|  5> * xyz 0 1
|  6> C -2.4022139815 -0.7105313387 -0.0172246611
|  7> C -0.9681427483 -0.3036352731 0.3456437859
|  8> H -0.9192246469 -0.0298184276 1.410888722
|  9> C -0.5082897229 0.9011180584 -0.4975851961
| 10> H -0.5143817745 0.6062258244 -1.5529933259
| 11> C 0.9278876504 1.3145789605 -0.1031669159
| 12> H 0.8768462314 2.10369834 0.6561483374
| 13> C 1.6978150612 0.1339826277 0.526681238
| 14> H 2.7623620845 0.2716505855 0.2931753758
| 15> C 1.2250468186 -1.1737866698 -0.1264537568
| 16> H 1.7649750296 -2.0363986795 0.2956509311
| 17> O -0.127189938 -1.4367038279 0.1334917651
| 18> O 1.4850916097 -1.0584919449 -1.4952070607
| 19> O 1.4731009512 0.1427326471 1.9119280684
| 20> O 1.6326893027 1.8736708063 -1.177655487
| 21> O -1.4124951059 1.9705437417 -0.4126615741
| 22> O -2.9827929467 -1.6062400702 0.8945984456
| 23> H -2.3905828597 -1.2323956693 -0.9756416813
| 24> H -3.0040843954 0.2013987281 -0.114648775
| 25> H 1.2465531056 -1.8819047641 -1.947810959
| 26> H 2.053434356 -0.4955824571 2.3512720364
| 27> H 1.748397036 1.1960277317 -1.8621888049
| 28> H -1.35309304 2.3838373166 0.4613338476
| 29> H -3.0246002618 -1.1966161926 1.7704730046
| 30> *
| 31>
| 32>                          ****END OF INPUT****

CARTESIAN COORDINATES (ANGSTROEM)
---------------------------------
  C     -2.402214   -0.710531   -0.017225
  C     -0.968143   -0.303635    0.345644
  H     -0.919225   -0.029818    1.410889
  C     -0.508290    0.901118   -0.497585
  H     -0.514382    0.606226   -1.552993
  C      0.927888    1.314579   -0.103167
  H      0.876846    2.103698    0.656148
  C      1.697815    0.133983    0.526681
  H      2.762362    0.271651    0.293175
  C      1.225047   -1.173787   -0.126454
  H      1.764975   -2.036399    0.295651
  O     -0.127190   -1.436704    0.133492
  O      1.485092   -1.058492   -1.495207
  O      1.473101    0.142733    1.911928
  O      1.632689    1.873671   -1.177655
  O     -1.412495    1.970544   -0.412662
  O     -2.982793   -1.606240    0.894598
  H     -2.390583   -1.232396   -0.975642
  H     -3.004084    0.201399   -0.114649
  H      1.246553   -1.881905   -1.947811
  H      2.053434   -0.495582    2.351272
  H      1.748397    1.196028   -1.862189
  H     -1.353093    2.383837    0.461334
  H     -3.024600   -1.196616    1.770473

 Total Charge           Charge          ....    0
 Multiplicity           Mult            ....    1
 Number of Electrons    NEL             ....   96
 Basis Dimension        Dim             ....  192

ORBITAL ENERGIES
----------------

  NO   OCC          E(Eh)            E(eV)
   0   2.0000     -18.780050      -511.0311
   1   2.0000     -18.769460      -510.7430
   2   2.0000     -18.766237      -510.6553
   3   2.0000     -18.753105      -510.2979
   4   2.0000     -18.740912      -509.9661
   5   2.0000     -18.737310      -509.8681
   6   2.0000      -9.993007      -271.9235
   7   2.0000      -9.948845      -270.7218
   8   2.0000      -9.942733      -270.5555
   9   2.0000      -9.939721      -270.4736
  10   2.0000      -9.936866      -270.3959
  11   2.0000      -9.921384      -269.9746
  12   2.0000      -0.987397       -26.8684
  13   2.0000      -0.945252       -25.7216
  14   2.0000      -0.936122       -25.4732
  15   2.0000      -0.924849       -25.1664
  16   2.0000      -0.915683       -24.9170
  17   2.0000      -0.909448       -24.7473
  18   2.0000      -0.700121       -19.0513
  19   2.0000      -0.692326       -18.8392
  20   2.0000      -0.616618       -16.7790
  21   2.0000      -0.593127       -16.1398
  22   2.0000      -0.564281       -15.3549
  23   2.0000      -0.529653       -14.4126
  24   2.0000      -0.511366       -13.9150
  25   2.0000      -0.494437       -13.4543
  26   2.0000      -0.471701       -12.8356
  27   2.0000      -0.460890       -12.5415
  28   2.0000      -0.434538       -11.8244
  29   2.0000      -0.429040       -11.6748
  30   2.0000      -0.415920       -11.3178
  31   2.0000      -0.397477       -10.8159
  32   2.0000      -0.390736       -10.6325
  33   2.0000      -0.370860       -10.0916
  34   2.0000      -0.356025        -9.6879
  35   2.0000      -0.354111        -9.6359
  36   2.0000      -0.340295        -9.2599
  37   2.0000      -0.315172        -8.5763
  38   2.0000      -0.300381        -8.1738
  39   2.0000      -0.285385        -7.7657
  40   2.0000      -0.281657        -7.6643
  41   2.0000      -0.264748        -7.2042
  42   2.0000      -0.261416        -7.1135
  43   2.0000      -0.254509        -6.9255
  44   2.0000      -0.230550        -6.2736
  45   2.0000      -0.219826        -5.9818
  46   2.0000      -0.211489        -5.7549
  47   2.0000      -0.194519        -5.2931
  48   0.0000       0.007414         0.2017
  49   0.0000       0.015926         0.4334
  50   0.0000       0.026217         0.7134
  51   0.0000       0.039143         1.0651
  52   0.0000       0.059330         1.6145

MULLIKEN ATOMIC CHARGES
-----------------------
   0 C :    0.099247
   1 C :    0.010699
   2 H :    0.039354
   3 C :    0.047806
   4 H :    0.051711
   5 C :    0.116379
   6 H :    0.055492
   7 C :   -0.002730
   8 H :    0.076591
   9 C :    0.166327
  10 H :    0.052799
  11 O :   -0.299994
  12 O :   -0.402938
  13 O :   -0.408839
  14 O :   -0.424580
  15 O :   -0.407480
  16 O :   -0.430971
  17 H :    0.072677
  18 H :    0.078893
  19 H :    0.310828
  20 H :    0.306788
  21 H :    0.304001
  22 H :    0.297797
  23 H :    0.290141
Sum of atomic charges:    0.0000000

LOEWDIN ATOMIC CHARGES
----------------------
   0 C :   -0.130962
   1 C :   -0.080933
   2 H :    0.098412
   3 C :   -0.078586
   4 H :    0.116760
   5 C :   -0.062547
   6 H :    0.117300
   7 C :   -0.090730
   8 H :    0.110818
   9 C :   -0.011787
  10 H :    0.091055
  11 O :   -0.141557
  12 O :   -0.315537
  13 O :   -0.308914
  14 O :   -0.311770
  15 O :   -0.303165
  16 O :   -0.335107
  17 H :    0.114439
  18 H :    0.100865
  19 H :    0.291256
  20 H :    0.291238
  21 H :    0.277853
  22 H :    0.282272
  23 H :    0.279328

  Mayer bond orders larger than 0.100000
B(  0-C ,  1-C ) :   1.0279 B(  0-C , 16-O ) :   1.0801 B(  0-C , 17-H ) :   0.9055
B(  0-C , 18-H ) :   0.9099 B(  1-C ,  2-H ) :   0.8608 B(  1-C ,  3-C ) :   1.0200
B(  1-C , 11-O ) :   0.9708 B(  3-C ,  4-H ) :   0.8459 B(  3-C ,  5-C ) :   1.0080
B(  3-C , 15-O ) :   1.0205 B(  5-C ,  6-H ) :   0.8584 B(  5-C ,  7-C ) :   0.9895
B(  5-C , 14-O ) :   1.0588 B(  7-C ,  8-H ) :   0.8849 B(  7-C ,  9-C ) :   1.0188
B(  7-C , 13-O ) :   1.0362 B(  9-C , 10-H ) :   0.8951 B(  9-C , 11-O ) :   1.1001
B(  9-C , 12-O ) :   1.1050 B( 12-O , 19-H ) :   0.8359 B( 13-O , 20-H ) :   0.8443
B( 14-O , 21-H ) :   0.8342 B( 15-O , 22-H ) :   0.8469 B( 16-O , 23-H ) :   0.8545

Dispersion correction           -0.024627030
FINAL SINGLE POINT ENERGY      -685.686983375301

DIPOLE MOMENT
-------------

Method             : SCF
Type of density    : Electron Density
Multiplicity       :   1
Irrep              :   0
Energy             :  -685.8170350051759669 Eh
Relativity type    :
Basis              : AO
                                X                 Y                 Z
Electronic contribution:      1.482657481      -0.442674742      -0.149888603
Nuclear contribution   :     -0.705803187      -0.104780032       0.734925928
                        -----------------------------------------
Total Dipole Moment    :      0.776854294      -0.547454774       0.585037325
                        -----------------------------------------
Magnitude (a.u.)       :      1.116009855
Magnitude (Debye)      :      2.836671617

Rotational constants in cm-1:             0.041132             0.025304             0.021375
Rotational constants in MHz :          1233.105258           758.586533           640.793459

                             ****ORCA TERMINATED NORMALLY****
TOTAL RUN TIME: 0 days 0 hours 0 minutes 12 seconds 0 msec
