                         Program Version 6.0.0  -   RELEASE  -
|  1> ! pbe def2-sv(p) def2/J RI DEFGRID1 loosescf d4 GCP(DFT/SV(P)) printgap
|  2> %output
|  3>     printlevel normal
|  4> end
|  5> * xyz 0 1
|  6> C -2.0722018438 -1.3839547915 -0.1472901142
|  7> C -1.0151942922 -0.5079255083 0.5409969007
|  8> H -1.4548952993 -0.1548160292 1.4838587423
|  9> C -0.6122259712 0.7025036334 -0.3086216159
| 10> H -0.4595061141 0.3997088402 -1.3510475039
| 11> C 0.7237455284 1.2511990891 0.2282036983
| 12> H 0.6344518217 1.4066469564 1.3185112
| 13> C 1.8222989413 0.212764741 -0.0380356098
| 14> H 2.190252351 0.3520919541 -1.0592537353
| 15> C 1.2322570846 -1.217486217 0.0634070146
| 16> H 1.9790533354 -1.856578348 0.5539717417
| 17> O 0.1200357992 -1.2785094979 0.9278297335
| 18> O 0.9303449818 -1.6699668 -1.2170675895
| 19> O 2.9409092751 0.3636858824 0.7913420938
| 20> O 1.0523491932 2.4688833289 -0.3874493515
| 21> O -1.5836023886 1.7129014168 -0.347927125
| 22> O -3.3147748055 -0.7347043145 -0.0183876452
| 23> H -2.0855662317 -2.3568508655 0.3624082844
| 24> H -1.8023211984 -1.5273751938 -1.1996023502
| 25> H 0.841214923 -2.6353780789 -1.2247384781
| 26> H 2.6647107561 0.399140854 1.7193933211
| 27> H 0.2205064333 2.9072465496 -0.6385418915
| 28> H -1.9888020462 1.8255665916 0.5242152379
| 29> H -3.98259964 -1.2109979802 -0.5300927162
| 30> *
| 31>
| 32>                          ****END OF INPUT****

CARTESIAN COORDINATES (ANGSTROEM)
---------------------------------
  C     -2.072202   -1.383955   -0.147290
  C     -1.015194   -0.507926    0.540997
  H     -1.454895   -0.154816    1.483859
  C     -0.612226    0.702504   -0.308622
  H     -0.459506    0.399709   -1.351048
  C      0.723746    1.251199    0.228204
  H      0.634452    1.406647    1.318511
  C      1.822299    0.212765   -0.038036
  H      2.190252    0.352092   -1.059254
  C      1.232257   -1.217486    0.063407
  H      1.979053   -1.856578    0.553972
  O      0.120036   -1.278509    0.927830
  O      0.930345   -1.669967   -1.217068
  O      2.940909    0.363686    0.791342
  O      1.052349    2.468883   -0.387449
  O     -1.583602    1.712901   -0.347927
  O     -3.314775   -0.734704   -0.018388
  H     -2.085566   -2.356851    0.362408
  H     -1.802321   -1.527375   -1.199602
  H      0.841215   -2.635378   -1.224738
  H      2.664711    0.399141    1.719393
  H      0.220506    2.907247   -0.638542
  H     -1.988802    1.825567    0.524215
  H     -3.982600   -1.210998   -0.530093

 Total Charge           Charge          ....    0
 Multiplicity           Mult            ....    1
 Number of Electrons    NEL             ....   96
 Basis Dimension        Dim             ....  192

ORBITAL ENERGIES
----------------

  NO   OCC          E(Eh)            E(eV)
   0   2.0000     -18.772735      -510.8321
   1   2.0000     -18.771092      -510.7874
   2   2.0000     -18.763388      -510.5777
   3   2.0000     -18.755474      -510.3624
   4   2.0000     -18.745186      -510.0824
   5   2.0000     -18.736021      -509.8331
   6   2.0000      -9.985141      -271.7095
   7   2.0000      -9.950370      -270.7633
   8   2.0000      -9.943534      -270.5773
   9   2.0000      -9.936110      -270.3753
  10   2.0000      -9.934919      -270.3429
  11   2.0000      -9.934687      -270.3366
  12   2.0000      -0.984826       -26.7985
  13   2.0000      -0.947783       -25.7905
  14   2.0000      -0.930839       -25.3294
  15   2.0000      -0.926076       -25.1998
  16   2.0000      -0.917385       -24.9633
  17   2.0000      -0.906543       -24.6683
  18   2.0000      -0.704387       -19.1674
  19   2.0000      -0.690937       -18.8013
  20   2.0000      -0.619895       -16.8682
  21   2.0000      -0.588306       -16.0086
  22   2.0000      -0.560594       -15.2545
  23   2.0000      -0.531336       -14.4584
  24   2.0000      -0.510222       -13.8839
  25   2.0000      -0.483982       -13.1698
  26   2.0000      -0.471658       -12.8345
  27   2.0000      -0.466698       -12.6995
  28   2.0000      -0.445055       -12.1106
  29   2.0000      -0.426985       -11.6189
  30   2.0000      -0.407611       -11.0917
  31   2.0000      -0.401012       -10.9121
  32   2.0000      -0.382441       -10.4067
  33   2.0000      -0.375263       -10.2114
  34   2.0000      -0.364569        -9.9204
  35   2.0000      -0.354132        -9.6364
  36   2.0000      -0.337761        -9.1909
  37   2.0000      -0.304755        -8.2928
  38   2.0000      -0.301122        -8.1939
  39   2.0000      -0.289067        -7.8659
  40   2.0000      -0.278362        -7.5746
  41   2.0000      -0.271355        -7.3839
  42   2.0000      -0.265761        -7.2317
  43   2.0000      -0.243442        -6.6244
  44   2.0000      -0.226472        -6.1626
  45   2.0000      -0.224720        -6.1149
  46   2.0000      -0.211361        -5.7514
  47   2.0000      -0.199509        -5.4289
  48   0.0000       0.014067         0.3828
  49   0.0000       0.015712         0.4275
  50   0.0000       0.024932         0.6784
  51   0.0000       0.038827         1.0565
  52   0.0000       0.059407         1.6166

MULLIKEN ATOMIC CHARGES
-----------------------
   0 C :    0.065110
   1 C :    0.054327
   2 H :    0.061368
   3 C :   -0.018222
   4 H :    0.085337
   5 C :    0.068727
   6 H :    0.018730
   7 C :    0.115964
   8 H :    0.082296
   9 C :    0.124637
  10 H :    0.066373
  11 O :   -0.319680
  12 O :   -0.389396
  13 O :   -0.413012
  14 O :   -0.409901
  15 O :   -0.402773
  16 O :   -0.438043
  17 H :    0.070118
  18 H :    0.068345
  19 H :    0.307563
  20 H :    0.296548
  21 H :    0.298194
  22 H :    0.303409
  23 H :    0.303980
Sum of atomic charges:   -0.0000000

LOEWDIN ATOMIC CHARGES
----------------------
   0 C :   -0.132332
   1 C :   -0.062328
   2 H :    0.112187
   3 C :   -0.087352
   4 H :    0.123253
   5 C :   -0.076514
   6 H :    0.089361
   7 C :   -0.073224
   8 H :    0.129230
   9 C :   -0.014361
  10 H :    0.100903
  11 O :   -0.151138
  12 O :   -0.304191
  13 O :   -0.306761
  14 O :   -0.321242
  15 O :   -0.298930
  16 O :   -0.343942
  17 H :    0.094901
  18 H :    0.098661
  19 H :    0.289342
  20 H :    0.281747
  21 H :    0.276905
  22 H :    0.286439
  23 H :    0.289385

  Mayer bond orders larger than 0.100000
B(  0-C ,  1-C ) :   1.0610 B(  0-C , 16-O ) :   1.0932 B(  0-C , 17-H ) :   0.9132
B(  0-C , 18-H ) :   0.9054 B(  1-C ,  2-H ) :   0.8790 B(  1-C ,  3-C ) :   0.9915
B(  1-C , 11-O ) :   0.9884 B(  3-C ,  4-H ) :   0.8693 B(  3-C ,  5-C ) :   1.0205
B(  3-C , 15-O ) :   1.0484 B(  5-C ,  6-H ) :   0.8458 B(  5-C ,  7-C ) :   1.0150
B(  5-C , 14-O ) :   1.1267 B(  7-C ,  8-H ) :   0.8640 B(  7-C ,  9-C ) :   0.9734
B(  7-C , 13-O ) :   1.0533 B(  9-C , 10-H ) :   0.8985 B(  9-C , 11-O ) :   1.0572
B(  9-C , 12-O ) :   1.1064 B( 12-O , 19-H ) :   0.8369 B( 13-O , 20-H ) :   0.8491
B( 14-O , 21-H ) :   0.8207 B( 15-O , 22-H ) :   0.8398 B( 16-O , 23-H ) :   0.8485

Dispersion correction           -0.024523081
FINAL SINGLE POINT ENERGY      -685.686659294887

DIPOLE MOMENT
-------------

Method             : SCF
Type of density    : Electron Density
Multiplicity       :   1
Irrep              :   0
Energy             :  -685.8166174074890478 Eh
Relativity type    :
Basis              : AO
                                X                 Y                 Z
Electronic contribution:      1.925306632       1.171640942       0.347884050
Nuclear contribution   :     -3.040803647      -2.287238548      -0.042116397
                        -----------------------------------------
Total Dipole Moment    :     -1.115497016      -1.115597605       0.305767653
                        -----------------------------------------
Magnitude (a.u.)       :      1.606980232
Magnitude (Debye)      :      4.084619140

Rotational constants in cm-1:             0.044094             0.025750             0.018784
Rotational constants in MHz :          1321.898077           771.963604           563.142449

                             ****ORCA TERMINATED NORMALLY****
TOTAL RUN TIME: 0 days 0 hours 0 minutes 11 seconds 960 msec
