                         Program Version 6.0.0  -   RELEASE  -
|  1> ! pbe def2-sv(p) def2/J RI DEFGRID1 loosescf d4 GCP(DFT/SV(P)) printgap
|  2> %output
|  3>     printlevel normal
|  4> end
|  5> * xyz 0 1
|  6> C -2.4464792673 1.1098040589 0.4979480118
|  7> C -1.7174054267 -0.0918528497 -0.0293875422
|  8> C -2.3708679498 -1.1504902961 -0.4976898211
|  9> C -0.2449719009 -0.0383853215 -0.0178679399
| 10> C 0.5046200385 -1.183762211 0.2480743319
| 11> C 1.8860832519 -1.1408997962 0.2616590291
| 12> C 2.5490518158 0.0486050229 0.0084835311
| 13> C 1.8173579837 1.1946624836 -0.2528283629
| 14> C 0.4351367502 1.1539471062 -0.2601500509
| 15> H -2.4178277977 1.9196498326 -0.2298893563
| 16> H -3.4874712824 0.8667452911 0.692495783
| 17> H -1.9834429334 1.4641083614 1.4166240331
| 18> H -1.861034901 -2.0020910778 -0.9138813307
| 19> H -3.446893745 -1.1914969412 -0.5017111463
| 20> H -0.0042924294 -2.1109717176 0.4652869766
| 21> H 2.4485985972 -2.0380471509 0.4748362074
| 22> H 3.6281560253 0.0824226625 0.0184329437
| 23> H 2.3263866413 2.1265833445 -0.4506309328
| 24> H -0.1181830575 2.0553800859 -0.4739293818
| 25> *
| 26>
| 27>                          ****END OF INPUT****

CARTESIAN COORDINATES (ANGSTROEM)
---------------------------------
  C     -2.446479    1.109804    0.497948
  C     -1.717405   -0.091853   -0.029388
  C     -2.370868   -1.150490   -0.497690
  C     -0.244972   -0.038385   -0.017868
  C      0.504620   -1.183762    0.248074
  C      1.886083   -1.140900    0.261659
  C      2.549052    0.048605    0.008484
  C      1.817358    1.194662   -0.252828
  C      0.435137    1.153947   -0.260150
  H     -2.417828    1.919650   -0.229889
  H     -3.487471    0.866745    0.692496
  H     -1.983443    1.464108    1.416624
  H     -1.861035   -2.002091   -0.913881
  H     -3.446894   -1.191497   -0.501711
  H     -0.004292   -2.110972    0.465287
  H      2.448599   -2.038047    0.474836
  H      3.628156    0.082423    0.018433
  H      2.326387    2.126583   -0.450631
  H     -0.118183    2.055380   -0.473929

 Total Charge           Charge          ....    0
 Multiplicity           Mult            ....    1
 Number of Electrons    NEL             ....   64
 Basis Dimension        Dim             ....  146

ORBITAL ENERGIES
----------------

  NO   OCC          E(Eh)            E(eV)
   0   2.0000      -9.905348      -269.5382
   1   2.0000      -9.903435      -269.4862
   2   2.0000      -9.892135      -269.1787
   3   2.0000      -9.891295      -269.1558
   4   2.0000      -9.891112      -269.1509
   5   2.0000      -9.890850      -269.1437
   6   2.0000      -9.890125      -269.1240
   7   2.0000      -9.884149      -268.9614
   8   2.0000      -9.874453      -268.6975
   9   2.0000      -0.781619       -21.2689
  10   2.0000      -0.727789       -19.8042
  11   2.0000      -0.670732       -18.2516
  12   2.0000      -0.658004       -17.9052
  13   2.0000      -0.616377       -16.7725
  14   2.0000      -0.550852       -14.9894
  15   2.0000      -0.538887       -14.6639
  16   2.0000      -0.491163       -13.3652
  17   2.0000      -0.454456       -12.3664
  18   2.0000      -0.413297       -11.2464
  19   2.0000      -0.410201       -11.1621
  20   2.0000      -0.394609       -10.7379
  21   2.0000      -0.383235       -10.4284
  22   2.0000      -0.375755       -10.2248
  23   2.0000      -0.362353        -9.8601
  24   2.0000      -0.338139        -9.2012
  25   2.0000      -0.329908        -8.9773
  26   2.0000      -0.323181        -8.7942
  27   2.0000      -0.298423        -8.1205
  28   2.0000      -0.292655        -7.9635
  29   2.0000      -0.251260        -6.8371
  30   2.0000      -0.229631        -6.2486
  31   2.0000      -0.204716        -5.5706
  32   0.0000      -0.053964        -1.4684
  33   0.0000      -0.034641        -0.9426
  34   0.0000       0.008843         0.2406
  35   0.0000       0.041012         1.1160
  36   0.0000       0.061240         1.6664

MULLIKEN ATOMIC CHARGES
-----------------------
   0 C :   -0.221102
   1 C :   -0.060888
   2 C :   -0.231723
   3 C :    0.142693
   4 C :   -0.124565
   5 C :   -0.045999
   6 C :   -0.049191
   7 C :   -0.042749
   8 C :   -0.129280
   9 H :    0.122567
  10 H :    0.103067
  11 H :    0.114153
  12 H :    0.095039
  13 H :    0.085468
  14 H :    0.046865
  15 H :    0.051873
  16 H :    0.053112
  17 H :    0.051153
  18 H :    0.039508
Sum of atomic charges:    0.0000000

LOEWDIN ATOMIC CHARGES
----------------------
   0 C :   -0.321510
   1 C :   -0.047996
   2 C :   -0.250267
   3 C :   -0.029684
   4 C :   -0.111778
   5 C :   -0.121237
   6 C :   -0.125221
   7 C :   -0.120763
   8 C :   -0.118334
   9 H :    0.132462
  10 H :    0.126997
  11 H :    0.129373
  12 H :    0.120785
  13 H :    0.119037
  14 H :    0.124972
  15 H :    0.123720
  16 H :    0.123265
  17 H :    0.123434
  18 H :    0.122746

  Mayer bond orders larger than 0.100000
B(  0-C ,  1-C ) :   1.1207 B(  0-C ,  9-H ) :   0.9180 B(  0-C , 10-H ) :   0.9384
B(  0-C , 11-H ) :   0.9357 B(  1-C ,  2-C ) :   1.9942 B(  1-C ,  3-C ) :   1.0192
B(  2-C , 12-H ) :   0.9059 B(  2-C , 13-H ) :   0.9055 B(  3-C ,  4-C ) :   1.3715
B(  3-C ,  8-C ) :   1.3608 B(  4-C ,  5-C ) :   1.3766 B(  4-C , 14-H ) :   0.9573
B(  5-C ,  6-C ) :   1.3711 B(  5-C , 15-H ) :   0.9631 B(  6-C ,  7-C ) :   1.3779
B(  6-C , 16-H ) :   0.9655 B(  7-C ,  8-C ) :   1.3769 B(  7-C , 17-H ) :   0.9624
B(  8-C , 18-H ) :   0.9569

Dispersion correction           -0.019942931
FINAL SINGLE POINT ENERGY      -348.165151375657

DIPOLE MOMENT
-------------

Method             : SCF
Type of density    : Electron Density
Multiplicity       :   1
Irrep              :   0
Energy             :  -348.2150452641030824 Eh
Relativity type    :
Basis              : AO
                                X                 Y                 Z
Electronic contribution:      4.600224366      -0.963431321      -0.423236650
Nuclear contribution   :     -4.612040817       1.099798667       0.466864341
                        -----------------------------------------
Total Dipole Moment    :     -0.011816451       0.136367346       0.043627690
                        -----------------------------------------
Magnitude (a.u.)       :      0.143662998
Magnitude (Debye)      :      0.365162320

Rotational constants in cm-1:             0.120680             0.040394             0.031823
Rotational constants in MHz :          3617.884758          1210.975783           954.020264

                             ****ORCA TERMINATED NORMALLY****
TOTAL RUN TIME: 0 days 0 hours 0 minutes 7 seconds 740 msec
