                         Program Version 6.0.0  -   RELEASE  -
|  1> ! pbe def2-sv(p) def2/J RI DEFGRID1 loosescf d4 GCP(DFT/SV(P)) printgap
|  2> %output
|  3>     printlevel normal
|  4> end
|  5> * xyz 0 1
|  6> C -1.7767482746 -1.0471177034 -0.6351720391
|  7> C -1.0743664096 -0.5032253344 0.6327377135
|  8> H -1.7356438939 -0.6178043608 1.4985294852
|  9> C -0.7294533273 0.9893711222 0.5291647883
| 10> H -1.6222745463 1.5026453198 0.1562618137
| 11> C 0.4316779656 1.2187581488 -0.4558820693
| 12> H 0.7702450714 2.2644996615 -0.357903558
| 13> C 1.6249451747 0.3343786947 -0.0435604461
| 14> H 2.3760413941 0.3228685227 -0.8416893992
| 15> C 1.2228095268 -1.1344237074 0.2023663173
| 16> H 2.0087265286 -1.5832923032 0.8311434439
| 17> O 0.0588652603 -1.2943985724 0.9744541005
| 18> O 1.1545340492 -1.7807696674 -1.033646634
| 19> O 2.2619178622 0.872116523 1.0860260078
| 20> O -0.0462076371 0.9827755622 -1.7534928473
| 21> O -0.3853156166 1.4493536912 1.8204637051
| 22> O -2.7510920692 -0.1731654657 -1.1518938854
| 23> H -2.2932063725 -1.9721113108 -0.3667100233
| 24> H -1.0196780999 -1.2659899756 -1.3905539137
| 25> H 1.0653353901 -2.7366374402 -0.902496982
| 26> H 1.5994150157 0.9579438004 1.795763626
| 27> H 0.6722148434 1.0822905454 -2.3935584425
| 28> H -0.5709978284 2.3957817383 1.895262947
| 29> H -2.3079385308 0.4575353536 -1.7386926843
| 30> *
| 31>
| 32>                          ****END OF INPUT****

CARTESIAN COORDINATES (ANGSTROEM)
---------------------------------
  C     -1.776748   -1.047118   -0.635172
  C     -1.074366   -0.503225    0.632738
  H     -1.735644   -0.617804    1.498529
  C     -0.729453    0.989371    0.529165
  H     -1.622275    1.502645    0.156262
  C      0.431678    1.218758   -0.455882
  H      0.770245    2.264500   -0.357904
  C      1.624945    0.334379   -0.043560
  H      2.376041    0.322869   -0.841689
  C      1.222810   -1.134424    0.202366
  H      2.008727   -1.583292    0.831143
  O      0.058865   -1.294399    0.974454
  O      1.154534   -1.780770   -1.033647
  O      2.261918    0.872117    1.086026
  O     -0.046208    0.982776   -1.753493
  O     -0.385316    1.449354    1.820464
  O     -2.751092   -0.173165   -1.151894
  H     -2.293206   -1.972111   -0.366710
  H     -1.019678   -1.265990   -1.390554
  H      1.065335   -2.736637   -0.902497
  H      1.599415    0.957944    1.795764
  H      0.672215    1.082291   -2.393558
  H     -0.570998    2.395782    1.895263
  H     -2.307939    0.457535   -1.738693

 Total Charge           Charge          ....    0
 Multiplicity           Mult            ....    1
 Number of Electrons    NEL             ....   96
 Basis Dimension        Dim             ....  192

ORBITAL ENERGIES
----------------

  NO   OCC          E(Eh)            E(eV)
   0   2.0000     -18.775070      -510.8956
   1   2.0000     -18.773728      -510.8591
   2   2.0000     -18.762759      -510.5606
   3   2.0000     -18.761312      -510.5213
   4   2.0000     -18.741483      -509.9817
   5   2.0000     -18.736447      -509.8447
   6   2.0000      -9.980718      -271.5891
   7   2.0000      -9.950131      -270.7568
   8   2.0000      -9.950044      -270.7545
   9   2.0000      -9.941240      -270.5149
  10   2.0000      -9.936355      -270.3820
  11   2.0000      -9.915301      -269.8090
  12   2.0000      -0.977605       -26.6020
  13   2.0000      -0.952967       -25.9315
  14   2.0000      -0.943959       -25.6864
  15   2.0000      -0.919115       -25.0104
  16   2.0000      -0.913714       -24.8634
  17   2.0000      -0.906621       -24.6704
  18   2.0000      -0.704875       -19.1806
  19   2.0000      -0.682471       -18.5710
  20   2.0000      -0.617671       -16.8077
  21   2.0000      -0.585312       -15.9271
  22   2.0000      -0.572528       -15.5793
  23   2.0000      -0.523123       -14.2349
  24   2.0000      -0.505494       -13.7552
  25   2.0000      -0.478183       -13.0120
  26   2.0000      -0.472681       -12.8623
  27   2.0000      -0.464523       -12.6403
  28   2.0000      -0.443503       -12.0683
  29   2.0000      -0.437230       -11.8976
  30   2.0000      -0.414407       -11.2766
  31   2.0000      -0.388396       -10.5688
  32   2.0000      -0.381379       -10.3779
  33   2.0000      -0.369786       -10.0624
  34   2.0000      -0.358369        -9.7517
  35   2.0000      -0.352784        -9.5997
  36   2.0000      -0.331786        -9.0284
  37   2.0000      -0.328570        -8.9408
  38   2.0000      -0.308327        -8.3900
  39   2.0000      -0.288289        -7.8448
  40   2.0000      -0.280763        -7.6399
  41   2.0000      -0.265657        -7.2289
  42   2.0000      -0.249991        -6.8026
  43   2.0000      -0.243603        -6.6288
  44   2.0000      -0.237143        -6.4530
  45   2.0000      -0.226150        -6.1539
  46   2.0000      -0.208780        -5.6812
  47   2.0000      -0.197898        -5.3851
  48   0.0000       0.004054         0.1103
  49   0.0000       0.010685         0.2907
  50   0.0000       0.031544         0.8584
  51   0.0000       0.059195         1.6108
  52   0.0000       0.066517         1.8100

MULLIKEN ATOMIC CHARGES
-----------------------
   0 C :    0.018753
   1 C :    0.055266
   2 H :    0.074538
   3 C :   -0.018407
   4 H :    0.076239
   5 C :    0.058390
   6 H :    0.057485
   7 C :    0.043472
   8 H :    0.066796
   9 C :    0.198955
  10 H :    0.069518
  11 O :   -0.318229
  12 O :   -0.395772
  13 O :   -0.433979
  14 O :   -0.413448
  15 O :   -0.415577
  16 O :   -0.443230
  17 H :    0.080313
  18 H :    0.101120
  19 H :    0.303729
  20 H :    0.301999
  21 H :    0.314160
  22 H :    0.312999
  23 H :    0.304913
Sum of atomic charges:   -0.0000000

LOEWDIN ATOMIC CHARGES
----------------------
   0 C :   -0.151751
   1 C :   -0.059153
   2 H :    0.119843
   3 C :   -0.078152
   4 H :    0.110955
   5 C :   -0.080098
   6 H :    0.096444
   7 C :   -0.080626
   8 H :    0.114760
   9 C :   -0.009223
  10 H :    0.101135
  11 O :   -0.144617
  12 O :   -0.311559
  13 O :   -0.319325
  14 O :   -0.305594
  15 O :   -0.304639
  16 O :   -0.339695
  17 H :    0.110010
  18 H :    0.106520
  19 H :    0.286322
  20 H :    0.272812
  21 H :    0.294289
  22 H :    0.295265
  23 H :    0.276077

  Mayer bond orders larger than 0.100000
B(  0-C ,  1-C ) :   1.0142 B(  0-C , 16-O ) :   1.0892 B(  0-C , 17-H ) :   0.9214
B(  0-C , 18-H ) :   0.8985 B(  1-C ,  2-H ) :   0.8908 B(  1-C ,  3-C ) :   1.0329
B(  1-C , 11-O ) :   0.9831 B(  3-C ,  4-H ) :   0.8824 B(  3-C ,  5-C ) :   0.9773
B(  3-C , 15-O ) :   1.0441 B(  5-C ,  6-H ) :   0.9019 B(  5-C ,  7-C ) :   0.9721
B(  5-C , 14-O ) :   1.0566 B(  7-C ,  8-H ) :   0.8892 B(  7-C ,  9-C ) :   0.9817
B(  7-C , 13-O ) :   1.0566 B(  9-C , 10-H ) :   0.9035 B(  9-C , 11-O ) :   1.0640
B(  9-C , 12-O ) :   1.1002 B( 12-O , 19-H ) :   0.8367 B( 13-O , 20-H ) :   0.8104
B( 14-O , 21-H ) :   0.8372 B( 15-O , 22-H ) :   0.8425 B( 16-O , 23-H ) :   0.8290

Dispersion correction           -0.026238868
FINAL SINGLE POINT ENERGY      -685.695689235200

DIPOLE MOMENT
-------------

Method             : SCF
Type of density    : Electron Density
Multiplicity       :   1
Irrep              :   0
Energy             :  -685.8280213255419540 Eh
Relativity type    :
Basis              : AO
                                X                 Y                 Z
Electronic contribution:      1.268913870      -0.219349931       1.278059707
Nuclear contribution   :     -0.988023560       0.758616037      -1.703305049
                        -----------------------------------------
Total Dipole Moment    :      0.280890311       0.539266106      -0.425245342
                        -----------------------------------------
Magnitude (a.u.)       :      0.741984434
Magnitude (Debye)      :      1.885974551

Rotational constants in cm-1:             0.040294             0.030009             0.025887
Rotational constants in MHz :          1207.982000           899.659776           776.085222

                             ****ORCA TERMINATED NORMALLY****
TOTAL RUN TIME: 0 days 0 hours 0 minutes 12 seconds 638 msec
