                         Program Version 6.0.0  -   RELEASE  -
|  1> ! pbe def2-sv(p) def2/J RI DEFGRID1 loosescf d4 GCP(DFT/SV(P)) printgap
|  2> %output
|  3>     printlevel normal
|  4> end
|  5> * xyz 0 1
|  6> C -2.7803769296 -0.4049101295 9.83343e-05
|  7> O -1.789832347 0.6049846651 -6.99184e-05
|  8> C -0.4751022935 0.2331649601 -3.78217e-05
|  9> C -0.0196225684 -1.07993525 -7.4525e-05
| 10> C 1.3429103132 -1.3335754195 -1.6251e-06
| 11> C 2.2569666235 -0.2968745001 4.98375e-05
| 12> C 1.8018650416 1.0132086755 2.65559e-05
| 13> C 0.4485567715 1.2794864389 -7.2899e-06
| 14> H -2.7083567369 -1.029020232 0.8947478908
| 15> H -2.7086098833 -1.0291104292 -0.8945160341
| 16> H -3.7297620818 0.1258296232 0.0002204318
| 17> H -0.7101929791 -1.9078336975 -0.000104299
| 18> H 1.6861161567 -2.3572200564 -2.254e-05
| 19> H 3.3155472787 -0.5046121923 7.16014e-05
| 20> H 2.5055458312 1.8315460891 5.71667e-05
| 21> H 0.0740249806 2.291059147 1.85164e-05
| 22> *
| 23>
| 24>                          ****END OF INPUT****

CARTESIAN COORDINATES (ANGSTROEM)
---------------------------------
  C     -2.780377   -0.404910    0.000098
  O     -1.789832    0.604985   -0.000070
  C     -0.475102    0.233165   -0.000038
  C     -0.019623   -1.079935   -0.000075
  C      1.342910   -1.333575   -0.000002
  C      2.256967   -0.296875    0.000050
  C      1.801865    1.013209    0.000027
  C      0.448557    1.279486   -0.000007
  H     -2.708357   -1.029020    0.894748
  H     -2.708610   -1.029110   -0.894516
  H     -3.729762    0.125830    0.000220
  H     -0.710193   -1.907834   -0.000104
  H      1.686116   -2.357220   -0.000023
  H      3.315547   -0.504612    0.000072
  H      2.505546    1.831546    0.000057
  H      0.074025    2.291059    0.000019

 Total Charge           Charge          ....    0
 Multiplicity           Mult            ....    1
 Number of Electrons    NEL             ....   58
 Basis Dimension        Dim             ....  128

ORBITAL ENERGIES
----------------

  NO   OCC          E(Eh)            E(eV)
   0   2.0000     -18.783085      -511.1137
   1   2.0000      -9.948168      -270.7034
   2   2.0000      -9.940669      -270.4994
   3   2.0000      -9.891436      -269.1596
   4   2.0000      -9.890013      -269.1209
   5   2.0000      -9.888976      -269.0927
   6   2.0000      -9.884243      -268.9639
   7   2.0000      -9.883222      -268.9361
   8   2.0000      -0.964952       -26.2577
   9   2.0000      -0.770230       -20.9590
  10   2.0000      -0.681574       -18.5466
  11   2.0000      -0.668613       -18.1939
  12   2.0000      -0.622502       -16.9391
  13   2.0000      -0.544422       -14.8145
  14   2.0000      -0.526766       -14.3340
  15   2.0000      -0.486152       -13.2289
  16   2.0000      -0.433538       -11.7972
  17   2.0000      -0.426870       -11.6157
  18   2.0000      -0.419751       -11.4220
  19   2.0000      -0.394910       -10.7461
  20   2.0000      -0.375592       -10.2204
  21   2.0000      -0.367509       -10.0004
  22   2.0000      -0.339020        -9.2252
  23   2.0000      -0.319494        -8.6939
  24   2.0000      -0.310276        -8.4430
  25   2.0000      -0.280137        -7.6229
  26   2.0000      -0.278318        -7.5734
  27   2.0000      -0.227285        -6.1847
  28   2.0000      -0.192258        -5.2316
  29   0.0000      -0.031734        -0.8635
  30   0.0000      -0.017325        -0.4715
  31   0.0000       0.040996         1.1156
  32   0.0000       0.054702         1.4885
  33   0.0000       0.081721         2.2238

MULLIKEN ATOMIC CHARGES
-----------------------
   0 C :   -0.115207
   1 O :   -0.271253
   2 C :    0.263743
   3 C :   -0.190933
   4 C :   -0.053986
   5 C :   -0.047949
   6 C :   -0.056187
   7 C :   -0.111378
   8 H :    0.110616
   9 H :    0.110619
  10 H :    0.125435
  11 H :    0.039283
  12 H :    0.051394
  13 H :    0.047713
  14 H :    0.053587
  15 H :    0.044503
Sum of atomic charges:   -0.0000000

LOEWDIN ATOMIC CHARGES
----------------------
   0 C :   -0.202173
   1 O :   -0.094561
   2 C :    0.032104
   3 C :   -0.176773
   4 C :   -0.115721
   5 C :   -0.147505
   6 C :   -0.116890
   7 C :   -0.142758
   8 H :    0.109274
   9 H :    0.109273
  10 H :    0.122409
  11 H :    0.125238
  12 H :    0.123080
  13 H :    0.121748
  14 H :    0.124077
  15 H :    0.129178

  Mayer bond orders larger than 0.100000
B(  0-C ,  1-O ) :   0.9900 B(  0-C ,  8-H ) :   0.9419 B(  0-C ,  9-H ) :   0.9419
B(  0-C , 10-H ) :   0.9592 B(  1-O ,  2-C ) :   1.1356 B(  2-C ,  3-C ) :   1.3076
B(  2-C ,  7-C ) :   1.3531 B(  3-C ,  4-C ) :   1.3544 B(  3-C , 11-H ) :   0.9625
B(  4-C ,  5-C ) :   1.3970 B(  4-C , 12-H ) :   0.9614 B(  5-C ,  6-C ) :   1.3513
B(  5-C , 13-H ) :   0.9675 B(  6-C ,  7-C ) :   1.3932 B(  6-C , 14-H ) :   0.9650
B(  7-C , 15-H ) :   0.9631

Dispersion correction           -0.015169620
FINAL SINGLE POINT ENERGY      -346.012466489084

DIPOLE MOMENT
-------------

Method             : SCF
Type of density    : Electron Density
Multiplicity       :   1
Irrep              :   0
Energy             :  -346.0623328499106606 Eh
Relativity type    :
Basis              : AO
                                X                 Y                 Z
Electronic contribution:      1.787085954       2.016605431      -0.000361125
Nuclear contribution   :     -2.161554964      -2.410910574       0.000442469
                        -----------------------------------------
Total Dipole Moment    :     -0.374469010      -0.394305143       0.000081344
                        -----------------------------------------
Magnitude (a.u.)       :      0.543786347
Magnitude (Debye)      :      1.382195050

Rotational constants in cm-1:             0.170517             0.052306             0.040337
Rotational constants in MHz :          5111.976591          1568.091123          1209.260563

                             ****ORCA TERMINATED NORMALLY****
TOTAL RUN TIME: 0 days 0 hours 0 minutes 8 seconds 872 msec
