                         Program Version 6.0.0  -   RELEASE  -
|  1> ! pbe def2-sv(p) def2/J RI DEFGRID1 loosescf d4 GCP(DFT/SV(P)) printgap
|  2> %output
|  3>     printlevel normal
|  4> end
|  5> * xyz 0 1
|  6> C 1.9200876703 0.1291586918 -0.5249392444
|  7> C 0.788119832 0.0525236867 0.4985025437
|  8> H 1.2200657085 -0.012337451 1.5058711889
|  9> C -0.1991391235 1.2227501959 0.3774724513
| 10> C -1.2874020054 0.6469343916 -0.5266177498
| 11> C -1.3083011564 -0.8131495234 -0.0805946378
| 12> O 0.0246738438 -1.1426068772 0.2888701353
| 13> H 1.5153991408 0.2410510635 -1.5272835169
| 14> H 2.5660370826 0.9727239422 -0.3001162666
| 15> H 2.5038222845 -0.7866386226 -0.4883523307
| 16> H -0.6143913696 1.4675837874 1.3551382928
| 17> H 0.2754640185 2.1067794441 -0.0392782072
| 18> H -2.2518580625 1.1291918192 -0.3947129626
| 19> H -0.9917159701 0.7169581042 -1.5731559017
| 20> H -1.9617620761 -0.9461321245 0.7931484689
| 21> H -1.6203676605 -1.5069103179 -0.863968234
| 22> *
| 23>
| 24>                          ****END OF INPUT****

CARTESIAN COORDINATES (ANGSTROEM)
---------------------------------
  C      1.920088    0.129159   -0.524939
  C      0.788120    0.052524    0.498503
  H      1.220066   -0.012337    1.505871
  C     -0.199139    1.222750    0.377472
  C     -1.287402    0.646934   -0.526618
  C     -1.308301   -0.813150   -0.080595
  O      0.024674   -1.142607    0.288870
  H      1.515399    0.241051   -1.527284
  H      2.566037    0.972724   -0.300116
  H      2.503822   -0.786639   -0.488352
  H     -0.614391    1.467584    1.355138
  H      0.275464    2.106779   -0.039278
  H     -2.251858    1.129192   -0.394713
  H     -0.991716    0.716958   -1.573156
  H     -1.961762   -0.946132    0.793148
  H     -1.620368   -1.506910   -0.863968

 Total Charge           Charge          ....    0
 Multiplicity           Mult            ....    1
 Number of Electrons    NEL             ....   48
 Basis Dimension        Dim             ....  104

ORBITAL ENERGIES
----------------

  NO   OCC          E(Eh)            E(eV)
   0   2.0000     -18.740062      -509.9430
   1   2.0000      -9.933132      -270.2943
   2   2.0000      -9.924837      -270.0685
   3   2.0000      -9.890256      -269.1276
   4   2.0000      -9.888767      -269.0870
   5   2.0000      -9.870514      -268.5903
   6   2.0000      -0.927961       -25.2511
   7   2.0000      -0.708286       -19.2735
   8   2.0000      -0.684402       -18.6235
   9   2.0000      -0.602289       -16.3891
  10   2.0000      -0.532637       -14.4938
  11   2.0000      -0.503458       -13.6998
  12   2.0000      -0.447005       -12.1636
  13   2.0000      -0.434826       -11.8322
  14   2.0000      -0.397827       -10.8254
  15   2.0000      -0.376492       -10.2449
  16   2.0000      -0.351067        -9.5530
  17   2.0000      -0.348541        -9.4843
  18   2.0000      -0.337419        -9.1816
  19   2.0000      -0.310025        -8.4362
  20   2.0000      -0.292681        -7.9642
  21   2.0000      -0.286689        -7.8012
  22   2.0000      -0.261725        -7.1219
  23   2.0000      -0.192008        -5.2248
  24   0.0000       0.031889         0.8677
  25   0.0000       0.053745         1.4625
  26   0.0000       0.070424         1.9163
  27   0.0000       0.089889         2.4460
  28   0.0000       0.096619         2.6291

MULLIKEN ATOMIC CHARGES
-----------------------
   0 C :   -0.227994
   1 C :    0.020086
   2 H :    0.066830
   3 C :   -0.174231
   4 C :   -0.204957
   5 C :    0.037223
   6 O :   -0.350521
   7 H :    0.088037
   8 H :    0.092508
   9 H :    0.110276
  10 H :    0.090457
  11 H :    0.095798
  12 H :    0.098011
  13 H :    0.096345
  14 H :    0.073431
  15 H :    0.088701
Sum of atomic charges:   -0.0000000

LOEWDIN ATOMIC CHARGES
----------------------
   0 C :   -0.347277
   1 C :   -0.042639
   2 H :    0.104266
   3 C :   -0.234685
   4 C :   -0.244302
   5 C :   -0.105958
   6 O :   -0.183466
   7 H :    0.116101
   8 H :    0.118998
   9 H :    0.124950
  10 H :    0.121283
  11 H :    0.123169
  12 H :    0.124407
  13 H :    0.120589
  14 H :    0.095991
  15 H :    0.108574

  Mayer bond orders larger than 0.100000
B(  0-C ,  1-C ) :   1.1181 B(  0-C ,  7-H ) :   0.9442 B(  0-C ,  8-H ) :   0.9389
B(  0-C ,  9-H ) :   0.9441 B(  1-C ,  2-H ) :   0.9123 B(  1-C ,  3-C ) :   1.0782
B(  1-C ,  6-O ) :   1.0113 B(  3-C ,  4-C ) :   1.1239 B(  3-C , 10-H ) :   0.9182
B(  3-C , 11-H ) :   0.9269 B(  4-C ,  5-C ) :   1.1161 B(  4-C , 12-H ) :   0.9230
B(  4-C , 13-H ) :   0.9182 B(  5-C ,  6-O ) :   1.0176 B(  5-C , 14-H ) :   0.9269
B(  5-C , 15-H ) :   0.9324

Dispersion correction           -0.012223118
FINAL SINGLE POINT ENERGY      -271.126630347979

DIPOLE MOMENT
-------------

Method             : SCF
Type of density    : Electron Density
Multiplicity       :   1
Irrep              :   0
Energy             :  -271.1873914183318561 Eh
Relativity type    :
Basis              : AO
                                X                 Y                 Z
Electronic contribution:     -0.814232119      -2.589721204       1.342522535
Nuclear contribution   :      0.601447506       3.156159251      -1.433649642
                        -----------------------------------------
Total Dipole Moment    :     -0.212784612       0.566438047      -0.091127108
                        -----------------------------------------
Magnitude (a.u.)       :      0.611909718
Magnitude (Debye)      :      1.555350896

Rotational constants in cm-1:             0.190303             0.115227             0.089628
Rotational constants in MHz :          5705.152495          3454.410698          2686.979650

                             ****ORCA TERMINATED NORMALLY****
TOTAL RUN TIME: 0 days 0 hours 0 minutes 6 seconds 547 msec
