                         Program Version 6.0.0  -   RELEASE  -
|  1> ! pbe def2-sv(p) def2/J RI DEFGRID1 loosescf d4 GCP(DFT/SV(P)) printgap
|  2> %output
|  3>     printlevel normal
|  4> end
|  5> * xyz 0 1
|  6> C -2.1425840345 -1.0209875399 -0.4910768491
|  7> C -1.2169537968 -0.1744859945 0.4039698426
|  8> H -1.7833996508 0.2063400141 1.2629906828
|  9> C -0.6508106126 1.0393083656 -0.3670907541
| 10> H -0.5606048698 0.7884942689 -1.4356467824
| 11> C 0.7539325324 1.3423548214 0.1698116902
| 12> H 0.7024329448 1.4797589512 1.255427285
| 13> C 1.6597849038 0.140627747 -0.143787694
| 14> H 1.8307293364 0.0932181063 -1.23186237
| 15> C 0.9721030037 -1.1751611332 0.2689520178
| 16> H 1.6389321623 -1.6955809483 0.9715322188
| 17> O -0.199429363 -0.9676411257 1.0108063135
| 18> O 0.7523568656 -1.9264056486 -0.8835617714
| 19> O 2.88602177 0.2316675643 0.5328873049
| 20> O 1.3068424569 2.5281303267 -0.3339749936
| 21> O -1.4483360045 2.1830834086 -0.1926598265
| 22> O -2.6239425365 -2.1739314813 0.1490216243
| 23> H -1.5886103874 -1.3756771287 -1.3627731035
| 24> H -2.9756860567 -0.3897531935 -0.8290429355
| 25> H 0.4444140574 -2.8143469694 -0.6436308158
| 26> H 3.22686488 1.1347870024 0.4287460846
| 27> H 1.1621011005 2.5832951322 -1.2899046985
| 28> H -2.2762537159 2.0961677632 -0.6848797638
| 29> H -3.0698542703 -1.9281805025 0.9717671783
| 30> *
| 31>
| 32>                          ****END OF INPUT****

CARTESIAN COORDINATES (ANGSTROEM)
---------------------------------
  C     -2.142584   -1.020988   -0.491077
  C     -1.216954   -0.174486    0.403970
  H     -1.783400    0.206340    1.262991
  C     -0.650811    1.039308   -0.367091
  H     -0.560605    0.788494   -1.435647
  C      0.753933    1.342355    0.169812
  H      0.702433    1.479759    1.255427
  C      1.659785    0.140628   -0.143788
  H      1.830729    0.093218   -1.231862
  C      0.972103   -1.175161    0.268952
  H      1.638932   -1.695581    0.971532
  O     -0.199429   -0.967641    1.010806
  O      0.752357   -1.926406   -0.883562
  O      2.886022    0.231668    0.532887
  O      1.306842    2.528130   -0.333975
  O     -1.448336    2.183083   -0.192660
  O     -2.623943   -2.173931    0.149022
  H     -1.588610   -1.375677   -1.362773
  H     -2.975686   -0.389753   -0.829043
  H      0.444414   -2.814347   -0.643631
  H      3.226865    1.134787    0.428746
  H      1.162101    2.583295   -1.289905
  H     -2.276254    2.096168   -0.684880
  H     -3.069854   -1.928181    0.971767

 Total Charge           Charge          ....    0
 Multiplicity           Mult            ....    1
 Number of Electrons    NEL             ....   96
 Basis Dimension        Dim             ....  192

ORBITAL ENERGIES
----------------

  NO   OCC          E(Eh)            E(eV)
   0   2.0000     -18.764685      -510.6130
   1   2.0000     -18.764232      -510.6007
   2   2.0000     -18.761827      -510.5353
   3   2.0000     -18.757083      -510.4062
   4   2.0000     -18.751412      -510.2519
   5   2.0000     -18.746352      -510.1142
   6   2.0000      -9.982694      -271.6429
   7   2.0000      -9.952350      -270.8172
   8   2.0000      -9.946451      -270.6567
   9   2.0000      -9.942203      -270.5411
  10   2.0000      -9.937141      -270.4034
  11   2.0000      -9.935798      -270.3668
  12   2.0000      -0.980125       -26.6706
  13   2.0000      -0.949261       -25.8307
  14   2.0000      -0.934076       -25.4175
  15   2.0000      -0.927868       -25.2486
  16   2.0000      -0.915764       -24.9192
  17   2.0000      -0.909762       -24.7559
  18   2.0000      -0.708226       -19.2718
  19   2.0000      -0.691047       -18.8043
  20   2.0000      -0.625374       -17.0173
  21   2.0000      -0.580183       -15.7876
  22   2.0000      -0.574684       -15.6379
  23   2.0000      -0.523761       -14.2523
  24   2.0000      -0.510354       -13.8874
  25   2.0000      -0.500258       -13.6127
  26   2.0000      -0.469849       -12.7852
  27   2.0000      -0.453830       -12.3493
  28   2.0000      -0.438008       -11.9188
  29   2.0000      -0.429626       -11.6907
  30   2.0000      -0.413971       -11.2647
  31   2.0000      -0.399538       -10.8720
  32   2.0000      -0.391464       -10.6523
  33   2.0000      -0.387505       -10.5445
  34   2.0000      -0.360233        -9.8024
  35   2.0000      -0.355835        -9.6828
  36   2.0000      -0.326923        -8.8960
  37   2.0000      -0.318059        -8.6548
  38   2.0000      -0.301845        -8.2136
  39   2.0000      -0.292277        -7.9533
  40   2.0000      -0.279034        -7.5929
  41   2.0000      -0.266856        -7.2615
  42   2.0000      -0.258682        -7.0391
  43   2.0000      -0.240896        -6.5551
  44   2.0000      -0.235782        -6.4160
  45   2.0000      -0.224746        -6.1157
  46   2.0000      -0.213506        -5.8098
  47   2.0000      -0.203241        -5.5305
  48   0.0000       0.004697         0.1278
  49   0.0000       0.018133         0.4934
  50   0.0000       0.031206         0.8492
  51   0.0000       0.034757         0.9458
  52   0.0000       0.054447         1.4816

MULLIKEN ATOMIC CHARGES
-----------------------
   0 C :    0.042999
   1 C :    0.040105
   2 H :    0.065139
   3 C :   -0.031695
   4 H :    0.050127
   5 C :    0.071696
   6 H :    0.072552
   7 C :    0.063018
   8 H :    0.048926
   9 C :    0.196200
  10 H :    0.076055
  11 O :   -0.307959
  12 O :   -0.401458
  13 O :   -0.415662
  14 O :   -0.409620
  15 O :   -0.393101
  16 O :   -0.426946
  17 H :    0.094957
  18 H :    0.052279
  19 H :    0.312062
  20 H :    0.303548
  21 H :    0.297887
  22 H :    0.302653
  23 H :    0.296239
Sum of atomic charges:   -0.0000000

LOEWDIN ATOMIC CHARGES
----------------------
   0 C :   -0.145198
   1 C :   -0.077824
   2 H :    0.113569
   3 C :   -0.080367
   4 H :    0.098677
   5 C :   -0.076350
   6 H :    0.124745
   7 C :   -0.082094
   8 H :    0.099543
   9 C :    0.002316
  10 H :    0.107197
  11 O :   -0.142171
  12 O :   -0.307439
  13 O :   -0.318149
  14 O :   -0.304988
  15 O :   -0.312007
  16 O :   -0.332727
  17 H :    0.114782
  18 H :    0.087304
  19 H :    0.291649
  20 H :    0.284507
  21 H :    0.285206
  22 H :    0.285976
  23 H :    0.283842

  Mayer bond orders larger than 0.100000
B(  0-C ,  1-C ) :   1.0396 B(  0-C , 16-O ) :   1.0825 B(  0-C , 17-H ) :   0.8968
B(  0-C , 18-H ) :   0.9115 B(  1-C ,  2-H ) :   0.8839 B(  1-C ,  3-C ) :   0.9736
B(  1-C , 11-O ) :   1.0083 B(  3-C ,  4-H ) :   0.8814 B(  3-C ,  5-C ) :   1.0108
B(  3-C , 15-O ) :   1.0948 B(  5-C ,  6-H ) :   0.8544 B(  5-C ,  7-C ) :   1.0259
B(  5-C , 14-O ) :   1.0551 B(  7-C ,  8-H ) :   0.8744 B(  7-C ,  9-C ) :   0.9750
B(  7-C , 13-O ) :   1.0901 B(  9-C , 10-H ) :   0.8921 B(  9-C , 11-O ) :   1.0778
B(  9-C , 12-O ) :   1.1095 B( 12-O , 19-H ) :   0.8328 B( 13-O , 20-H ) :   0.8350
B( 14-O , 21-H ) :   0.8474 B( 15-O , 22-H ) :   0.8461 B( 16-O , 23-H ) :   0.8519

Dispersion correction           -0.024469877
FINAL SINGLE POINT ENERGY      -685.687409545616

DIPOLE MOMENT
-------------

Method             : SCF
Type of density    : Electron Density
Multiplicity       :   1
Irrep              :   0
Energy             :  -685.8164301799290570 Eh
Relativity type    :
Basis              : AO
                                X                 Y                 Z
Electronic contribution:      2.210187565       0.001080779       1.801199018
Nuclear contribution   :     -3.038075479       0.165631223      -2.423120617
                        -----------------------------------------
Total Dipole Moment    :     -0.827887915       0.166712002      -0.621921599
                        -----------------------------------------
Magnitude (a.u.)       :      1.048798249
Magnitude (Debye)      :      2.665833291

Rotational constants in cm-1:             0.042316             0.026612             0.018345
Rotational constants in MHz :          1268.602320           797.806563           549.961969

                             ****ORCA TERMINATED NORMALLY****
TOTAL RUN TIME: 0 days 0 hours 0 minutes 11 seconds 667 msec
