                         Program Version 6.0.0  -   RELEASE  -
|  1> ! pbe def2-sv(p) def2/J RI DEFGRID1 loosescf d4 GCP(DFT/SV(P)) printgap
|  2> %output
|  3>     printlevel normal
|  4> end
|  5> * xyz 0 1
|  6> C -2.1161183196 -1.1901796407 -0.1925832918
|  7> C -1.2549940622 -0.3390349039 0.760811927
|  8> H -1.8413248326 -0.1466481227 1.6648481025
|  9> C -0.905689681 1.0226579466 0.1348026665
| 10> H -1.1588575969 1.0088322844 -0.936828354
| 11> C 0.5995909707 1.285983723 0.2521835109
| 12> H 0.8601375929 1.3829285006 1.3200539083
| 13> C 1.357031724 0.1000140198 -0.355960273
| 14> H 1.05592978 -0.01583988 -1.4028748053
| 15> C 0.9953399293 -1.1883324577 0.408827473
| 16> H 1.8130975726 -1.4409871216 1.0995522584
| 17> O -0.1123036315 -1.0322183926 1.2593965712
| 18> O 0.8126145549 -2.216477939 -0.5197524827
| 19> O 2.7381427845 0.3430422673 -0.3927750812
| 20> O 0.8978683821 2.4829673869 -0.4228481446
| 21> O -1.6584975445 2.0088441391 0.7962899636
| 22> O -1.6164611648 -1.2783116604 -1.503032227
| 23> H -3.0933695634 -0.7113515336 -0.2771084867
| 24> H -2.24227259 -2.1867156148 0.247508713
| 25> H 0.7850917277 -3.0771565649 -0.0726745294
| 26> H 3.0951069886 0.3960953521 0.507025623
| 27> H 1.8247353557 2.4543075743 -0.7086284192
| 28> H -1.399791153 2.8750502681 0.4466947193
| 29> H -0.7586388291 -1.7442444327 -1.4758218079
| 30> *
| 31>
| 32>                          ****END OF INPUT****

CARTESIAN COORDINATES (ANGSTROEM)
---------------------------------
  C     -2.116118   -1.190180   -0.192583
  C     -1.254994   -0.339035    0.760812
  H     -1.841325   -0.146648    1.664848
  C     -0.905690    1.022658    0.134803
  H     -1.158858    1.008832   -0.936828
  C      0.599591    1.285984    0.252184
  H      0.860138    1.382929    1.320054
  C      1.357032    0.100014   -0.355960
  H      1.055930   -0.015840   -1.402875
  C      0.995340   -1.188332    0.408827
  H      1.813098   -1.440987    1.099552
  O     -0.112304   -1.032218    1.259397
  O      0.812615   -2.216478   -0.519752
  O      2.738143    0.343042   -0.392775
  O      0.897868    2.482967   -0.422848
  O     -1.658498    2.008844    0.796290
  O     -1.616461   -1.278312   -1.503032
  H     -3.093370   -0.711352   -0.277108
  H     -2.242273   -2.186716    0.247509
  H      0.785092   -3.077157   -0.072675
  H      3.095107    0.396095    0.507026
  H      1.824735    2.454308   -0.708628
  H     -1.399791    2.875050    0.446695
  H     -0.758639   -1.744244   -1.475822

 Total Charge           Charge          ....    0
 Multiplicity           Mult            ....    1
 Number of Electrons    NEL             ....   96
 Basis Dimension        Dim             ....  192

ORBITAL ENERGIES
----------------

  NO   OCC          E(Eh)            E(eV)
   0   2.0000     -18.792884      -511.3804
   1   2.0000     -18.775367      -510.9037
   2   2.0000     -18.775022      -510.8943
   3   2.0000     -18.753805      -510.3170
   4   2.0000     -18.743455      -510.0354
   5   2.0000     -18.735271      -509.8127
   6   2.0000     -10.004159      -272.2270
   7   2.0000      -9.953714      -270.8543
   8   2.0000      -9.941696      -270.5273
   9   2.0000      -9.940786      -270.5025
  10   2.0000      -9.935525      -270.3594
  11   2.0000      -9.926258      -270.1072
  12   2.0000      -0.996184       -27.1075
  13   2.0000      -0.957172       -26.0460
  14   2.0000      -0.937137       -25.5008
  15   2.0000      -0.927401       -25.2359
  16   2.0000      -0.912984       -24.8436
  17   2.0000      -0.910033       -24.7633
  18   2.0000      -0.704742       -19.1770
  19   2.0000      -0.698616       -19.0103
  20   2.0000      -0.623532       -16.9672
  21   2.0000      -0.590188       -16.0598
  22   2.0000      -0.573128       -15.5956
  23   2.0000      -0.533990       -14.5306
  24   2.0000      -0.511244       -13.9117
  25   2.0000      -0.495857       -13.4930
  26   2.0000      -0.469126       -12.7656
  27   2.0000      -0.463293       -12.6068
  28   2.0000      -0.444544       -12.0967
  29   2.0000      -0.428783       -11.6678
  30   2.0000      -0.425907       -11.5895
  31   2.0000      -0.408176       -11.1070
  32   2.0000      -0.394953       -10.7472
  33   2.0000      -0.369498       -10.0545
  34   2.0000      -0.359730        -9.7888
  35   2.0000      -0.347852        -9.4655
  36   2.0000      -0.337024        -9.1709
  37   2.0000      -0.323160        -8.7936
  38   2.0000      -0.304046        -8.2735
  39   2.0000      -0.299649        -8.1539
  40   2.0000      -0.288317        -7.8455
  41   2.0000      -0.280001        -7.6192
  42   2.0000      -0.256842        -6.9890
  43   2.0000      -0.254171        -6.9163
  44   2.0000      -0.243920        -6.6374
  45   2.0000      -0.221235        -6.0201
  46   2.0000      -0.211181        -5.7465
  47   2.0000      -0.202967        -5.5230
  48   0.0000       0.006130         0.1668
  49   0.0000       0.008112         0.2207
  50   0.0000       0.035128         0.9559
  51   0.0000       0.057397         1.5619
  52   0.0000       0.061413         1.6711

MULLIKEN ATOMIC CHARGES
-----------------------
   0 C :    0.025142
   1 C :    0.041287
   2 H :    0.082887
   3 C :    0.058220
   4 H :    0.076322
   5 C :    0.053307
   6 H :    0.042499
   7 C :   -0.007123
   8 H :    0.082913
   9 C :    0.204185
  10 H :    0.054273
  11 O :   -0.309250
  12 O :   -0.397906
  13 O :   -0.412273
  14 O :   -0.423488
  15 O :   -0.419265
  16 O :   -0.447344
  17 H :    0.096141
  18 H :    0.069157
  19 H :    0.314986
  20 H :    0.302513
  21 H :    0.302335
  22 H :    0.308152
  23 H :    0.302329
Sum of atomic charges:   -0.0000000

LOEWDIN ATOMIC CHARGES
----------------------
   0 C :   -0.134100
   1 C :   -0.066346
   2 H :    0.128970
   3 C :   -0.069143
   4 H :    0.110563
   5 C :   -0.085936
   6 H :    0.097735
   7 C :   -0.092616
   8 H :    0.126811
   9 C :   -0.006875
  10 H :    0.100192
  11 O :   -0.146795
  12 O :   -0.295005
  13 O :   -0.303086
  14 O :   -0.326879
  15 O :   -0.320681
  16 O :   -0.348475
  17 H :    0.121869
  18 H :    0.096416
  19 H :    0.293611
  20 H :    0.285179
  21 H :    0.282130
  22 H :    0.288246
  23 H :    0.264213

  Mayer bond orders larger than 0.100000
B(  0-C ,  1-C ) :   1.0404 B(  0-C , 16-O ) :   1.0958 B(  0-C , 17-H ) :   0.9193
B(  0-C , 18-H ) :   0.9124 B(  1-C ,  2-H ) :   0.8759 B(  1-C ,  3-C ) :   0.9895
B(  1-C , 11-O ) :   0.9944 B(  3-C ,  4-H ) :   0.8763 B(  3-C ,  5-C ) :   1.0252
B(  3-C , 15-O ) :   1.0713 B(  5-C ,  6-H ) :   0.8620 B(  5-C ,  7-C ) :   1.0109
B(  5-C , 14-O ) :   1.0937 B(  7-C ,  8-H ) :   0.8654 B(  7-C ,  9-C ) :   0.9831
B(  7-C , 13-O ) :   1.0163 B(  9-C , 10-H ) :   0.8911 B(  9-C , 11-O ) :   1.0966
B(  9-C , 12-O ) :   1.0725 B( 12-O , 19-H ) :   0.8319 B( 12-O , 23-H ) :   0.1117
B( 13-O , 20-H ) :   0.8440 B( 14-O , 21-H ) :   0.8252 B( 15-O , 22-H ) :   0.8403
B( 16-O , 23-H ) :   0.7911

Dispersion correction           -0.025175529
FINAL SINGLE POINT ENERGY      -685.700192256865

DIPOLE MOMENT
-------------

Method             : SCF
Type of density    : Electron Density
Multiplicity       :   1
Irrep              :   0
Energy             :  -685.8327741011650005 Eh
Relativity type    :
Basis              : AO
                                X                 Y                 Z
Electronic contribution:      2.047671016       0.546149521       0.327086625
Nuclear contribution   :     -0.978882696      -1.126618612       0.374693039
                        -----------------------------------------
Total Dipole Moment    :      1.068788320      -0.580469091       0.701779665
                        -----------------------------------------
Magnitude (a.u.)       :      1.404189281
Magnitude (Debye)      :      3.569165505

Rotational constants in cm-1:             0.036118             0.032369             0.021343
Rotational constants in MHz :          1082.786269           970.400409           639.850729

                             ****ORCA TERMINATED NORMALLY****
TOTAL RUN TIME: 0 days 0 hours 0 minutes 12 seconds 418 msec
