                         Program Version 6.0.0  -   RELEASE  -
|  1> ! pbe def2-sv(p) def2/J RI DEFGRID1 loosescf d4 GCP(DFT/SV(P)) printgap
|  2> %output
|  3>     printlevel normal
|  4> end
|  5> * xyz 0 1
|  6> C 1.0398581601 -1.255943744 0.2257984017
|  7> C 0.5215336653 -0.0024501869 -0.484699458
|  8> C 1.0278177003 1.2589611408 0.2195257918
|  9> C -0.9850296161 -0.0153504083 -0.5551306916
| 10> C -1.7882556255 0.0139580815 0.4923955305
| 11> H 0.6872519251 -2.1520835976 -0.2796932219
| 12> H 0.6897377556 -1.2819140477 1.2542917003
| 13> H 2.1272449739 -1.2640764523 0.2292776343
| 14> H 0.9139600369 -0.0028945646 -1.5070468192
| 15> H 2.1150621262 1.2804389687 0.2156196118
| 16> H 0.6608931957 2.1491156442 -0.2863541319
| 17> H 0.6854469642 1.2842144763 1.2505020265
| 18> H -1.4116437507 -0.0564274023 -1.5487848523
| 19> H -2.8595399776 -0.0003343938 0.3868802688
| 20> H -1.4149462128 0.0537935549 1.5020671558
| 21> *
| 22>
| 23>                          ****END OF INPUT****

CARTESIAN COORDINATES (ANGSTROEM)
---------------------------------
  C      1.039858   -1.255944    0.225798
  C      0.521534   -0.002450   -0.484699
  C      1.027818    1.258961    0.219526
  C     -0.985030   -0.015350   -0.555131
  C     -1.788256    0.013958    0.492396
  H      0.687252   -2.152084   -0.279693
  H      0.689738   -1.281914    1.254292
  H      2.127245   -1.264076    0.229278
  H      0.913960   -0.002895   -1.507047
  H      2.115062    1.280439    0.215620
  H      0.660893    2.149116   -0.286354
  H      0.685447    1.284214    1.250502
  H     -1.411644   -0.056427   -1.548785
  H     -2.859540   -0.000334    0.386880
  H     -1.414946    0.053794    1.502067

 Total Charge           Charge          ....    0
 Multiplicity           Mult            ....    1
 Number of Electrons    NEL             ....   40
 Basis Dimension        Dim             ....   90

ORBITAL ENERGIES
----------------

  NO   OCC          E(Eh)            E(eV)
   0   2.0000      -9.897412      -269.3223
   1   2.0000      -9.887840      -269.0618
   2   2.0000      -9.873505      -268.6717
   3   2.0000      -9.873312      -268.6665
   4   2.0000      -9.872814      -268.6529
   5   2.0000      -0.734213       -19.9790
   6   2.0000      -0.655624       -17.8404
   7   2.0000      -0.609593       -16.5879
   8   2.0000      -0.547958       -14.9107
   9   2.0000      -0.468537       -12.7495
  10   2.0000      -0.437300       -11.8995
  11   2.0000      -0.391991       -10.6666
  12   2.0000      -0.367209        -9.9923
  13   2.0000      -0.364531        -9.9194
  14   2.0000      -0.344031        -9.3616
  15   2.0000      -0.339775        -9.2458
  16   2.0000      -0.299770        -8.1572
  17   2.0000      -0.288665        -7.8550
  18   2.0000      -0.277381        -7.5479
  19   2.0000      -0.224022        -6.0960
  20   0.0000      -0.017178        -0.4674
  21   0.0000       0.039056         1.0628
  22   0.0000       0.059669         1.6237
  23   0.0000       0.082381         2.2417
  24   0.0000       0.095957         2.6111

MULLIKEN ATOMIC CHARGES
-----------------------
   0 C :   -0.239885
   1 C :   -0.137295
   2 C :   -0.241118
   3 C :   -0.089361
   4 C :   -0.218999
   5 H :    0.101962
   6 H :    0.097566
   7 H :    0.096859
   8 H :    0.065798
   9 H :    0.096683
  10 H :    0.102671
  11 H :    0.097754
  12 H :    0.068845
  13 H :    0.098804
  14 H :    0.099717
Sum of atomic charges:   -0.0000000

LOEWDIN ATOMIC CHARGES
----------------------
   0 C :   -0.322121
   1 C :   -0.157994
   2 C :   -0.322585
   3 C :   -0.124396
   4 C :   -0.252640
   5 H :    0.119549
   6 H :    0.116973
   7 H :    0.115967
   8 H :    0.116536
   9 H :    0.116135
  10 H :    0.119723
  11 H :    0.116759
  12 H :    0.119298
  13 H :    0.122038
  14 H :    0.116757

  Mayer bond orders larger than 0.100000
B(  0-C ,  1-C ) :   1.1044 B(  0-C ,  5-H ) :   0.9523 B(  0-C ,  6-H ) :   0.9498
B(  0-C ,  7-H ) :   0.9499 B(  1-C ,  2-C ) :   1.1058 B(  1-C ,  3-C ) :   1.0337
B(  1-C ,  8-H ) :   0.8998 B(  2-C ,  9-H ) :   0.9500 B(  2-C , 10-H ) :   0.9527
B(  2-C , 11-H ) :   0.9490 B(  3-C ,  4-C ) :   2.0619 B(  3-C , 12-H ) :   0.9360
B(  4-C , 13-H ) :   0.9228 B(  4-C , 14-H ) :   0.9209

Dispersion correction           -0.010669117
FINAL SINGLE POINT ENERGY      -196.023525602744

DIPOLE MOMENT
-------------

Method             : SCF
Type of density    : Electron Density
Multiplicity       :   1
Irrep              :   0
Energy             :  -196.0712447590078966 Eh
Relativity type    :
Basis              : AO
                                X                 Y                 Z
Electronic contribution:     -1.953004280      -0.012731359      -1.208985199
Nuclear contribution   :      2.057848162       0.009224276       1.141528911
                        -----------------------------------------
Total Dipole Moment    :      0.104843882      -0.003507083      -0.067456288
                        -----------------------------------------
Magnitude (a.u.)       :      0.124719245
Magnitude (Debye)      :      0.317011127

Rotational constants in cm-1:             0.224625             0.135686             0.107377
Rotational constants in MHz :          6734.091223          4067.749874          3219.096062

                             ****ORCA TERMINATED NORMALLY****
TOTAL RUN TIME: 0 days 0 hours 0 minutes 5 seconds 725 msec
