                         Program Version 6.0.0  -   RELEASE  -
|  1> ! pbe def2-sv(p) def2/J RI DEFGRID1 loosescf d4 GCP(DFT/SV(P)) printgap
|  2> %output
|  3>     printlevel normal
|  4> end
|  5> * xyz 0 1
|  6> C -2.4722095641 -1.1798267541 -0.0015362982
|  7> C -1.687691628 0.101569185 7.6193e-06
|  8> O -2.2499962928 1.1878413315 0.0018622329
|  9> C -0.2104649852 0.0056839485 -0.0003324866
| 10> C 0.4732799553 -1.2111597456 0.0006064407
| 11> C 1.8555835522 -1.2297761023 0.0009076579
| 12> C 2.5738847652 -0.0439052497 0.0002451379
| 13> C 1.9051254922 1.1704122993 -0.0008400007
| 14> C 0.5246472752 1.1937026754 -0.0011274186
| 15> H -2.2260998182 -1.7637159863 -0.8846305028
| 16> H -3.5342404714 -0.9487245358 -0.0030894362
| 17> H -2.2289665715 -1.7634051982 0.8826160306
| 18> H -0.0661547928 -2.143877951 0.0012194731
| 19> H 2.3775972419 -2.1742604722 0.0017293251
| 20> H 3.6527950007 -0.0658952659 0.0006151241
| 21> H 2.4594207358 2.0962631741 -0.0014249911
| 22> H -0.017495853 2.1282105593 -0.0019359706
| 23> *
| 24>
| 25>                          ****END OF INPUT****

CARTESIAN COORDINATES (ANGSTROEM)
---------------------------------
  C     -2.472210   -1.179827   -0.001536
  C     -1.687692    0.101569    0.000008
  O     -2.249996    1.187841    0.001862
  C     -0.210465    0.005684   -0.000332
  C      0.473280   -1.211160    0.000606
  C      1.855584   -1.229776    0.000908
  C      2.573885   -0.043905    0.000245
  C      1.905125    1.170412   -0.000840
  C      0.524647    1.193703   -0.001127
  H     -2.226100   -1.763716   -0.884631
  H     -3.534240   -0.948725   -0.003089
  H     -2.228967   -1.763405    0.882616
  H     -0.066155   -2.143878    0.001219
  H      2.377597   -2.174260    0.001729
  H      3.652795   -0.065895    0.000615
  H      2.459421    2.096263   -0.001425
  H     -0.017496    2.128211   -0.001936

 Total Charge           Charge          ....    0
 Multiplicity           Mult            ....    1
 Number of Electrons    NEL             ....   64
 Basis Dimension        Dim             ....  142

ORBITAL ENERGIES
----------------

  NO   OCC          E(Eh)            E(eV)
   0   2.0000     -18.736264      -509.8397
   1   2.0000      -9.973189      -271.3843
   2   2.0000      -9.908352      -269.6200
   3   2.0000      -9.908178      -269.6152
   4   2.0000      -9.906669      -269.5742
   5   2.0000      -9.904783      -269.5228
   6   2.0000      -9.904232      -269.5079
   7   2.0000      -9.902109      -269.4501
   8   2.0000      -9.887942      -269.0646
   9   2.0000      -0.932123       -25.3644
  10   2.0000      -0.788607       -21.4591
  11   2.0000      -0.703124       -19.1330
  12   2.0000      -0.682467       -18.5709
  13   2.0000      -0.660087       -17.9619
  14   2.0000      -0.569859       -15.5067
  15   2.0000      -0.550745       -14.9865
  16   2.0000      -0.502201       -13.6656
  17   2.0000      -0.459663       -12.5081
  18   2.0000      -0.422636       -11.5005
  19   2.0000      -0.408191       -11.1075
  20   2.0000      -0.404560       -11.0086
  21   2.0000      -0.403540       -10.9809
  22   2.0000      -0.385775       -10.4975
  23   2.0000      -0.362708        -9.8698
  24   2.0000      -0.347562        -9.4576
  25   2.0000      -0.347196        -9.4477
  26   2.0000      -0.319423        -8.6919
  27   2.0000      -0.316267        -8.6061
  28   2.0000      -0.307678        -8.3724
  29   2.0000      -0.243987        -6.6392
  30   2.0000      -0.239267        -6.5108
  31   2.0000      -0.199613        -5.4318
  32   0.0000      -0.089214        -2.4276
  33   0.0000      -0.046009        -1.2520
  34   0.0000       0.000679         0.0185
  35   0.0000       0.034867         0.9488
  36   0.0000       0.055681         1.5152

MULLIKEN ATOMIC CHARGES
-----------------------
   0 C :   -0.242794
   1 C :   -0.017437
   2 O :   -0.162970
   3 C :    0.097371
   4 C :   -0.122080
   5 C :   -0.037346
   6 C :   -0.039911
   7 C :   -0.038179
   8 C :   -0.105072
   9 H :    0.126569
  10 H :    0.118808
  11 H :    0.126627
  12 H :    0.049887
  13 H :    0.056441
  14 H :    0.061982
  15 H :    0.060913
  16 H :    0.067191
Sum of atomic charges:    0.0000000

LOEWDIN ATOMIC CHARGES
----------------------
   0 C :   -0.361321
   1 C :    0.046776
   2 O :   -0.133041
   3 C :   -0.078056
   4 C :   -0.107171
   5 C :   -0.121002
   6 C :   -0.105866
   7 C :   -0.119148
   8 C :   -0.083189
   9 H :    0.141663
  10 H :    0.136802
  11 H :    0.141772
  12 H :    0.126094
  13 H :    0.126272
  14 H :    0.127192
  15 H :    0.127566
  16 H :    0.134657

  Mayer bond orders larger than 0.100000
B(  0-C ,  1-C ) :   1.1264 B(  0-C ,  9-H ) :   0.9154 B(  0-C , 10-H ) :   0.9294
B(  0-C , 11-H ) :   0.9153 B(  1-C ,  2-O ) :   2.1600 B(  1-C ,  3-C ) :   0.9309
B(  3-C ,  4-C ) :   1.3522 B(  3-C ,  8-C ) :   1.3726 B(  4-C ,  5-C ) :   1.3796
B(  4-C , 12-H ) :   0.9472 B(  5-C ,  6-C ) :   1.3795 B(  5-C , 13-H ) :   0.9612
B(  6-C ,  7-C ) :   1.3565 B(  6-C , 14-H ) :   0.9645 B(  7-C ,  8-C ) :   1.3626
B(  7-C , 15-H ) :   0.9676 B(  8-C , 16-H ) :   0.9554

Dispersion correction           -0.017506001
FINAL SINGLE POINT ENERGY      -384.065460374893

DIPOLE MOMENT
-------------

Method             : SCF
Type of density    : Electron Density
Multiplicity       :   1
Irrep              :   0
Energy             :  -384.1122098743708762 Eh
Relativity type    :
Basis              : AO
                                X                 Y                 Z
Electronic contribution:      0.391509334       3.476870318       0.003548658
Nuclear contribution   :      0.357749167      -4.331202195      -0.004570335
                        -----------------------------------------
Total Dipole Moment    :      0.749258501      -0.854331877      -0.001021678
                        -----------------------------------------
Magnitude (a.u.)       :      1.136341630
Magnitude (Debye)      :      2.888350883

Rotational constants in cm-1:             0.124006             0.041208             0.031110
Rotational constants in MHz :          3717.612715          1235.396793           932.647459

                             ****ORCA TERMINATED NORMALLY****
TOTAL RUN TIME: 0 days 0 hours 0 minutes 8 seconds 952 msec
