                         Program Version 6.0.0  -   RELEASE  -
|  1> ! wb97x-v def2-tzvp def2/J RIJCOSX DEFGRID2 scfconv7 GCP(DFT/TZ) printgap
|  2> %output
|  3>     printlevel normal
|  4> end
|  5> * xyz 0 1
|  6> C -1.8673574861354956 -0.5348748213693025 0.29525144514914065
|  7> C -0.9923295266945222 0.3889853597692002 -0.5358818806873976
|  8> S 0.7011418583400901 0.6381827308469167 0.14130970677633747
|  9> C 1.4026506495174464 -1.0291700468923595 -0.1290978568860635
| 10> H -1.9923475666633108 -0.1509325962519404 1.3119475486550165
| 11> H -2.858914280932772 -0.6173011901077475 -0.164838785405336
| 12> H -1.4455921007627162 -1.5423712661261797 0.3557029570369406
| 13> H -1.427426467321366 1.3926897134137508 -0.5851246833554007
| 14> H -0.8943835309971735 0.022460155751493942 -1.5637479950970419
| 15> H 0.9034603111149402 -1.7808808579012487 0.4874353083321311
| 16> H 2.45706926064995 -0.9871135831979947 0.15656690094841616
| 17> H 1.3327506982708721 -1.307333441203024 -1.1848772688434572
| 18> *
| 19>
| 20>                          ****END OF INPUT****

CARTESIAN COORDINATES (ANGSTROEM)
---------------------------------
  C     -1.867357   -0.534875    0.295251
  C     -0.992330    0.388985   -0.535882
  S      0.701142    0.638183    0.141310
  C      1.402651   -1.029170   -0.129098
  H     -1.992348   -0.150933    1.311948
  H     -2.858914   -0.617301   -0.164839
  H     -1.445592   -1.542371    0.355703
  H     -1.427426    1.392690   -0.585125
  H     -0.894384    0.022460   -1.563748
  H      0.903460   -1.780881    0.487435
  H      2.457069   -0.987114    0.156567
  H      1.332751   -1.307333   -1.184877

 Total Charge           Charge          ....    0
 Multiplicity           Mult            ....    1
 Number of Electrons    NEL             ....   42
 Basis Dimension        Dim             ....  178

ORBITAL ENERGIES
----------------

  NO   OCC          E(Eh)            E(eV)
   0   2.0000     -94.113138     -2560.9487
   1   2.0000     -12.076081      -328.6069
   2   2.0000     -12.069199      -328.4196
   3   2.0000     -12.042954      -327.7054
   4   2.0000      -9.623262      -261.8623
   5   2.0000      -7.601163      -206.8382
   6   2.0000      -7.599973      -206.8058
   7   2.0000      -7.598997      -206.7792
   8   2.0000      -1.303018       -35.4569
   9   2.0000      -1.236022       -33.6339
  10   2.0000      -1.140675       -31.0393
  11   2.0000      -1.057301       -28.7706
  12   2.0000      -0.885622       -24.0990
  13   2.0000      -0.869221       -23.6527
  14   2.0000      -0.851817       -23.1791
  15   2.0000      -0.839339       -22.8396
  16   2.0000      -0.828709       -22.5503
  17   2.0000      -0.797325       -21.6963
  18   2.0000      -0.775389       -21.0994
  19   2.0000      -0.730438       -19.8762
  20   2.0000      -0.630618       -17.1600
  21   0.0000      -0.190155        -5.1744
  22   0.0000      -0.171547        -4.6680
  23   0.0000      -0.021986        -0.5983
  24   0.0000      -0.010604        -0.2885
  25   0.0000       0.007027         0.1912

MULLIKEN ATOMIC CHARGES
-----------------------
   0 C :   -0.323435
   1 C :   -0.174310
   2 S :   -0.099205
   3 C :   -0.356364
   4 H :    0.116144
   5 H :    0.109811
   6 H :    0.105675
   7 H :    0.122337
   8 H :    0.111293
   9 H :    0.125393
  10 H :    0.139278
  11 H :    0.123382
Sum of atomic charges:    0.0000000

LOEWDIN ATOMIC CHARGES
----------------------
   0 C :   -0.335402
   1 C :   -0.483199
   2 S :    0.423669
   3 C :   -0.510735
   4 H :    0.118465
   5 H :    0.118151
   6 H :    0.113755
   7 H :    0.124803
   8 H :    0.118584
   9 H :    0.099047
  10 H :    0.110622
  11 H :    0.102239

  Mayer bond orders larger than 0.100000
B(  0-C ,  1-C ) :   0.9675 B(  0-C ,  4-H ) :   0.9743 B(  0-C ,  5-H ) :   0.9702
B(  0-C ,  6-H ) :   0.9814 B(  1-C ,  2-S ) :   1.0524 B(  1-C ,  7-H ) :   0.9627
B(  1-C ,  8-H ) :   0.9751 B(  2-S ,  3-C ) :   1.0745 B(  3-C ,  9-H ) :   0.9677
B(  3-C , 10-H ) :   0.9668 B(  3-C , 11-H ) :   0.9666

FINAL SINGLE POINT ENERGY      -517.278979108586

DIPOLE MOMENT
-------------

Method             : SCF
Type of density    : Electron Density
Multiplicity       :   1
Irrep              :   0
Energy             :  -517.2871678484860922 Eh
Relativity type    :
Basis              : AO
                                X                 Y                 Z
Electronic contribution:      3.486478476       4.286774795       0.755632451
Nuclear contribution   :     -3.803268329      -4.813098772      -1.008984962
                        -----------------------------------------
Total Dipole Moment    :     -0.316789853      -0.526323977      -0.253352511
                        -----------------------------------------
Magnitude (a.u.)       :      0.664499988
Magnitude (Debye)      :      1.689024741

Rotational constants in cm-1:             0.315916             0.129003             0.104907
Rotational constants in MHz :          9470.923225          3867.397837          3145.025033

                             ****ORCA TERMINATED NORMALLY****
TOTAL RUN TIME: 0 days 0 hours 0 minutes 42 seconds 389 msec
