                         Program Version 6.0.0  -   RELEASE  -
|  1> ! wb97x-v def2-tzvp def2/J RIJCOSX DEFGRID2 scfconv7 GCP(DFT/TZ) printgap
|  2> %output
|  3>     printlevel normal
|  4> end
|  5> %cpcm
|  6>     smd true
|  7>     smdsolvent "water"
|  8> end
|  9> * xyz 0 1
| 10> C -1.8673574861354956 -0.5348748213693025 0.29525144514914065
| 11> C -0.9923295266945222 0.3889853597692002 -0.5358818806873976
| 12> S 0.7011418583400901 0.6381827308469167 0.14130970677633747
| 13> C 1.4026506495174464 -1.0291700468923595 -0.1290978568860635
| 14> H -1.9923475666633108 -0.1509325962519404 1.3119475486550165
| 15> H -2.858914280932772 -0.6173011901077475 -0.164838785405336
| 16> H -1.4455921007627162 -1.5423712661261797 0.3557029570369406
| 17> H -1.427426467321366 1.3926897134137508 -0.5851246833554007
| 18> H -0.8943835309971735 0.022460155751493942 -1.5637479950970419
| 19> H 0.9034603111149402 -1.7808808579012487 0.4874353083321311
| 20> H 2.45706926064995 -0.9871135831979947 0.15656690094841616
| 21> H 1.3327506982708721 -1.307333441203024 -1.1848772688434572
| 22> *
| 23>
| 24>                          ****END OF INPUT****

CARTESIAN COORDINATES (ANGSTROEM)
---------------------------------
  C     -1.867357   -0.534875    0.295251
  C     -0.992330    0.388985   -0.535882
  S      0.701142    0.638183    0.141310
  C      1.402651   -1.029170   -0.129098
  H     -1.992348   -0.150933    1.311948
  H     -2.858914   -0.617301   -0.164839
  H     -1.445592   -1.542371    0.355703
  H     -1.427426    1.392690   -0.585125
  H     -0.894384    0.022460   -1.563748
  H      0.903460   -1.780881    0.487435
  H      2.457069   -0.987114    0.156567
  H      1.332751   -1.307333   -1.184877

 Total Charge           Charge          ....    0
 Multiplicity           Mult            ....    1
 Number of Electrons    NEL             ....   42
 Basis Dimension        Dim             ....  178

ORBITAL ENERGIES
----------------

  NO   OCC          E(Eh)            E(eV)
   0   2.0000     -94.110812     -2560.8854
   1   2.0000     -12.065882      -328.3293
   2   2.0000     -12.057763      -328.1084
   3   2.0000     -12.030451      -327.3652
   4   2.0000      -9.620991      -261.8005
   5   2.0000      -7.598923      -206.7772
   6   2.0000      -7.597738      -206.7450
   7   2.0000      -7.596988      -206.7245
   8   2.0000      -1.295032       -35.2396
   9   2.0000      -1.226198       -33.3666
  10   2.0000      -1.130841       -30.7718
  11   2.0000      -1.048013       -28.5179
  12   2.0000      -0.874198       -23.7881
  13   2.0000      -0.858902       -23.3719
  14   2.0000      -0.841179       -22.8896
  15   2.0000      -0.827826       -22.5263
  16   2.0000      -0.816775       -22.2256
  17   2.0000      -0.787454       -21.4277
  18   2.0000      -0.763953       -20.7882
  19   2.0000      -0.725247       -19.7350
  20   2.0000      -0.628570       -17.1043
  21   0.0000      -0.185487        -5.0474
  22   0.0000      -0.165049        -4.4912
  23   0.0000      -0.007947        -0.2162
  24   0.0000       0.000135         0.0037
  25   0.0000       0.020302         0.5524

MULLIKEN ATOMIC CHARGES
-----------------------
   0 C :   -0.371500
   1 C :   -0.180249
   2 S :   -0.169218
   3 C :   -0.391275
   4 H :    0.119212
   5 H :    0.129517
   6 H :    0.130661
   7 H :    0.142511
   8 H :    0.133830
   9 H :    0.149438
  10 H :    0.160253
  11 H :    0.146818
Sum of atomic charges:    0.0000000

LOEWDIN ATOMIC CHARGES
----------------------
   0 C :   -0.339385
   1 C :   -0.480046
   2 S :    0.385446
   3 C :   -0.509688
   4 H :    0.117604
   5 H :    0.123022
   6 H :    0.118789
   7 H :    0.129258
   8 H :    0.125154
   9 H :    0.106039
  10 H :    0.114856
  11 H :    0.108952

  Mayer bond orders larger than 0.100000
B(  0-C ,  1-C ) :   0.9683 B(  0-C ,  4-H ) :   0.9730 B(  0-C ,  5-H ) :   0.9679
B(  0-C ,  6-H ) :   0.9774 B(  1-C ,  2-S ) :   1.0361 B(  1-C ,  7-H ) :   0.9564
B(  1-C ,  8-H ) :   0.9713 B(  2-S ,  3-C ) :   1.0641 B(  3-C ,  9-H ) :   0.9649
B(  3-C , 10-H ) :   0.9584 B(  3-C , 11-H ) :   0.9637

FINAL SINGLE POINT ENERGY      -517.280410326304

DIPOLE MOMENT
-------------

Method             : SCF
Type of density    : Electron Density
Multiplicity       :   1
Irrep              :   0
Energy             :  -517.2885990662044833 Eh
Relativity type    :
Basis              : AO
                                X                 Y                 Z
Electronic contribution:      3.372713325       4.074795787       0.635093955
Nuclear contribution   :     -3.803268329      -4.813098772      -1.008984962
                        -----------------------------------------
Total Dipole Moment    :     -0.430555004      -0.738302985      -0.373891007
                        -----------------------------------------
Magnitude (a.u.)       :      0.932879089
Magnitude (Debye)      :      2.371190202

Rotational constants in cm-1:             0.315916             0.129003             0.104907
Rotational constants in MHz :          9470.923225          3867.397837          3145.025033

                             ****ORCA TERMINATED NORMALLY****
TOTAL RUN TIME: 0 days 0 hours 0 minutes 51 seconds 320 msec
