                         Program Version 6.0.0  -   RELEASE  -
|  1> ! wb97x-v def2-tzvp def2/J RIJCOSX DEFGRID2 scfconv7 GCP(DFT/TZ) printgap
|  2> %output
|  3>     printlevel normal
|  4> end
|  5> * xyz 0 1
|  6> C 1.2341127747893672 0.7260953129930842 -1.4603243722820907
|  7> C 2.6111200784796664 0.8391716100207555 -1.5878200822980637
|  8> C 3.441098469704867 0.42384289144440057 -0.5516789623925297
|  9> C 2.8875682504987434 -0.10688056361510961 0.6148382497208212
| 10> C 1.5085548572095977 -0.22246751037718657 0.7428435560800934
| 11> C 0.6806691627617681 0.19453356832947263 -0.2960655777616732
| 12> C -0.7916870320951739 0.06881693779778997 -0.15294411717547582
| 13> C -1.5754333279619035 1.1795237153282043 0.1803216813853667
| 14> C -2.9601810042453245 1.058011353859122 0.3127931719764019
| 15> C -3.579504570993102 -0.1678449986423487 0.1214809841027427
| 16> C -2.8132694045988895 -1.2757670758758852 -0.20727025522070605
| 17> C -1.428556548276183 -1.1623945317958988 -0.3474149606989604
| 18> Cl -0.47801159004053184 -2.5513617392246113 -0.7854298885964907
| 19> Cl -3.618863452487689 -2.7993378021078343 -0.4443066081628807
| 20> Cl -3.947195262299103 2.4297183782517457 0.7257612561874415
| 21> Cl -0.8033041464421861 2.7145249174815342 0.4488305793902027
| 22> Cl 3.9010840510502036 -0.6354251717839137 1.933155919767282
| 23> Cl 5.169099583565603 0.578017945067361 -0.7364889865350592
| 24> H 0.5907019823308365 1.0525885239306438 -2.270022112749243
| 25> H 3.046172737057655 1.2508296407934905 -2.4912523052593585
| 26> H 1.083426352612322 -0.636559062485441 1.6502314090110743
| 27> H -4.6534896499896465 -0.259483673957797 0.2277134427015324
| 28> *
| 29>
| 30>                          ****END OF INPUT****

CARTESIAN COORDINATES (ANGSTROEM)
---------------------------------
  C      1.234113    0.726095   -1.460324
  C      2.611120    0.839172   -1.587820
  C      3.441098    0.423843   -0.551679
  C      2.887568   -0.106881    0.614838
  C      1.508555   -0.222468    0.742844
  C      0.680669    0.194534   -0.296066
  C     -0.791687    0.068817   -0.152944
  C     -1.575433    1.179524    0.180322
  C     -2.960181    1.058011    0.312793
  C     -3.579505   -0.167845    0.121481
  C     -2.813269   -1.275767   -0.207270
  C     -1.428557   -1.162395   -0.347415
  Cl    -0.478012   -2.551362   -0.785430
  Cl    -3.618863   -2.799338   -0.444307
  Cl    -3.947195    2.429718    0.725761
  Cl    -0.803304    2.714525    0.448831
  Cl     3.901084   -0.635425    1.933156
  Cl     5.169100    0.578018   -0.736489
  H      0.590702    1.052589   -2.270022
  H      3.046173    1.250830   -2.491252
  H      1.083426   -0.636559    1.650231
  H     -4.653490   -0.259484    0.227713

 Total Charge           Charge          ....    0
 Multiplicity           Mult            ....    1
 Number of Electrons    NEL             ....  178
 Basis Dimension        Dim             ....  618

ORBITAL ENERGIES
----------------

  NO   OCC          E(Eh)            E(eV)
   0   2.0000    -107.169137     -2916.2205
   1   2.0000    -107.169053     -2916.2182
   2   2.0000    -107.168483     -2916.2027
   3   2.0000    -107.168345     -2916.1989
   4   2.0000    -107.157484     -2915.9034
   5   2.0000    -107.157450     -2915.9025
   6   2.0000     -12.155371      -330.7645
   7   2.0000     -12.154848      -330.7502
   8   2.0000     -12.152915      -330.6976
   9   2.0000     -12.152736      -330.6928
  10   2.0000     -12.140470      -330.3590
  11   2.0000     -12.138283      -330.2995
  12   2.0000     -12.116869      -329.7168
  13   2.0000     -12.102438      -329.3241
  14   2.0000     -12.097084      -329.1784
  15   2.0000     -12.086882      -328.9008
  16   2.0000     -12.085604      -328.8660
  17   2.0000     -12.082440      -328.7799
  18   2.0000     -11.322170      -308.0919
  19   2.0000     -11.322086      -308.0896
  20   2.0000     -11.321516      -308.0741
  21   2.0000     -11.321370      -308.0701
  22   2.0000     -11.310510      -307.7746
  23   2.0000     -11.310455      -307.7731
  24   2.0000      -9.114157      -248.0088
  25   2.0000      -9.113657      -247.9952
  26   2.0000      -9.113202      -247.9828
  27   2.0000      -9.112827      -247.9726
  28   2.0000      -9.111173      -247.9276
  29   2.0000      -9.111072      -247.9249
  30   2.0000      -9.111043      -247.9241
  31   2.0000      -9.110952      -247.9216
  32   2.0000      -9.110329      -247.9047
  33   2.0000      -9.110134      -247.8994
  34   2.0000      -9.110059      -247.8973
  35   2.0000      -9.109861      -247.8919
  36   2.0000      -9.102433      -247.6898
  37   2.0000      -9.101777      -247.6720
  38   2.0000      -9.099716      -247.6158
  39   2.0000      -9.099374      -247.6065
  40   2.0000      -9.099262      -247.6035
  41   2.0000      -9.098855      -247.5924
  42   2.0000      -1.494326       -40.6627
  43   2.0000      -1.467177       -39.9239
  44   2.0000      -1.464705       -39.8566
  45   2.0000      -1.443353       -39.2756
  46   2.0000      -1.434190       -39.0263
  47   2.0000      -1.424353       -38.7586
  48   2.0000      -1.403672       -38.1959
  49   2.0000      -1.384382       -37.6709
  50   2.0000      -1.335004       -36.3273
  51   2.0000      -1.302829       -35.4518
  52   2.0000      -1.290046       -35.1039
  53   2.0000      -1.284659       -34.9574
  54   2.0000      -1.184878       -32.2422
  55   2.0000      -1.148850       -31.2618
  56   2.0000      -1.143621       -31.1195
  57   2.0000      -1.123616       -30.5752
  58   2.0000      -1.043720       -28.4011
  59   2.0000      -1.026157       -27.9232
  60   2.0000      -1.008685       -27.4477
  61   2.0000      -1.000477       -27.2244
  62   2.0000      -0.983056       -26.7503
  63   2.0000      -0.966382       -26.2966
  64   2.0000      -0.958921       -26.0936
  65   2.0000      -0.941383       -25.6163
  66   2.0000      -0.919457       -25.0197
  67   2.0000      -0.918426       -24.9916
  68   2.0000      -0.908610       -24.7245
  69   2.0000      -0.885335       -24.0912
  70   2.0000      -0.884818       -24.0771
  71   2.0000      -0.860300       -23.4100
  72   2.0000      -0.858071       -23.3493
  73   2.0000      -0.852132       -23.1877
  74   2.0000      -0.832697       -22.6588
  75   2.0000      -0.826423       -22.4881
  76   2.0000      -0.824526       -22.4365
  77   2.0000      -0.819226       -22.2923
  78   2.0000      -0.817818       -22.2539
  79   2.0000      -0.814743       -22.1703
  80   2.0000      -0.812008       -22.0959
  81   2.0000      -0.807614       -21.9763
  82   2.0000      -0.800714       -21.7885
  83   2.0000      -0.785355       -21.3706
  84   2.0000      -0.780401       -21.2358
  85   2.0000      -0.698202       -18.9991
  86   2.0000      -0.688947       -18.7472
  87   2.0000      -0.678623       -18.4663
  88   2.0000      -0.674532       -18.3549
  89   0.0000      -0.334479        -9.1016
  90   0.0000      -0.319809        -8.7025
  91   0.0000      -0.313311        -8.5256
  92   0.0000      -0.302037        -8.2188
  93   0.0000      -0.297101        -8.0845

MULLIKEN ATOMIC CHARGES
-----------------------
   0 C :   -0.147705
   1 C :   -0.195202
   2 C :    0.089903
   3 C :    0.091836
   4 C :   -0.225424
   5 C :    0.156964
   6 C :    0.031866
   7 C :    0.023309
   8 C :    0.048806
   9 C :   -0.257498
  10 C :    0.050393
  11 C :    0.023657
  12 Cl:   -0.027971
  13 Cl:   -0.045251
  14 Cl:   -0.045281
  15 Cl:   -0.028963
  16 Cl:   -0.058846
  17 Cl:   -0.060182
  18 H :    0.136832
  19 H :    0.139802
  20 H :    0.144522
  21 H :    0.154434
Sum of atomic charges:    0.0000000

LOEWDIN ATOMIC CHARGES
----------------------
   0 C :   -0.090363
   1 C :   -0.127626
   2 C :   -0.420732
   3 C :   -0.419287
   4 C :   -0.094194
   5 C :   -0.129777
   6 C :   -0.111831
   7 C :   -0.387596
   8 C :   -0.426319
   9 C :   -0.136399
  10 C :   -0.426260
  11 C :   -0.387603
  12 Cl:    0.445343
  13 Cl:    0.419094
  14 Cl:    0.418998
  15 Cl:    0.444980
  16 Cl:    0.404393
  17 Cl:    0.403109
  18 H :    0.154576
  19 H :    0.151991
  20 H :    0.157935
  21 H :    0.157568

  Mayer bond orders larger than 0.100000
B(  0-C ,  1-C ) :   1.4481 B(  0-C ,  5-C ) :   1.3659 B(  0-C , 18-H ) :   0.9685
B(  1-C ,  2-C ) :   1.3839 B(  1-C , 19-H ) :   0.9607 B(  2-C ,  3-C ) :   1.3079
B(  2-C , 17-Cl) :   1.0875 B(  3-C ,  4-C ) :   1.4068 B(  3-C , 16-Cl) :   1.0794
B(  4-C ,  5-C ) :   1.3745 B(  4-C , 20-H ) :   0.9618 B(  5-C ,  6-C ) :   0.8205
B(  6-C ,  7-C ) :   1.3256 B(  6-C , 11-C ) :   1.3243 B(  7-C ,  8-C ) :   1.3357
B(  7-C , 15-Cl) :   1.2167 B(  8-C ,  9-C ) :   1.3902 B(  8-C , 14-Cl) :   1.0852
B(  9-C , 10-C ) :   1.3899 B(  9-C , 21-H ) :   0.9526 B( 10-C , 11-C ) :   1.3352
B( 10-C , 13-Cl) :   1.0845 B( 11-C , 12-Cl) :   1.2184

FINAL SINGLE POINT ENERGY     -3220.589521677329

DIPOLE MOMENT
-------------

Method             : SCF
Type of density    : Electron Density
Multiplicity       :   1
Irrep              :   0
Energy             : -3220.6002953873289698 Eh
Relativity type    :
Basis              : AO
                                X                 Y                 Z
Electronic contribution:     -0.438068998      -1.663835321       3.773313233
Nuclear contribution   :     -0.253870699       1.802472147      -4.166205771
                        -----------------------------------------
Total Dipole Moment    :     -0.691939697       0.138636825      -0.392892538
                        -----------------------------------------
Magnitude (a.u.)       :      0.807691314
Magnitude (Debye)      :      2.052988167

Rotational constants in cm-1:             0.012155             0.004638             0.003768
Rotational constants in MHz :           364.394906           139.034228           112.973691

                             ****ORCA TERMINATED NORMALLY****
TOTAL RUN TIME: 0 days 0 hours 12 minutes 14 seconds 939 msec
