                         Program Version 6.0.0  -   RELEASE  -
|  1> ! wb97x-v def2-tzvp def2/J RIJCOSX DEFGRID2 scfconv7 GCP(DFT/TZ) printgap
|  2> %output
|  3>     printlevel normal
|  4> end
|  5> %cpcm
|  6>     smd true
|  7>     smdsolvent "water"
|  8> end
|  9> * xyz 0 1
| 10> C 1.2341127747893672 0.7260953129930842 -1.4603243722820907
| 11> C 2.6111200784796664 0.8391716100207555 -1.5878200822980637
| 12> C 3.441098469704867 0.42384289144440057 -0.5516789623925297
| 13> C 2.8875682504987434 -0.10688056361510961 0.6148382497208212
| 14> C 1.5085548572095977 -0.22246751037718657 0.7428435560800934
| 15> C 0.6806691627617681 0.19453356832947263 -0.2960655777616732
| 16> C -0.7916870320951739 0.06881693779778997 -0.15294411717547582
| 17> C -1.5754333279619035 1.1795237153282043 0.1803216813853667
| 18> C -2.9601810042453245 1.058011353859122 0.3127931719764019
| 19> C -3.579504570993102 -0.1678449986423487 0.1214809841027427
| 20> C -2.8132694045988895 -1.2757670758758852 -0.20727025522070605
| 21> C -1.428556548276183 -1.1623945317958988 -0.3474149606989604
| 22> Cl -0.47801159004053184 -2.5513617392246113 -0.7854298885964907
| 23> Cl -3.618863452487689 -2.7993378021078343 -0.4443066081628807
| 24> Cl -3.947195262299103 2.4297183782517457 0.7257612561874415
| 25> Cl -0.8033041464421861 2.7145249174815342 0.4488305793902027
| 26> Cl 3.9010840510502036 -0.6354251717839137 1.933155919767282
| 27> Cl 5.169099583565603 0.578017945067361 -0.7364889865350592
| 28> H 0.5907019823308365 1.0525885239306438 -2.270022112749243
| 29> H 3.046172737057655 1.2508296407934905 -2.4912523052593585
| 30> H 1.083426352612322 -0.636559062485441 1.6502314090110743
| 31> H -4.6534896499896465 -0.259483673957797 0.2277134427015324
| 32> *
| 33>
| 34>                          ****END OF INPUT****

CARTESIAN COORDINATES (ANGSTROEM)
---------------------------------
  C      1.234113    0.726095   -1.460324
  C      2.611120    0.839172   -1.587820
  C      3.441098    0.423843   -0.551679
  C      2.887568   -0.106881    0.614838
  C      1.508555   -0.222468    0.742844
  C      0.680669    0.194534   -0.296066
  C     -0.791687    0.068817   -0.152944
  C     -1.575433    1.179524    0.180322
  C     -2.960181    1.058011    0.312793
  C     -3.579505   -0.167845    0.121481
  C     -2.813269   -1.275767   -0.207270
  C     -1.428557   -1.162395   -0.347415
  Cl    -0.478012   -2.551362   -0.785430
  Cl    -3.618863   -2.799338   -0.444307
  Cl    -3.947195    2.429718    0.725761
  Cl    -0.803304    2.714525    0.448831
  Cl     3.901084   -0.635425    1.933156
  Cl     5.169100    0.578018   -0.736489
  H      0.590702    1.052589   -2.270022
  H      3.046173    1.250830   -2.491252
  H      1.083426   -0.636559    1.650231
  H     -4.653490   -0.259484    0.227713

 Total Charge           Charge          ....    0
 Multiplicity           Mult            ....    1
 Number of Electrons    NEL             ....  178
 Basis Dimension        Dim             ....  618

ORBITAL ENERGIES
----------------

  NO   OCC          E(Eh)            E(eV)
   0   2.0000    -107.163197     -2916.0588
   1   2.0000    -107.163150     -2916.0576
   2   2.0000    -107.162915     -2916.0512
   3   2.0000    -107.162901     -2916.0508
   4   2.0000    -107.157181     -2915.8951
   5   2.0000    -107.157011     -2915.8905
   6   2.0000     -12.145595      -330.4984
   7   2.0000     -12.145093      -330.4848
   8   2.0000     -12.142733      -330.4206
   9   2.0000     -12.142525      -330.4149
  10   2.0000     -12.133956      -330.1817
  11   2.0000     -12.131776      -330.1224
  12   2.0000     -12.106476      -329.4340
  13   2.0000     -12.088779      -328.9524
  14   2.0000     -12.087045      -328.9052
  15   2.0000     -12.076212      -328.6104
  16   2.0000     -12.073722      -328.5427
  17   2.0000     -12.069717      -328.4337
  18   2.0000     -11.316297      -307.9321
  19   2.0000     -11.316226      -307.9302
  20   2.0000     -11.315990      -307.9238
  21   2.0000     -11.315977      -307.9234
  22   2.0000     -11.310290      -307.7686
  23   2.0000     -11.310124      -307.7641
  24   2.0000      -9.108413      -247.8525
  25   2.0000      -9.107903      -247.8386
  26   2.0000      -9.107574      -247.8297
  27   2.0000      -9.107254      -247.8210
  28   2.0000      -9.105432      -247.7714
  29   2.0000      -9.105349      -247.7691
  30   2.0000      -9.105243      -247.7663
  31   2.0000      -9.105203      -247.7652
  32   2.0000      -9.104843      -247.7554
  33   2.0000      -9.104658      -247.7503
  34   2.0000      -9.104504      -247.7461
  35   2.0000      -9.104400      -247.7433
  36   2.0000      -9.102141      -247.6819
  37   2.0000      -9.101480      -247.6639
  38   2.0000      -9.099505      -247.6101
  39   2.0000      -9.099170      -247.6010
  40   2.0000      -9.098996      -247.5963
  41   2.0000      -9.098612      -247.5858
  42   2.0000      -1.485422       -40.4204
  43   2.0000      -1.463323       -39.8190
  44   2.0000      -1.457818       -39.6692
  45   2.0000      -1.436485       -39.0887
  46   2.0000      -1.428104       -38.8607
  47   2.0000      -1.423353       -38.7314
  48   2.0000      -1.396387       -37.9976
  49   2.0000      -1.376163       -37.4473
  50   2.0000      -1.325576       -36.0708
  51   2.0000      -1.293376       -35.1946
  52   2.0000      -1.281002       -34.8578
  53   2.0000      -1.275994       -34.7216
  54   2.0000      -1.174667       -31.9643
  55   2.0000      -1.139004       -30.9939
  56   2.0000      -1.133932       -30.8559
  57   2.0000      -1.114353       -30.3231
  58   2.0000      -1.033273       -28.1168
  59   2.0000      -1.017493       -27.6874
  60   2.0000      -0.999224       -27.1903
  61   2.0000      -0.991573       -26.9821
  62   2.0000      -0.976356       -26.5680
  63   2.0000      -0.959020       -26.0962
  64   2.0000      -0.951744       -25.8983
  65   2.0000      -0.933853       -25.4114
  66   2.0000      -0.911928       -24.8148
  67   2.0000      -0.905808       -24.6483
  68   2.0000      -0.895718       -24.3737
  69   2.0000      -0.876048       -23.8385
  70   2.0000      -0.874775       -23.8038
  71   2.0000      -0.855059       -23.2673
  72   2.0000      -0.848109       -23.0782
  73   2.0000      -0.845669       -23.0118
  74   2.0000      -0.826787       -22.4980
  75   2.0000      -0.821083       -22.3428
  76   2.0000      -0.818774       -22.2800
  77   2.0000      -0.818062       -22.2606
  78   2.0000      -0.813747       -22.1432
  79   2.0000      -0.809374       -22.0242
  80   2.0000      -0.806599       -21.9487
  81   2.0000      -0.806417       -21.9437
  82   2.0000      -0.800610       -21.7857
  83   2.0000      -0.779303       -21.2059
  84   2.0000      -0.772841       -21.0301
  85   2.0000      -0.686882       -18.6910
  86   2.0000      -0.680005       -18.5039
  87   2.0000      -0.670809       -18.2536
  88   2.0000      -0.665673       -18.1139
  89   0.0000      -0.326294        -8.8789
  90   0.0000      -0.309686        -8.4270
  91   0.0000      -0.303643        -8.2625
  92   0.0000      -0.296520        -8.0687
  93   0.0000      -0.288530        -7.8513

MULLIKEN ATOMIC CHARGES
-----------------------
   0 C :   -0.191134
   1 C :   -0.216195
   2 C :    0.100774
   3 C :    0.099897
   4 C :   -0.252399
   5 C :    0.114103
   6 C :    0.126019
   7 C :    0.024555
   8 C :    0.046332
   9 C :   -0.256296
  10 C :    0.047913
  11 C :    0.025605
  12 Cl:   -0.051413
  13 Cl:   -0.062789
  14 Cl:   -0.062605
  15 Cl:   -0.051708
  16 Cl:   -0.080097
  17 Cl:   -0.081580
  18 H :    0.177708
  19 H :    0.176898
  20 H :    0.180813
  21 H :    0.185599
Sum of atomic charges:    0.0000000

LOEWDIN ATOMIC CHARGES
----------------------
   0 C :   -0.083764
   1 C :   -0.124354
   2 C :   -0.426798
   3 C :   -0.426337
   4 C :   -0.091343
   5 C :   -0.131063
   6 C :   -0.100501
   7 C :   -0.382069
   8 C :   -0.423860
   9 C :   -0.123932
  10 C :   -0.423809
  11 C :   -0.382152
  12 Cl:    0.431972
  13 Cl:    0.407201
  14 Cl:    0.407237
  15 Cl:    0.432036
  16 Cl:    0.387514
  17 Cl:    0.386710
  18 H :    0.166953
  19 H :    0.162744
  20 H :    0.168734
  21 H :    0.168881

  Mayer bond orders larger than 0.100000
B(  0-C ,  1-C ) :   1.4429 B(  0-C ,  5-C ) :   1.3498 B(  0-C , 18-H ) :   0.9763
B(  1-C ,  2-C ) :   1.3578 B(  1-C , 19-H ) :   0.9627 B(  2-C ,  3-C ) :   1.3004
B(  2-C , 17-Cl) :   1.0692 B(  3-C ,  4-C ) :   1.3834 B(  3-C , 16-Cl) :   1.0675
B(  4-C ,  5-C ) :   1.3780 B(  4-C , 20-H ) :   0.9660 B(  5-C ,  6-C ) :   0.8068
B(  6-C ,  7-C ) :   1.3327 B(  6-C , 11-C ) :   1.3310 B(  7-C ,  8-C ) :   1.3324
B(  7-C , 15-Cl) :   1.1759 B(  8-C ,  9-C ) :   1.3860 B(  8-C , 14-Cl) :   1.0738
B(  9-C , 10-C ) :   1.3859 B(  9-C , 21-H ) :   0.9477 B( 10-C , 11-C ) :   1.3322
B( 10-C , 13-Cl) :   1.0728 B( 11-C , 12-Cl) :   1.1764

FINAL SINGLE POINT ENERGY     -3220.591718871145

DIPOLE MOMENT
-------------

Method             : SCF
Type of density    : Electron Density
Multiplicity       :   1
Irrep              :   0
Energy             : -3220.6024925811452704 Eh
Relativity type    :
Basis              : AO
                                X                 Y                 Z
Electronic contribution:     -0.864449573      -1.596390152       3.585411155
Nuclear contribution   :     -0.253870699       1.802472147      -4.166205771
                        -----------------------------------------
Total Dipole Moment    :     -1.118320272       0.206081994      -0.580794616
                        -----------------------------------------
Magnitude (a.u.)       :      1.276883865
Magnitude (Debye)      :      3.245580854

Rotational constants in cm-1:             0.012155             0.004638             0.003768
Rotational constants in MHz :           364.394906           139.034228           112.973691

                             ****ORCA TERMINATED NORMALLY****
TOTAL RUN TIME: 0 days 0 hours 12 minutes 37 seconds 741 msec
