                         Program Version 6.0.0  -   RELEASE  -
|  1> ! wb97x-v def2-tzvp def2/J RIJCOSX DEFGRID2 scfconv7 GCP(DFT/TZ) printgap
|  2> %output
|  3>     printlevel normal
|  4> end
|  5> * xyz 0 1
|  6> C -0.8303161821860656 -2.287642496733458 0.00010138868803201913
|  7> C 0.06816301771656094 -1.0823812332536205 0.00020666367914841816
|  8> C 1.4544613350290783 -1.2552819030210933 6.982436874445626e-05
|  9> C 2.3207798180862063 -0.16652401041644097 -9.535897499768226e-05
| 10> C 1.820680328364763 1.13669971084342 -0.000167295102565938
| 11> C 0.450887829768375 1.3337105366366142 -2.1183405240958734e-05
| 12> C -0.4303293016338985 0.24075939293137177 0.00014487166167196513
| 13> C -1.873571683454144 0.49305355443606214 0.00020131747465142928
| 14> O -2.379451474339749 1.6135478856131082 -0.0004565564651814165
| 15> H -1.4795105031722777 -2.3072209801722137 0.8815158164673504
| 16> H -1.4783718851220673 -2.3077025755082943 -0.8821558828638061
| 17> H -0.23085882400725996 -3.200422923720365 0.0007200765279467831
| 18> H 1.8592320543342495 -2.2630288068553326 8.819906213109056e-05
| 19> H 3.3932427519857713 -0.33570795479036597 -0.00015049832777810467
| 20> H 2.4979896622299598 1.9842807832164147 -0.0003252266625625986
| 21> H 0.03678319605867206 2.336935628784126 -3.595395535082591e-05
| 22> H -2.5280867143954793 -0.39567364226869617 0.002355580162004454
| 23> *
| 24>
| 25>                          ****END OF INPUT****

CARTESIAN COORDINATES (ANGSTROEM)
---------------------------------
  C     -0.830316   -2.287642    0.000101
  C      0.068163   -1.082381    0.000207
  C      1.454461   -1.255282    0.000070
  C      2.320780   -0.166524   -0.000095
  C      1.820680    1.136700   -0.000167
  C      0.450888    1.333711   -0.000021
  C     -0.430329    0.240759    0.000145
  C     -1.873572    0.493054    0.000201
  O     -2.379451    1.613548   -0.000457
  H     -1.479511   -2.307221    0.881516
  H     -1.478372   -2.307703   -0.882156
  H     -0.230859   -3.200423    0.000720
  H      1.859232   -2.263029    0.000088
  H      3.393243   -0.335708   -0.000150
  H      2.497990    1.984281   -0.000325
  H      0.036783    2.336936   -0.000036
  H     -2.528087   -0.395674    0.002356

 Total Charge           Charge          ....    0
 Multiplicity           Mult            ....    1
 Number of Electrons    NEL             ....   64
 Basis Dimension        Dim             ....  327

ORBITAL ENERGIES
----------------

  NO   OCC          E(Eh)            E(eV)
   0   2.0000     -21.666971      -589.5882
   1   2.0000     -12.136989      -330.2643
   2   2.0000     -12.084311      -328.8308
   3   2.0000     -12.070815      -328.4636
   4   2.0000     -12.067125      -328.3632
   5   2.0000     -12.065213      -328.3111
   6   2.0000     -12.062834      -328.2464
   7   2.0000     -12.061340      -328.2058
   8   2.0000     -12.060469      -328.1820
   9   2.0000      -1.704504       -46.3819
  10   2.0000      -1.403342       -38.1869
  11   2.0000      -1.314918       -35.7808
  12   2.0000      -1.299788       -35.3690
  13   2.0000      -1.218263       -33.1506
  14   2.0000      -1.173966       -31.9452
  15   2.0000      -1.107255       -30.1299
  16   2.0000      -1.092547       -29.7297
  17   2.0000      -1.015671       -27.6378
  18   2.0000      -0.999800       -27.2059
  19   2.0000      -0.957214       -26.0471
  20   2.0000      -0.950966       -25.8771
  21   2.0000      -0.908440       -24.7199
  22   2.0000      -0.897007       -24.4088
  23   2.0000      -0.887256       -24.1435
  24   2.0000      -0.856206       -23.2985
  25   2.0000      -0.853812       -23.2334
  26   2.0000      -0.838893       -22.8275
  27   2.0000      -0.819366       -22.2961
  28   2.0000      -0.796316       -21.6689
  29   2.0000      -0.778030       -21.1713
  30   2.0000      -0.661879       -18.0106
  31   2.0000      -0.649652       -17.6779
  32   0.0000      -0.350114        -9.5271
  33   0.0000      -0.248609        -6.7650
  34   0.0000      -0.212961        -5.7950
  35   0.0000      -0.074881        -2.0376
  36   0.0000      -0.070435        -1.9166

MULLIKEN ATOMIC CHARGES
-----------------------
   0 C :   -0.393207
   1 C :    0.119654
   2 C :   -0.177539
   3 C :   -0.100318
   4 C :   -0.110636
   5 C :   -0.170369
   6 C :    0.053868
   7 C :    0.078703
   8 O :   -0.310551
   9 H :    0.139863
  10 H :    0.139962
  11 H :    0.122846
  12 H :    0.115050
  13 H :    0.125342
  14 H :    0.125268
  15 H :    0.151452
  16 H :    0.090613
Sum of atomic charges:    0.0000000

LOEWDIN ATOMIC CHARGES
----------------------
   0 C :   -0.250984
   1 C :   -0.120000
   2 C :   -0.116286
   3 C :   -0.116158
   4 C :   -0.138393
   5 C :   -0.068022
   6 C :   -0.139253
   7 C :   -0.234362
   8 O :    0.085756
   9 H :    0.129784
  10 H :    0.129820
  11 H :    0.127800
  12 H :    0.144800
  13 H :    0.144684
  14 H :    0.143838
  15 H :    0.155830
  16 H :    0.121145

  Mayer bond orders larger than 0.100000
B(  0-C ,  1-C ) :   0.9029 B(  0-C ,  9-H ) :   0.9821 B(  0-C , 10-H ) :   0.9821
B(  0-C , 11-H ) :   0.9851 B(  1-C ,  2-C ) :   1.4325 B(  1-C ,  6-C ) :   1.3175
B(  2-C ,  3-C ) :   1.4362 B(  2-C , 12-H ) :   0.9661 B(  3-C ,  4-C ) :   1.3892
B(  3-C , 13-H ) :   0.9725 B(  4-C ,  5-C ) :   1.4283 B(  4-C , 14-H ) :   0.9775
B(  5-C ,  6-C ) :   1.3876 B(  5-C , 15-H ) :   0.9542 B(  6-C ,  7-C ) :   0.9040
B(  6-C ,  8-O ) :  -0.1368 B(  7-C ,  8-O ) :   2.1269 B(  7-C , 16-H ) :   1.0248

FINAL SINGLE POINT ENERGY      -384.903802738017

DIPOLE MOMENT
-------------

Method             : SCF
Type of density    : Electron Density
Multiplicity       :   1
Irrep              :   0
Energy             :  -384.9129395975166403 Eh
Relativity type    :
Basis              : AO
                                X                 Y                 Z
Electronic contribution:     -1.026582521       4.979022078      -0.001323480
Nuclear contribution   :      1.918495353      -6.076423530       0.001880252
                        -----------------------------------------
Total Dipole Moment    :      0.891912832      -1.097401452       0.000556772
                        -----------------------------------------
Magnitude (a.u.)       :      1.414142410
Magnitude (Debye)      :      3.594464350

Rotational constants in cm-1:             0.083291             0.052191             0.032278
Rotational constants in MHz :          2496.996136          1564.650761           967.682011

                             ****ORCA TERMINATED NORMALLY****
TOTAL RUN TIME: 0 days 0 hours 2 minutes 53 seconds 955 msec
