                         Program Version 6.0.0  -   RELEASE  -
|  1> ! wb97x-v def2-tzvp def2/J RIJCOSX DEFGRID2 scfconv7 GCP(DFT/TZ) printgap
|  2> %output
|  3>     printlevel normal
|  4> end
|  5> %cpcm
|  6>     smd true
|  7>     smdsolvent "water"
|  8> end
|  9> * xyz 0 1
| 10> C -0.8303161821860656 -2.287642496733458 0.00010138868803201913
| 11> C 0.06816301771656094 -1.0823812332536205 0.00020666367914841816
| 12> C 1.4544613350290783 -1.2552819030210933 6.982436874445626e-05
| 13> C 2.3207798180862063 -0.16652401041644097 -9.535897499768226e-05
| 14> C 1.820680328364763 1.13669971084342 -0.000167295102565938
| 15> C 0.450887829768375 1.3337105366366142 -2.1183405240958734e-05
| 16> C -0.4303293016338985 0.24075939293137177 0.00014487166167196513
| 17> C -1.873571683454144 0.49305355443606214 0.00020131747465142928
| 18> O -2.379451474339749 1.6135478856131082 -0.0004565564651814165
| 19> H -1.4795105031722777 -2.3072209801722137 0.8815158164673504
| 20> H -1.4783718851220673 -2.3077025755082943 -0.8821558828638061
| 21> H -0.23085882400725996 -3.200422923720365 0.0007200765279467831
| 22> H 1.8592320543342495 -2.2630288068553326 8.819906213109056e-05
| 23> H 3.3932427519857713 -0.33570795479036597 -0.00015049832777810467
| 24> H 2.4979896622299598 1.9842807832164147 -0.0003252266625625986
| 25> H 0.03678319605867206 2.336935628784126 -3.595395535082591e-05
| 26> H -2.5280867143954793 -0.39567364226869617 0.002355580162004454
| 27> *
| 28>
| 29>                          ****END OF INPUT****

CARTESIAN COORDINATES (ANGSTROEM)
---------------------------------
  C     -0.830316   -2.287642    0.000101
  C      0.068163   -1.082381    0.000207
  C      1.454461   -1.255282    0.000070
  C      2.320780   -0.166524   -0.000095
  C      1.820680    1.136700   -0.000167
  C      0.450888    1.333711   -0.000021
  C     -0.430329    0.240759    0.000145
  C     -1.873572    0.493054    0.000201
  O     -2.379451    1.613548   -0.000457
  H     -1.479511   -2.307221    0.881516
  H     -1.478372   -2.307703   -0.882156
  H     -0.230859   -3.200423    0.000720
  H      1.859232   -2.263029    0.000088
  H      3.393243   -0.335708   -0.000150
  H      2.497990    1.984281   -0.000325
  H      0.036783    2.336936   -0.000036
  H     -2.528087   -0.395674    0.002356

 Total Charge           Charge          ....    0
 Multiplicity           Mult            ....    1
 Number of Electrons    NEL             ....   64
 Basis Dimension        Dim             ....  327

ORBITAL ENERGIES
----------------

  NO   OCC          E(Eh)            E(eV)
   0   2.0000     -21.676323      -589.8427
   1   2.0000     -12.142738      -330.4207
   2   2.0000     -12.076550      -328.6196
   3   2.0000     -12.062230      -328.2300
   4   2.0000     -12.061389      -328.2071
   5   2.0000     -12.060183      -328.1743
   6   2.0000     -12.052467      -327.9643
   7   2.0000     -12.051304      -327.9327
   8   2.0000     -12.038920      -327.5957
   9   2.0000      -1.717499       -46.7355
  10   2.0000      -1.396554       -38.0022
  11   2.0000      -1.306016       -35.5385
  12   2.0000      -1.293191       -35.1895
  13   2.0000      -1.205851       -32.8129
  14   2.0000      -1.170110       -31.8403
  15   2.0000      -1.103378       -30.0244
  16   2.0000      -1.089303       -29.6414
  17   2.0000      -1.017453       -27.6863
  18   2.0000      -1.001055       -27.2401
  19   2.0000      -0.953388       -25.9430
  20   2.0000      -0.941951       -25.6318
  21   2.0000      -0.914202       -24.8767
  22   2.0000      -0.897972       -24.4351
  23   2.0000      -0.876038       -23.8382
  24   2.0000      -0.843273       -22.9466
  25   2.0000      -0.837207       -22.7816
  26   2.0000      -0.824750       -22.4426
  27   2.0000      -0.808661       -22.0048
  28   2.0000      -0.794553       -21.6209
  29   2.0000      -0.770942       -20.9784
  30   2.0000      -0.657168       -17.8825
  31   2.0000      -0.641899       -17.4670
  32   0.0000      -0.346850        -9.4383
  33   0.0000      -0.240953        -6.5567
  34   0.0000      -0.207868        -5.6564
  35   0.0000      -0.067637        -1.8405
  36   0.0000      -0.061027        -1.6606

MULLIKEN ATOMIC CHARGES
-----------------------
   0 C :   -0.419077
   1 C :    0.112031
   2 C :   -0.218217
   3 C :   -0.122714
   4 C :   -0.170871
   5 C :   -0.197797
   6 C :    0.045813
   7 C :    0.149400
   8 O :   -0.438416
   9 H :    0.157759
  10 H :    0.157784
  11 H :    0.148495
  12 H :    0.160930
  13 H :    0.167841
  14 H :    0.165123
  15 H :    0.160060
  16 H :    0.141858
Sum of atomic charges:   -0.0000000

LOEWDIN ATOMIC CHARGES
----------------------
   0 C :   -0.247369
   1 C :   -0.114851
   2 C :   -0.116109
   3 C :   -0.114323
   4 C :   -0.145428
   5 C :   -0.080660
   6 C :   -0.146812
   7 C :   -0.209459
   8 O :    0.007809
   9 H :    0.136501
  10 H :    0.136522
  11 H :    0.133734
  12 H :    0.156343
  13 H :    0.155596
  14 H :    0.153177
  15 H :    0.156488
  16 H :    0.138840

  Mayer bond orders larger than 0.100000
B(  0-C ,  1-C ) :   0.9246 B(  0-C ,  9-H ) :   0.9730 B(  0-C , 10-H ) :   0.9730
B(  0-C , 11-H ) :   0.9784 B(  1-C ,  2-C ) :   1.4112 B(  1-C ,  6-C ) :   1.3061
B(  2-C ,  3-C ) :   1.4114 B(  2-C , 12-H ) :   0.9727 B(  3-C ,  4-C ) :   1.3683
B(  3-C , 13-H ) :   0.9733 B(  4-C ,  5-C ) :   1.4361 B(  4-C , 14-H ) :   0.9799
B(  5-C ,  6-C ) :   1.3137 B(  5-C , 15-H ) :   0.9710 B(  6-C ,  7-C ) :   0.9548
B(  6-C ,  8-O ) :  -0.1311 B(  7-C ,  8-O ) :   2.0020 B(  7-C , 16-H ) :   1.0034

FINAL SINGLE POINT ENERGY      -384.911466356885

DIPOLE MOMENT
-------------

Method             : SCF
Type of density    : Electron Density
Multiplicity       :   1
Irrep              :   0
Energy             :  -384.9206032163849613 Eh
Relativity type    :
Basis              : AO
                                X                 Y                 Z
Electronic contribution:     -0.701266141       4.413880280      -0.000991331
Nuclear contribution   :      1.918495353      -6.076423530       0.001880252
                        -----------------------------------------
Total Dipole Moment    :      1.217229213      -1.662543250       0.000888922
                        -----------------------------------------
Magnitude (a.u.)       :      2.060509113
Magnitude (Debye)      :      5.237397942

Rotational constants in cm-1:             0.083291             0.052191             0.032278
Rotational constants in MHz :          2496.996136          1564.650761           967.682011

                             ****ORCA TERMINATED NORMALLY****
TOTAL RUN TIME: 0 days 0 hours 2 minutes 55 seconds 623 msec
