                         Program Version 6.0.0  -   RELEASE  -
|  1> ! wb97x-v def2-tzvp def2/J RIJCOSX DEFGRID2 scfconv7 GCP(DFT/TZ) printgap
|  2> %output
|  3>     printlevel normal
|  4> end
|  5> * xyz 0 1
|  6> C 1.3200987831259736 1.0726160948260353 0.8763874675315849
|  7> C 0.7012036684665028 0.3338130136354923 -0.3234173876791963
|  8> C 1.4756796486968515 -0.9468015496054899 -0.6377904714660764
|  9> C -0.7624324645229303 0.0885040196469583 -0.017376374696674423
| 10> O -1.625100748987329 0.8536068538626913 -0.44413011744580433
| 11> C -1.1260126633627292 -1.0915471966992354 0.832907025688001
| 12> H 2.3602240626837676 1.3257749397485326 0.6488877965869371
| 13> H 0.7810625066275451 1.9991785963536803 1.0968034880662045
| 14> H 1.3115223125881632 0.4418527908101484 1.771468158698114
| 15> H 0.7252124857218436 1.0028352241927352 -1.1910106798188875
| 16> H 1.5350268753033518 -1.6026231052001167 0.236750879538451
| 17> H 2.497882001792825 -0.6904069741648369 -0.9334964081502282
| 18> H 1.0145127825034792 -1.5047458966353682 -1.4590646633448852
| 19> H -2.147103572630063 -0.9944820950361725 1.2055432162617155
| 20> H -0.4228394553242694 -1.2190125818148922 1.6614271652494257
| 21> H -1.0563111216794556 -1.997211166168156 0.2165949553907695
| 22> *
| 23>
| 24>                          ****END OF INPUT****

CARTESIAN COORDINATES (ANGSTROEM)
---------------------------------
  C      1.320099    1.072616    0.876387
  C      0.701204    0.333813   -0.323417
  C      1.475680   -0.946802   -0.637790
  C     -0.762432    0.088504   -0.017376
  O     -1.625101    0.853607   -0.444130
  C     -1.126013   -1.091547    0.832907
  H      2.360224    1.325775    0.648888
  H      0.781063    1.999179    1.096803
  H      1.311522    0.441853    1.771468
  H      0.725212    1.002835   -1.191011
  H      1.535027   -1.602623    0.236751
  H      2.497882   -0.690407   -0.933496
  H      1.014513   -1.504746   -1.459065
  H     -2.147104   -0.994482    1.205543
  H     -0.422839   -1.219013    1.661427
  H     -1.056311   -1.997211    0.216595

 Total Charge           Charge          ....    0
 Multiplicity           Mult            ....    1
 Number of Electrons    NEL             ....   48
 Basis Dimension        Dim             ....  246

ORBITAL ENERGIES
----------------

  NO   OCC          E(Eh)            E(eV)
   0   2.0000     -21.656078      -589.2918
   1   2.0000     -12.135087      -330.2125
   2   2.0000     -12.062636      -328.2410
   3   2.0000     -12.052487      -327.9648
   4   2.0000     -12.050506      -327.9109
   5   2.0000     -12.050069      -327.8991
   6   2.0000      -1.698069       -46.2068
   7   2.0000      -1.329729       -36.1838
   8   2.0000      -1.250514       -34.0282
   9   2.0000      -1.191540       -32.4234
  10   2.0000      -1.130943       -30.7745
  11   2.0000      -1.057518       -28.7765
  12   2.0000      -0.968363       -26.3505
  13   2.0000      -0.955367       -25.9969
  14   2.0000      -0.910146       -24.7663
  15   2.0000      -0.885267       -24.0893
  16   2.0000      -0.851476       -23.1698
  17   2.0000      -0.845629       -23.0107
  18   2.0000      -0.836858       -22.7721
  19   2.0000      -0.832140       -22.6437
  20   2.0000      -0.822122       -22.3711
  21   2.0000      -0.797479       -21.7005
  22   2.0000      -0.786934       -21.4136
  23   2.0000      -0.765845       -20.8397
  24   0.0000      -0.309853        -8.4315
  25   0.0000      -0.055966        -1.5229
  26   0.0000      -0.034668        -0.9434
  27   0.0000      -0.030747        -0.8367
  28   0.0000      -0.012203        -0.3321

MULLIKEN ATOMIC CHARGES
-----------------------
   0 C :   -0.367320
   1 C :    0.014308
   2 C :   -0.367144
   3 C :    0.190834
   4 O :   -0.312705
   5 C :   -0.366701
   6 H :    0.118657
   7 H :    0.136894
   8 H :    0.102837
   9 H :    0.087850
  10 H :    0.109516
  11 H :    0.121713
  12 H :    0.127379
  13 H :    0.141210
  14 H :    0.127179
  15 H :    0.135493
Sum of atomic charges:    0.0000000

LOEWDIN ATOMIC CHARGES
----------------------
   0 C :   -0.265815
   1 C :   -0.275704
   2 C :   -0.274834
   3 C :   -0.318807
   4 O :    0.102855
   5 C :   -0.258484
   6 H :    0.122729
   7 H :    0.126272
   8 H :    0.117787
   9 H :    0.158347
  10 H :    0.119765
  11 H :    0.123448
  12 H :    0.122040
  13 H :    0.131952
  14 H :    0.128582
  15 H :    0.139867

  Mayer bond orders larger than 0.100000
B(  0-C ,  1-C ) :   0.9712 B(  0-C ,  6-H ) :   0.9780 B(  0-C ,  7-H ) :   0.9798
B(  0-C ,  8-H ) :   0.9654 B(  1-C ,  2-C ) :   0.9548 B(  1-C ,  3-C ) :   0.9350
B(  1-C ,  9-H ) :   0.9611 B(  2-C , 10-H ) :   0.9627 B(  2-C , 11-H ) :   0.9754
B(  2-C , 12-H ) :   0.9859 B(  3-C ,  4-O ) :   2.1583 B(  3-C ,  5-C ) :   0.9563
B(  5-C , 13-H ) :   0.9749 B(  5-C , 14-H ) :   0.9674 B(  5-C , 15-H ) :   0.9427

FINAL SINGLE POINT ENERGY      -271.792824696766

DIPOLE MOMENT
-------------

Method             : SCF
Type of density    : Electron Density
Multiplicity       :   1
Irrep              :   0
Energy             :  -271.8036308005657702 Eh
Relativity type    :
Basis              : AO
                                X                 Y                 Z
Electronic contribution:     -5.249472549       2.731998096      -2.103368509
Nuclear contribution   :      6.170209338      -3.447636209       2.506067170
                        -----------------------------------------
Total Dipole Moment    :      0.920736790      -0.715638112       0.402698661
                        -----------------------------------------
Magnitude (a.u.)       :      1.233718102
Magnitude (Debye)      :      3.135862204

Rotational constants in cm-1:             0.152156             0.092771             0.079351
Rotational constants in MHz :          4561.511692          2781.191601          2378.869882

                             ****ORCA TERMINATED NORMALLY****
TOTAL RUN TIME: 0 days 0 hours 1 minutes 35 seconds 823 msec
