                         Program Version 6.0.0  -   RELEASE  -
|  1> ! wb97x-v def2-tzvp def2/J RIJCOSX DEFGRID2 scfconv7 GCP(DFT/TZ) printgap
|  2> %output
|  3>     printlevel normal
|  4> end
|  5> %cpcm
|  6>     smd true
|  7>     smdsolvent "water"
|  8> end
|  9> * xyz 0 1
| 10> C 1.3200987831259736 1.0726160948260353 0.8763874675315849
| 11> C 0.7012036684665028 0.3338130136354923 -0.3234173876791963
| 12> C 1.4756796486968515 -0.9468015496054899 -0.6377904714660764
| 13> C -0.7624324645229303 0.0885040196469583 -0.017376374696674423
| 14> O -1.625100748987329 0.8536068538626913 -0.44413011744580433
| 15> C -1.1260126633627292 -1.0915471966992354 0.832907025688001
| 16> H 2.3602240626837676 1.3257749397485326 0.6488877965869371
| 17> H 0.7810625066275451 1.9991785963536803 1.0968034880662045
| 18> H 1.3115223125881632 0.4418527908101484 1.771468158698114
| 19> H 0.7252124857218436 1.0028352241927352 -1.1910106798188875
| 20> H 1.5350268753033518 -1.6026231052001167 0.236750879538451
| 21> H 2.497882001792825 -0.6904069741648369 -0.9334964081502282
| 22> H 1.0145127825034792 -1.5047458966353682 -1.4590646633448852
| 23> H -2.147103572630063 -0.9944820950361725 1.2055432162617155
| 24> H -0.4228394553242694 -1.2190125818148922 1.6614271652494257
| 25> H -1.0563111216794556 -1.997211166168156 0.2165949553907695
| 26> *
| 27>
| 28>                          ****END OF INPUT****

CARTESIAN COORDINATES (ANGSTROEM)
---------------------------------
  C      1.320099    1.072616    0.876387
  C      0.701204    0.333813   -0.323417
  C      1.475680   -0.946802   -0.637790
  C     -0.762432    0.088504   -0.017376
  O     -1.625101    0.853607   -0.444130
  C     -1.126013   -1.091547    0.832907
  H      2.360224    1.325775    0.648888
  H      0.781063    1.999179    1.096803
  H      1.311522    0.441853    1.771468
  H      0.725212    1.002835   -1.191011
  H      1.535027   -1.602623    0.236751
  H      2.497882   -0.690407   -0.933496
  H      1.014513   -1.504746   -1.459065
  H     -2.147104   -0.994482    1.205543
  H     -0.422839   -1.219013    1.661427
  H     -1.056311   -1.997211    0.216595

 Total Charge           Charge          ....    0
 Multiplicity           Mult            ....    1
 Number of Electrons    NEL             ....   48
 Basis Dimension        Dim             ....  246

ORBITAL ENERGIES
----------------

  NO   OCC          E(Eh)            E(eV)
   0   2.0000     -21.667165      -589.5935
   1   2.0000     -12.142327      -330.4095
   2   2.0000     -12.053214      -327.9846
   3   2.0000     -12.039147      -327.6019
   4   2.0000     -12.035152      -327.4931
   5   2.0000     -12.031855      -327.4034
   6   2.0000      -1.712730       -46.6057
   7   2.0000      -1.319661       -35.9098
   8   2.0000      -1.241168       -33.7739
   9   2.0000      -1.175300       -31.9815
  10   2.0000      -1.127479       -30.6803
  11   2.0000      -1.064425       -28.9645
  12   2.0000      -0.963936       -26.2300
  13   2.0000      -0.956319       -26.0228
  14   2.0000      -0.920591       -25.0505
  15   2.0000      -0.872255       -23.7353
  16   2.0000      -0.840393       -22.8683
  17   2.0000      -0.837507       -22.7897
  18   2.0000      -0.824643       -22.4397
  19   2.0000      -0.821246       -22.3472
  20   2.0000      -0.804891       -21.9022
  21   2.0000      -0.782525       -21.2936
  22   2.0000      -0.776159       -21.1203
  23   2.0000      -0.756511       -20.5857
  24   0.0000      -0.307680        -8.3724
  25   0.0000      -0.048811        -1.3282
  26   0.0000      -0.022799        -0.6204
  27   0.0000      -0.011975        -0.3258
  28   0.0000       0.002619         0.0713

MULLIKEN ATOMIC CHARGES
-----------------------
   0 C :   -0.411111
   1 C :    0.021043
   2 C :   -0.415175
   3 C :    0.278792
   4 O :   -0.457381
   5 C :   -0.410487
   6 H :    0.139676
   7 H :    0.137037
   8 H :    0.133333
   9 H :    0.091240
  10 H :    0.133569
  11 H :    0.139352
  12 H :    0.140549
  13 H :    0.144511
  14 H :    0.165675
  15 H :    0.169378
Sum of atomic charges:    0.0000000

LOEWDIN ATOMIC CHARGES
----------------------
   0 C :   -0.266376
   1 C :   -0.272213
   2 C :   -0.273854
   3 C :   -0.297409
   4 O :    0.020225
   5 C :   -0.252495
   6 H :    0.127856
   7 H :    0.125212
   8 H :    0.125677
   9 H :    0.158467
  10 H :    0.126041
  11 H :    0.127201
  12 H :    0.125459
  13 H :    0.131897
  14 H :    0.142462
  15 H :    0.151852

  Mayer bond orders larger than 0.100000
B(  0-C ,  1-C ) :   0.9563 B(  0-C ,  6-H ) :   0.9739 B(  0-C ,  7-H ) :   0.9751
B(  0-C ,  8-H ) :   0.9652 B(  1-C ,  2-C ) :   0.9526 B(  1-C ,  3-C ) :   0.9471
B(  1-C ,  9-H ) :   0.9628 B(  2-C , 10-H ) :   0.9634 B(  2-C , 11-H ) :   0.9713
B(  2-C , 12-H ) :   0.9798 B(  3-C ,  4-O ) :   1.9929 B(  3-C ,  5-C ) :   0.9849
B(  5-C , 13-H ) :   0.9671 B(  5-C , 14-H ) :   0.9545 B(  5-C , 15-H ) :   0.9316

FINAL SINGLE POINT ENERGY      -271.800305041997

DIPOLE MOMENT
-------------

Method             : SCF
Type of density    : Electron Density
Multiplicity       :   1
Irrep              :   0
Energy             :  -271.8111111457973834 Eh
Relativity type    :
Basis              : AO
                                X                 Y                 Z
Electronic contribution:     -4.859076938       2.358214120      -1.891998875
Nuclear contribution   :      6.170209338      -3.447636209       2.506067170
                        -----------------------------------------
Total Dipole Moment    :      1.311132400      -1.089422089       0.614068296
                        -----------------------------------------
Magnitude (a.u.)       :      1.811901910
Magnitude (Debye)      :      4.605488650

Rotational constants in cm-1:             0.152156             0.092771             0.079351
Rotational constants in MHz :          4561.511692          2781.191601          2378.869882

                             ****ORCA TERMINATED NORMALLY****
TOTAL RUN TIME: 0 days 0 hours 1 minutes 39 seconds 1 msec
