                         Program Version 6.0.0  -   RELEASE  -
|  1> ! pbe def2-sv(p) def2/J RI DEFGRID1 loosescf d4 GCP(DFT/SV(P)) printgap
|  2> %output
|  3>     printlevel normal
|  4> end
|  5> * xyz 0 1
|  6> C 2.4095261503 0.6892354582 -0.0001475693
|  7> C 2.3841797408 -0.7154486472 8.86607e-05
|  8> C 1.196145034 -1.3918725507 7.77773e-05
|  9> C -0.0241667348 -0.6839914483 -2.16151e-05
| 10> C 0.0009173396 0.7384788305 9.40576e-05
| 11> C 1.2437984289 1.403126956 -6.25131e-05
| 12> C -1.2375055714 1.4136560935 0.0001039482
| 13> C -2.3953642287 0.6848543965 -4.95471e-05
| 14> C -2.3056633215 -0.7189177816 -5.5502e-05
| 15> N -1.1818452025 -1.3816026111 -2.06426e-05
| 16> H 3.3601331843 1.2004331888 0.0002038098
| 17> H 3.3166441194 -1.2591548301 -0.0003720363
| 18> H 1.1564030352 -2.4693115399 7.916e-07
| 19> H 1.2538609013 2.4834484699 0.000127294
| 20> H -1.251830483 2.4944248582 7.53337e-05
| 21> H -3.3630735006 1.1606089423 -9.58869e-05
| 22> H -3.2047906771 -1.3219013399 1.74974e-05
| 23> *
| 24>
| 25>                          ****END OF INPUT****

CARTESIAN COORDINATES (ANGSTROEM)
---------------------------------
  C      2.409526    0.689235   -0.000148
  C      2.384180   -0.715449    0.000089
  C      1.196145   -1.391873    0.000078
  C     -0.024167   -0.683991   -0.000022
  C      0.000917    0.738479    0.000094
  C      1.243798    1.403127   -0.000063
  C     -1.237506    1.413656    0.000104
  C     -2.395364    0.684854   -0.000050
  C     -2.305663   -0.718918   -0.000056
  N     -1.181845   -1.381603   -0.000021
  H      3.360133    1.200433    0.000204
  H      3.316644   -1.259155   -0.000372
  H      1.156403   -2.469312    0.000001
  H      1.253861    2.483448    0.000127
  H     -1.251830    2.494425    0.000075
  H     -3.363074    1.160609   -0.000096
  H     -3.204791   -1.321901    0.000017

 Total Charge           Charge          ....    0
 Multiplicity           Mult            ....    1
 Number of Electrons    NEL             ....   68
 Basis Dimension        Dim             ....  154

ORBITAL ENERGIES
----------------

  NO   OCC          E(Eh)            E(eV)
   0   2.0000     -13.981694      -380.4612
   1   2.0000      -9.930446      -270.2212
   2   2.0000      -9.923698      -270.0376
   3   2.0000      -9.912497      -269.7328
   4   2.0000      -9.912145      -269.7232
   5   2.0000      -9.902909      -269.4719
   6   2.0000      -9.902689      -269.4659
   7   2.0000      -9.902269      -269.4544
   8   2.0000      -9.902030      -269.4479
   9   2.0000      -9.895291      -269.2645
  10   2.0000      -0.861347       -23.4384
  11   2.0000      -0.774526       -21.0759
  12   2.0000      -0.731554       -19.9066
  13   2.0000      -0.679996       -18.5036
  14   2.0000      -0.669375       -18.2146
  15   2.0000      -0.581526       -15.8241
  16   2.0000      -0.569347       -15.4927
  17   2.0000      -0.545077       -14.8323
  18   2.0000      -0.478064       -13.0088
  19   2.0000      -0.466567       -12.6959
  20   2.0000      -0.459575       -12.5057
  21   2.0000      -0.411894       -11.2082
  22   2.0000      -0.394003       -10.7214
  23   2.0000      -0.385803       -10.4982
  24   2.0000      -0.378355       -10.2956
  25   2.0000      -0.367734       -10.0065
  26   2.0000      -0.359169        -9.7735
  27   2.0000      -0.318843        -8.6762
  28   2.0000      -0.314940        -8.5700
  29   2.0000      -0.309830        -8.4309
  30   2.0000      -0.282035        -7.6746
  31   2.0000      -0.235549        -6.4096
  32   2.0000      -0.215698        -5.8694
  33   2.0000      -0.205868        -5.6020
  34   0.0000      -0.083810        -2.2806
  35   0.0000      -0.049123        -1.3367
  36   0.0000      -0.017920        -0.4876
  37   0.0000       0.040889         1.1127
  38   0.0000       0.047729         1.2988

MULLIKEN ATOMIC CHARGES
-----------------------
   0 C :   -0.027640
   1 C :   -0.049508
   2 C :   -0.069509
   3 C :    0.004818
   4 C :    0.136179
   5 C :   -0.131911
   6 C :   -0.064955
   7 C :   -0.063883
   8 C :   -0.060539
   9 N :   -0.049997
  10 H :    0.057041
  11 H :    0.059256
  12 H :    0.037884
  13 H :    0.039472
  14 H :    0.052133
  15 H :    0.062054
  16 H :    0.069106
Sum of atomic charges:    0.0000000

LOEWDIN ATOMIC CHARGES
----------------------
   0 C :   -0.120549
   1 C :   -0.117846
   2 C :   -0.108025
   3 C :   -0.005205
   4 C :   -0.041205
   5 C :   -0.112174
   6 C :   -0.085184
   7 C :   -0.146535
   8 C :   -0.077891
   9 N :   -0.065753
  10 H :    0.126261
  11 H :    0.126696
  12 H :    0.131991
  13 H :    0.124274
  14 H :    0.127648
  15 H :    0.129142
  16 H :    0.114356

  Mayer bond orders larger than 0.100000
B(  0-C ,  1-C ) :   1.2546 B(  0-C ,  5-C ) :   1.4565 B(  0-C , 10-H ) :   0.9628
B(  1-C ,  2-C ) :   1.4268 B(  1-C , 11-H ) :   0.9629 B(  2-C ,  3-C ) :   1.2616
B(  2-C ,  5-C ) :   0.1043 B(  2-C , 12-H ) :   0.9638 B(  3-C ,  4-C ) :   1.2178
B(  3-C ,  9-N ) :   1.3976 B(  4-C ,  5-C ) :   1.2360 B(  4-C ,  6-C ) :   1.2762
B(  5-C , 13-H ) :   0.9662 B(  6-C ,  7-C ) :   1.4985 B(  6-C , 14-H ) :   0.9551
B(  7-C ,  8-C ) :   1.2500 B(  7-C , 15-H ) :   0.9460 B(  8-C ,  9-N ) :   1.6521
B(  8-C , 16-H ) :   0.9486

Dispersion correction           -0.020742991
FINAL SINGLE POINT ENERGY      -401.075342923165

DIPOLE MOMENT
-------------

Method             : SCF
Type of density    : Electron Density
Multiplicity       :   1
Irrep              :   0
Energy             :  -401.1163821155880100 Eh
Relativity type    :
Basis              : AO
                                X                 Y                 Z
Electronic contribution:     -1.077404074      -1.399669563       0.000039457
Nuclear contribution   :      1.182498253       2.139462965      -0.000040639
                        -----------------------------------------
Total Dipole Moment    :      0.105094179       0.739793402      -0.000001182
                        -----------------------------------------
Magnitude (a.u.)       :      0.747220894
Magnitude (Debye)      :      1.899284574

Rotational constants in cm-1:             0.106475             0.042868             0.030563
Rotational constants in MHz :          3192.030564          1285.160619           916.260178

                             ****ORCA TERMINATED NORMALLY****
TOTAL RUN TIME: 0 days 0 hours 0 minutes 8 seconds 436 msec
