                         Program Version 6.0.0  -   RELEASE  -
|  1> ! r2scan-3c def2/J RI DEFGRID2 scfconv6 printgap
|  2> %output
|  3>     printlevel normal
|  4> end
|  5> * xyz 0 1
|  6> C -2.4005433577 0.0412990427 0.0437680702
|  7> C -0.9442814907 0.4899450123 -0.0039933836
|  8> C -0.0021391917 -0.6733302155 -0.1350721482
|  9> C 1.3193125576 -0.6131428866 -0.0713541445
| 10> C 2.1376748512 0.6187991611 0.1403554339
| 11> H -3.0608564366 0.8999645592 0.1411586467
| 12> H -2.5674501486 -0.6184570043 0.8924609677
| 13> H -2.6649950977 -0.4937309509 -0.8657810445
| 14> H -0.8032748733 1.1677219653 -0.8515126726
| 15> H -0.7102918879 1.0522091598 0.9039050884
| 16> H -0.4748007896 -1.6323038763 -0.3010178253
| 17> H 1.8940541401 -1.5242514249 -0.182110836
| 18> H 2.8029204915 0.7707092541 -0.7089881893
| 19> H 2.7591581596 0.5042577372 1.0278263087
| 20> H 1.5144855449 1.4995945212 0.2574077165
| 21> *
| 22>
| 23>                          ****END OF INPUT****

CARTESIAN COORDINATES (ANGSTROEM)
---------------------------------
  C     -2.400543    0.041299    0.043768
  C     -0.944281    0.489945   -0.003993
  C     -0.002139   -0.673330   -0.135072
  C      1.319313   -0.613143   -0.071354
  C      2.137675    0.618799    0.140355
  H     -3.060856    0.899965    0.141159
  H     -2.567450   -0.618457    0.892461
  H     -2.664995   -0.493731   -0.865781
  H     -0.803275    1.167722   -0.851513
  H     -0.710292    1.052209    0.903905
  H     -0.474801   -1.632304   -0.301018
  H      1.894054   -1.524251   -0.182111
  H      2.802920    0.770709   -0.708988
  H      2.759158    0.504258    1.027826
  H      1.514486    1.499595    0.257408

 Total Charge           Charge          ....    0
 Multiplicity           Mult            ....    1
 Number of Electrons    NEL             ....   40
 Basis Dimension        Dim             ....  145

ORBITAL ENERGIES
----------------

  NO   OCC          E(Eh)            E(eV)
   0   2.0000     -10.027903      -272.8731
   1   2.0000     -10.022415      -272.7238
   2   2.0000     -10.021868      -272.7089
   3   2.0000     -10.019081      -272.6330
   4   2.0000     -10.017402      -272.5874
   5   2.0000      -0.771633       -20.9972
   6   2.0000      -0.718969       -19.5641
   7   2.0000      -0.647010       -17.6060
   8   2.0000      -0.581385       -15.8203
   9   2.0000      -0.495274       -13.4771
  10   2.0000      -0.437849       -11.9145
  11   2.0000      -0.416670       -11.3382
  12   2.0000      -0.397246       -10.8096
  13   2.0000      -0.380182       -10.3453
  14   2.0000      -0.348246        -9.4763
  15   2.0000      -0.337908        -9.1949
  16   2.0000      -0.321911        -8.7596
  17   2.0000      -0.317913        -8.6508
  18   2.0000      -0.290674        -7.9097
  19   2.0000      -0.216586        -5.8936
  20   0.0000      -0.002190        -0.0596
  21   0.0000       0.093297         2.5387
  22   0.0000       0.111478         3.0335
  23   0.0000       0.132425         3.6035
  24   0.0000       0.142316         3.8726

MULLIKEN ATOMIC CHARGES
-----------------------
   0 C :   -0.491333
   1 C :   -0.235332
   2 C :   -0.183169
   3 C :   -0.107907
   4 C :   -0.475717
   5 H :    0.144561
   6 H :    0.150366
   7 H :    0.145159
   8 H :    0.153054
   9 H :    0.148167
  10 H :    0.150446
  11 H :    0.147928
  12 H :    0.151971
  13 H :    0.150474
  14 H :    0.151333
Sum of atomic charges:    0.0000000

LOEWDIN ATOMIC CHARGES
----------------------
   0 C :   -0.422622
   1 C :   -0.314977
   2 C :   -0.216702
   3 C :   -0.209843
   4 C :   -0.410337
   5 H :    0.150121
   6 H :    0.151899
   7 H :    0.151097
   8 H :    0.160900
   9 H :    0.159391
  10 H :    0.164493
  11 H :    0.159204
  12 H :    0.160777
  13 H :    0.160086
  14 H :    0.156514

  Mayer bond orders larger than 0.100000
B(  0-C ,  1-C ) :   0.8946 B(  0-C ,  5-H ) :   0.9762 B(  0-C ,  6-H ) :   0.9855
B(  0-C ,  7-H ) :   0.9793 B(  1-C ,  2-C ) :   0.9028 B(  1-C ,  8-H ) :   0.9661
B(  1-C ,  9-H ) :   0.9773 B(  2-C ,  3-C ) :   1.9436 B(  2-C , 10-H ) :   0.9571
B(  3-C ,  4-C ) :   0.8999 B(  3-C , 11-H ) :   0.9445 B(  4-C , 12-H ) :   0.9667
B(  4-C , 13-H ) :   0.9680 B(  4-C , 14-H ) :   0.9876

Dispersion correction           -0.003216034
FINAL SINGLE POINT ENERGY      -196.459265515729

DIPOLE MOMENT
-------------

Method             : SCF
Type of density    : Electron Density
Multiplicity       :   1
Irrep              :   0
Energy             :  -196.4622026897111482 Eh
Relativity type    :
Basis              : AO
                                X                 Y                 Z
Electronic contribution:      1.267063787      -1.382498360      -0.280889526
Nuclear contribution   :     -1.229990529       1.525198414       0.293974300
                        -----------------------------------------
Total Dipole Moment    :      0.037073258       0.142700053       0.013084773
                        -----------------------------------------
Magnitude (a.u.)       :      0.148016698
Magnitude (Debye)      :      0.376228548

Rotational constants in cm-1:             0.482301             0.081533             0.072660
Rotational constants in MHz :         14459.026434          2444.303978          2178.285242

                             ****ORCA TERMINATED NORMALLY****
TOTAL RUN TIME: 0 days 0 hours 0 minutes 11 seconds 106 msec
