                         Program Version 6.0.0  -   RELEASE  -
|  1> ! r2scan-3c def2/J RI DEFGRID2 scfconv6 printgap
|  2> %output
|  3>     printlevel normal
|  4> end
|  5> %cpcm
|  6>     smd true
|  7>     smdsolvent "water"
|  8> end
|  9> * xyz 0 1
| 10> C -2.4005433577 0.0412990427 0.0437680702
| 11> C -0.9442814907 0.4899450123 -0.0039933836
| 12> C -0.0021391917 -0.6733302155 -0.1350721482
| 13> C 1.3193125576 -0.6131428866 -0.0713541445
| 14> C 2.1376748512 0.6187991611 0.1403554339
| 15> H -3.0608564366 0.8999645592 0.1411586467
| 16> H -2.5674501486 -0.6184570043 0.8924609677
| 17> H -2.6649950977 -0.4937309509 -0.8657810445
| 18> H -0.8032748733 1.1677219653 -0.8515126726
| 19> H -0.7102918879 1.0522091598 0.9039050884
| 20> H -0.4748007896 -1.6323038763 -0.3010178253
| 21> H 1.8940541401 -1.5242514249 -0.182110836
| 22> H 2.8029204915 0.7707092541 -0.7089881893
| 23> H 2.7591581596 0.5042577372 1.0278263087
| 24> H 1.5144855449 1.4995945212 0.2574077165
| 25> *
| 26>
| 27>                          ****END OF INPUT****

CARTESIAN COORDINATES (ANGSTROEM)
---------------------------------
  C     -2.400543    0.041299    0.043768
  C     -0.944281    0.489945   -0.003993
  C     -0.002139   -0.673330   -0.135072
  C      1.319313   -0.613143   -0.071354
  C      2.137675    0.618799    0.140355
  H     -3.060856    0.899965    0.141159
  H     -2.567450   -0.618457    0.892461
  H     -2.664995   -0.493731   -0.865781
  H     -0.803275    1.167722   -0.851513
  H     -0.710292    1.052209    0.903905
  H     -0.474801   -1.632304   -0.301018
  H      1.894054   -1.524251   -0.182111
  H      2.802920    0.770709   -0.708988
  H      2.759158    0.504258    1.027826
  H      1.514486    1.499595    0.257408

 Total Charge           Charge          ....    0
 Multiplicity           Mult            ....    1
 Number of Electrons    NEL             ....   40
 Basis Dimension        Dim             ....  145

ORBITAL ENERGIES
----------------

  NO   OCC          E(Eh)            E(eV)
   0   2.0000     -10.021783      -272.7066
   1   2.0000     -10.020891      -272.6823
   2   2.0000     -10.017953      -272.6024
   3   2.0000     -10.014730      -272.5146
   4   2.0000     -10.009981      -272.3854
   5   2.0000      -0.768772       -20.9194
   6   2.0000      -0.713683       -19.4203
   7   2.0000      -0.642563       -17.4850
   8   2.0000      -0.576130       -15.6773
   9   2.0000      -0.490894       -13.3579
  10   2.0000      -0.433792       -11.8041
  11   2.0000      -0.410681       -11.1752
  12   2.0000      -0.392294       -10.6749
  13   2.0000      -0.374129       -10.1806
  14   2.0000      -0.341375        -9.2893
  15   2.0000      -0.331958        -9.0330
  16   2.0000      -0.315787        -8.5930
  17   2.0000      -0.312239        -8.4964
  18   2.0000      -0.285754        -7.7758
  19   2.0000      -0.217470        -5.9177
  20   0.0000      -0.002149        -0.0585
  21   0.0000       0.099307         2.7023
  22   0.0000       0.118166         3.2155
  23   0.0000       0.138606         3.7717
  24   0.0000       0.146119         3.9761

MULLIKEN ATOMIC CHARGES
-----------------------
   0 C :   -0.519210
   1 C :   -0.234162
   2 C :   -0.241670
   3 C :   -0.145327
   4 C :   -0.503025
   5 H :    0.156794
   6 H :    0.158597
   7 H :    0.155328
   8 H :    0.165194
   9 H :    0.163130
  10 H :    0.172915
  11 H :    0.170919
  12 H :    0.167672
  13 H :    0.165877
  14 H :    0.166968
Sum of atomic charges:    0.0000000

LOEWDIN ATOMIC CHARGES
----------------------
   0 C :   -0.429419
   1 C :   -0.317303
   2 C :   -0.232618
   3 C :   -0.222195
   4 C :   -0.417286
   5 H :    0.153380
   6 H :    0.153876
   7 H :    0.153809
   8 H :    0.165324
   9 H :    0.164386
  10 H :    0.169840
  11 H :    0.165145
  12 H :    0.166429
  13 H :    0.165749
  14 H :    0.160883

  Mayer bond orders larger than 0.100000
B(  0-C ,  1-C ) :   0.8864 B(  0-C ,  5-H ) :   0.9739 B(  0-C ,  6-H ) :   0.9829
B(  0-C ,  7-H ) :   0.9761 B(  1-C ,  2-C ) :   0.8910 B(  1-C ,  8-H ) :   0.9626
B(  1-C ,  9-H ) :   0.9761 B(  2-C ,  3-C ) :   1.9126 B(  2-C , 10-H ) :   0.9590
B(  3-C ,  4-C ) :   0.8908 B(  3-C , 11-H ) :   0.9482 B(  4-C , 12-H ) :   0.9606
B(  4-C , 13-H ) :   0.9619 B(  4-C , 14-H ) :   0.9859

Dispersion correction           -0.003216034
FINAL SINGLE POINT ENERGY      -196.457935473746

DIPOLE MOMENT
-------------

Method             : SCF
Type of density    : Electron Density
Multiplicity       :   1
Irrep              :   0
Energy             :  -196.4608726477281095 Eh
Relativity type    :
Basis              : AO
                                X                 Y                 Z
Electronic contribution:      1.291479465      -1.317464790      -0.275732801
Nuclear contribution   :     -1.229990529       1.525198414       0.293974300
                        -----------------------------------------
Total Dipole Moment    :      0.061488937       0.207733623       0.018241499
                        -----------------------------------------
Magnitude (a.u.)       :      0.217409521
Magnitude (Debye)      :      0.552611086

Rotational constants in cm-1:             0.482301             0.081533             0.072660
Rotational constants in MHz :         14459.026434          2444.303978          2178.285242

                             ****ORCA TERMINATED NORMALLY****
TOTAL RUN TIME: 0 days 0 hours 0 minutes 13 seconds 678 msec
