                         Program Version 6.0.0  -   RELEASE  -
|  1> ! pbe def2-sv(p) def2/J RI DEFGRID1 loosescf d4 GCP(DFT/SV(P)) printgap
|  2> %output
|  3>     printlevel normal
|  4> end
|  5> * xyz 0 1
|  6> C -2.8967784918 0.4896684718 -0.5159883372
|  7> C -1.681315946 0.5656721064 0.4157305489
|  8> H -2.0441500114 0.7953913408 1.4240848983
|  9> C -0.6819138038 1.6480952948 -0.0183587325
| 10> C 0.1243857785 1.2474600502 -1.2500288887
| 11> C 0.8584933896 -0.07741415 -1.0266656447
| 12> H 1.3643800553 -0.3602035211 -1.9592794813
| 13> C -0.2090087904 -1.1537262976 -0.7424547508
| 14> C -0.9966470605 -0.7790009347 0.4787655272
| 15> O -1.0762547836 -1.500534818 1.4561727967
| 16> C 1.9328285481 -0.0285658307 0.0436594829
| 17> C 2.5385863329 1.0856527181 0.426254333
| 18> C 2.3515323075 -1.3492928152 0.6220836083
| 19> H -3.5506340262 -0.3258562235 -0.2143195274
| 20> H -3.4556315345 1.4198325368 -0.4553463667
| 21> H -2.5987919874 0.3324738235 -1.5477312928
| 22> H -1.2287970086 2.5713024453 -0.2164310428
| 23> H 0.002780192 1.8335221122 0.811015443
| 24> H -0.5396412621 1.1379058725 -2.1083185099
| 25> H 0.8341595553 2.0372816619 -1.4935486787
| 26> H -0.8909003823 -1.1929661683 -1.5926779157
| 27> H 0.2288529475 -2.1414780866 -0.6086798378
| 28> H 3.3247978601 1.0623350049 1.1623424017
| 29> H 2.298018871 2.0594688922 0.0404500584
| 30> H 1.5651385295 -1.7546715911 1.2584770271
| 31> H 2.5576006665 -2.0689362826 -0.1682723842
| 32> H 3.2467592264 -1.2314367644 1.2267035397
| 33> *
| 34>
| 35>                          ****END OF INPUT****

CARTESIAN COORDINATES (ANGSTROEM)
---------------------------------
  C     -2.896778    0.489668   -0.515988
  C     -1.681316    0.565672    0.415731
  H     -2.044150    0.795391    1.424085
  C     -0.681914    1.648095   -0.018359
  C      0.124386    1.247460   -1.250029
  C      0.858493   -0.077414   -1.026666
  H      1.364380   -0.360204   -1.959279
  C     -0.209009   -1.153726   -0.742455
  C     -0.996647   -0.779001    0.478766
  O     -1.076255   -1.500535    1.456173
  C      1.932829   -0.028566    0.043659
  C      2.538586    1.085653    0.426254
  C      2.351532   -1.349293    0.622084
  H     -3.550634   -0.325856   -0.214320
  H     -3.455632    1.419833   -0.455346
  H     -2.598792    0.332474   -1.547731
  H     -1.228797    2.571302   -0.216431
  H      0.002780    1.833522    0.811015
  H     -0.539641    1.137906   -2.108319
  H      0.834160    2.037282   -1.493549
  H     -0.890900   -1.192966   -1.592678
  H      0.228853   -2.141478   -0.608680
  H      3.324798    1.062335    1.162342
  H      2.298019    2.059469    0.040450
  H      1.565139   -1.754672    1.258477
  H      2.557601   -2.068936   -0.168272
  H      3.246759   -1.231437    1.226704

 Total Charge           Charge          ....    0
 Multiplicity           Mult            ....    1
 Number of Electrons    NEL             ....   84
 Basis Dimension        Dim             ....  186

ORBITAL ENERGIES
----------------

  NO   OCC          E(Eh)            E(eV)
   0   2.0000     -18.738747      -509.9072
   1   2.0000      -9.968856      -271.2664
   2   2.0000      -9.912448      -269.7314
   3   2.0000      -9.903796      -269.4960
   4   2.0000      -9.899727      -269.3853
   5   2.0000      -9.894229      -269.2357
   6   2.0000      -9.893603      -269.2186
   7   2.0000      -9.891015      -269.1482
   8   2.0000      -9.889881      -269.1173
   9   2.0000      -9.879041      -268.8224
  10   2.0000      -9.875388      -268.7230
  11   2.0000      -0.932904       -25.3856
  12   2.0000      -0.775186       -21.0939
  13   2.0000      -0.727211       -19.7884
  14   2.0000      -0.683152       -18.5895
  15   2.0000      -0.666503       -18.1365
  16   2.0000      -0.614188       -16.7129
  17   2.0000      -0.604361       -16.4455
  18   2.0000      -0.559929       -15.2364
  19   2.0000      -0.535369       -14.5681
  20   2.0000      -0.483905       -13.1677
  21   2.0000      -0.448399       -12.2016
  22   2.0000      -0.443497       -12.0682
  23   2.0000      -0.419367       -11.4115
  24   2.0000      -0.412121       -11.2144
  25   2.0000      -0.402797       -10.9607
  26   2.0000      -0.396532       -10.7902
  27   2.0000      -0.374906       -10.2017
  28   2.0000      -0.365498        -9.9457
  29   2.0000      -0.362821        -9.8729
  30   2.0000      -0.354581        -9.6486
  31   2.0000      -0.349020        -9.4973
  32   2.0000      -0.345376        -9.3982
  33   2.0000      -0.330334        -8.9889
  34   2.0000      -0.319895        -8.7048
  35   2.0000      -0.311559        -8.4779
  36   2.0000      -0.307491        -8.3673
  37   2.0000      -0.287527        -7.8240
  38   2.0000      -0.279996        -7.6191
  39   2.0000      -0.275484        -7.4963
  40   2.0000      -0.220786        -6.0079
  41   2.0000      -0.189664        -5.1610
  42   0.0000      -0.053512        -1.4561
  43   0.0000      -0.017800        -0.4844
  44   0.0000       0.026456         0.7199
  45   0.0000       0.050888         1.3847
  46   0.0000       0.058395         1.5890

MULLIKEN ATOMIC CHARGES
-----------------------
   0 C :   -0.273513
   1 C :   -0.119592
   2 H :    0.069389
   3 C :   -0.115205
   4 C :   -0.152953
   5 C :   -0.131268
   6 H :    0.091445
   7 C :   -0.078538
   8 C :    0.003753
   9 O :   -0.162812
  10 C :   -0.068538
  11 C :   -0.230328
  12 C :   -0.233909
  13 H :    0.117262
  14 H :    0.110172
  15 H :    0.108710
  16 H :    0.082150
  17 H :    0.100833
  18 H :    0.082295
  19 H :    0.098213
  20 H :    0.098269
  21 H :    0.090921
  22 H :    0.084201
  23 H :    0.089434
  24 H :    0.134849
  25 H :    0.107399
  26 H :    0.097361
Sum of atomic charges:    0.0000000

LOEWDIN ATOMIC CHARGES
----------------------
   0 C :   -0.323109
   1 C :   -0.166650
   2 H :    0.126647
   3 C :   -0.214570
   4 C :   -0.217048
   5 C :   -0.123808
   6 H :    0.133135
   7 C :   -0.235435
   8 C :    0.058146
   9 O :   -0.130321
  10 C :   -0.053073
  11 C :   -0.265535
  12 C :   -0.327725
  13 H :    0.126506
  14 H :    0.125512
  15 H :    0.115709
  16 H :    0.118341
  17 H :    0.124798
  18 H :    0.117096
  19 H :    0.122271
  20 H :    0.136264
  21 H :    0.128921
  22 H :    0.119942
  23 H :    0.116193
  24 H :    0.137346
  25 H :    0.125602
  26 H :    0.124844

  Mayer bond orders larger than 0.100000
B(  0-C ,  1-C ) :   1.0800 B(  0-C , 13-H ) :   0.9475 B(  0-C , 14-H ) :   0.9437
B(  0-C , 15-H ) :   0.9416 B(  1-C ,  2-H ) :   0.8719 B(  1-C ,  3-C ) :   1.0687
B(  1-C ,  8-C ) :   0.9758 B(  3-C ,  4-C ) :   1.1252 B(  3-C , 16-H ) :   0.9114
B(  3-C , 17-H ) :   0.9033 B(  4-C ,  5-C ) :   1.1007 B(  4-C , 18-H ) :   0.9098
B(  4-C , 19-H ) :   0.8974 B(  5-C ,  6-H ) :   0.8609 B(  5-C ,  7-C ) :   1.0693
B(  5-C , 10-C ) :   0.9889 B(  7-C ,  8-C ) :   1.0334 B(  7-C , 20-H ) :   0.8816
B(  7-C , 21-H ) :   0.8726 B(  8-C ,  9-O ) :   2.1684 B( 10-C , 11-C ) :   2.0464
B( 10-C , 12-C ) :   1.1307 B( 11-C , 22-H ) :   0.8996 B( 11-C , 23-H ) :   0.8977
B( 12-C , 24-H ) :   0.9070 B( 12-C , 25-H ) :   0.9323 B( 12-C , 26-H ) :   0.9336

Dispersion correction           -0.030351614
FINAL SINGLE POINT ENERGY      -464.825878954470

DIPOLE MOMENT
-------------

Method             : SCF
Type of density    : Electron Density
Multiplicity       :   1
Irrep              :   0
Energy             :  -464.9110881364513261 Eh
Relativity type    :
Basis              : AO
                                X                 Y                 Z
Electronic contribution:     -0.998086207      -3.362205504       3.254632337
Nuclear contribution   :      1.029103287       3.893623281      -4.145303165
                        -----------------------------------------
Total Dipole Moment    :      0.031017079       0.531417777      -0.890670828
                        -----------------------------------------
Magnitude (a.u.)       :      1.037622974
Magnitude (Debye)      :      2.637428001

Rotational constants in cm-1:             0.056137             0.031708             0.025314
Rotational constants in MHz :          1682.959296           950.580666           758.883719

                             ****ORCA TERMINATED NORMALLY****
TOTAL RUN TIME: 0 days 0 hours 0 minutes 17 seconds 967 msec
