                         Program Version 6.0.0  -   RELEASE  -
|  1> ! wb97x-v def2-tzvp def2/J RIJCOSX DEFGRID2 scfconv7 GCP(DFT/TZ) printgap
|  2> %output
|  3>     printlevel normal
|  4> end
|  5> * xyz 0 1
|  6> C -3.4353639555617055 0.6229035029442307 0.07501708694568905
|  7> C -1.9395033575916567 0.5091116618115465 0.08132586598109116
|  8> C -1.1345555754794618 1.520412496901821 -0.26633058866630016
|  9> C 0.36202495991150296 1.4450799221676907 -0.30878405695028954
| 10> C 0.8682243353547765 -0.0061790622792395646 -0.287670272971903
| 11> H 0.6097295804425833 -0.45776047293183525 -1.2537099379940393
| 12> C 0.11494307467281578 -0.765364398342503 0.8117078759206058
| 13> C -1.3751817505383026 -0.8239629591845837 0.5175623168967701
| 14> H -1.908782996982325 -1.148817242493104 1.4235206128302174
| 15> O -1.5784234578636698 -1.8380738270964097 -0.5106082506589462
| 16> C 2.370040128381386 -0.0779511001052715 -0.13491210834241044
| 17> C 3.1456441290413633 -0.42153428254967884 -1.1690444927024695
| 18> C 2.951219442311657 0.25014259683110307 1.210475341438538
| 19> H -3.758760019530959 1.6210867855305173 -0.23227236276576277
| 20> H -3.8472771313483154 0.41192808872326814 1.0698661934112146
| 21> H -3.8891018920785676 -0.10268737002237127 -0.6129996601223108
| 22> H -1.581260417665668 2.475662361132644 -0.5423574852862678
| 23> H 0.7292444513195537 1.9520895446529896 -1.2097220943542308
| 24> H 0.7775642589041833 2.0056708535663534 0.5417011399001133
| 25> H 0.4992050524453748 -1.7857271803482655 0.9224303831016758
| 26> H 0.25330884032742473 -0.25567007122218677 1.7728922943679153
| 27> H -2.530036184641533 -1.922354308860424 -0.6538994302716731
| 28> H 4.228310553252054 -0.4604913889943941 -1.0776913271359005
| 29> H 2.716018828374821 -0.6736796397026635 -2.1357128499953557
| 30> H 2.6012154292895806 1.2228355696274884 1.5760879261860563
| 31> H 2.6454640328866823 -0.49187957890451645 1.9582827898103294
| 32> H 4.043453548242714 0.26712419874354176 1.1734265299064446
| 33> *
| 34>
| 35>                          ****END OF INPUT****

CARTESIAN COORDINATES (ANGSTROEM)
---------------------------------
  C     -3.435364    0.622904    0.075017
  C     -1.939503    0.509112    0.081326
  C     -1.134556    1.520412   -0.266331
  C      0.362025    1.445080   -0.308784
  C      0.868224   -0.006179   -0.287670
  H      0.609730   -0.457760   -1.253710
  C      0.114943   -0.765364    0.811708
  C     -1.375182   -0.823963    0.517562
  H     -1.908783   -1.148817    1.423521
  O     -1.578423   -1.838074   -0.510608
  C      2.370040   -0.077951   -0.134912
  C      3.145644   -0.421534   -1.169044
  C      2.951219    0.250143    1.210475
  H     -3.758760    1.621087   -0.232272
  H     -3.847277    0.411928    1.069866
  H     -3.889102   -0.102687   -0.613000
  H     -1.581260    2.475662   -0.542357
  H      0.729244    1.952090   -1.209722
  H      0.777564    2.005671    0.541701
  H      0.499205   -1.785727    0.922430
  H      0.253309   -0.255670    1.772892
  H     -2.530036   -1.922354   -0.653899
  H      4.228311   -0.460491   -1.077691
  H      2.716019   -0.673680   -2.135713
  H      2.601215    1.222836    1.576088
  H      2.645464   -0.491880    1.958283
  H      4.043454    0.267124    1.173427

 Total Charge           Charge          ....    0
 Multiplicity           Mult            ....    1
 Number of Electrons    NEL             ....   84
 Basis Dimension        Dim             ....  437

ORBITAL ENERGIES
----------------

  NO   OCC          E(Eh)            E(eV)
   0   2.0000     -21.667738      -589.6091
   1   2.0000     -12.098982      -329.2300
   2   2.0000     -12.052447      -327.9638
   3   2.0000     -12.050675      -327.9155
   4   2.0000     -12.047338      -327.8247
   5   2.0000     -12.046994      -327.8154
   6   2.0000     -12.045743      -327.7813
   7   2.0000     -12.044267      -327.7412
   8   2.0000     -12.040636      -327.6424
   9   2.0000     -12.038803      -327.5925
  10   2.0000     -12.026934      -327.2695
  11   2.0000      -1.663300       -45.2607
  12   2.0000      -1.363880       -37.1131
  13   2.0000      -1.324455       -36.0402
  14   2.0000      -1.269352       -34.5408
  15   2.0000      -1.257017       -34.2052
  16   2.0000      -1.190535       -32.3961
  17   2.0000      -1.184130       -32.2218
  18   2.0000      -1.129743       -30.7419
  19   2.0000      -1.093515       -29.7561
  20   2.0000      -1.052695       -28.6453
  21   2.0000      -0.997258       -27.1368
  22   2.0000      -0.965263       -26.2661
  23   2.0000      -0.937086       -25.4994
  24   2.0000      -0.933728       -25.4080
  25   2.0000      -0.912470       -24.8296
  26   2.0000      -0.899755       -24.4836
  27   2.0000      -0.889677       -24.2094
  28   2.0000      -0.873108       -23.7585
  29   2.0000      -0.855016       -23.2662
  30   2.0000      -0.840649       -22.8752
  31   2.0000      -0.835775       -22.7426
  32   2.0000      -0.831009       -22.6129
  33   2.0000      -0.819572       -22.3017
  34   2.0000      -0.815401       -22.1882
  35   2.0000      -0.806960       -21.9585
  36   2.0000      -0.802531       -21.8380
  37   2.0000      -0.775275       -21.0963
  38   2.0000      -0.766249       -20.8507
  39   2.0000      -0.757832       -20.6217
  40   2.0000      -0.647549       -17.6207
  41   2.0000      -0.638266       -17.3681
  42   0.0000      -0.228116        -6.2073
  43   0.0000      -0.196928        -5.3587
  44   0.0000      -0.118802        -3.2328
  45   0.0000      -0.059481        -1.6186
  46   0.0000      -0.047437        -1.2908

MULLIKEN ATOMIC CHARGES
-----------------------
   0 C :   -0.346054
   1 C :   -0.058269
   2 C :   -0.199607
   3 C :   -0.162203
   4 C :    0.022484
   5 H :    0.088038
   6 C :   -0.226629
   7 C :    0.144744
   8 H :    0.083173
   9 O :   -0.438432
  10 C :    0.024576
  11 C :   -0.291078
  12 C :   -0.382383
  13 H :    0.118577
  14 H :    0.119620
  15 H :    0.100435
  16 H :    0.107535
  17 H :    0.110782
  18 H :    0.089892
  19 H :    0.115905
  20 H :    0.105124
  21 H :    0.291270
  22 H :    0.105915
  23 H :    0.113893
  24 H :    0.115977
  25 H :    0.130484
  26 H :    0.116232
Sum of atomic charges:   -0.0000000

LOEWDIN ATOMIC CHARGES
----------------------
   0 C :   -0.261925
   1 C :   -0.189607
   2 C :   -0.129628
   3 C :   -0.210527
   4 C :   -0.204011
   5 H :    0.165575
   6 C :   -0.196392
   7 C :   -0.283903
   8 H :    0.137630
   9 O :   -0.035781
  10 C :   -0.204453
  11 C :   -0.192603
  12 C :   -0.255074
  13 H :    0.126303
  14 H :    0.124538
  15 H :    0.118850
  16 H :    0.139458
  17 H :    0.144180
  18 H :    0.141801
  19 H :    0.145048
  20 H :    0.144567
  21 H :    0.163079
  22 H :    0.117571
  23 H :    0.120799
  24 H :    0.122165
  25 H :    0.127290
  26 H :    0.125051

  Mayer bond orders larger than 0.100000
B(  0-C ,  1-C ) :   0.9515 B(  0-C , 13-H ) :   0.9905 B(  0-C , 14-H ) :   0.9801
B(  0-C , 15-H ) :   0.9676 B(  1-C ,  2-C ) :   1.8956 B(  1-C ,  7-C ) :   0.9905
B(  2-C ,  3-C ) :   0.9886 B(  2-C , 16-H ) :   0.9606 B(  3-C ,  4-C ) :   1.0236
B(  3-C , 17-H ) :   0.9713 B(  3-C , 18-H ) :   0.9471 B(  4-C ,  5-H ) :   0.9827
B(  4-C ,  6-C ) :   0.9667 B(  4-C , 10-C ) :   0.8785 B(  6-C ,  7-C ) :   0.9744
B(  6-C , 19-H ) :   0.9667 B(  6-C , 20-H ) :   0.9605 B(  7-C ,  8-H ) :   0.9923
B(  7-C ,  9-O ) :   1.0622 B(  9-O , 21-H ) :   0.9072 B( 10-C , 11-C ) :   1.9379
B( 10-C , 12-C ) :   0.9574 B( 11-C , 22-H ) :   0.9655 B( 11-C , 23-H ) :   0.9691
B( 12-C , 24-H ) :   0.9751 B( 12-C , 25-H ) :   0.9730 B( 12-C , 26-H ) :   0.9832

FINAL SINGLE POINT ENERGY      -465.918122018233

DIPOLE MOMENT
-------------

Method             : SCF
Type of density    : Electron Density
Multiplicity       :   1
Irrep              :   0
Energy             :  -465.9358996815331011 Eh
Relativity type    :
Basis              : AO
                                X                 Y                 Z
Electronic contribution:     -2.041951041      -2.024914228      -2.039276095
Nuclear contribution   :      1.516215499       2.433494804       2.452314687
                        -----------------------------------------
Total Dipole Moment    :     -0.525735542       0.408580576       0.413038592
                        -----------------------------------------
Magnitude (a.u.)       :      0.783541209
Magnitude (Debye)      :      1.991603477

Rotational constants in cm-1:             0.070645             0.022200             0.020016
Rotational constants in MHz :          2117.886741           665.552606           600.068398

                             ****ORCA TERMINATED NORMALLY****
TOTAL RUN TIME: 0 days 0 hours 5 minutes 24 seconds 929 msec
