                         Program Version 6.0.0  -   RELEASE  -
|  1> ! wb97x-v def2-tzvp def2/J RIJCOSX DEFGRID2 scfconv7 GCP(DFT/TZ) printgap
|  2> %output
|  3>     printlevel normal
|  4> end
|  5> %cpcm
|  6>     smd true
|  7>     smdsolvent "water"
|  8> end
|  9> * xyz 0 1
| 10> C -3.4353639555617055 0.6229035029442307 0.07501708694568905
| 11> C -1.9395033575916567 0.5091116618115465 0.08132586598109116
| 12> C -1.1345555754794618 1.520412496901821 -0.26633058866630016
| 13> C 0.36202495991150296 1.4450799221676907 -0.30878405695028954
| 14> C 0.8682243353547765 -0.0061790622792395646 -0.287670272971903
| 15> H 0.6097295804425833 -0.45776047293183525 -1.2537099379940393
| 16> C 0.11494307467281578 -0.765364398342503 0.8117078759206058
| 17> C -1.3751817505383026 -0.8239629591845837 0.5175623168967701
| 18> H -1.908782996982325 -1.148817242493104 1.4235206128302174
| 19> O -1.5784234578636698 -1.8380738270964097 -0.5106082506589462
| 20> C 2.370040128381386 -0.0779511001052715 -0.13491210834241044
| 21> C 3.1456441290413633 -0.42153428254967884 -1.1690444927024695
| 22> C 2.951219442311657 0.25014259683110307 1.210475341438538
| 23> H -3.758760019530959 1.6210867855305173 -0.23227236276576277
| 24> H -3.8472771313483154 0.41192808872326814 1.0698661934112146
| 25> H -3.8891018920785676 -0.10268737002237127 -0.6129996601223108
| 26> H -1.581260417665668 2.475662361132644 -0.5423574852862678
| 27> H 0.7292444513195537 1.9520895446529896 -1.2097220943542308
| 28> H 0.7775642589041833 2.0056708535663534 0.5417011399001133
| 29> H 0.4992050524453748 -1.7857271803482655 0.9224303831016758
| 30> H 0.25330884032742473 -0.25567007122218677 1.7728922943679153
| 31> H -2.530036184641533 -1.922354308860424 -0.6538994302716731
| 32> H 4.228310553252054 -0.4604913889943941 -1.0776913271359005
| 33> H 2.716018828374821 -0.6736796397026635 -2.1357128499953557
| 34> H 2.6012154292895806 1.2228355696274884 1.5760879261860563
| 35> H 2.6454640328866823 -0.49187957890451645 1.9582827898103294
| 36> H 4.043453548242714 0.26712419874354176 1.1734265299064446
| 37> *
| 38>
| 39>                          ****END OF INPUT****

CARTESIAN COORDINATES (ANGSTROEM)
---------------------------------
  C     -3.435364    0.622904    0.075017
  C     -1.939503    0.509112    0.081326
  C     -1.134556    1.520412   -0.266331
  C      0.362025    1.445080   -0.308784
  C      0.868224   -0.006179   -0.287670
  H      0.609730   -0.457760   -1.253710
  C      0.114943   -0.765364    0.811708
  C     -1.375182   -0.823963    0.517562
  H     -1.908783   -1.148817    1.423521
  O     -1.578423   -1.838074   -0.510608
  C      2.370040   -0.077951   -0.134912
  C      3.145644   -0.421534   -1.169044
  C      2.951219    0.250143    1.210475
  H     -3.758760    1.621087   -0.232272
  H     -3.847277    0.411928    1.069866
  H     -3.889102   -0.102687   -0.613000
  H     -1.581260    2.475662   -0.542357
  H      0.729244    1.952090   -1.209722
  H      0.777564    2.005671    0.541701
  H      0.499205   -1.785727    0.922430
  H      0.253309   -0.255670    1.772892
  H     -2.530036   -1.922354   -0.653899
  H      4.228311   -0.460491   -1.077691
  H      2.716019   -0.673680   -2.135713
  H      2.601215    1.222836    1.576088
  H      2.645464   -0.491880    1.958283
  H      4.043454    0.267124    1.173427

 Total Charge           Charge          ....    0
 Multiplicity           Mult            ....    1
 Number of Electrons    NEL             ....   84
 Basis Dimension        Dim             ....  437

ORBITAL ENERGIES
----------------

  NO   OCC          E(Eh)            E(eV)
   0   2.0000     -21.671349      -589.7074
   1   2.0000     -12.093650      -329.0849
   2   2.0000     -12.053458      -327.9913
   3   2.0000     -12.044913      -327.7588
   4   2.0000     -12.043914      -327.7316
   5   2.0000     -12.038902      -327.5952
   6   2.0000     -12.037538      -327.5580
   7   2.0000     -12.034749      -327.4822
   8   2.0000     -12.031875      -327.4040
   9   2.0000     -12.030502      -327.3666
  10   2.0000     -12.025217      -327.2228
  11   2.0000      -1.667368       -45.3714
  12   2.0000      -1.359549       -36.9952
  13   2.0000      -1.321360       -35.9560
  14   2.0000      -1.264470       -34.4080
  15   2.0000      -1.251727       -34.0612
  16   2.0000      -1.181624       -32.1536
  17   2.0000      -1.179691       -32.1010
  18   2.0000      -1.125171       -30.6175
  19   2.0000      -1.088691       -29.6248
  20   2.0000      -1.053204       -28.6591
  21   2.0000      -0.994727       -27.0679
  22   2.0000      -0.966233       -26.2925
  23   2.0000      -0.938636       -25.5416
  24   2.0000      -0.928727       -25.2719
  25   2.0000      -0.909768       -24.7560
  26   2.0000      -0.895488       -24.3675
  27   2.0000      -0.885924       -24.1072
  28   2.0000      -0.869851       -23.6699
  29   2.0000      -0.849655       -23.1203
  30   2.0000      -0.832759       -22.6605
  31   2.0000      -0.825809       -22.4714
  32   2.0000      -0.822206       -22.3734
  33   2.0000      -0.811436       -22.0803
  34   2.0000      -0.806296       -21.9404
  35   2.0000      -0.798455       -21.7271
  36   2.0000      -0.797075       -21.6895
  37   2.0000      -0.770949       -20.9786
  38   2.0000      -0.761224       -20.7139
  39   2.0000      -0.753014       -20.4906
  40   2.0000      -0.643530       -17.5113
  41   2.0000      -0.638074       -17.3629
  42   0.0000      -0.223498        -6.0817
  43   0.0000      -0.197895        -5.3850
  44   0.0000      -0.113393        -3.0856
  45   0.0000      -0.045849        -1.2476
  46   0.0000      -0.040406        -1.0995

MULLIKEN ATOMIC CHARGES
-----------------------
   0 C :   -0.385756
   1 C :   -0.111147
   2 C :   -0.246639
   3 C :   -0.168487
   4 C :    0.046243
   5 H :    0.084393
   6 C :   -0.245907
   7 C :    0.164562
   8 H :    0.116374
   9 O :   -0.552706
  10 C :   -0.023157
  11 C :   -0.388638
  12 C :   -0.422238
  13 H :    0.137626
  14 H :    0.136168
  15 H :    0.133779
  16 H :    0.146841
  17 H :    0.123112
  18 H :    0.119782
  19 H :    0.123844
  20 H :    0.130765
  21 H :    0.354787
  22 H :    0.147508
  23 H :    0.149032
  24 H :    0.142442
  25 H :    0.149364
  26 H :    0.138055
Sum of atomic charges:   -0.0000000

LOEWDIN ATOMIC CHARGES
----------------------
   0 C :   -0.264088
   1 C :   -0.197139
   2 C :   -0.138621
   3 C :   -0.211362
   4 C :   -0.207937
   5 H :    0.161505
   6 C :   -0.199138
   7 C :   -0.279844
   8 H :    0.147732
   9 O :   -0.076713
  10 C :   -0.208858
  11 C :   -0.218687
  12 C :   -0.257359
  13 H :    0.128871
  14 H :    0.129594
  15 H :    0.128522
  16 H :    0.147074
  17 H :    0.146424
  18 H :    0.149270
  19 H :    0.143759
  20 H :    0.152290
  21 H :    0.184911
  22 H :    0.123514
  23 H :    0.125141
  24 H :    0.129842
  25 H :    0.132796
  26 H :    0.128502

  Mayer bond orders larger than 0.100000
B(  0-C ,  1-C ) :   0.9641 B(  0-C , 13-H ) :   0.9876 B(  0-C , 14-H ) :   0.9738
B(  0-C , 15-H ) :   0.9591 B(  1-C ,  2-C ) :   1.8857 B(  1-C ,  7-C ) :   0.9922
B(  2-C ,  3-C ) :   0.9844 B(  2-C , 16-H ) :   0.9634 B(  3-C ,  4-C ) :   1.0126
B(  3-C , 17-H ) :   0.9657 B(  3-C , 18-H ) :   0.9434 B(  4-C ,  5-H ) :   0.9851
B(  4-C ,  6-C ) :   0.9400 B(  4-C , 10-C ) :   0.8719 B(  6-C ,  7-C ) :   0.9611
B(  6-C , 19-H ) :   0.9733 B(  6-C , 20-H ) :   0.9592 B(  7-C ,  8-H ) :   0.9969
B(  7-C ,  9-O ) :   1.0175 B(  9-O , 21-H ) :   0.8717 B( 10-C , 11-C ) :   1.9165
B( 10-C , 12-C ) :   0.9689 B( 11-C , 22-H ) :   0.9686 B( 11-C , 23-H ) :   0.9684
B( 12-C , 24-H ) :   0.9688 B( 12-C , 25-H ) :   0.9659 B( 12-C , 26-H ) :   0.9797

FINAL SINGLE POINT ENERGY      -465.926790278943

DIPOLE MOMENT
-------------

Method             : SCF
Type of density    : Electron Density
Multiplicity       :   1
Irrep              :   0
Energy             :  -465.9445679422426565 Eh
Relativity type    :
Basis              : AO
                                X                 Y                 Z
Electronic contribution:     -2.299371823      -1.823504990      -1.719696115
Nuclear contribution   :      1.516215499       2.433494804       2.452314687
                        -----------------------------------------
Total Dipole Moment    :     -0.783156324       0.609989814       0.732618572
                        -----------------------------------------
Magnitude (a.u.)       :      1.233754989
Magnitude (Debye)      :      3.135955964

Rotational constants in cm-1:             0.070645             0.022200             0.020016
Rotational constants in MHz :          2117.886741           665.552606           600.068398

                             ****ORCA TERMINATED NORMALLY****
TOTAL RUN TIME: 0 days 0 hours 5 minutes 33 seconds 105 msec
