                         Program Version 6.0.0  -   RELEASE  -
|  1> ! wb97x-v def2-tzvp def2/J RIJCOSX DEFGRID2 scfconv7 GCP(DFT/TZ) printgap
|  2> %output
|  3>     printlevel normal
|  4> end
|  5> %cpcm
|  6>     smd true
|  7>     smdsolvent "water"
|  8> end
|  9> * xyz 0 1
| 10> C -1.0395448032526284 0.776322532120144 -0.0697075281267522
| 11> C -1.0410161831015663 -0.774048154634894 -0.07086436586720539
| 12> C 0.4282030414076572 -1.1533345493254483 0.20427637509354776
| 13> N 1.254781830119931 -0.0015593147431224204 -0.22276623478247745
| 14> C 0.43099422021151806 1.1525714911230167 0.20340106778699862
| 15> H -1.711073338860467 1.1940173878485199 0.6859755683779368
| 16> H -1.3562105444945354 1.1634368239156696 -1.0428153610107125
| 17> H -1.7149159037418205 -1.1917583384032484 0.6826986419705402
| 18> H -1.356241320734794 -1.1590109372819366 -1.0453098052051315
| 19> H 0.5832629688350611 -1.3070482798481533 1.2786983765896212
| 20> H 0.742561593238504 -2.06416651161804 -0.31189159903133434
| 21> H 1.2271146289199777 -0.0019534150692792434 -1.2415668605370769
| 22> H 0.5874404190936521 1.307523775463928 1.277430741553497
| 23> H 0.746886530211781 2.061962739693068 -0.3143593937906571
| 24> *
| 25>
| 26>                          ****END OF INPUT****

CARTESIAN COORDINATES (ANGSTROEM)
---------------------------------
  C     -1.039545    0.776323   -0.069708
  C     -1.041016   -0.774048   -0.070864
  C      0.428203   -1.153335    0.204276
  N      1.254782   -0.001559   -0.222766
  C      0.430994    1.152571    0.203401
  H     -1.711073    1.194017    0.685976
  H     -1.356211    1.163437   -1.042815
  H     -1.714916   -1.191758    0.682699
  H     -1.356241   -1.159011   -1.045310
  H      0.583263   -1.307048    1.278698
  H      0.742562   -2.064167   -0.311892
  H      1.227115   -0.001953   -1.241567
  H      0.587440    1.307524    1.277431
  H      0.746887    2.061963   -0.314359

 Total Charge           Charge          ....    0
 Multiplicity           Mult            ....    1
 Number of Electrons    NEL             ....   40
 Basis Dimension        Dim             ....  209

ORBITAL ENERGIES
----------------

  NO   OCC          E(Eh)            E(eV)
   0   2.0000     -16.505463      -449.1365
   1   2.0000     -12.054323      -328.0148
   2   2.0000     -12.053994      -328.0059
   3   2.0000     -12.029932      -327.3511
   4   2.0000     -12.028786      -327.3199
   5   2.0000      -1.465870       -39.8884
   6   2.0000      -1.262623       -34.3577
   7   2.0000      -1.217159       -33.1206
   8   2.0000      -1.081518       -29.4296
   9   2.0000      -1.049478       -28.5578
  10   2.0000      -0.949334       -25.8327
  11   2.0000      -0.902002       -24.5447
  12   2.0000      -0.874621       -23.7996
  13   2.0000      -0.868116       -23.6226
  14   2.0000      -0.815500       -22.1909
  15   2.0000      -0.791655       -21.5420
  16   2.0000      -0.781819       -21.2744
  17   2.0000      -0.771877       -21.0038
  18   2.0000      -0.739366       -20.1192
  19   2.0000      -0.719934       -19.5904
  20   0.0000      -0.071240        -1.9385
  21   0.0000      -0.071118        -1.9352
  22   0.0000      -0.019044        -0.5182
  23   0.0000      -0.015163        -0.4126
  24   0.0000       0.000400         0.0109

MULLIKEN ATOMIC CHARGES
-----------------------
   0 C :   -0.212950
   1 C :   -0.213292
   2 C :   -0.143839
   3 N :   -0.385677
   4 C :   -0.144217
   5 H :    0.107169
   6 H :    0.104469
   7 H :    0.107157
   8 H :    0.104514
   9 H :    0.100658
  10 H :    0.124932
  11 H :    0.225453
  12 H :    0.100640
  13 H :    0.124983
Sum of atomic charges:    0.0000000

LOEWDIN ATOMIC CHARGES
----------------------
   0 C :   -0.262156
   1 C :   -0.262212
   2 C :   -0.303408
   3 N :   -0.062664
   4 C :   -0.303355
   5 H :    0.129623
   6 H :    0.129489
   7 H :    0.129625
   8 H :    0.129512
   9 H :    0.125840
  10 H :    0.124784
  11 H :    0.174331
  12 H :    0.125811
  13 H :    0.124780

  Mayer bond orders larger than 0.100000
B(  0-C ,  1-C ) :   0.9944 B(  0-C ,  4-C ) :   1.0049 B(  0-C ,  5-H ) :   0.9668
B(  0-C ,  6-H ) :   0.9733 B(  1-C ,  2-C ) :   1.0049 B(  1-C ,  7-H ) :   0.9668
B(  1-C ,  8-H ) :   0.9733 B(  2-C ,  3-N ) :   1.0067 B(  2-C ,  9-H ) :   0.9726
B(  2-C , 10-H ) :   0.9705 B(  3-N ,  4-C ) :   1.0069 B(  3-N , 11-H ) :   0.9281
B(  4-C , 12-H ) :   0.9726 B(  4-C , 13-H ) :   0.9704

FINAL SINGLE POINT ENERGY      -212.602483852674

DIPOLE MOMENT
-------------

Method             : SCF
Type of density    : Electron Density
Multiplicity       :   1
Irrep              :   0
Energy             :  -212.6119988113743489 Eh
Relativity type    :
Basis              : AO
                                X                 Y                 Z
Electronic contribution:      1.451384267      -0.002277685      -0.290878880
Nuclear contribution   :     -2.180732077       0.002887581      -0.037156647
                        -----------------------------------------
Total Dipole Moment    :     -0.729347810       0.000609896      -0.328035527
                        -----------------------------------------
Magnitude (a.u.)       :      0.799722394
Magnitude (Debye)      :      2.032732780

Rotational constants in cm-1:             0.227871             0.223498             0.130266
Rotational constants in MHz :          6831.412087          6700.311908          3905.288398

                             ****ORCA TERMINATED NORMALLY****
TOTAL RUN TIME: 0 days 0 hours 1 minutes 8 seconds 420 msec
