                         Program Version 6.0.0  -   RELEASE  -
|  1> ! pbe def2-sv(p) def2/J RI DEFGRID1 loosescf d4 GCP(DFT/SV(P)) printgap
|  2> %output
|  3>     printlevel normal
|  4> end
|  5> * xyz 0 1
|  6> C -2.3318364118 -0.7948466099 0.7336070243
|  7> C -0.8674915478 -0.3338321813 0.744372127
|  8> H -0.5983824803 -0.0368279939 1.766625814
|  9> C -0.6433438659 0.8595101043 -0.1906656444
| 10> H -0.8809278614 0.535342464 -1.2151058698
| 11> C 0.8350819037 1.31132464 -0.1326216218
| 12> H 0.8974750204 2.1489434353 0.5717529834
| 13> C 1.7553378732 0.1754048408 0.3687742698
| 14> H 2.7434813325 0.3162519513 -0.0922082137
| 15> C 1.2102109803 -1.1645082037 -0.1372023325
| 16> H 1.8467184722 -1.9828573842 0.2313661083
| 17> O -0.0758901329 -1.4512534578 0.3455444253
| 18> O 1.231919659 -1.0986752296 -1.5330862735
| 19> O 1.85573001 0.1043486738 1.7660493129
| 20> O 1.2794649525 1.8155296836 -1.3672221046
| 21> O -1.5082493932 1.8928220693 0.2131740521
| 22> O -2.7283451675 -1.3041320607 -0.5129870797
| 23> H -2.9664432535 0.0676769527 0.9394399395
| 24> H -2.465644012 -1.5475479591 1.5191583622
| 25> H 1.0232277713 -1.964131885 -1.9152405906
| 26> H 2.3555041618 0.8652534827 2.0968531532
| 27> H 1.3174168332 1.0847931105 -2.0045979508
| 28> H -1.4635428458 2.6122806636 -0.4329203158
| 29> H -2.1750809734 -2.0748434073 -0.7057476968
| 30> *
| 31>
| 32>                          ****END OF INPUT****

CARTESIAN COORDINATES (ANGSTROEM)
---------------------------------
  C     -2.331836   -0.794847    0.733607
  C     -0.867492   -0.333832    0.744372
  H     -0.598382   -0.036828    1.766626
  C     -0.643344    0.859510   -0.190666
  H     -0.880928    0.535342   -1.215106
  C      0.835082    1.311325   -0.132622
  H      0.897475    2.148943    0.571753
  C      1.755338    0.175405    0.368774
  H      2.743481    0.316252   -0.092208
  C      1.210211   -1.164508   -0.137202
  H      1.846718   -1.982857    0.231366
  O     -0.075890   -1.451253    0.345544
  O      1.231920   -1.098675   -1.533086
  O      1.855730    0.104349    1.766049
  O      1.279465    1.815530   -1.367222
  O     -1.508249    1.892822    0.213174
  O     -2.728345   -1.304132   -0.512987
  H     -2.966443    0.067677    0.939440
  H     -2.465644   -1.547548    1.519158
  H      1.023228   -1.964132   -1.915241
  H      2.355504    0.865253    2.096853
  H      1.317417    1.084793   -2.004598
  H     -1.463543    2.612281   -0.432920
  H     -2.175081   -2.074843   -0.705748

 Total Charge           Charge          ....    0
 Multiplicity           Mult            ....    1
 Number of Electrons    NEL             ....   96
 Basis Dimension        Dim             ....  192

ORBITAL ENERGIES
----------------

  NO   OCC          E(Eh)            E(eV)
   0   2.0000     -18.780725      -511.0495
   1   2.0000     -18.771686      -510.8036
   2   2.0000     -18.764500      -510.6080
   3   2.0000     -18.748762      -510.1798
   4   2.0000     -18.742833      -510.0184
   5   2.0000     -18.738307      -509.8953
   6   2.0000      -9.994196      -271.9559
   7   2.0000      -9.947455      -270.6840
   8   2.0000      -9.936423      -270.3838
   9   2.0000      -9.933514      -270.3047
  10   2.0000      -9.933325      -270.2995
  11   2.0000      -9.919221      -269.9157
  12   2.0000      -0.988789       -26.9063
  13   2.0000      -0.942154       -25.6373
  14   2.0000      -0.932225       -25.3671
  15   2.0000      -0.927739       -25.2451
  16   2.0000      -0.914060       -24.8728
  17   2.0000      -0.908414       -24.7192
  18   2.0000      -0.696912       -18.9639
  19   2.0000      -0.692086       -18.8326
  20   2.0000      -0.618501       -16.8303
  21   2.0000      -0.582250       -15.8438
  22   2.0000      -0.564600       -15.3635
  23   2.0000      -0.530495       -14.4355
  24   2.0000      -0.500630       -13.6228
  25   2.0000      -0.480295       -13.0695
  26   2.0000      -0.473077       -12.8731
  27   2.0000      -0.453457       -12.3392
  28   2.0000      -0.443805       -12.0765
  29   2.0000      -0.437773       -11.9124
  30   2.0000      -0.421666       -11.4741
  31   2.0000      -0.386158       -10.5079
  32   2.0000      -0.374288       -10.1849
  33   2.0000      -0.367987       -10.0134
  34   2.0000      -0.359574        -9.7845
  35   2.0000      -0.356819        -9.7095
  36   2.0000      -0.339439        -9.2366
  37   2.0000      -0.318400        -8.6641
  38   2.0000      -0.299579        -8.1520
  39   2.0000      -0.293492        -7.9863
  40   2.0000      -0.275852        -7.5063
  41   2.0000      -0.261535        -7.1167
  42   2.0000      -0.254805        -6.9336
  43   2.0000      -0.248920        -6.7735
  44   2.0000      -0.233574        -6.3559
  45   2.0000      -0.222511        -6.0548
  46   2.0000      -0.209656        -5.7050
  47   2.0000      -0.196138        -5.3372
  48   0.0000       0.006350         0.1728
  49   0.0000       0.018321         0.4985
  50   0.0000       0.038279         1.0416
  51   0.0000       0.050228         1.3668
  52   0.0000       0.067942         1.8488

MULLIKEN ATOMIC CHARGES
-----------------------
   0 C :    0.085185
   1 C :    0.019299
   2 H :    0.065583
   3 C :    0.056592
   4 H :    0.038192
   5 C :    0.113856
   6 H :    0.043584
   7 C :   -0.016245
   8 H :    0.075230
   9 C :    0.184923
  10 H :    0.069515
  11 O :   -0.326590
  12 O :   -0.404492
  13 O :   -0.406616
  14 O :   -0.436708
  15 O :   -0.417547
  16 O :   -0.440919
  17 H :    0.098720
  18 H :    0.075935
  19 H :    0.310585
  20 H :    0.310398
  21 H :    0.304202
  22 H :    0.308453
  23 H :    0.288867
Sum of atomic charges:    0.0000000

LOEWDIN ATOMIC CHARGES
----------------------
   0 C :   -0.126735
   1 C :   -0.069547
   2 H :    0.112997
   3 C :   -0.077444
   4 H :    0.102109
   5 C :   -0.079663
   6 H :    0.111677
   7 C :   -0.092216
   8 H :    0.109732
   9 C :    0.003580
  10 H :    0.101021
  11 O :   -0.148413
  12 O :   -0.312816
  13 O :   -0.307883
  14 O :   -0.323817
  15 O :   -0.317212
  16 O :   -0.334698
  17 H :    0.123698
  18 H :    0.098863
  19 H :    0.291055
  20 H :    0.292807
  21 H :    0.276396
  22 H :    0.292078
  23 H :    0.274431

  Mayer bond orders larger than 0.100000
B(  0-C ,  1-C ) :   1.0344 B(  0-C , 16-O ) :   1.0599 B(  0-C , 17-H ) :   0.9116
B(  0-C , 18-H ) :   0.9201 B(  1-C ,  2-H ) :   0.8574 B(  1-C ,  3-C ) :   1.0728
B(  1-C , 11-O ) :   0.9721 B(  3-C ,  4-H ) :   0.8428 B(  3-C ,  5-C ) :   1.0202
B(  3-C , 15-O ) :   1.0574 B(  5-C ,  6-H ) :   0.8517 B(  5-C ,  7-C ) :   0.9858
B(  5-C , 14-O ) :   1.0397 B(  7-C ,  8-H ) :   0.8869 B(  7-C ,  9-C ) :   1.0348
B(  7-C , 13-O ) :   1.0456 B(  9-C , 10-H ) :   0.8948 B(  9-C , 11-O ) :   1.0781
B(  9-C , 12-O ) :   1.1065 B( 12-O , 19-H ) :   0.8376 B( 13-O , 20-H ) :   0.8458
B( 14-O , 21-H ) :   0.8312 B( 15-O , 22-H ) :   0.8454 B( 16-O , 23-H ) :   0.8448

Dispersion correction           -0.025013519
FINAL SINGLE POINT ENERGY      -685.694982139241

DIPOLE MOMENT
-------------

Method             : SCF
Type of density    : Electron Density
Multiplicity       :   1
Irrep              :   0
Energy             :  -685.8256862390284141 Eh
Relativity type    :
Basis              : AO
                                X                 Y                 Z
Electronic contribution:      1.288712697      -0.366797805      -0.928331215
Nuclear contribution   :     -0.342746551       0.022216165       0.696297628
                        -----------------------------------------
Total Dipole Moment    :      0.945966145      -0.344581640      -0.232033587
                        -----------------------------------------
Magnitude (a.u.)       :      1.033164092
Magnitude (Debye)      :      2.626094422

Rotational constants in cm-1:             0.040331             0.027038             0.023345
Rotational constants in MHz :          1209.105463           810.585589           699.866415

                             ****ORCA TERMINATED NORMALLY****
TOTAL RUN TIME: 0 days 0 hours 0 minutes 12 seconds 376 msec
