                         Program Version 6.0.0  -   RELEASE  -
|  1> ! wb97x-v def2-tzvp def2/J RIJCOSX DEFGRID2 scfconv7 GCP(DFT/TZ) printgap
|  2> %output
|  3>     printlevel normal
|  4> end
|  5> * xyz 0 1
|  6> C -2.9121238085273746 -0.05289572418029774 -0.07162262639899161
|  7> O -1.648212221890525 0.6529726387004259 -0.22047836601222773
|  8> C -0.5516996815331778 -0.041594525918096655 0.11611582170667663
|  9> O -0.5533300487027717 -1.19055646527911 0.5014403088321682
| 10> C 0.6507780145545459 0.859923944860752 -0.048465592818309096
| 11> Cl 2.2014952112499335 -0.02597982001229713 0.18010749788478037
| 12> H -2.929417486095897 -0.9265865671175882 -0.7265250201409986
| 13> H -3.675268591512063 0.6645052326989715 -0.3684807377607743
| 14> H -3.050239892579045 -0.3534085426121151 0.9690503504282778
| 15> H 0.6000434713502852 1.659154003446993 0.6959657045248011
| 16> H 0.6497248720970863 1.3037743525885241 -1.0459437328657968
| 17> *
| 18>
| 19>                          ****END OF INPUT****

CARTESIAN COORDINATES (ANGSTROEM)
---------------------------------
  C     -2.912124   -0.052896   -0.071623
  O     -1.648212    0.652973   -0.220478
  C     -0.551700   -0.041595    0.116116
  O     -0.553330   -1.190556    0.501440
  C      0.650778    0.859924   -0.048466
  Cl     2.201495   -0.025980    0.180107
  H     -2.929417   -0.926587   -0.726525
  H     -3.675269    0.664505   -0.368481
  H     -3.050240   -0.353409    0.969050
  H      0.600043    1.659154    0.695966
  H      0.649725    1.303774   -1.045944

 Total Charge           Charge          ....    0
 Multiplicity           Mult            ....    1
 Number of Electrons    NEL             ....   56
 Basis Dimension        Dim             ....  222

ORBITAL ENERGIES
----------------

  NO   OCC          E(Eh)            E(eV)
   0   2.0000    -107.138462     -2915.3858
   1   2.0000     -21.736546      -591.4815
   2   2.0000     -21.672733      -589.7450
   3   2.0000     -12.195864      -331.8663
   4   2.0000     -12.130941      -330.0997
   5   2.0000     -12.116281      -329.7008
   6   2.0000     -11.291463      -307.2563
   7   2.0000      -9.082968      -247.1601
   8   2.0000      -9.080133      -247.0830
   9   2.0000      -9.080116      -247.0825
  10   2.0000      -1.777334       -48.3637
  11   2.0000      -1.711993       -46.5857
  12   2.0000      -1.409561       -38.3561
  13   2.0000      -1.313965       -35.7548
  14   2.0000      -1.219761       -33.1914
  15   2.0000      -1.134423       -30.8692
  16   2.0000      -1.079156       -29.3653
  17   2.0000      -1.028657       -27.9912
  18   2.0000      -1.015304       -27.6278
  19   2.0000      -0.964218       -26.2377
  20   2.0000      -0.926612       -25.2144
  21   2.0000      -0.896045       -24.3826
  22   2.0000      -0.888726       -24.1835
  23   2.0000      -0.873991       -23.7825
  24   2.0000      -0.854802       -23.2603
  25   2.0000      -0.839492       -22.8437
  26   2.0000      -0.780295       -21.2329
  27   2.0000      -0.773370       -21.0445
  28   0.0000      -0.321221        -8.7409
  29   0.0000      -0.280513        -7.6331
  30   0.0000      -0.186167        -5.0659
  31   0.0000      -0.118443        -3.2230
  32   0.0000      -0.034556        -0.9403

MULLIKEN ATOMIC CHARGES
-----------------------
   0 C :   -0.187918
   1 O :   -0.249451
   2 C :    0.291173
   3 O :   -0.319237
   4 C :   -0.129123
   5 Cl:   -0.111037
   6 H :    0.137110
   7 H :    0.133306
   8 H :    0.136255
   9 H :    0.148721
  10 H :    0.150200
Sum of atomic charges:    0.0000000

LOEWDIN ATOMIC CHARGES
----------------------
   0 C :   -0.277668
   1 O :    0.225789
   2 C :   -0.514606
   3 O :    0.109298
   4 C :   -0.441452
   5 Cl:    0.284304
   6 H :    0.113525
   7 H :    0.111611
   8 H :    0.113296
   9 H :    0.138997
  10 H :    0.136905

  Mayer bond orders larger than 0.100000
B(  0-C ,  1-O ) :   0.8971 B(  0-C ,  6-H ) :   0.9775 B(  0-C ,  7-H ) :   0.9703
B(  0-C ,  8-H ) :   0.9773 B(  1-O ,  2-C ) :   1.1875 B(  2-C ,  3-O ) :   2.0705
B(  2-C ,  4-C ) :   0.9882 B(  4-C ,  5-Cl) :   1.1137 B(  4-C ,  9-H ) :   0.9501
B(  4-C , 10-H ) :   0.9577

FINAL SINGLE POINT ENERGY      -727.943507944388

DIPOLE MOMENT
-------------

Method             : SCF
Type of density    : Electron Density
Multiplicity       :   1
Irrep              :   0
Energy             :  -727.9508382623878333 Eh
Relativity type    :
Basis              : AO
                                X                 Y                 Z
Electronic contribution:      9.873126199      -1.250347317       0.710646597
Nuclear contribution   :    -10.890601070       2.165790908      -1.006375622
                        -----------------------------------------
Total Dipole Moment    :     -1.017474871       0.915443591      -0.295729025
                        -----------------------------------------
Magnitude (a.u.)       :      1.400267024
Magnitude (Debye)      :      3.559195921

Rotational constants in cm-1:             0.324620             0.045868             0.040866
Rotational constants in MHz :          9731.865910          1375.078364          1225.126983

                             ****ORCA TERMINATED NORMALLY****
TOTAL RUN TIME: 0 days 0 hours 1 minutes 14 seconds 186 msec
