                         Program Version 6.0.0  -   RELEASE  -
|  1> ! wb97x-v def2-tzvp def2/J RIJCOSX DEFGRID2 scfconv7 GCP(DFT/TZ) printgap
|  2> %output
|  3>     printlevel normal
|  4> end
|  5> %cpcm
|  6>     smd true
|  7>     smdsolvent "water"
|  8> end
|  9> * xyz 0 1
| 10> C -2.9121238085273746 -0.05289572418029774 -0.07162262639899161
| 11> O -1.648212221890525 0.6529726387004259 -0.22047836601222773
| 12> C -0.5516996815331778 -0.041594525918096655 0.11611582170667663
| 13> O -0.5533300487027717 -1.19055646527911 0.5014403088321682
| 14> C 0.6507780145545459 0.859923944860752 -0.048465592818309096
| 15> Cl 2.2014952112499335 -0.02597982001229713 0.18010749788478037
| 16> H -2.929417486095897 -0.9265865671175882 -0.7265250201409986
| 17> H -3.675268591512063 0.6645052326989715 -0.3684807377607743
| 18> H -3.050239892579045 -0.3534085426121151 0.9690503504282778
| 19> H 0.6000434713502852 1.659154003446993 0.6959657045248011
| 20> H 0.6497248720970863 1.3037743525885241 -1.0459437328657968
| 21> *
| 22>
| 23>                          ****END OF INPUT****

CARTESIAN COORDINATES (ANGSTROEM)
---------------------------------
  C     -2.912124   -0.052896   -0.071623
  O     -1.648212    0.652973   -0.220478
  C     -0.551700   -0.041595    0.116116
  O     -0.553330   -1.190556    0.501440
  C      0.650778    0.859924   -0.048466
  Cl     2.201495   -0.025980    0.180107
  H     -2.929417   -0.926587   -0.726525
  H     -3.675269    0.664505   -0.368481
  H     -3.050240   -0.353409    0.969050
  H      0.600043    1.659154    0.695966
  H      0.649725    1.303774   -1.045944

 Total Charge           Charge          ....    0
 Multiplicity           Mult            ....    1
 Number of Electrons    NEL             ....   56
 Basis Dimension        Dim             ....  222

ORBITAL ENERGIES
----------------

  NO   OCC          E(Eh)            E(eV)
   0   2.0000    -107.141307     -2915.4632
   1   2.0000     -21.731504      -591.3443
   2   2.0000     -21.679203      -589.9211
   3   2.0000     -12.199466      -331.9643
   4   2.0000     -12.119692      -329.7936
   5   2.0000     -12.096219      -329.1549
   6   2.0000     -11.294475      -307.3383
   7   2.0000      -9.085928      -247.2407
   8   2.0000      -9.083266      -247.1682
   9   2.0000      -9.083230      -247.1673
  10   2.0000      -1.775968       -48.3265
  11   2.0000      -1.715758       -46.6881
  12   2.0000      -1.410236       -38.3745
  13   2.0000      -1.305733       -35.5308
  14   2.0000      -1.210134       -32.9294
  15   2.0000      -1.133007       -30.8307
  16   2.0000      -1.082300       -29.4509
  17   2.0000      -1.020954       -27.7816
  18   2.0000      -1.008922       -27.4542
  19   2.0000      -0.961114       -26.1532
  20   2.0000      -0.928326       -25.2610
  21   2.0000      -0.894786       -24.3484
  22   2.0000      -0.884431       -24.0666
  23   2.0000      -0.875921       -23.8350
  24   2.0000      -0.836327       -22.7576
  25   2.0000      -0.821732       -22.3605
  26   2.0000      -0.783982       -21.3332
  27   2.0000      -0.774611       -21.0782
  28   0.0000      -0.318342        -8.6625
  29   0.0000      -0.275827        -7.5056
  30   0.0000      -0.171131        -4.6567
  31   0.0000      -0.113723        -3.0946
  32   0.0000      -0.028322        -0.7707

MULLIKEN ATOMIC CHARGES
-----------------------
   0 C :   -0.224385
   1 O :   -0.264458
   2 C :    0.381172
   3 O :   -0.438378
   4 C :   -0.149602
   5 Cl:   -0.160691
   6 H :    0.155155
   7 H :    0.160549
   8 H :    0.155020
   9 H :    0.194078
  10 H :    0.191540
Sum of atomic charges:    0.0000000

LOEWDIN ATOMIC CHARGES
----------------------
   0 C :   -0.273073
   1 O :    0.228344
   2 C :   -0.491936
   3 O :    0.044691
   4 C :   -0.424418
   5 Cl:    0.253743
   6 H :    0.117876
   7 H :    0.120968
   8 H :    0.117937
   9 H :    0.154498
  10 H :    0.151370

  Mayer bond orders larger than 0.100000
B(  0-C ,  1-O ) :   0.8723 B(  0-C ,  6-H ) :   0.9721 B(  0-C ,  7-H ) :   0.9655
B(  0-C ,  8-H ) :   0.9722 B(  1-O ,  2-C ) :   1.2174 B(  2-C ,  3-O ) :   1.9522
B(  2-C ,  4-C ) :   1.0009 B(  4-C ,  5-Cl) :   1.0579 B(  4-C ,  9-H ) :   0.9376
B(  4-C , 10-H ) :   0.9463

FINAL SINGLE POINT ENERGY      -727.952749638970

DIPOLE MOMENT
-------------

Method             : SCF
Type of density    : Electron Density
Multiplicity       :   1
Irrep              :   0
Energy             :  -727.9600799569699348 Eh
Relativity type    :
Basis              : AO
                                X                 Y                 Z
Electronic contribution:      9.596327396      -0.806162810       0.579487902
Nuclear contribution   :    -10.890601070       2.165790908      -1.006375622
                        -----------------------------------------
Total Dipole Moment    :     -1.294273674       1.359628098      -0.426887720
                        -----------------------------------------
Magnitude (a.u.)       :      1.925088578
Magnitude (Debye)      :      4.893186297

Rotational constants in cm-1:             0.324620             0.045868             0.040866
Rotational constants in MHz :          9731.865910          1375.078364          1225.126983

                             ****ORCA TERMINATED NORMALLY****
TOTAL RUN TIME: 0 days 0 hours 1 minutes 16 seconds 812 msec
