                         Program Version 6.0.0  -   RELEASE  -
|  1> ! pbe def2-sv(p) def2/J RI DEFGRID1 loosescf d4 GCP(DFT/SV(P)) printgap
|  2> %output
|  3>     printlevel normal
|  4> end
|  5> * xyz 0 1
|  6> C -1.9718973323 -1.2429632386 -0.357333149
|  7> C -1.2812976264 -0.3960381876 0.7241272222
|  8> H -1.962174099 -0.3102528971 1.5770809579
|  9> C -0.9765334312 1.0309405901 0.2286537166
| 10> H -1.3391757212 1.1364547903 -0.8045309473
| 11> C 0.5413044277 1.2771206744 0.2322250786
| 12> H 0.8727005086 1.3793460873 1.2738793555
| 13> C 1.2376912976 0.0721474927 -0.4136771031
| 14> H 0.7863851233 -0.1444807369 -1.3881187746
| 15> C 1.0105896529 -1.1543260621 0.4911504548
| 16> H 1.8330608978 -1.2174175165 1.2228989681
| 17> O -0.1408064929 -1.0257976016 1.2953023673
| 18> O 0.9756002901 -2.2936278398 -0.3033458798
| 19> O 2.5957271639 0.3023164441 -0.6678306947
| 20> O 0.867191929 2.4938568876 -0.3889828583
| 21> O -1.6472217129 1.9440465229 1.0650921214
| 22> O -1.3810901433 -1.0297268556 -1.620837117
| 23> H -3.0285978659 -0.9469715438 -0.3853468636
| 24> H -1.8982745676 -2.2942314506 -0.0611861493
| 25> H 0.978434436 -3.0889748186 0.2511211106
| 26> H 3.0335675293 0.6321703693 0.1309799738
| 27> H 0.8319090441 2.3882698515 -1.3508765211
| 28> H -1.3404222231 2.839179258 0.8528445967
| 29> H -1.7559011922 -1.6578192427 -2.2538093391
| 30> *
| 31>
| 32>                          ****END OF INPUT****

CARTESIAN COORDINATES (ANGSTROEM)
---------------------------------
  C     -1.971897   -1.242963   -0.357333
  C     -1.281298   -0.396038    0.724127
  H     -1.962174   -0.310253    1.577081
  C     -0.976533    1.030941    0.228654
  H     -1.339176    1.136455   -0.804531
  C      0.541304    1.277121    0.232225
  H      0.872701    1.379346    1.273879
  C      1.237691    0.072147   -0.413677
  H      0.786385   -0.144481   -1.388119
  C      1.010590   -1.154326    0.491150
  H      1.833061   -1.217418    1.222899
  O     -0.140806   -1.025798    1.295302
  O      0.975600   -2.293628   -0.303346
  O      2.595727    0.302316   -0.667831
  O      0.867192    2.493857   -0.388983
  O     -1.647222    1.944047    1.065092
  O     -1.381090   -1.029727   -1.620837
  H     -3.028598   -0.946972   -0.385347
  H     -1.898275   -2.294231   -0.061186
  H      0.978434   -3.088975    0.251121
  H      3.033568    0.632170    0.130980
  H      0.831909    2.388270   -1.350877
  H     -1.340422    2.839179    0.852845
  H     -1.755901   -1.657819   -2.253809

 Total Charge           Charge          ....    0
 Multiplicity           Mult            ....    1
 Number of Electrons    NEL             ....   96
 Basis Dimension        Dim             ....  192

ORBITAL ENERGIES
----------------

  NO   OCC          E(Eh)            E(eV)
   0   2.0000     -18.760566      -510.5009
   1   2.0000     -18.757497      -510.4174
   2   2.0000     -18.753998      -510.3222
   3   2.0000     -18.753242      -510.3017
   4   2.0000     -18.746044      -510.1058
   5   2.0000     -18.740819      -509.9636
   6   2.0000      -9.979697      -271.5614
   7   2.0000      -9.941726      -270.5281
   8   2.0000      -9.936047      -270.3736
   9   2.0000      -9.935134      -270.3487
  10   2.0000      -9.932755      -270.2840
  11   2.0000      -9.931992      -270.2633
  12   2.0000      -0.972574       -26.4651
  13   2.0000      -0.940704       -25.5979
  14   2.0000      -0.931075       -25.3358
  15   2.0000      -0.922177       -25.0937
  16   2.0000      -0.909640       -24.7526
  17   2.0000      -0.904559       -24.6143
  18   2.0000      -0.699122       -19.0241
  19   2.0000      -0.686878       -18.6909
  20   2.0000      -0.618313       -16.8252
  21   2.0000      -0.573693       -15.6110
  22   2.0000      -0.571049       -15.5390
  23   2.0000      -0.520878       -14.1738
  24   2.0000      -0.497754       -13.5446
  25   2.0000      -0.485956       -13.2235
  26   2.0000      -0.467884       -12.7318
  27   2.0000      -0.453535       -12.3413
  28   2.0000      -0.440914       -11.9979
  29   2.0000      -0.414399       -11.2764
  30   2.0000      -0.412126       -11.2145
  31   2.0000      -0.405097       -11.0232
  32   2.0000      -0.387434       -10.5426
  33   2.0000      -0.371763       -10.1162
  34   2.0000      -0.348861        -9.4930
  35   2.0000      -0.341756        -9.2997
  36   2.0000      -0.325525        -8.8580
  37   2.0000      -0.306939        -8.3522
  38   2.0000      -0.301677        -8.2091
  39   2.0000      -0.293294        -7.9809
  40   2.0000      -0.275341        -7.4924
  41   2.0000      -0.258767        -7.0414
  42   2.0000      -0.246794        -6.7156
  43   2.0000      -0.237387        -6.4596
  44   2.0000      -0.224151        -6.0995
  45   2.0000      -0.223350        -6.0777
  46   2.0000      -0.210598        -5.7307
  47   2.0000      -0.197943        -5.3863
  48   0.0000       0.018752         0.5103
  49   0.0000       0.029333         0.7982
  50   0.0000       0.030774         0.8374
  51   0.0000       0.044892         1.2216
  52   0.0000       0.061301         1.6681

MULLIKEN ATOMIC CHARGES
-----------------------
   0 C :    0.027718
   1 C :    0.040043
   2 H :    0.085553
   3 C :    0.082266
   4 H :    0.058786
   5 C :    0.018303
   6 H :    0.053339
   7 C :   -0.010187
   8 H :    0.086805
   9 C :    0.222329
  10 H :    0.038724
  11 O :   -0.316421
  12 O :   -0.380870
  13 O :   -0.404508
  14 O :   -0.414480
  15 O :   -0.420148
  16 O :   -0.422625
  17 H :    0.080382
  18 H :    0.070830
  19 H :    0.296855
  20 H :    0.297489
  21 H :    0.302919
  22 H :    0.300085
  23 H :    0.306813
Sum of atomic charges:    0.0000000

LOEWDIN ATOMIC CHARGES
----------------------
   0 C :   -0.135315
   1 C :   -0.054268
   2 H :    0.130586
   3 C :   -0.074454
   4 H :    0.102251
   5 C :   -0.087994
   6 H :    0.111683
   7 C :   -0.099375
   8 H :    0.124755
   9 C :   -0.006325
  10 H :    0.090222
  11 O :   -0.152570
  12 O :   -0.302015
  13 O :   -0.306246
  14 O :   -0.313481
  15 O :   -0.325606
  16 O :   -0.331772
  17 H :    0.102930
  18 H :    0.100999
  19 H :    0.282760
  20 H :    0.282843
  21 H :    0.287802
  22 H :    0.282377
  23 H :    0.290214

  Mayer bond orders larger than 0.100000
B(  0-C ,  1-C ) :   1.0620 B(  0-C , 16-O ) :   1.0651 B(  0-C , 17-H ) :   0.9111
B(  0-C , 18-H ) :   0.9068 B(  1-C ,  2-H ) :   0.8863 B(  1-C ,  3-C ) :   0.9810
B(  1-C , 11-O ) :   1.0411 B(  3-C ,  4-H ) :   0.8738 B(  3-C ,  5-C ) :   1.0235
B(  3-C , 15-O ) :   1.0663 B(  5-C ,  6-H ) :   0.8542 B(  5-C ,  7-C ) :   1.0102
B(  5-C , 14-O ) :   1.0617 B(  7-C ,  8-H ) :   0.8531 B(  7-C ,  9-C ) :   0.9754
B(  7-C , 13-O ) :   1.0496 B(  9-C , 10-H ) :   0.8867 B(  9-C , 11-O ) :   1.0416
B(  9-C , 12-O ) :   1.1538 B( 12-O , 19-H ) :   0.8424 B( 13-O , 20-H ) :   0.8484
B( 14-O , 21-H ) :   0.8462 B( 15-O , 22-H ) :   0.8391 B( 16-O , 23-H ) :   0.8452

Dispersion correction           -0.025198346
FINAL SINGLE POINT ENERGY      -685.687475508052

DIPOLE MOMENT
-------------

Method             : SCF
Type of density    : Electron Density
Multiplicity       :   1
Irrep              :   0
Energy             :  -685.8172637022090612 Eh
Relativity type    :
Basis              : AO
                                X                 Y                 Z
Electronic contribution:      2.411562254       0.591699682       0.652502431
Nuclear contribution   :     -2.784904731      -1.199499812      -0.886442662
                        -----------------------------------------
Total Dipole Moment    :     -0.373342477      -0.607800130      -0.233940231
                        -----------------------------------------
Magnitude (a.u.)       :      0.750688774
Magnitude (Debye)      :      1.908099223

Rotational constants in cm-1:             0.034861             0.033033             0.022306
Rotational constants in MHz :          1045.096271           990.294031           668.729194

                             ****ORCA TERMINATED NORMALLY****
TOTAL RUN TIME: 0 days 0 hours 0 minutes 12 seconds 51 msec
