                         Program Version 6.0.0  -   RELEASE  -
|  1> ! wb97x-v def2-tzvp def2/J RIJCOSX DEFGRID2 scfconv7 GCP(DFT/TZ) printgap
|  2> %output
|  3>     printlevel normal
|  4> end
|  5> * xyz 0 1
|  6> C -1.297527985687802 -0.9317545568976014 -0.17830389132803964
|  7> C -0.4218682904751591 0.31173779148420655 -0.3262175071110521
|  8> C -1.1146293760678052 1.5399147788982457 0.26492441897714153
|  9> C 0.9318923355228015 0.1296951151246014 0.35526033602102625
| 10> O 1.7196131194303634 -0.9398852336825232 -0.2023659606196539
| 11> H -1.4957775821445032 -1.1383102298822216 0.8808621355216522
| 12> H -0.8289073034964646 -1.8193004897338882 -0.6175401122920036
| 13> H -2.2605155437866755 -0.7892220442296218 -0.679525940462962
| 14> H -0.23561350710829035 0.4906032741497332 -1.394413987486339
| 15> H -0.5042032320133647 2.4413677614624407 0.1435285960745918
| 16> H -1.3016534254445027 1.3991529837043546 1.3363298622752864
| 17> H -2.0788988323244735 1.716498261696789 -0.2220142236110196
| 18> H 1.5350288655511553 1.035298692493311 0.23043416056014504
| 19> H 0.7843650295376509 -0.03382814241784508 1.4340068448995544
| 20> H 1.296718257626494 -1.7722760963675475 0.04187088109024282
| 21> *
| 22>
| 23>                          ****END OF INPUT****

CARTESIAN COORDINATES (ANGSTROEM)
---------------------------------
  C     -1.297528   -0.931755   -0.178304
  C     -0.421868    0.311738   -0.326218
  C     -1.114629    1.539915    0.264924
  C      0.931892    0.129695    0.355260
  O      1.719613   -0.939885   -0.202366
  H     -1.495778   -1.138310    0.880862
  H     -0.828907   -1.819300   -0.617540
  H     -2.260516   -0.789222   -0.679526
  H     -0.235614    0.490603   -1.394414
  H     -0.504203    2.441368    0.143529
  H     -1.301653    1.399153    1.336330
  H     -2.078899    1.716498   -0.222014
  H      1.535029    1.035299    0.230434
  H      0.784365   -0.033828    1.434007
  H      1.296718   -1.772276    0.041871

 Total Charge           Charge          ....    0
 Multiplicity           Mult            ....    1
 Number of Electrons    NEL             ....   42
 Basis Dimension        Dim             ....  215

ORBITAL ENERGIES
----------------

  NO   OCC          E(Eh)            E(eV)
   0   2.0000     -21.667717      -589.6086
   1   2.0000     -12.088497      -328.9447
   2   2.0000     -12.050804      -327.9190
   3   2.0000     -12.040519      -327.6392
   4   2.0000     -12.038899      -327.5951
   5   2.0000      -1.665702       -45.3261
   6   2.0000      -1.317380       -35.8477
   7   2.0000      -1.195038       -32.5186
   8   2.0000      -1.181579       -32.1524
   9   2.0000      -1.067664       -29.0526
  10   2.0000      -1.012486       -27.5511
  11   2.0000      -0.949597       -25.8399
  12   2.0000      -0.922600       -25.1052
  13   2.0000      -0.891708       -24.2646
  14   2.0000      -0.856011       -23.2933
  15   2.0000      -0.841971       -22.9112
  16   2.0000      -0.814584       -22.1660
  17   2.0000      -0.806819       -21.9547
  18   2.0000      -0.787528       -21.4297
  19   2.0000      -0.775846       -21.1118
  20   2.0000      -0.751153       -20.4399
  21   0.0000      -0.146060        -3.9745
  22   0.0000      -0.054366        -1.4794
  23   0.0000      -0.019130        -0.5206
  24   0.0000      -0.011905        -0.3240
  25   0.0000      -0.009900        -0.2694

MULLIKEN ATOMIC CHARGES
-----------------------
   0 C :   -0.385427
   1 C :    0.010509
   2 C :   -0.358538
   3 C :   -0.040389
   4 O :   -0.451095
   5 H :    0.107526
   6 H :    0.106881
   7 H :    0.115705
   8 H :    0.072473
   9 H :    0.114889
  10 H :    0.104338
  11 H :    0.114839
  12 H :    0.101003
  13 H :    0.089274
  14 H :    0.298012
Sum of atomic charges:   -0.0000000

LOEWDIN ATOMIC CHARGES
----------------------
   0 C :   -0.289397
   1 C :   -0.325060
   2 C :   -0.281030
   3 C :   -0.311892
   4 O :   -0.058158
   5 H :    0.119026
   6 H :    0.113909
   7 H :    0.121519
   8 H :    0.148025
   9 H :    0.119470
  10 H :    0.118892
  11 H :    0.119671
  12 H :    0.126878
  13 H :    0.115164
  14 H :    0.162982

  Mayer bond orders larger than 0.100000
B(  0-C ,  1-C ) :   0.9620 B(  0-C ,  5-H ) :   0.9721 B(  0-C ,  6-H ) :   0.9844
B(  0-C ,  7-H ) :   0.9813 B(  1-C ,  2-C ) :   0.9734 B(  1-C ,  3-C ) :   0.9732
B(  1-C ,  8-H ) :   0.9603 B(  2-C ,  9-H ) :   0.9814 B(  2-C , 10-H ) :   0.9704
B(  2-C , 11-H ) :   0.9799 B(  3-C ,  4-O ) :   1.0111 B(  3-C , 12-H ) :   0.9724
B(  3-C , 13-H ) :   0.9756 B(  4-O , 14-H ) :   0.9073

FINAL SINGLE POINT ENERGY      -233.677470471948

DIPOLE MOMENT
-------------

Method             : SCF
Type of density    : Electron Density
Multiplicity       :   1
Irrep              :   0
Energy             :  -233.6881352212483023 Eh
Relativity type    :
Basis              : AO
                                X                 Y                 Z
Electronic contribution:      4.070177737      -1.554553274      -0.888206413
Nuclear contribution   :     -4.690478946       1.534108880       1.166149667
                        -----------------------------------------
Total Dipole Moment    :     -0.620301209      -0.020444394       0.277943255
                        -----------------------------------------
Magnitude (a.u.)       :      0.680032364
Magnitude (Debye)      :      1.728504903

Rotational constants in cm-1:             0.251735             0.116713             0.087933
Rotational constants in MHz :          7546.813749          3498.960602          2636.167226

                             ****ORCA TERMINATED NORMALLY****
TOTAL RUN TIME: 0 days 0 hours 1 minutes 5 seconds 175 msec
