                         Program Version 6.0.0  -   RELEASE  -
|  1> ! wb97x-v def2-tzvp def2/J RIJCOSX DEFGRID2 scfconv7 GCP(DFT/TZ) printgap
|  2> %output
|  3>     printlevel normal
|  4> end
|  5> %cpcm
|  6>     smd true
|  7>     smdsolvent "water"
|  8> end
|  9> * xyz 0 1
| 10> C -1.297527985687802 -0.9317545568976014 -0.17830389132803964
| 11> C -0.4218682904751591 0.31173779148420655 -0.3262175071110521
| 12> C -1.1146293760678052 1.5399147788982457 0.26492441897714153
| 13> C 0.9318923355228015 0.1296951151246014 0.35526033602102625
| 14> O 1.7196131194303634 -0.9398852336825232 -0.2023659606196539
| 15> H -1.4957775821445032 -1.1383102298822216 0.8808621355216522
| 16> H -0.8289073034964646 -1.8193004897338882 -0.6175401122920036
| 17> H -2.2605155437866755 -0.7892220442296218 -0.679525940462962
| 18> H -0.23561350710829035 0.4906032741497332 -1.394413987486339
| 19> H -0.5042032320133647 2.4413677614624407 0.1435285960745918
| 20> H -1.3016534254445027 1.3991529837043546 1.3363298622752864
| 21> H -2.0788988323244735 1.716498261696789 -0.2220142236110196
| 22> H 1.5350288655511553 1.035298692493311 0.23043416056014504
| 23> H 0.7843650295376509 -0.03382814241784508 1.4340068448995544
| 24> H 1.296718257626494 -1.7722760963675475 0.04187088109024282
| 25> *
| 26>
| 27>                          ****END OF INPUT****

CARTESIAN COORDINATES (ANGSTROEM)
---------------------------------
  C     -1.297528   -0.931755   -0.178304
  C     -0.421868    0.311738   -0.326218
  C     -1.114629    1.539915    0.264924
  C      0.931892    0.129695    0.355260
  O      1.719613   -0.939885   -0.202366
  H     -1.495778   -1.138310    0.880862
  H     -0.828907   -1.819300   -0.617540
  H     -2.260516   -0.789222   -0.679526
  H     -0.235614    0.490603   -1.394414
  H     -0.504203    2.441368    0.143529
  H     -1.301653    1.399153    1.336330
  H     -2.078899    1.716498   -0.222014
  H      1.535029    1.035299    0.230434
  H      0.784365   -0.033828    1.434007
  H      1.296718   -1.772276    0.041871

 Total Charge           Charge          ....    0
 Multiplicity           Mult            ....    1
 Number of Electrons    NEL             ....   42
 Basis Dimension        Dim             ....  215

ORBITAL ENERGIES
----------------

  NO   OCC          E(Eh)            E(eV)
   0   2.0000     -21.671523      -589.7121
   1   2.0000     -12.081161      -328.7451
   2   2.0000     -12.040710      -327.6444
   3   2.0000     -12.025923      -327.2420
   4   2.0000     -12.025136      -327.2206
   5   2.0000      -1.669780       -45.4370
   6   2.0000      -1.306660       -35.5560
   7   2.0000      -1.189109       -32.3573
   8   2.0000      -1.168531       -31.7974
   9   2.0000      -1.062355       -28.9081
  10   2.0000      -1.010405       -27.4945
  11   2.0000      -0.952445       -25.9173
  12   2.0000      -0.923400       -25.1270
  13   2.0000      -0.880834       -23.9687
  14   2.0000      -0.847120       -23.0513
  15   2.0000      -0.831057       -22.6142
  16   2.0000      -0.801685       -21.8149
  17   2.0000      -0.796718       -21.6798
  18   2.0000      -0.773933       -21.0598
  19   2.0000      -0.765522       -20.8309
  20   2.0000      -0.740369       -20.1465
  21   0.0000      -0.140797        -3.8313
  22   0.0000      -0.033153        -0.9021
  23   0.0000      -0.005544        -0.1509
  24   0.0000      -0.001329        -0.0362
  25   0.0000       0.004328         0.1178

MULLIKEN ATOMIC CHARGES
-----------------------
   0 C :   -0.416032
   1 C :    0.010026
   2 C :   -0.415267
   3 C :   -0.049638
   4 O :   -0.563481
   5 H :    0.121353
   6 H :    0.126211
   7 H :    0.130261
   8 H :    0.076278
   9 H :    0.129785
  10 H :    0.122429
  11 H :    0.131369
  12 H :    0.122743
  13 H :    0.113590
  14 H :    0.360373
Sum of atomic charges:   -0.0000000

LOEWDIN ATOMIC CHARGES
----------------------
   0 C :   -0.291836
   1 C :   -0.325251
   2 C :   -0.285391
   3 C :   -0.311827
   4 O :   -0.101669
   5 H :    0.122894
   6 H :    0.118789
   7 H :    0.122813
   8 H :    0.147450
   9 H :    0.121791
  10 H :    0.122470
  11 H :    0.122270
  12 H :    0.129463
  13 H :    0.123401
  14 H :    0.184636

  Mayer bond orders larger than 0.100000
B(  0-C ,  1-C ) :   0.9662 B(  0-C ,  5-H ) :   0.9705 B(  0-C ,  6-H ) :   0.9771
B(  0-C ,  7-H ) :   0.9790 B(  1-C ,  2-C ) :   0.9691 B(  1-C ,  3-C ) :   0.9758
B(  1-C ,  8-H ) :   0.9606 B(  2-C ,  9-H ) :   0.9779 B(  2-C , 10-H ) :   0.9710
B(  2-C , 11-H ) :   0.9769 B(  3-C ,  4-O ) :   0.9670 B(  3-C , 12-H ) :   0.9716
B(  3-C , 13-H ) :   0.9784 B(  4-O , 14-H ) :   0.8706

FINAL SINGLE POINT ENERGY      -233.684816746578

DIPOLE MOMENT
-------------

Method             : SCF
Type of density    : Electron Density
Multiplicity       :   1
Irrep              :   0
Energy             :  -233.6954814958776581 Eh
Relativity type    :
Basis              : AO
                                X                 Y                 Z
Electronic contribution:      3.881837268      -1.590713148      -0.734799655
Nuclear contribution   :     -4.690478946       1.534108880       1.166149667
                        -----------------------------------------
Total Dipole Moment    :     -0.808641678      -0.056604268       0.431350013
                        -----------------------------------------
Magnitude (a.u.)       :      0.918241929
Magnitude (Debye)      :      2.333985498

Rotational constants in cm-1:             0.251735             0.116713             0.087933
Rotational constants in MHz :          7546.813749          3498.960602          2636.167226

                             ****ORCA TERMINATED NORMALLY****
TOTAL RUN TIME: 0 days 0 hours 1 minutes 15 seconds 189 msec
