                         Program Version 6.0.0  -   RELEASE  -
|  1> ! r2scan-3c def2/J RI DEFGRID2 scfconv6 printgap
|  2> %output
|  3>     printlevel normal
|  4> end
|  5> * xyz 0 1
|  6> C -2.6762966518 0.3899738463 1.2395545289
|  7> C -1.4591184577 0.4147275747 0.3684146996
|  8> C -0.8908499601 1.5380853707 -0.0481779796
|  9> C 0.3309547876 1.6216448006 -0.9103834105
| 10> C 1.0845898018 0.2932958158 -1.0090059623
| 11> H 1.7085446098 0.3166957189 -1.9099393066
| 12> C 0.0553209171 -0.8302202835 -1.1924761304
| 13> C -0.8737175357 -0.9353688678 0.0188648044
| 14> H -0.2949029342 -1.2957667353 0.8897817257
| 15> O -1.9375941992 -1.8427370424 -0.2291323319
| 16> C 2.0013074201 -0.0142424447 0.1602043412
| 17> C 2.9140222206 -0.9686511335 0.0442483092
| 18> C 1.866660697 0.77473221 1.426392848
| 19> H -3.034349809 1.3968942637 1.4343185546
| 20> H -2.4474906515 -0.0993141842 2.1859382733
| 21> H -3.4610880551 -0.1874416215 0.7546965032
| 22> H -1.3294121185 2.4879781086 0.2280994468
| 23> H 0.015531079 1.9207240366 -1.9159017215
| 24> H 0.9880830694 2.4108312481 -0.5415481766
| 25> H -0.5579694291 -0.6190381466 -2.071474539
| 26> H 0.56622748 -1.7828033834 -1.3464867365
| 27> H -1.5657578329 -2.7046511206 -0.4558791712
| 28> H 3.5719511132 -1.2300941328 0.8554214882
| 29> H 3.0440032499 -1.5277227381 -0.8675917627
| 30> H 2.4264609716 0.3002154039 2.2280705835
| 31> H 2.2640559969 1.7791677862 1.2851964596
| 32> H 0.8246212063 0.8680993096 1.7210291576
| 33> *
| 34>
| 35>                          ****END OF INPUT****

CARTESIAN COORDINATES (ANGSTROEM)
---------------------------------
  C     -2.676297    0.389974    1.239555
  C     -1.459118    0.414728    0.368415
  C     -0.890850    1.538085   -0.048178
  C      0.330955    1.621645   -0.910383
  C      1.084590    0.293296   -1.009006
  H      1.708545    0.316696   -1.909939
  C      0.055321   -0.830220   -1.192476
  C     -0.873718   -0.935369    0.018865
  H     -0.294903   -1.295767    0.889782
  O     -1.937594   -1.842737   -0.229132
  C      2.001307   -0.014242    0.160204
  C      2.914022   -0.968651    0.044248
  C      1.866661    0.774732    1.426393
  H     -3.034350    1.396894    1.434319
  H     -2.447491   -0.099314    2.185938
  H     -3.461088   -0.187442    0.754697
  H     -1.329412    2.487978    0.228099
  H      0.015531    1.920724   -1.915902
  H      0.988083    2.410831   -0.541548
  H     -0.557969   -0.619038   -2.071475
  H      0.566227   -1.782803   -1.346487
  H     -1.565758   -2.704651   -0.455879
  H      3.571951   -1.230094    0.855421
  H      3.044003   -1.527723   -0.867592
  H      2.426461    0.300215    2.228071
  H      2.264056    1.779168    1.285196
  H      0.824621    0.868099    1.721029

 Total Charge           Charge          ....    0
 Multiplicity           Mult            ....    1
 Number of Electrons    NEL             ....   84
 Basis Dimension        Dim             ....  294

ORBITAL ENERGIES
----------------

  NO   OCC          E(Eh)            E(eV)
   0   2.0000     -18.948648      -515.6189
   1   2.0000     -10.082676      -274.3636
   2   2.0000     -10.041836      -273.2523
   3   2.0000     -10.039736      -273.1951
   4   2.0000     -10.032809      -273.0066
   5   2.0000     -10.031167      -272.9619
   6   2.0000     -10.028381      -272.8861
   7   2.0000     -10.022174      -272.7172
   8   2.0000     -10.020672      -272.6763
   9   2.0000     -10.015305      -272.5303
  10   2.0000     -10.009800      -272.3805
  11   2.0000      -0.986989       -26.8573
  12   2.0000      -0.816528       -22.2189
  13   2.0000      -0.766822       -20.8663
  14   2.0000      -0.721928       -19.6447
  15   2.0000      -0.703757       -19.1502
  16   2.0000      -0.655646       -17.8410
  17   2.0000      -0.640773       -17.4363
  18   2.0000      -0.589885       -16.0516
  19   2.0000      -0.570841       -15.5334
  20   2.0000      -0.505621       -13.7587
  21   2.0000      -0.482366       -13.1258
  22   2.0000      -0.468424       -12.7465
  23   2.0000      -0.440332       -11.9820
  24   2.0000      -0.430039       -11.7020
  25   2.0000      -0.419375       -11.4118
  26   2.0000      -0.401919       -10.9368
  27   2.0000      -0.386848       -10.5267
  28   2.0000      -0.377115       -10.2618
  29   2.0000      -0.371272       -10.1028
  30   2.0000      -0.367048        -9.9879
  31   2.0000      -0.357708        -9.7337
  32   2.0000      -0.349247        -9.5035
  33   2.0000      -0.343417        -9.3449
  34   2.0000      -0.330555        -8.9949
  35   2.0000      -0.323165        -8.7938
  36   2.0000      -0.301341        -8.1999
  37   2.0000      -0.291513        -7.9325
  38   2.0000      -0.269237        -7.3263
  39   2.0000      -0.243171        -6.6170
  40   2.0000      -0.223051        -6.0695
  41   2.0000      -0.207083        -5.6350
  42   0.0000      -0.014203        -0.3865
  43   0.0000      -0.005402        -0.1470
  44   0.0000       0.065205         1.7743
  45   0.0000       0.070872         1.9285
  46   0.0000       0.099240         2.7005

MULLIKEN ATOMIC CHARGES
-----------------------
   0 C :   -0.526896
   1 C :    0.069164
   2 C :   -0.214439
   3 C :   -0.339181
   4 C :   -0.022982
   5 H :    0.177690
   6 C :   -0.371823
   7 C :    0.012898
   8 H :    0.163591
   9 O :   -0.423042
  10 C :    0.036695
  11 C :   -0.390399
  12 C :   -0.531443
  13 H :    0.145942
  14 H :    0.155001
  15 H :    0.178538
  16 H :    0.156484
  17 H :    0.168204
  18 H :    0.155105
  19 H :    0.176778
  20 H :    0.161569
  21 H :    0.288046
  22 H :    0.140977
  23 H :    0.137989
  24 H :    0.149421
  25 H :    0.164965
  26 H :    0.181147
Sum of atomic charges:    0.0000000

LOEWDIN ATOMIC CHARGES
----------------------
   0 C :   -0.378718
   1 C :   -0.097949
   2 C :   -0.199175
   3 C :   -0.276759
   4 C :   -0.199299
   5 H :    0.174300
   6 C :   -0.248759
   7 C :    0.083170
   8 H :    0.178849
   9 O :   -0.606893
  10 C :   -0.118529
  11 C :   -0.329451
  12 C :   -0.392483
  13 H :    0.155520
  14 H :    0.163177
  15 H :    0.176409
  16 H :    0.165319
  17 H :    0.170861
  18 H :    0.164877
  19 H :    0.172454
  20 H :    0.161623
  21 H :    0.269601
  22 H :    0.156937
  23 H :    0.157177
  24 H :    0.160457
  25 H :    0.163409
  26 H :    0.173875

  Mayer bond orders larger than 0.100000
B(  0-C ,  1-C ) :   0.8548 B(  0-C , 13-H ) :   0.9988 B(  0-C , 14-H ) :   0.9620
B(  0-C , 15-H ) :   0.9672 B(  1-C ,  2-C ) :   1.8370 B(  1-C ,  7-C ) :   0.8973
B(  2-C ,  3-C ) :   0.9165 B(  2-C , 16-H ) :   0.9154 B(  3-C ,  4-C ) :   0.9506
B(  3-C , 17-H ) :   0.9435 B(  3-C , 18-H ) :   0.9977 B(  4-C ,  5-H ) :   0.9791
B(  4-C ,  6-C ) :   0.8585 B(  4-C , 10-C ) :   0.8678 B(  6-C ,  7-C ) :   0.8722
B(  6-C , 19-H ) :   1.0086 B(  6-C , 20-H ) :   0.9812 B(  7-C ,  8-H ) :   0.9654
B(  7-C ,  9-O ) :   0.9372 B(  9-O , 21-H ) :   0.9003 B( 10-C , 11-C ) :   1.8597
B( 10-C , 12-C ) :   0.8723 B( 11-C , 22-H ) :   0.9774 B( 11-C , 23-H ) :   0.9804
B( 12-C , 24-H ) :   0.9832 B( 12-C , 25-H ) :   0.9674 B( 12-C , 26-H ) :   0.9708

Dispersion correction           -0.010126015
FINAL SINGLE POINT ENERGY      -465.753426277128

DIPOLE MOMENT
-------------

Method             : SCF
Type of density    : Electron Density
Multiplicity       :   1
Irrep              :   0
Energy             :  -465.7549723171435971 Eh
Relativity type    :
Basis              : AO
                                X                 Y                 Z
Electronic contribution:     -2.153275646      -1.892044565      -2.379377888
Nuclear contribution   :      2.521681058       1.880693017       2.317373709
                        -----------------------------------------
Total Dipole Moment    :      0.368405412      -0.011351548      -0.062004179
                        -----------------------------------------
Magnitude (a.u.)       :      0.373759178
Magnitude (Debye)      :      0.950020332

Rotational constants in cm-1:             0.054285             0.028993             0.025115
Rotational constants in MHz :          1627.415814           869.183783           752.924435

                             ****ORCA TERMINATED NORMALLY****
TOTAL RUN TIME: 0 days 0 hours 0 minutes 44 seconds 810 msec
