                         Program Version 6.0.0  -   RELEASE  -
|  1> ! r2scan-3c def2/J RI DEFGRID2 scfconv6 printgap
|  2> %output
|  3>     printlevel normal
|  4> end
|  5> %cpcm
|  6>     smd true
|  7>     smdsolvent "water"
|  8> end
|  9> * xyz 0 1
| 10> C -2.6762966518 0.3899738463 1.2395545289
| 11> C -1.4591184577 0.4147275747 0.3684146996
| 12> C -0.8908499601 1.5380853707 -0.0481779796
| 13> C 0.3309547876 1.6216448006 -0.9103834105
| 14> C 1.0845898018 0.2932958158 -1.0090059623
| 15> H 1.7085446098 0.3166957189 -1.9099393066
| 16> C 0.0553209171 -0.8302202835 -1.1924761304
| 17> C -0.8737175357 -0.9353688678 0.0188648044
| 18> H -0.2949029342 -1.2957667353 0.8897817257
| 19> O -1.9375941992 -1.8427370424 -0.2291323319
| 20> C 2.0013074201 -0.0142424447 0.1602043412
| 21> C 2.9140222206 -0.9686511335 0.0442483092
| 22> C 1.866660697 0.77473221 1.426392848
| 23> H -3.034349809 1.3968942637 1.4343185546
| 24> H -2.4474906515 -0.0993141842 2.1859382733
| 25> H -3.4610880551 -0.1874416215 0.7546965032
| 26> H -1.3294121185 2.4879781086 0.2280994468
| 27> H 0.015531079 1.9207240366 -1.9159017215
| 28> H 0.9880830694 2.4108312481 -0.5415481766
| 29> H -0.5579694291 -0.6190381466 -2.071474539
| 30> H 0.56622748 -1.7828033834 -1.3464867365
| 31> H -1.5657578329 -2.7046511206 -0.4558791712
| 32> H 3.5719511132 -1.2300941328 0.8554214882
| 33> H 3.0440032499 -1.5277227381 -0.8675917627
| 34> H 2.4264609716 0.3002154039 2.2280705835
| 35> H 2.2640559969 1.7791677862 1.2851964596
| 36> H 0.8246212063 0.8680993096 1.7210291576
| 37> *
| 38>
| 39>                          ****END OF INPUT****

CARTESIAN COORDINATES (ANGSTROEM)
---------------------------------
  C     -2.676297    0.389974    1.239555
  C     -1.459118    0.414728    0.368415
  C     -0.890850    1.538085   -0.048178
  C      0.330955    1.621645   -0.910383
  C      1.084590    0.293296   -1.009006
  H      1.708545    0.316696   -1.909939
  C      0.055321   -0.830220   -1.192476
  C     -0.873718   -0.935369    0.018865
  H     -0.294903   -1.295767    0.889782
  O     -1.937594   -1.842737   -0.229132
  C      2.001307   -0.014242    0.160204
  C      2.914022   -0.968651    0.044248
  C      1.866661    0.774732    1.426393
  H     -3.034350    1.396894    1.434319
  H     -2.447491   -0.099314    2.185938
  H     -3.461088   -0.187442    0.754697
  H     -1.329412    2.487978    0.228099
  H      0.015531    1.920724   -1.915902
  H      0.988083    2.410831   -0.541548
  H     -0.557969   -0.619038   -2.071475
  H      0.566227   -1.782803   -1.346487
  H     -1.565758   -2.704651   -0.455879
  H      3.571951   -1.230094    0.855421
  H      3.044003   -1.527723   -0.867592
  H      2.426461    0.300215    2.228071
  H      2.264056    1.779168    1.285196
  H      0.824621    0.868099    1.721029

 Total Charge           Charge          ....    0
 Multiplicity           Mult            ....    1
 Number of Electrons    NEL             ....   84
 Basis Dimension        Dim             ....  294

ORBITAL ENERGIES
----------------

  NO   OCC          E(Eh)            E(eV)
   0   2.0000     -18.951079      -515.6851
   1   2.0000     -10.079107      -274.2665
   2   2.0000     -10.037665      -273.1387
   3   2.0000     -10.033899      -273.0363
   4   2.0000     -10.028082      -272.8780
   5   2.0000     -10.023357      -272.7494
   6   2.0000     -10.020623      -272.6750
   7   2.0000     -10.018572      -272.6192
   8   2.0000     -10.013661      -272.4856
   9   2.0000     -10.013030      -272.4684
  10   2.0000     -10.003734      -272.2154
  11   2.0000      -0.988633       -26.9021
  12   2.0000      -0.811126       -22.0719
  13   2.0000      -0.763707       -20.7815
  14   2.0000      -0.717306       -19.5189
  15   2.0000      -0.697691       -18.9851
  16   2.0000      -0.650705       -17.7066
  17   2.0000      -0.637340       -17.3429
  18   2.0000      -0.585094       -15.9212
  19   2.0000      -0.565034       -15.3754
  20   2.0000      -0.500144       -13.6096
  21   2.0000      -0.479351       -13.0438
  22   2.0000      -0.463403       -12.6098
  23   2.0000      -0.434750       -11.8301
  24   2.0000      -0.422965       -11.5095
  25   2.0000      -0.416371       -11.3300
  26   2.0000      -0.397033       -10.8038
  27   2.0000      -0.381189       -10.3727
  28   2.0000      -0.375383       -10.2147
  29   2.0000      -0.365435        -9.9440
  30   2.0000      -0.359697        -9.7879
  31   2.0000      -0.353584        -9.6215
  32   2.0000      -0.345396        -9.3987
  33   2.0000      -0.340745        -9.2721
  34   2.0000      -0.324897        -8.8409
  35   2.0000      -0.320154        -8.7118
  36   2.0000      -0.297037        -8.0828
  37   2.0000      -0.285761        -7.7759
  38   2.0000      -0.264346        -7.1932
  39   2.0000      -0.246037        -6.6950
  40   2.0000      -0.221425        -6.0253
  41   2.0000      -0.205559        -5.5935
  42   0.0000      -0.011837        -0.3221
  43   0.0000      -0.002504        -0.0681
  44   0.0000       0.075195         2.0462
  45   0.0000       0.081157         2.2084
  46   0.0000       0.108861         2.9623

MULLIKEN ATOMIC CHARGES
-----------------------
   0 C :   -0.570512
   1 C :    0.041112
   2 C :   -0.246988
   3 C :   -0.348629
   4 C :    0.012385
   5 H :    0.191403
   6 C :   -0.407603
   7 C :    0.039319
   8 H :    0.174065
   9 O :   -0.503294
  10 C :    0.003061
  11 C :   -0.461035
  12 C :   -0.552331
  13 H :    0.166910
  14 H :    0.175998
  15 H :    0.175089
  16 H :    0.178347
  17 H :    0.185117
  18 H :    0.175296
  19 H :    0.179351
  20 H :    0.186844
  21 H :    0.342757
  22 H :    0.164462
  23 H :    0.163058
  24 H :    0.165426
  25 H :    0.186278
  26 H :    0.184114
Sum of atomic charges:    0.0000000

LOEWDIN ATOMIC CHARGES
----------------------
   0 C :   -0.389032
   1 C :   -0.112748
   2 C :   -0.201002
   3 C :   -0.278116
   4 C :   -0.197911
   5 H :    0.179998
   6 C :   -0.247787
   7 C :    0.083137
   8 H :    0.184290
   9 O :   -0.638238
  10 C :   -0.118953
  11 C :   -0.354677
  12 C :   -0.398457
  13 H :    0.162496
  14 H :    0.168015
  15 H :    0.171539
  16 H :    0.172215
  17 H :    0.176540
  18 H :    0.171660
  19 H :    0.173358
  20 H :    0.169337
  21 H :    0.287909
  22 H :    0.162179
  23 H :    0.163960
  24 H :    0.164649
  25 H :    0.170883
  26 H :    0.174758

  Mayer bond orders larger than 0.100000
B(  0-C ,  1-C ) :   0.8434 B(  0-C , 13-H ) :   0.9893 B(  0-C , 14-H ) :   0.9630
B(  0-C , 15-H ) :   0.9687 B(  1-C ,  2-C ) :   1.8394 B(  1-C ,  7-C ) :   0.8704
B(  2-C ,  3-C ) :   0.9038 B(  2-C , 16-H ) :   0.9231 B(  3-C ,  4-C ) :   0.9306
B(  3-C , 17-H ) :   0.9421 B(  3-C , 18-H ) :   0.9954 B(  4-C ,  5-H ) :   0.9773
B(  4-C ,  6-C ) :   0.8410 B(  4-C , 10-C ) :   0.8564 B(  6-C ,  7-C ) :   0.8838
B(  6-C , 19-H ) :   1.0037 B(  6-C , 20-H ) :   0.9816 B(  7-C ,  8-H ) :   0.9612
B(  7-C ,  9-O ) :   0.9213 B(  9-O , 21-H ) :   0.8746 B( 10-C , 11-C ) :   1.8482
B( 10-C , 12-C ) :   0.8673 B( 11-C , 22-H ) :   0.9778 B( 11-C , 23-H ) :   0.9777
B( 12-C , 24-H ) :   0.9793 B( 12-C , 25-H ) :   0.9604 B( 12-C , 26-H ) :   0.9683

Dispersion correction           -0.010126015
FINAL SINGLE POINT ENERGY      -465.759864753116

DIPOLE MOMENT
-------------

Method             : SCF
Type of density    : Electron Density
Multiplicity       :   1
Irrep              :   0
Energy             :  -465.7614107931312901 Eh
Relativity type    :
Basis              : AO
                                X                 Y                 Z
Electronic contribution:     -1.897443081      -1.844207517      -2.407078158
Nuclear contribution   :      2.521681058       1.880693017       2.317373709
                        -----------------------------------------
Total Dipole Moment    :      0.624237977       0.036485500      -0.089704449
                        -----------------------------------------
Magnitude (a.u.)       :      0.631704941
Magnitude (Debye)      :      1.605666355

Rotational constants in cm-1:             0.054285             0.028993             0.025115
Rotational constants in MHz :          1627.415814           869.183783           752.924435

                             ****ORCA TERMINATED NORMALLY****
TOTAL RUN TIME: 0 days 0 hours 0 minutes 58 seconds 81 msec
