                         Program Version 6.0.0  -   RELEASE  -
|  1> ! pbe def2-sv(p) def2/J RI DEFGRID1 loosescf d4 GCP(DFT/SV(P)) printgap
|  2> %output
|  3>     printlevel normal
|  4> end
|  5> * xyz 0 1
|  6> C -2.3771584024 0.3517836932 -1.2203542566
|  7> C -1.7262260255 -0.0592012473 0.0654187522
|  8> C -2.4009406251 -0.4281145386 1.142305034
|  9> C -0.2428497071 -0.0231592693 0.0521573523
| 10> C 0.4845435261 -1.1278689429 -0.3744506511
| 11> C 1.8673986139 -1.0877768667 -0.4030601888
| 12> C 2.5376923936 0.0582602097 -0.0093540678
| 13> C 1.8196360214 1.1631919782 0.4163096631
| 14> C 0.4367810326 1.1230786773 0.4466190156
| 15> H -2.0433147429 -0.2968283791 -2.029231493
| 16> H -3.4595526848 0.2990023939 -1.1427891302
| 17> H -2.0852795805 1.3702384609 -1.4736403125
| 18> H -1.9006667224 -0.7178808815 2.0510438661
| 19> H -3.4776458284 -0.455867994 1.1555203417
| 20> H -0.0397558344 -2.0223493316 -0.6787275154
| 21> H 2.4232810293 -1.9528255204 -0.7334198176
| 22> H 3.6166987745 0.0897975603 -0.033142185
| 23> H 2.3380575272 2.0586987741 0.7257266981
| 24> H -0.1251799855 1.9832124048 0.7811822862
| 25> *
| 26>
| 27>                          ****END OF INPUT****

CARTESIAN COORDINATES (ANGSTROEM)
---------------------------------
  C     -2.377158    0.351784   -1.220354
  C     -1.726226   -0.059201    0.065419
  C     -2.400941   -0.428115    1.142305
  C     -0.242850   -0.023159    0.052157
  C      0.484544   -1.127869   -0.374451
  C      1.867399   -1.087777   -0.403060
  C      2.537692    0.058260   -0.009354
  C      1.819636    1.163192    0.416310
  C      0.436781    1.123079    0.446619
  H     -2.043315   -0.296828   -2.029231
  H     -3.459553    0.299002   -1.142789
  H     -2.085280    1.370238   -1.473640
  H     -1.900667   -0.717881    2.051044
  H     -3.477646   -0.455868    1.155520
  H     -0.039756   -2.022349   -0.678728
  H      2.423281   -1.952826   -0.733420
  H      3.616699    0.089798   -0.033142
  H      2.338058    2.058699    0.725727
  H     -0.125180    1.983212    0.781182

 Total Charge           Charge          ....    0
 Multiplicity           Mult            ....    1
 Number of Electrons    NEL             ....   64
 Basis Dimension        Dim             ....  146

ORBITAL ENERGIES
----------------

  NO   OCC          E(Eh)            E(eV)
   0   2.0000      -9.905144      -269.5327
   1   2.0000      -9.903514      -269.4883
   2   2.0000      -9.891971      -269.1742
   3   2.0000      -9.891862      -269.1713
   4   2.0000      -9.891061      -269.1495
   5   2.0000      -9.890990      -269.1475
   6   2.0000      -9.889568      -269.1088
   7   2.0000      -9.884763      -268.9781
   8   2.0000      -9.873485      -268.6712
   9   2.0000      -0.781644       -21.2696
  10   2.0000      -0.727077       -19.7848
  11   2.0000      -0.669694       -18.2233
  12   2.0000      -0.658132       -17.9087
  13   2.0000      -0.615820       -16.7573
  14   2.0000      -0.548293       -14.9198
  15   2.0000      -0.542329       -14.7575
  16   2.0000      -0.491159       -13.3651
  17   2.0000      -0.449250       -12.2247
  18   2.0000      -0.414744       -11.2858
  19   2.0000      -0.409592       -11.1456
  20   2.0000      -0.392093       -10.6694
  21   2.0000      -0.388312       -10.5665
  22   2.0000      -0.375303       -10.2125
  23   2.0000      -0.366633        -9.9766
  24   2.0000      -0.340459        -9.2644
  25   2.0000      -0.327225        -8.9042
  26   2.0000      -0.321243        -8.7415
  27   2.0000      -0.302090        -8.2203
  28   2.0000      -0.287295        -7.8177
  29   2.0000      -0.231252        -6.2927
  30   2.0000      -0.224588        -6.1113
  31   2.0000      -0.222553        -6.0560
  32   0.0000      -0.034896        -0.9496
  33   0.0000      -0.033579        -0.9137
  34   0.0000      -0.013838        -0.3766
  35   0.0000       0.042207         1.1485
  36   0.0000       0.059382         1.6159

MULLIKEN ATOMIC CHARGES
-----------------------
   0 C :   -0.183606
   1 C :   -0.103202
   2 C :   -0.193411
   3 C :    0.067193
   4 C :   -0.088442
   5 C :   -0.050770
   6 C :   -0.045650
   7 C :   -0.050422
   8 C :   -0.088078
   9 H :    0.108562
  10 H :    0.097720
  11 H :    0.108669
  12 H :    0.092105
  13 H :    0.082909
  14 H :    0.044197
  15 H :    0.052541
  16 H :    0.053100
  17 H :    0.052587
  18 H :    0.043999
Sum of atomic charges:   -0.0000000

LOEWDIN ATOMIC CHARGES
----------------------
   0 C :   -0.315796
   1 C :   -0.049092
   2 C :   -0.252478
   3 C :   -0.026925
   4 C :   -0.115913
   5 C :   -0.121323
   6 C :   -0.126628
   7 C :   -0.121301
   8 C :   -0.115986
   9 H :    0.130834
  10 H :    0.123451
  11 H :    0.131190
  12 H :    0.122414
  13 H :    0.118162
  14 H :    0.124334
  15 H :    0.123701
  16 H :    0.123191
  17 H :    0.123710
  18 H :    0.124455

  Mayer bond orders larger than 0.100000
B(  0-C ,  1-C ) :   1.1200 B(  0-C ,  9-H ) :   0.9299 B(  0-C , 10-H ) :   0.9389
B(  0-C , 11-H ) :   0.9295 B(  1-C ,  2-C ) :   2.0533 B(  1-C ,  3-C ) :   0.9576
B(  2-C , 12-H ) :   0.9133 B(  2-C , 13-H ) :   0.9058 B(  3-C ,  4-C ) :   1.3973
B(  3-C ,  8-C ) :   1.3987 B(  4-C ,  5-C ) :   1.3641 B(  4-C , 14-H ) :   0.9642
B(  5-C ,  6-C ) :   1.3814 B(  5-C , 15-H ) :   0.9634 B(  6-C ,  7-C ) :   1.3819
B(  6-C , 16-H ) :   0.9649 B(  7-C ,  8-C ) :   1.3625 B(  7-C , 17-H ) :   0.9634
B(  8-C , 18-H ) :   0.9647

Dispersion correction           -0.019863143
FINAL SINGLE POINT ENERGY      -348.162468290150

DIPOLE MOMENT
-------------

Method             : SCF
Type of density    : Electron Density
Multiplicity       :   1
Irrep              :   0
Energy             :  -348.2116219525245242 Eh
Relativity type    :
Basis              : AO
                                X                 Y                 Z
Electronic contribution:      4.471908844      -0.282962288       1.141441543
Nuclear contribution   :     -4.459450684       0.333235086      -1.292305746
                        -----------------------------------------
Total Dipole Moment    :      0.012458160       0.050272798      -0.150864202
                        -----------------------------------------
Magnitude (a.u.)       :      0.159507265
Magnitude (Debye)      :      0.405435247

Rotational constants in cm-1:             0.119815             0.037404             0.034547
Rotational constants in MHz :          3591.960117          1121.333566          1035.683031

                             ****ORCA TERMINATED NORMALLY****
TOTAL RUN TIME: 0 days 0 hours 0 minutes 7 seconds 709 msec
