                         Program Version 6.0.0  -   RELEASE  -
|  1> ! pbe def2-sv(p) def2/J RI DEFGRID1 loosescf d4 GCP(DFT/SV(P)) printgap
|  2> %output
|  3>     printlevel normal
|  4> end
|  5> * xyz 0 1
|  6> C -1.7450686821 -1.0365740357 -0.6896832454
|  7> C -1.0582885489 -0.5010301158 0.5813487704
|  8> H -1.7313106939 -0.6299813091 1.4387733649
|  9> C -0.7367337809 0.9967645148 0.4642707596
| 10> H -1.6187599894 1.4943224625 0.0447770917
| 11> C 0.4823906119 1.2568631429 -0.4445375459
| 12> H 0.7922764952 2.300866983 -0.2636417364
| 13> C 1.6578484956 0.3526333036 -0.0302205264
| 14> H 2.3898413787 0.3522585332 -0.8473819942
| 15> C 1.2407400516 -1.1148671485 0.1706877715
| 16> H 2.0216602775 -1.584956687 0.7904966544
| 17> O 0.0813034476 -1.274700633 0.9446597219
| 18> O 1.1537228358 -1.7258611773 -1.0763804214
| 19> O 2.2219312283 0.781559388 1.186653886
| 20> O 0.2340936571 1.0561964912 -1.8107381111
| 21> O -0.5315075397 1.5814624442 1.7290257631
| 22> O -2.9675685343 -0.3884613223 -0.9403024563
| 23> H -1.8845773381 -2.1183369942 -0.5781279918
| 24> H -1.109981328 -0.8504667883 -1.5577686671
| 25> H 1.045369899 -2.6828449958 -0.9682391594
| 26> H 2.7541973049 1.5772439376 1.0407237869
| 27> H -0.4607930258 1.6623127717 -2.1062640756
| 28> H 0.2616915086 1.1851308985 2.1264283107
| 29> H -3.6109130982 -0.6341851421 -0.2604013365
| 30> *
| 31>
| 32>                          ****END OF INPUT****

CARTESIAN COORDINATES (ANGSTROEM)
---------------------------------
  C     -1.745069   -1.036574   -0.689683
  C     -1.058289   -0.501030    0.581349
  H     -1.731311   -0.629981    1.438773
  C     -0.736734    0.996765    0.464271
  H     -1.618760    1.494322    0.044777
  C      0.482391    1.256863   -0.444538
  H      0.792276    2.300867   -0.263642
  C      1.657848    0.352633   -0.030221
  H      2.389841    0.352259   -0.847382
  C      1.240740   -1.114867    0.170688
  H      2.021660   -1.584957    0.790497
  O      0.081303   -1.274701    0.944660
  O      1.153723   -1.725861   -1.076380
  O      2.221931    0.781559    1.186654
  O      0.234094    1.056196   -1.810738
  O     -0.531508    1.581462    1.729026
  O     -2.967569   -0.388461   -0.940302
  H     -1.884577   -2.118337   -0.578128
  H     -1.109981   -0.850467   -1.557769
  H      1.045370   -2.682845   -0.968239
  H      2.754197    1.577244    1.040724
  H     -0.460793    1.662313   -2.106264
  H      0.261692    1.185131    2.126428
  H     -3.610913   -0.634185   -0.260401

 Total Charge           Charge          ....    0
 Multiplicity           Mult            ....    1
 Number of Electrons    NEL             ....   96
 Basis Dimension        Dim             ....  192

ORBITAL ENERGIES
----------------

  NO   OCC          E(Eh)            E(eV)
   0   2.0000     -18.772646      -510.8297
   1   2.0000     -18.764661      -510.6124
   2   2.0000     -18.759831      -510.4810
   3   2.0000     -18.756424      -510.3883
   4   2.0000     -18.747914      -510.1567
   5   2.0000     -18.735170      -509.8099
   6   2.0000      -9.984687      -271.6971
   7   2.0000      -9.947468      -270.6844
   8   2.0000      -9.942508      -270.5494
   9   2.0000      -9.933974      -270.3172
  10   2.0000      -9.932701      -270.2825
  11   2.0000      -9.918551      -269.8975
  12   2.0000      -0.978724       -26.6324
  13   2.0000      -0.946778       -25.7631
  14   2.0000      -0.933370       -25.3983
  15   2.0000      -0.923829       -25.1387
  16   2.0000      -0.916579       -24.9414
  17   2.0000      -0.904150       -24.6032
  18   2.0000      -0.693839       -18.8803
  19   2.0000      -0.690517       -18.7899
  20   2.0000      -0.613215       -16.6864
  21   2.0000      -0.585097       -15.9213
  22   2.0000      -0.570087       -15.5129
  23   2.0000      -0.529356       -14.4045
  24   2.0000      -0.486141       -13.2286
  25   2.0000      -0.483044       -13.1443
  26   2.0000      -0.474744       -12.9185
  27   2.0000      -0.453368       -12.3368
  28   2.0000      -0.447052       -12.1649
  29   2.0000      -0.427747       -11.6396
  30   2.0000      -0.421025       -11.4567
  31   2.0000      -0.387152       -10.5349
  32   2.0000      -0.378655       -10.3037
  33   2.0000      -0.369812       -10.0631
  34   2.0000      -0.357509        -9.7283
  35   2.0000      -0.339083        -9.2269
  36   2.0000      -0.331044        -9.0082
  37   2.0000      -0.322611        -8.7787
  38   2.0000      -0.303269        -8.2524
  39   2.0000      -0.287424        -7.8212
  40   2.0000      -0.279911        -7.6168
  41   2.0000      -0.259814        -7.0699
  42   2.0000      -0.252667        -6.8754
  43   2.0000      -0.237366        -6.4591
  44   2.0000      -0.235319        -6.4033
  45   2.0000      -0.228229        -6.2104
  46   2.0000      -0.208429        -5.6716
  47   2.0000      -0.193949        -5.2776
  48   0.0000       0.009313         0.2534
  49   0.0000       0.017917         0.4875
  50   0.0000       0.027906         0.7594
  51   0.0000       0.034357         0.9349
  52   0.0000       0.071462         1.9446

MULLIKEN ATOMIC CHARGES
-----------------------
   0 C :   -0.000690
   1 C :    0.015303
   2 H :    0.060912
   3 C :    0.067924
   4 H :    0.061724
   5 C :    0.039830
   6 H :    0.053463
   7 C :    0.007299
   8 H :    0.087855
   9 C :    0.202796
  10 H :    0.067035
  11 O :   -0.317086
  12 O :   -0.383386
  13 O :   -0.416847
  14 O :   -0.393443
  15 O :   -0.433213
  16 O :   -0.431875
  17 H :    0.065110
  18 H :    0.124316
  19 H :    0.304389
  20 H :    0.312653
  21 H :    0.310481
  22 H :    0.298320
  23 H :    0.297129
Sum of atomic charges:    0.0000000

LOEWDIN ATOMIC CHARGES
----------------------
   0 C :   -0.156039
   1 C :   -0.074767
   2 H :    0.109967
   3 C :   -0.077266
   4 H :    0.112568
   5 C :   -0.080613
   6 H :    0.094888
   7 C :   -0.076979
   8 H :    0.117416
   9 C :   -0.001510
  10 H :    0.100622
  11 O :   -0.145515
  12 O :   -0.299095
  13 O :   -0.305653
  14 O :   -0.303674
  15 O :   -0.323665
  16 O :   -0.333096
  17 H :    0.092593
  18 H :    0.120654
  19 H :    0.287591
  20 H :    0.293897
  21 H :    0.291884
  22 H :    0.272004
  23 H :    0.283789

  Mayer bond orders larger than 0.100000
B(  0-C ,  1-C ) :   1.0278 B(  0-C , 16-O ) :   1.0417 B(  0-C , 17-H ) :   0.9163
B(  0-C , 18-H ) :   0.8912 B(  1-C ,  2-H ) :   0.8965 B(  1-C ,  3-C ) :   1.0072
B(  1-C , 11-O ) :   0.9899 B(  3-C ,  4-H ) :   0.8804 B(  3-C ,  5-C ) :   0.9572
B(  3-C , 15-O ) :   1.0493 B(  5-C ,  6-H ) :   0.9027 B(  5-C ,  7-C ) :   0.9823
B(  5-C , 14-O ) :   1.0837 B(  7-C ,  8-H ) :   0.8881 B(  7-C ,  9-C ) :   0.9986
B(  7-C , 13-O ) :   1.0482 B(  9-C , 10-H ) :   0.9009 B(  9-C , 11-O ) :   1.0639
B(  9-C , 12-O ) :   1.1421 B( 12-O , 19-H ) :   0.8382 B( 13-O , 20-H ) :   0.8414
B( 14-O , 21-H ) :   0.8384 B( 15-O , 22-H ) :   0.8227 B( 16-O , 23-H ) :   0.8516

Dispersion correction           -0.025825117
FINAL SINGLE POINT ENERGY      -685.693263945510

DIPOLE MOMENT
-------------

Method             : SCF
Type of density    : Electron Density
Multiplicity       :   1
Irrep              :   0
Energy             :  -685.8237398898002084 Eh
Relativity type    :
Basis              : AO
                                X                 Y                 Z
Electronic contribution:      1.417653951      -0.143482939       1.059096569
Nuclear contribution   :     -1.077269939       0.067398589      -1.069613328
                        -----------------------------------------
Total Dipole Moment    :      0.340384012      -0.076084350      -0.010516758
                        -----------------------------------------
Magnitude (a.u.)       :      0.348942267
Magnitude (Debye)      :      0.886940757

Rotational constants in cm-1:             0.040307             0.028758             0.024938
Rotational constants in MHz :          1208.382179           862.134248           747.608332

                             ****ORCA TERMINATED NORMALLY****
TOTAL RUN TIME: 0 days 0 hours 0 minutes 12 seconds 521 msec
