                         Program Version 6.0.0  -   RELEASE  -
|  1> ! pbe def2-sv(p) def2/J RI DEFGRID1 loosescf d4 GCP(DFT/SV(P)) printgap
|  2> %output
|  3>     printlevel normal
|  4> end
|  5> * xyz 0 1
|  6> C 2.2069e-06 3.8881e-06 3.5171e-06
|  7> H 0.5954582155 -0.1889201225 0.8831989729
|  8> H 0.6500649109 0.26582556 -0.8228695518
|  9> H -0.5592418233 -0.8902665719 -0.2551652192
| 10> H -0.6863076004 0.8133148027 0.1947938875
| 11> *
| 12>
| 13>                          ****END OF INPUT****

CARTESIAN COORDINATES (ANGSTROEM)
---------------------------------
  C      0.000002    0.000004    0.000004
  H      0.595458   -0.188920    0.883199
  H      0.650065    0.265826   -0.822870
  H     -0.559242   -0.890267   -0.255165
  H     -0.686308    0.813315    0.194794

 Total Charge           Charge          ....    0
 Multiplicity           Mult            ....    1
 Number of Electrons    NEL             ....   10
 Basis Dimension        Dim             ....   22

ORBITAL ENERGIES
----------------

  NO   OCC          E(Eh)            E(eV)
   0   2.0000      -9.863226      -268.3920
   1   2.0000      -0.619122       -16.8472
   2   2.0000      -0.345249        -9.3947
   3   2.0000      -0.345199        -9.3933
   4   2.0000      -0.345191        -9.3931
   5   0.0000       0.058306         1.5866
   6   0.0000       0.125598         3.4177
   7   0.0000       0.125611         3.4181
   8   0.0000       0.125616         3.4182
   9   0.0000       0.390953        10.6384

MULLIKEN ATOMIC CHARGES
-----------------------
   0 C :   -0.483792
   1 H :    0.120934
   2 H :    0.120958
   3 H :    0.120952
   4 H :    0.120948
Sum of atomic charges:   -0.0000000

LOEWDIN ATOMIC CHARGES
----------------------
   0 C :   -0.496041
   1 H :    0.124009
   2 H :    0.124013
   3 H :    0.124012
   4 H :    0.124008

  Mayer bond orders larger than 0.100000
B(  0-C ,  1-H ) :   0.9839 B(  0-C ,  2-H ) :   0.9839 B(  0-C ,  3-H ) :   0.9839
B(  0-C ,  4-H ) :   0.9839

Dispersion correction           -0.000872800
FINAL SINGLE POINT ENERGY       -40.387440820190

DIPOLE MOMENT
-------------

Method             : SCF
Type of density    : Electron Density
Multiplicity       :   1
Irrep              :   0
Energy             :   -40.4033266447545572 Eh
Relativity type    :
Basis              : AO
                                X                 Y                 Z
Electronic contribution:      0.000047199       0.000042149       0.000047286
Nuclear contribution   :     -0.000024671      -0.000043467      -0.000039319
                        -----------------------------------------
Total Dipole Moment    :      0.000022528      -0.000001318       0.000007967
                        -----------------------------------------
Magnitude (a.u.)       :      0.000023931
Magnitude (Debye)      :      0.000060829

Rotational constants in cm-1:             5.359148             5.358264             5.357919
Rotational constants in MHz :        160663.205508        160636.703871        160626.364436

                             ****ORCA TERMINATED NORMALLY****
TOTAL RUN TIME: 0 days 0 hours 0 minutes 2 seconds 990 msec
