                         Program Version 6.0.0  -   RELEASE  -
|  1> ! wb97x-v def2-tzvp def2/J RIJCOSX DEFGRID2 scfconv7 GCP(DFT/TZ) printgap
|  2> %output
|  3>     printlevel normal
|  4> end
|  5> * xyz 0 1
|  6> C -2.9826689609039616 1.255138986385454 -0.013696148165517645
|  7> C -1.7476715862732155 0.3967942019283913 0.011167820851916865
|  8> C -1.8392716611917135 -0.9938575564842361 0.012902344404649083
|  9> C -0.689221441415684 -1.7837704743607488 0.003484932616065992
| 10> C 0.5663367924394892 -1.1945822420362668 -0.00464977105215244
| 11> C 0.6769748432852523 0.20645238603327257 -0.0027029587630072634
| 12> C -0.4763381925120176 0.9866979815107344 0.005076931217752857
| 13> O 1.9582361998410613 0.6962794833986875 -0.0035896236221513683
| 14> C 2.110360869531672 2.123862059410379 0.00234996552787993
| 15> O 1.7409452524567846 -1.9178693513453624 -0.008758122996500504
| 16> H -2.7650238294086527 2.272079834017799 0.3232335366577814
| 17> H -3.393912136718368 1.3235173101542672 -1.0279915422582817
| 18> H -3.7666662345725332 0.8388682528033117 0.6259390876955927
| 19> H -2.814001509367375 -1.4727337334290127 0.021352529221949666
| 20> H -0.7629066623218166 -2.8682540176288946 0.00700427185414672
| 21> H -0.39898401149691143 2.0679031528537 0.008090190129983034
| 22> H 1.6624485886810632 2.5708037467768317 -0.8923126660613553
| 23> H 3.185892153868513 2.304142747871022 0.0016374897002073838
| 24> H 1.6650650617389948 2.562973027602404 0.9021938527220447
| 25> H 1.5186555411603555 -2.858890402621189 -0.006368972979083995
| 26> *
| 27>
| 28>                          ****END OF INPUT****

CARTESIAN COORDINATES (ANGSTROEM)
---------------------------------
  C     -2.982669    1.255139   -0.013696
  C     -1.747672    0.396794    0.011168
  C     -1.839272   -0.993858    0.012902
  C     -0.689221   -1.783770    0.003485
  C      0.566337   -1.194582   -0.004650
  C      0.676975    0.206452   -0.002703
  C     -0.476338    0.986698    0.005077
  O      1.958236    0.696279   -0.003590
  C      2.110361    2.123862    0.002350
  O      1.740945   -1.917869   -0.008758
  H     -2.765024    2.272080    0.323234
  H     -3.393912    1.323517   -1.027992
  H     -3.766666    0.838868    0.625939
  H     -2.814002   -1.472734    0.021353
  H     -0.762907   -2.868254    0.007004
  H     -0.398984    2.067903    0.008090
  H      1.662449    2.570804   -0.892313
  H      3.185892    2.304143    0.001637
  H      1.665065    2.562973    0.902194
  H      1.518656   -2.858890   -0.006369

 Total Charge           Charge          ....    0
 Multiplicity           Mult            ....    1
 Number of Electrons    NEL             ....   74
 Basis Dimension        Dim             ....  370

ORBITAL ENERGIES
----------------

  NO   OCC          E(Eh)            E(eV)
   0   2.0000     -21.697886      -590.4295
   1   2.0000     -21.695810      -590.3730
   2   2.0000     -12.106655      -329.4388
   3   2.0000     -12.104110      -329.3696
   4   2.0000     -12.098543      -329.2181
   5   2.0000     -12.054409      -328.0171
   6   2.0000     -12.050142      -327.9010
   7   2.0000     -12.045892      -327.7854
   8   2.0000     -12.042315      -327.6881
   9   2.0000     -12.041432      -327.6640
  10   2.0000      -1.713933       -46.6385
  11   2.0000      -1.704329       -46.3772
  12   2.0000      -1.385919       -37.7128
  13   2.0000      -1.305035       -35.5118
  14   2.0000      -1.283898       -34.9366
  15   2.0000      -1.227696       -33.4073
  16   2.0000      -1.200122       -32.6570
  17   2.0000      -1.136838       -30.9349
  18   2.0000      -1.108538       -30.1649
  19   2.0000      -1.061358       -28.8810
  20   2.0000      -1.035395       -28.1745
  21   2.0000      -1.009693       -27.4751
  22   2.0000      -0.973140       -26.4805
  23   2.0000      -0.967220       -26.3194
  24   2.0000      -0.937465       -25.5097
  25   2.0000      -0.928584       -25.2681
  26   2.0000      -0.912046       -24.8180
  27   2.0000      -0.895082       -24.3564
  28   2.0000      -0.840426       -22.8692
  29   2.0000      -0.835749       -22.7419
  30   2.0000      -0.833936       -22.6926
  31   2.0000      -0.825600       -22.4657
  32   2.0000      -0.820088       -22.3157
  33   2.0000      -0.806241       -21.9389
  34   2.0000      -0.754159       -20.5217
  35   2.0000      -0.639725       -17.4078
  36   2.0000      -0.627725       -17.0813
  37   0.0000      -0.245961        -6.6929
  38   0.0000      -0.243874        -6.6362
  39   0.0000      -0.194666        -5.2971
  40   0.0000      -0.139192        -3.7876
  41   0.0000      -0.089463        -2.4344

MULLIKEN ATOMIC CHARGES
-----------------------
   0 C :   -0.368200
   1 C :    0.151382
   2 C :   -0.250723
   3 C :   -0.141417
   4 C :    0.140323
   5 C :    0.248026
   6 C :   -0.327508
   7 O :   -0.238492
   8 C :   -0.218748
   9 O :   -0.379054
  10 H :    0.113140
  11 H :    0.123665
  12 H :    0.120056
  13 H :    0.112023
  14 H :    0.101842
  15 H :    0.125899
  16 H :    0.120307
  17 H :    0.138013
  18 H :    0.120133
  19 H :    0.309334
Sum of atomic charges:   -0.0000000

LOEWDIN ATOMIC CHARGES
----------------------
   0 C :   -0.253835
   1 C :   -0.180779
   2 C :   -0.134000
   3 C :   -0.143535
   4 C :   -0.241409
   5 C :   -0.220668
   6 C :   -0.118194
   7 O :    0.223966
   8 C :   -0.311110
   9 O :    0.067689
  10 H :    0.122735
  11 H :    0.126326
  12 H :    0.125175
  13 H :    0.142755
  14 H :    0.140532
  15 H :    0.147463
  16 H :    0.105154
  17 H :    0.112943
  18 H :    0.105168
  19 H :    0.183625

  Mayer bond orders larger than 0.100000
B(  0-C ,  1-C ) :   0.8999 B(  0-C , 10-H ) :   0.9964 B(  0-C , 11-H ) :   0.9658
B(  0-C , 12-H ) :   0.9894 B(  1-C ,  2-C ) :   1.4450 B(  1-C ,  6-C ) :   1.3798
B(  2-C ,  3-C ) :   1.3976 B(  2-C , 13-H ) :   0.9693 B(  3-C ,  4-C ) :   1.4285
B(  3-C , 14-H ) :   0.9665 B(  4-C ,  5-C ) :   1.3375 B(  4-C ,  9-O ) :   1.2015
B(  5-C ,  6-C ) :   1.4076 B(  5-C ,  7-O ) :   1.2016 B(  6-C , 15-H ) :   0.9445
B(  7-O ,  8-C ) :   0.9576 B(  8-C , 16-H ) :   0.9734 B(  8-C , 17-H ) :   0.9781
B(  8-C , 18-H ) :   0.9733 B(  9-O , 19-H ) :   0.8896

FINAL SINGLE POINT ENERGY      -461.329290829695

DIPOLE MOMENT
-------------

Method             : SCF
Type of density    : Electron Density
Multiplicity       :   1
Irrep              :   0
Energy             :  -461.3415791977953972 Eh
Relativity type    :
Basis              : AO
                                X                 Y                 Z
Electronic contribution:      5.052393652      -6.183180993       0.022762005
Nuclear contribution   :     -5.495492435       6.358628033      -0.030490734
                        -----------------------------------------
Total Dipole Moment    :     -0.443098783       0.175447040      -0.007728729
                        -----------------------------------------
Magnitude (a.u.)       :      0.476631858
Magnitude (Debye)      :      1.211501904

Rotational constants in cm-1:             0.061640             0.039291             0.024216
Rotational constants in MHz :          1847.908562          1177.924598           725.978518

                             ****ORCA TERMINATED NORMALLY****
TOTAL RUN TIME: 0 days 0 hours 4 minutes 30 seconds 402 msec
