                         Program Version 6.0.0  -   RELEASE  -
|  1> ! wb97x-v def2-tzvp def2/J RIJCOSX DEFGRID2 scfconv7 GCP(DFT/TZ) printgap
|  2> %output
|  3>     printlevel normal
|  4> end
|  5> %cpcm
|  6>     smd true
|  7>     smdsolvent "water"
|  8> end
|  9> * xyz 0 1
| 10> C -2.9826689609039616 1.255138986385454 -0.013696148165517645
| 11> C -1.7476715862732155 0.3967942019283913 0.011167820851916865
| 12> C -1.8392716611917135 -0.9938575564842361 0.012902344404649083
| 13> C -0.689221441415684 -1.7837704743607488 0.003484932616065992
| 14> C 0.5663367924394892 -1.1945822420362668 -0.00464977105215244
| 15> C 0.6769748432852523 0.20645238603327257 -0.0027029587630072634
| 16> C -0.4763381925120176 0.9866979815107344 0.005076931217752857
| 17> O 1.9582361998410613 0.6962794833986875 -0.0035896236221513683
| 18> C 2.110360869531672 2.123862059410379 0.00234996552787993
| 19> O 1.7409452524567846 -1.9178693513453624 -0.008758122996500504
| 20> H -2.7650238294086527 2.272079834017799 0.3232335366577814
| 21> H -3.393912136718368 1.3235173101542672 -1.0279915422582817
| 22> H -3.7666662345725332 0.8388682528033117 0.6259390876955927
| 23> H -2.814001509367375 -1.4727337334290127 0.021352529221949666
| 24> H -0.7629066623218166 -2.8682540176288946 0.00700427185414672
| 25> H -0.39898401149691143 2.0679031528537 0.008090190129983034
| 26> H 1.6624485886810632 2.5708037467768317 -0.8923126660613553
| 27> H 3.185892153868513 2.304142747871022 0.0016374897002073838
| 28> H 1.6650650617389948 2.562973027602404 0.9021938527220447
| 29> H 1.5186555411603555 -2.858890402621189 -0.006368972979083995
| 30> *
| 31>
| 32>                          ****END OF INPUT****

CARTESIAN COORDINATES (ANGSTROEM)
---------------------------------
  C     -2.982669    1.255139   -0.013696
  C     -1.747672    0.396794    0.011168
  C     -1.839272   -0.993858    0.012902
  C     -0.689221   -1.783770    0.003485
  C      0.566337   -1.194582   -0.004650
  C      0.676975    0.206452   -0.002703
  C     -0.476338    0.986698    0.005077
  O      1.958236    0.696279   -0.003590
  C      2.110361    2.123862    0.002350
  O      1.740945   -1.917869   -0.008758
  H     -2.765024    2.272080    0.323234
  H     -3.393912    1.323517   -1.027992
  H     -3.766666    0.838868    0.625939
  H     -2.814002   -1.472734    0.021353
  H     -0.762907   -2.868254    0.007004
  H     -0.398984    2.067903    0.008090
  H      1.662449    2.570804   -0.892313
  H      3.185892    2.304143    0.001637
  H      1.665065    2.562973    0.902194
  H      1.518656   -2.858890   -0.006369

 Total Charge           Charge          ....    0
 Multiplicity           Mult            ....    1
 Number of Electrons    NEL             ....   74
 Basis Dimension        Dim             ....  370

ORBITAL ENERGIES
----------------

  NO   OCC          E(Eh)            E(eV)
   0   2.0000     -21.705220      -590.6291
   1   2.0000     -21.700630      -590.5042
   2   2.0000     -12.110145      -329.5338
   3   2.0000     -12.107186      -329.4533
   4   2.0000     -12.088142      -328.9351
   5   2.0000     -12.055022      -328.0338
   6   2.0000     -12.048767      -327.8636
   7   2.0000     -12.045316      -327.7697
   8   2.0000     -12.041401      -327.6632
   9   2.0000     -12.032898      -327.4318
  10   2.0000      -1.721013       -46.8311
  11   2.0000      -1.710265       -46.5387
  12   2.0000      -1.388284       -37.7771
  13   2.0000      -1.306570       -35.5536
  14   2.0000      -1.284459       -34.9519
  15   2.0000      -1.226433       -33.3729
  16   2.0000      -1.198511       -32.6132
  17   2.0000      -1.137511       -30.9533
  18   2.0000      -1.108014       -30.1506
  19   2.0000      -1.063911       -28.9505
  20   2.0000      -1.037692       -28.2370
  21   2.0000      -1.012326       -27.5468
  22   2.0000      -0.979994       -26.6670
  23   2.0000      -0.973629       -26.4938
  24   2.0000      -0.945533       -25.7293
  25   2.0000      -0.931685       -25.3524
  26   2.0000      -0.909704       -24.7543
  27   2.0000      -0.890391       -24.2288
  28   2.0000      -0.836897       -22.7731
  29   2.0000      -0.829578       -22.5740
  30   2.0000      -0.827200       -22.5093
  31   2.0000      -0.819816       -22.3083
  32   2.0000      -0.812749       -22.1160
  33   2.0000      -0.799811       -21.7640
  34   2.0000      -0.756721       -20.5914
  35   2.0000      -0.641666       -17.4606
  36   2.0000      -0.632067       -17.1994
  37   0.0000      -0.249388        -6.7862
  38   0.0000      -0.245233        -6.6731
  39   0.0000      -0.195771        -5.3272
  40   0.0000      -0.137011        -3.7283
  41   0.0000      -0.090363        -2.4589

MULLIKEN ATOMIC CHARGES
-----------------------
   0 C :   -0.396187
   1 C :    0.118586
   2 C :   -0.286450
   3 C :   -0.201042
   4 C :    0.150822
   5 C :    0.255663
   6 C :   -0.361556
   7 O :   -0.315777
   8 C :   -0.233768
   9 O :   -0.477928
  10 H :    0.139986
  11 H :    0.139543
  12 H :    0.140161
  13 H :    0.157780
  14 H :    0.166421
  15 H :    0.176089
  16 H :    0.145363
  17 H :    0.158288
  18 H :    0.145243
  19 H :    0.378764
Sum of atomic charges:   -0.0000000

LOEWDIN ATOMIC CHARGES
----------------------
   0 C :   -0.255333
   1 C :   -0.188604
   2 C :   -0.141996
   3 C :   -0.140655
   4 C :   -0.256550
   5 C :   -0.236512
   6 C :   -0.117843
   7 O :    0.190409
   8 C :   -0.305271
   9 O :    0.034197
  10 H :    0.129180
  11 H :    0.130869
  12 H :    0.129956
  13 H :    0.152635
  14 H :    0.157492
  15 H :    0.161027
  16 H :    0.114263
  17 H :    0.117946
  18 H :    0.114278
  19 H :    0.210512

  Mayer bond orders larger than 0.100000
B(  0-C ,  1-C ) :   0.9201 B(  0-C , 10-H ) :   0.9905 B(  0-C , 11-H ) :   0.9604
B(  0-C , 12-H ) :   0.9825 B(  1-C ,  2-C ) :   1.4073 B(  1-C ,  6-C ) :   1.3593
B(  2-C ,  3-C ) :   1.3628 B(  2-C , 13-H ) :   0.9769 B(  3-C ,  4-C ) :   1.4314
B(  3-C , 14-H ) :   0.9731 B(  4-C ,  5-C ) :   1.3228 B(  4-C ,  9-O ) :   1.1172
B(  5-C ,  6-C ) :   1.4024 B(  5-C ,  7-O ) :   1.1402 B(  6-C , 15-H ) :   0.9522
B(  7-O ,  8-C ) :   0.9178 B(  8-C , 16-H ) :   0.9710 B(  8-C , 17-H ) :   0.9696
B(  8-C , 18-H ) :   0.9709 B(  9-O , 19-H ) :   0.8474

FINAL SINGLE POINT ENERGY      -461.341957684151

DIPOLE MOMENT
-------------

Method             : SCF
Type of density    : Electron Density
Multiplicity       :   1
Irrep              :   0
Energy             :  -461.3542460522513124 Eh
Relativity type    :
Basis              : AO
                                X                 Y                 Z
Electronic contribution:      4.689828897      -6.097281602       0.020816233
Nuclear contribution   :     -5.495492435       6.358628033      -0.030490734
                        -----------------------------------------
Total Dipole Moment    :     -0.805663538       0.261346431      -0.009674500
                        -----------------------------------------
Magnitude (a.u.)       :      0.847047395
Magnitude (Debye)      :      2.153023375

Rotational constants in cm-1:             0.061640             0.039291             0.024216
Rotational constants in MHz :          1847.908562          1177.924598           725.978518

                             ****ORCA TERMINATED NORMALLY****
TOTAL RUN TIME: 0 days 0 hours 4 minutes 38 seconds 812 msec
