                         Program Version 6.0.0  -   RELEASE  -
|  1> ! r2scan-3c def2/J RI DEFGRID2 scfconv6 printgap
|  2> %output
|  3>     printlevel normal
|  4> end
|  5> %cpcm
|  6>     smd true
|  7>     smdsolvent "water"
|  8> end
|  9> * xyz 0 1
| 10> C 2.885844795 -0.0725785495 0.0068241248
| 11> C 1.3920553369 0.0038731339 -0.0038627427
| 12> C 0.7115517478 1.2172908408 -0.0033704975
| 13> C -0.6707078258 1.2233244329 -0.0016326974
| 14> C -1.3552013076 0.0098121692 3.94385e-05
| 15> N -0.7105468799 -1.152319752 -0.0018483778
| 16> C 0.6118744639 -1.1471478617 -0.0038917035
| 17> C -2.8510531929 -0.0371703643 0.0040788719
| 18> H 3.233823117 -0.426527783 0.9765043944
| 19> H 3.2364371198 -0.772239343 -0.7488429164
| 20> H 3.3228045721 0.9042795175 -0.1826898967
| 21> H 1.2620908955 2.1476117998 -0.0053273354
| 22> H -1.2202340171 2.1522614762 -0.0023157614
| 23> H 1.0754970809 -2.1260341295 -0.0073050394
| 24> H -3.1839704193 -1.0699041438 -0.0114384175
| 25> H -3.2386249771 0.4524039872 0.8953437502
| 26> H -3.2455565091 0.4825478776 -0.8666104794
| 27> *
| 28>
| 29>                          ****END OF INPUT****

CARTESIAN COORDINATES (ANGSTROEM)
---------------------------------
  C      2.885845   -0.072579    0.006824
  C      1.392055    0.003873   -0.003863
  C      0.711552    1.217291   -0.003370
  C     -0.670708    1.223324   -0.001633
  C     -1.355201    0.009812    0.000039
  N     -0.710547   -1.152320   -0.001848
  C      0.611874   -1.147148   -0.003892
  C     -2.851053   -0.037170    0.004079
  H      3.233823   -0.426528    0.976504
  H      3.236437   -0.772239   -0.748843
  H      3.322805    0.904280   -0.182690
  H      1.262091    2.147612   -0.005327
  H     -1.220234    2.152261   -0.002316
  H      1.075497   -2.126034   -0.007305
  H     -3.183970   -1.069904   -0.011438
  H     -3.238625    0.452404    0.895344
  H     -3.245557    0.482548   -0.866610

 Total Charge           Charge          ....    0
 Multiplicity           Mult            ....    1
 Number of Electrons    NEL             ....   58
 Basis Dimension        Dim             ....  202

ORBITAL ENERGIES
----------------

  NO   OCC          E(Eh)            E(eV)
   0   2.0000     -14.151419      -385.0797
   1   2.0000     -10.068461      -273.9768
   2   2.0000     -10.056943      -273.6633
   3   2.0000     -10.043843      -273.3069
   4   2.0000     -10.041111      -273.2325
   5   2.0000     -10.032935      -273.0101
   6   2.0000     -10.020469      -272.6708
   7   2.0000     -10.016245      -272.5559
   8   2.0000      -0.913531       -24.8584
   9   2.0000      -0.779626       -21.2147
  10   2.0000      -0.751454       -20.4481
  11   2.0000      -0.691755       -18.8236
  12   2.0000      -0.631384       -17.1808
  13   2.0000      -0.593812       -16.1584
  14   2.0000      -0.558167       -15.1885
  15   2.0000      -0.467547       -12.7226
  16   2.0000      -0.456221       -12.4144
  17   2.0000      -0.414019       -11.2660
  18   2.0000      -0.404984       -11.0202
  19   2.0000      -0.383198       -10.4274
  20   2.0000      -0.374806       -10.1990
  21   2.0000      -0.366378        -9.9697
  22   2.0000      -0.352122        -9.5817
  23   2.0000      -0.339614        -9.2414
  24   2.0000      -0.338999        -9.2246
  25   2.0000      -0.316173        -8.6035
  26   2.0000      -0.265589        -7.2271
  27   2.0000      -0.225246        -6.1293
  28   2.0000      -0.223911        -6.0929
  29   0.0000      -0.047995        -1.3060
  30   0.0000      -0.032229        -0.8770
  31   0.0000       0.081944         2.2298
  32   0.0000       0.103040         2.8039
  33   0.0000       0.106805         2.9063

MULLIKEN ATOMIC CHARGES
-----------------------
   0 C :   -0.567658
   1 C :    0.215737
   2 C :   -0.242426
   3 C :   -0.209045
   4 C :    0.262870
   5 N :   -0.244568
   6 C :   -0.192209
   7 C :   -0.606492
   8 H :    0.182385
   9 H :    0.175071
  10 H :    0.172555
  11 H :    0.183289
  12 H :    0.183586
  13 H :    0.159336
  14 H :    0.177060
  15 H :    0.175643
  16 H :    0.174866
Sum of atomic charges:    0.0000000

LOEWDIN ATOMIC CHARGES
----------------------
   0 C :   -0.391753
   1 C :   -0.090288
   2 C :   -0.122264
   3 C :   -0.139811
   4 C :    0.112305
   5 N :   -0.667251
   6 C :    0.076939
   7 C :   -0.368105
   8 H :    0.173084
   9 H :    0.171440
  10 H :    0.167280
  11 H :    0.182823
  12 H :    0.182947
  13 H :    0.193908
  14 H :    0.171951
  15 H :    0.173549
  16 H :    0.173244

  Mayer bond orders larger than 0.100000
B(  0-C ,  1-C ) :   0.7992 B(  0-C ,  8-H ) :   0.9649 B(  0-C ,  9-H ) :   0.9739
B(  0-C , 10-H ) :   0.9856 B(  1-C ,  2-C ) :   1.3507 B(  1-C ,  6-C ) :   1.3166
B(  2-C ,  3-C ) :   1.4534 B(  2-C , 11-H ) :   0.9523 B(  3-C ,  4-C ) :   1.3785
B(  3-C , 12-H ) :   0.9259 B(  4-C ,  5-N ) :   1.3270 B(  4-C ,  7-C ) :   0.8328
B(  5-N ,  6-C ) :   1.5012 B(  6-C , 13-H ) :   0.9801 B(  7-C , 14-H ) :   1.0036
B(  7-C , 15-H ) :   0.9578 B(  7-C , 16-H ) :   0.9595

Dispersion correction           -0.005183705
FINAL SINGLE POINT ENERGY      -326.828823365599

DIPOLE MOMENT
-------------

Method             : SCF
Type of density    : Electron Density
Multiplicity       :   1
Irrep              :   0
Energy             :  -326.8313819639012081 Eh
Relativity type    :
Basis              : AO
                                X                 Y                 Z
Electronic contribution:     -0.561306949      -0.605170342      -0.026881036
Nuclear contribution   :      1.161559751       1.630222323       0.044382404
                        -----------------------------------------
Total Dipole Moment    :      0.600252802       1.025051981       0.017501368
                        -----------------------------------------
Magnitude (a.u.)       :      1.187998858
Magnitude (Debye)      :      3.019653122

Rotational constants in cm-1:             0.186349             0.050010             0.040014
Rotational constants in MHz :          5586.602796          1499.260887          1199.585456

                             ****ORCA TERMINATED NORMALLY****
TOTAL RUN TIME: 0 days 0 hours 0 minutes 30 seconds 429 msec
