                         Program Version 6.0.0  -   RELEASE  -
|  1> ! pbe def2-sv(p) def2/J RI DEFGRID1 loosescf d4 GCP(DFT/SV(P)) printgap
|  2> %output
|  3>     printlevel normal
|  4> end
|  5> * xyz 0 1
|  6> C 1.8428406622 0.9773175381 -0.2269544009
|  7> C 0.9788044424 -0.1058809816 0.4069084442
|  8> C -0.3733427037 -0.2858398178 -0.2954188057
|  9> H -0.1974407483 -0.4761644522 -1.3679835932
| 10> C -1.2730632982 0.9372859293 -0.1532342243
| 11> O -1.08785197 -1.3844590989 0.2549268037
| 12> H 1.9726201669 0.7856002678 -1.2897737579
| 13> H 2.8228666031 0.9916657054 0.2427650457
| 14> H 1.3925551989 1.9579766897 -0.1043918451
| 15> H 0.7959006227 0.127685785 1.4577970841
| 16> H 1.5175941177 -1.0565217027 0.3661752326
| 17> H -2.2514077 0.7101602743 -0.5681843976
| 18> H -1.3944305992 1.1847005595 0.898019277
| 19> H -0.8512074353 1.7851588373 -0.6817701417
| 20> H -0.5434678398 -2.1810882888 0.2026500324
| 21> *
| 22>
| 23>                          ****END OF INPUT****

CARTESIAN COORDINATES (ANGSTROEM)
---------------------------------
  C      1.842841    0.977318   -0.226954
  C      0.978804   -0.105881    0.406908
  C     -0.373343   -0.285840   -0.295419
  H     -0.197441   -0.476164   -1.367984
  C     -1.273063    0.937286   -0.153234
  O     -1.087852   -1.384459    0.254927
  H      1.972620    0.785600   -1.289774
  H      2.822867    0.991666    0.242765
  H      1.392555    1.957977   -0.104392
  H      0.795901    0.127686    1.457797
  H      1.517594   -1.056522    0.366175
  H     -2.251408    0.710160   -0.568184
  H     -1.394431    1.184701    0.898019
  H     -0.851207    1.785159   -0.681770
  H     -0.543468   -2.181088    0.202650

 Total Charge           Charge          ....    0
 Multiplicity           Mult            ....    1
 Number of Electrons    NEL             ....   42
 Basis Dimension        Dim             ....   90

ORBITAL ENERGIES
----------------

  NO   OCC          E(Eh)            E(eV)
   0   2.0000     -18.734467      -509.7908
   1   2.0000      -9.934238      -270.3244
   2   2.0000      -9.884243      -268.9639
   3   2.0000      -9.877850      -268.7900
   4   2.0000      -9.869596      -268.5654
   5   2.0000      -0.911758       -24.8102
   6   2.0000      -0.708667       -19.2838
   7   2.0000      -0.647156       -17.6100
   8   2.0000      -0.568504       -15.4698
   9   2.0000      -0.512664       -13.9503
  10   2.0000      -0.460824       -12.5397
  11   2.0000      -0.417235       -11.3535
  12   2.0000      -0.383709       -10.4412
  13   2.0000      -0.358172        -9.7464
  14   2.0000      -0.345871        -9.4116
  15   2.0000      -0.334787        -9.1100
  16   2.0000      -0.324927        -8.8417
  17   2.0000      -0.299959        -8.1623
  18   2.0000      -0.296376        -8.0648
  19   2.0000      -0.264458        -7.1963
  20   2.0000      -0.208240        -5.6665
  21   0.0000       0.028215         0.7678
  22   0.0000       0.051504         1.4015
  23   0.0000       0.074042         2.0148
  24   0.0000       0.076932         2.0934
  25   0.0000       0.098884         2.6908

MULLIKEN ATOMIC CHARGES
-----------------------
   0 C :   -0.292467
   1 C :   -0.173690
   2 C :    0.012364
   3 H :    0.055222
   4 C :   -0.250957
   5 O :   -0.428181
   6 H :    0.099541
   7 H :    0.105360
   8 H :    0.110777
   9 H :    0.087765
  10 H :    0.070431
  11 H :    0.110016
  12 H :    0.098595
  13 H :    0.103435
  14 H :    0.291789
Sum of atomic charges:   -0.0000000

LOEWDIN ATOMIC CHARGES
----------------------
   0 C :   -0.342395
   1 C :   -0.247722
   2 C :   -0.057347
   3 H :    0.092261
   4 C :   -0.340984
   5 O :   -0.337580
   6 H :    0.117578
   7 H :    0.122051
   8 H :    0.119244
   9 H :    0.117897
  10 H :    0.108164
  11 H :    0.126287
  12 H :    0.122018
  13 H :    0.121509
  14 H :    0.279018

  Mayer bond orders larger than 0.100000
B(  0-C ,  1-C ) :   1.1337 B(  0-C ,  6-H ) :   0.9531 B(  0-C ,  7-H ) :   0.9481
B(  0-C ,  8-H ) :   0.9512 B(  1-C ,  2-C ) :   1.0720 B(  1-C ,  9-H ) :   0.9150
B(  1-C , 10-H ) :   0.9216 B(  2-C ,  3-H ) :   0.9112 B(  2-C ,  4-C ) :   1.1121
B(  2-C ,  5-O ) :   1.0579 B(  4-C , 11-H ) :   0.9437 B(  4-C , 12-H ) :   0.9449
B(  4-C , 13-H ) :   0.9428 B(  5-O , 14-H ) :   0.8530

Dispersion correction           -0.009593024
FINAL SINGLE POINT ENERGY      -233.092499104325

DIPOLE MOMENT
-------------

Method             : SCF
Type of density    : Electron Density
Multiplicity       :   1
Irrep              :   0
Energy             :  -233.1518749611923624 Eh
Relativity type    :
Basis              : AO
                                X                 Y                 Z
Electronic contribution:     -2.487595870      -3.650327046       0.599858987
Nuclear contribution   :      3.045607760       3.571814444      -0.788676249
                        -----------------------------------------
Total Dipole Moment    :      0.558011890      -0.078512601      -0.188817262
                        -----------------------------------------
Magnitude (a.u.)       :      0.594300813
Magnitude (Debye)      :      1.510592618

Rotational constants in cm-1:             0.257873             0.116038             0.088562
Rotational constants in MHz :          7730.845288          3478.745639          2655.029954

                             ****ORCA TERMINATED NORMALLY****
TOTAL RUN TIME: 0 days 0 hours 0 minutes 5 seconds 310 msec
