                         Program Version 6.0.0  -   RELEASE  -
|  1> ! wb97x-v def2-tzvp def2/J RIJCOSX DEFGRID2 scfconv7 GCP(DFT/TZ) printgap
|  2> %output
|  3>     printlevel normal
|  4> end
|  5> * xyz 0 1
|  6> C 0.42043641504103796 1.8928677636343425 0.16692902775069862
|  7> C 0.5487248577869761 0.5122961273156957 0.7642026867561491
|  8> H 1.0714343038531402 0.5509873022049597 1.7253943355216597
|  9> C -0.7493525686919342 -0.21025958171622738 1.0234521563554797
| 10> Cl -1.7917432672462628 -0.3858469929683427 -0.468424056846789
| 11> Cl 1.6442815033731946 -0.527316843612256 -0.3093546679488165
| 12> H -0.22629344557120756 2.4928932687581504 0.8172389763765768
| 13> H 1.3962390073304471 2.379254418311135 0.10666093834819987
| 14> H -0.023567486433580496 1.8589330027837647 -0.8306572522005811
| 15> H -0.5865131688166599 -1.2164383714534772 1.4102838593781584
| 16> H -1.3338810586338015 0.3717374960561378 1.7410076981516607
| 17> *
| 18>
| 19>                          ****END OF INPUT****

CARTESIAN COORDINATES (ANGSTROEM)
---------------------------------
  C      0.420436    1.892868    0.166929
  C      0.548725    0.512296    0.764203
  H      1.071434    0.550987    1.725394
  C     -0.749353   -0.210260    1.023452
  Cl    -1.791743   -0.385847   -0.468424
  Cl     1.644282   -0.527317   -0.309355
  H     -0.226293    2.492893    0.817239
  H      1.396239    2.379254    0.106661
  H     -0.023567    1.858933   -0.830657
  H     -0.586513   -1.216438    1.410284
  H     -1.333881    0.371737    1.741008

 Total Charge           Charge          ....    0
 Multiplicity           Mult            ....    1
 Number of Electrons    NEL             ....   58
 Basis Dimension        Dim             ....  203

ORBITAL ENERGIES
----------------

  NO   OCC          E(Eh)            E(eV)
   0   2.0000    -107.135194     -2915.2968
   1   2.0000    -107.129525     -2915.1426
   2   2.0000     -12.135613      -330.2268
   3   2.0000     -12.126855      -329.9885
   4   2.0000     -12.059087      -328.1445
   5   2.0000     -11.288236      -307.1685
   6   2.0000     -11.282673      -307.0171
   7   2.0000      -9.079653      -247.0699
   8   2.0000      -9.076991      -246.9975
   9   2.0000      -9.076966      -246.9968
  10   2.0000      -9.074056      -246.9176
  11   2.0000      -9.071440      -246.8464
  12   2.0000      -9.071373      -246.8446
  13   2.0000      -1.415874       -38.5279
  14   2.0000      -1.384519       -37.6747
  15   2.0000      -1.293580       -35.2001
  16   2.0000      -1.207304       -32.8524
  17   2.0000      -1.077464       -29.3193
  18   2.0000      -0.936693       -25.4887
  19   2.0000      -0.929339       -25.2886
  20   2.0000      -0.908969       -24.7343
  21   2.0000      -0.866346       -23.5745
  22   2.0000      -0.851494       -23.1703
  23   2.0000      -0.825778       -22.4706
  24   2.0000      -0.813524       -22.1371
  25   2.0000      -0.780838       -21.2477
  26   2.0000      -0.771182       -20.9849
  27   2.0000      -0.769665       -20.9437
  28   2.0000      -0.766026       -20.8446
  29   0.0000      -0.289727        -7.8839
  30   0.0000      -0.256995        -6.9932
  31   0.0000      -0.052374        -1.4252
  32   0.0000      -0.040303        -1.0967
  33   0.0000      -0.022525        -0.6129

MULLIKEN ATOMIC CHARGES
-----------------------
   0 C :   -0.342409
   1 C :    0.015669
   2 H :    0.117739
   3 C :   -0.135062
   4 Cl:   -0.149988
   5 Cl:   -0.169441
   6 H :    0.108771
   7 H :    0.131874
   8 H :    0.142422
   9 H :    0.148086
  10 H :    0.132340
Sum of atomic charges:    0.0000000

LOEWDIN ATOMIC CHARGES
----------------------
   0 C :   -0.307802
   1 C :   -0.496890
   2 H :    0.146759
   3 C :   -0.465783
   4 Cl:    0.243280
   5 Cl:    0.242832
   6 H :    0.127466
   7 H :    0.125389
   8 H :    0.125880
   9 H :    0.128157
  10 H :    0.130712

  Mayer bond orders larger than 0.100000
B(  0-C ,  1-C ) :   1.0019 B(  0-C ,  6-H ) :   0.9591 B(  0-C ,  7-H ) :   0.9732
B(  0-C ,  8-H ) :   0.9648 B(  1-C ,  2-H ) :   0.9569 B(  1-C ,  3-C ) :   1.0007
B(  1-C ,  5-Cl) :   1.0345 B(  3-C ,  4-Cl) :   1.0575 B(  3-C ,  9-H ) :   0.9675
B(  3-C , 10-H ) :   0.9568

FINAL SINGLE POINT ENERGY     -1038.232519448715

DIPOLE MOMENT
-------------

Method             : SCF
Type of density    : Electron Density
Multiplicity       :   1
Irrep              :   0
Energy             : -1038.2398642249145269 Eh
Relativity type    :
Basis              : AO
                                X                 Y                 Z
Electronic contribution:     -0.576476322      -6.637157074      -4.663414643
Nuclear contribution   :      0.536585448       7.252597741       5.682852080
                        -----------------------------------------
Total Dipole Moment    :     -0.039890874       0.615440667       1.019437438
                        -----------------------------------------
Magnitude (a.u.)       :      1.191474375
Magnitude (Debye)      :      3.028487183

Rotational constants in cm-1:             0.142388             0.064406             0.053641
Rotational constants in MHz :          4268.678739          1930.839733          1608.116852

                             ****ORCA TERMINATED NORMALLY****
TOTAL RUN TIME: 0 days 0 hours 1 minutes 2 seconds 866 msec
