                         Program Version 6.0.0  -   RELEASE  -
|  1> ! wb97x-v def2-tzvp def2/J RIJCOSX DEFGRID2 scfconv7 GCP(DFT/TZ) printgap
|  2> %output
|  3>     printlevel normal
|  4> end
|  5> %cpcm
|  6>     smd true
|  7>     smdsolvent "water"
|  8> end
|  9> * xyz 0 1
| 10> C 0.42043641504103796 1.8928677636343425 0.16692902775069862
| 11> C 0.5487248577869761 0.5122961273156957 0.7642026867561491
| 12> H 1.0714343038531402 0.5509873022049597 1.7253943355216597
| 13> C -0.7493525686919342 -0.21025958171622738 1.0234521563554797
| 14> Cl -1.7917432672462628 -0.3858469929683427 -0.468424056846789
| 15> Cl 1.6442815033731946 -0.527316843612256 -0.3093546679488165
| 16> H -0.22629344557120756 2.4928932687581504 0.8172389763765768
| 17> H 1.3962390073304471 2.379254418311135 0.10666093834819987
| 18> H -0.023567486433580496 1.8589330027837647 -0.8306572522005811
| 19> H -0.5865131688166599 -1.2164383714534772 1.4102838593781584
| 20> H -1.3338810586338015 0.3717374960561378 1.7410076981516607
| 21> *
| 22>
| 23>                          ****END OF INPUT****

CARTESIAN COORDINATES (ANGSTROEM)
---------------------------------
  C      0.420436    1.892868    0.166929
  C      0.548725    0.512296    0.764203
  H      1.071434    0.550987    1.725394
  C     -0.749353   -0.210260    1.023452
  Cl    -1.791743   -0.385847   -0.468424
  Cl     1.644282   -0.527317   -0.309355
  H     -0.226293    2.492893    0.817239
  H      1.396239    2.379254    0.106661
  H     -0.023567    1.858933   -0.830657
  H     -0.586513   -1.216438    1.410284
  H     -1.333881    0.371737    1.741008

 Total Charge           Charge          ....    0
 Multiplicity           Mult            ....    1
 Number of Electrons    NEL             ....   58
 Basis Dimension        Dim             ....  203

ORBITAL ENERGIES
----------------

  NO   OCC          E(Eh)            E(eV)
   0   2.0000    -107.131344     -2915.1921
   1   2.0000    -107.126593     -2915.0628
   2   2.0000     -12.120384      -329.8124
   3   2.0000     -12.109613      -329.5193
   4   2.0000     -12.040458      -327.6375
   5   2.0000     -11.284625      -307.0702
   6   2.0000     -11.280004      -306.9445
   7   2.0000      -9.075980      -246.9700
   8   2.0000      -9.073502      -246.9025
   9   2.0000      -9.073475      -246.9018
  10   2.0000      -9.071324      -246.8433
  11   2.0000      -9.068883      -246.7768
  12   2.0000      -9.068820      -246.7751
  13   2.0000      -1.408546       -38.3285
  14   2.0000      -1.380844       -37.5747
  15   2.0000      -1.280896       -34.8550
  16   2.0000      -1.190423       -32.3930
  17   2.0000      -1.061748       -28.8916
  18   2.0000      -0.921028       -25.0624
  19   2.0000      -0.915118       -24.9016
  20   2.0000      -0.895682       -24.3728
  21   2.0000      -0.853826       -23.2338
  22   2.0000      -0.838488       -22.8164
  23   2.0000      -0.809684       -22.0326
  24   2.0000      -0.799333       -21.7510
  25   2.0000      -0.778009       -21.1707
  26   2.0000      -0.767090       -20.8736
  27   2.0000      -0.765519       -20.8308
  28   2.0000      -0.760970       -20.7071
  29   0.0000      -0.278573        -7.5804
  30   0.0000      -0.245643        -6.6843
  31   0.0000      -0.035827        -0.9749
  32   0.0000      -0.015774        -0.4292
  33   0.0000      -0.005847        -0.1591

MULLIKEN ATOMIC CHARGES
-----------------------
   0 C :   -0.388000
   1 C :    0.037637
   2 H :    0.158802
   3 C :   -0.152134
   4 Cl:   -0.203836
   5 Cl:   -0.227265
   6 H :    0.143454
   7 H :    0.146049
   8 H :    0.135653
   9 H :    0.174126
  10 H :    0.175514
Sum of atomic charges:    0.0000000

LOEWDIN ATOMIC CHARGES
----------------------
   0 C :   -0.309702
   1 C :   -0.481948
   2 H :    0.160867
   3 C :   -0.450987
   4 Cl:    0.208089
   5 Cl:    0.205309
   6 H :    0.137625
   7 H :    0.128237
   8 H :    0.121803
   9 H :    0.135544
  10 H :    0.145162

  Mayer bond orders larger than 0.100000
B(  0-C ,  1-C ) :   1.0026 B(  0-C ,  6-H ) :   0.9579 B(  0-C ,  7-H ) :   0.9692
B(  0-C ,  8-H ) :   0.9632 B(  1-C ,  2-H ) :   0.9493 B(  1-C ,  3-C ) :   1.0074
B(  1-C ,  5-Cl) :   0.9729 B(  3-C ,  4-Cl) :   1.0082 B(  3-C ,  9-H ) :   0.9581
B(  3-C , 10-H ) :   0.9523

FINAL SINGLE POINT ENERGY     -1038.239094589207

DIPOLE MOMENT
-------------

Method             : SCF
Type of density    : Electron Density
Multiplicity       :   1
Irrep              :   0
Energy             : -1038.2464393654067862 Eh
Relativity type    :
Basis              : AO
                                X                 Y                 Z
Electronic contribution:     -0.600733722      -6.417182852      -4.168906307
Nuclear contribution   :      0.536585448       7.252597741       5.682852080
                        -----------------------------------------
Total Dipole Moment    :     -0.064148274       0.835414889       1.513945773
                        -----------------------------------------
Magnitude (a.u.)       :      1.730336627
Magnitude (Debye)      :      4.398166178

Rotational constants in cm-1:             0.142388             0.064406             0.053641
Rotational constants in MHz :          4268.678739          1930.839733          1608.116852

                             ****ORCA TERMINATED NORMALLY****
TOTAL RUN TIME: 0 days 0 hours 1 minutes 5 seconds 251 msec
