                         Program Version 6.0.0  -   RELEASE  -
|  1> ! pbe def2-sv(p) def2/J RI DEFGRID1 loosescf d4 GCP(DFT/SV(P)) printgap
|  2> %output
|  3>     printlevel normal
|  4> end
|  5> * xyz 0 1
|  6> C -2.1370750973 -1.1978717112 -0.135814528
|  7> C -1.2301285648 -0.3638758464 0.7829169358
|  8> H -1.7854010258 -0.202343291 1.7135937227
|  9> C -0.8917423765 1.004234457 0.1543802908
| 10> H -1.1586851922 1.0016277533 -0.9081373126
| 11> C 0.6148916372 1.2899492583 0.2521756235
| 12> H 0.9169989907 1.3820912329 1.3083393497
| 13> C 1.3913800372 0.1251482255 -0.3651490194
| 14> H 1.1171714138 0.0666775672 -1.4276483522
| 15> C 1.0041498492 -1.2050828546 0.3374251949
| 16> H 1.8367719913 -1.5108582904 0.983389807
| 17> O -0.0728566576 -1.0601771891 1.2315195195
| 18> O 0.8206155591 -2.2423079694 -0.5673204858
| 19> O 2.7662309698 0.3819135462 -0.221183782
| 20> O 0.932106455 2.4668832371 -0.4467727167
| 21> O -1.6381154774 2.0549988699 0.7152867176
| 22> O -1.5835036559 -1.2858812817 -1.4368157935
| 23> H -3.1102788236 -0.6986674159 -0.1722033814
| 24> H -2.24799894 -2.1960081855 0.3031188916
| 25> H 0.0287206278 -2.043938387 -1.1139722265
| 26> H 3.2697863921 -0.1986250198 -0.8087797622
| 27> H 0.2621468634 3.1363348903 -0.2326633521
| 28> H -1.4655107383 2.111426336 1.6671220043
| 29> H -2.2225790381 -1.7137495452 -2.0248786731
| 30> *
| 31>
| 32>                          ****END OF INPUT****

CARTESIAN COORDINATES (ANGSTROEM)
---------------------------------
  C     -2.137075   -1.197872   -0.135815
  C     -1.230129   -0.363876    0.782917
  H     -1.785401   -0.202343    1.713594
  C     -0.891742    1.004234    0.154380
  H     -1.158685    1.001628   -0.908137
  C      0.614892    1.289949    0.252176
  H      0.916999    1.382091    1.308339
  C      1.391380    0.125148   -0.365149
  H      1.117171    0.066678   -1.427648
  C      1.004150   -1.205083    0.337425
  H      1.836772   -1.510858    0.983390
  O     -0.072857   -1.060177    1.231520
  O      0.820616   -2.242308   -0.567320
  O      2.766231    0.381914   -0.221184
  O      0.932106    2.466883   -0.446773
  O     -1.638115    2.054999    0.715287
  O     -1.583504   -1.285881   -1.436816
  H     -3.110279   -0.698667   -0.172203
  H     -2.247999   -2.196008    0.303119
  H      0.028721   -2.043938   -1.113972
  H      3.269786   -0.198625   -0.808780
  H      0.262147    3.136335   -0.232663
  H     -1.465511    2.111426    1.667122
  H     -2.222579   -1.713750   -2.024879

 Total Charge           Charge          ....    0
 Multiplicity           Mult            ....    1
 Number of Electrons    NEL             ....   96
 Basis Dimension        Dim             ....  192

ORBITAL ENERGIES
----------------

  NO   OCC          E(Eh)            E(eV)
   0   2.0000     -18.797350      -511.5019
   1   2.0000     -18.766623      -510.6658
   2   2.0000     -18.761145      -510.5167
   3   2.0000     -18.740167      -509.9459
   4   2.0000     -18.736864      -509.8560
   5   2.0000     -18.731375      -509.7066
   6   2.0000      -9.967939      -271.2414
   7   2.0000      -9.955433      -270.9011
   8   2.0000      -9.955279      -270.8969
   9   2.0000      -9.944407      -270.6011
  10   2.0000      -9.934445      -270.3300
  11   2.0000      -9.930879      -270.2329
  12   2.0000      -0.975387       -26.5416
  13   2.0000      -0.957523       -26.0555
  14   2.0000      -0.946304       -25.7502
  15   2.0000      -0.922999       -25.1161
  16   2.0000      -0.905392       -24.6370
  17   2.0000      -0.893695       -24.3187
  18   2.0000      -0.709687       -19.3116
  19   2.0000      -0.687324       -18.7030
  20   2.0000      -0.625212       -17.0129
  21   2.0000      -0.589413       -16.0387
  22   2.0000      -0.556808       -15.1515
  23   2.0000      -0.524445       -14.2709
  24   2.0000      -0.506894       -13.7933
  25   2.0000      -0.482619       -13.1327
  26   2.0000      -0.476687       -12.9713
  27   2.0000      -0.470926       -12.8145
  28   2.0000      -0.439793       -11.9674
  29   2.0000      -0.429520       -11.6878
  30   2.0000      -0.411870       -11.2076
  31   2.0000      -0.406761       -11.0685
  32   2.0000      -0.400689       -10.9033
  33   2.0000      -0.380089       -10.3428
  34   2.0000      -0.357840        -9.7373
  35   2.0000      -0.342178        -9.3111
  36   2.0000      -0.336954        -9.1690
  37   2.0000      -0.312407        -8.5010
  38   2.0000      -0.289502        -7.8778
  39   2.0000      -0.287995        -7.8367
  40   2.0000      -0.281499        -7.6600
  41   2.0000      -0.273845        -7.4517
  42   2.0000      -0.258664        -7.0386
  43   2.0000      -0.244220        -6.6456
  44   2.0000      -0.238922        -6.5014
  45   2.0000      -0.217722        -5.9245
  46   2.0000      -0.207671        -5.6510
  47   2.0000      -0.192762        -5.2453
  48   0.0000      -0.003072        -0.0836
  49   0.0000       0.017881         0.4866
  50   0.0000       0.036751         1.0000
  51   0.0000       0.051548         1.4027
  52   0.0000       0.064130         1.7451

MULLIKEN ATOMIC CHARGES
-----------------------
   0 C :    0.002469
   1 C :    0.064777
   2 H :    0.065481
   3 C :    0.004341
   4 H :    0.080754
   5 C :    0.080037
   6 H :    0.045722
   7 C :    0.019213
   8 H :    0.052571
   9 C :    0.205979
  10 H :    0.061554
  11 O :   -0.303890
  12 O :   -0.423758
  13 O :   -0.404159
  14 O :   -0.405362
  15 O :   -0.418608
  16 O :   -0.440024
  17 H :    0.096691
  18 H :    0.101163
  19 H :    0.291863
  20 H :    0.303869
  21 H :    0.293816
  22 H :    0.300182
  23 H :    0.325319
Sum of atomic charges:    0.0000000

LOEWDIN ATOMIC CHARGES
----------------------
   0 C :   -0.136757
   1 C :   -0.068125
   2 H :    0.121720
   3 C :   -0.085452
   4 H :    0.118909
   5 C :   -0.073223
   6 H :    0.100663
   7 C :   -0.081876
   8 H :    0.105148
   9 C :   -0.011628
  10 H :    0.109792
  11 O :   -0.147231
  12 O :   -0.330030
  13 O :   -0.313149
  14 O :   -0.316331
  15 O :   -0.310939
  16 O :   -0.322334
  17 H :    0.115354
  18 H :    0.111930
  19 H :    0.261553
  20 H :    0.289917
  21 H :    0.277417
  22 H :    0.283645
  23 H :    0.301028

  Mayer bond orders larger than 0.100000
B(  0-C ,  1-C ) :   1.0661 B(  0-C , 16-O ) :   1.0117 B(  0-C , 17-H ) :   0.9126
B(  0-C , 18-H ) :   0.9102 B(  1-C ,  2-H ) :   0.8875 B(  1-C ,  3-C ) :   0.9530
B(  1-C , 11-O ) :   1.0609 B(  3-C ,  4-H ) :   0.8688 B(  3-C ,  5-C ) :   1.0183
B(  3-C , 15-O ) :   1.0168 B(  5-C ,  6-H ) :   0.8651 B(  5-C ,  7-C ) :   1.0026
B(  5-C , 14-O ) :   1.1020 B(  7-C ,  8-H ) :   0.8830 B(  7-C ,  9-C ) :   0.9766
B(  7-C , 13-O ) :   1.0953 B(  9-C , 10-H ) :   0.8888 B(  9-C , 11-O ) :   1.0321
B(  9-C , 12-O ) :   1.1312 B( 12-O , 19-H ) :   0.7865 B( 13-O , 20-H ) :   0.8485
B( 14-O , 21-H ) :   0.8337 B( 15-O , 22-H ) :   0.8466 B( 16-O , 19-H ) :   0.1318
B( 16-O , 23-H ) :   0.8367

Dispersion correction           -0.025061387
FINAL SINGLE POINT ENERGY      -685.691906062924

DIPOLE MOMENT
-------------

Method             : SCF
Type of density    : Electron Density
Multiplicity       :   1
Irrep              :   0
Energy             :  -685.8236447530798614 Eh
Relativity type    :
Basis              : AO
                                X                 Y                 Z
Electronic contribution:      2.679590901       0.489808405       0.457336585
Nuclear contribution   :     -4.258843852      -0.807812753      -0.679396687
                        -----------------------------------------
Total Dipole Moment    :     -1.579252951      -0.318004349      -0.222060101
                        -----------------------------------------
Magnitude (a.u.)       :      1.626184903
Magnitude (Debye)      :      4.133433534

Rotational constants in cm-1:             0.036253             0.032171             0.021185
Rotational constants in MHz :          1086.845991           964.474856           635.123578

                             ****ORCA TERMINATED NORMALLY****
TOTAL RUN TIME: 0 days 0 hours 0 minutes 11 seconds 904 msec
