                         Program Version 6.0.0  -   RELEASE  -
|  1> ! wb97x-v def2-tzvp def2/J RIJCOSX DEFGRID2 scfconv7 GCP(DFT/TZ) printgap
|  2> %output
|  3>     printlevel normal
|  4> end
|  5> * xyz 0 1
|  6> C 2.406335732229416 -0.6625068403591318 -0.13822288310313097
|  7> C 1.117535836461096 -0.09922762666073677 0.419130480329196
|  8> H 1.1506267413829878 -0.1162434581735967 1.519420006056601
|  9> C 0.7606190461489213 1.3051501581733838 -0.059243643237231844
| 10> C -0.7609354483731511 1.305217841135929 0.059065323761536205
| 11> C -1.1185906310239893 -0.09902084322286409 -0.41961223848826223
| 12> H -1.1553350110992433 -0.11515631679483089 -1.519750182584043
| 13> O 0.00042887775064952743 -0.9359540557931028 -0.00274668170881243
| 14> C -2.405422448193772 -0.6631626571215632 0.14155507282164081
| 15> H 2.3829045361616883 -0.6616380333396478 -1.2331158622661231
| 16> H 3.2525898432401004 -0.051148815471492 0.1926748081092852
| 17> H 2.5721718325787966 -1.686746234360966 0.21005180819403785
| 18> H 1.2480141708558186 2.0780132286433712 0.5406866929801738
| 19> H 1.0647869262202747 1.4301594979378522 -1.105633024616305
| 20> H -1.0648782131489762 1.4302085860690212 1.1055141096173207
| 21> H -1.248295311612356 2.078301754952398 -0.5405989860506102
| 22> H -3.2529123230595625 -0.051437019575665065 -0.18551599807232677
| 23> H -2.378104689463298 -0.6636838002301402 1.2363629460163854
| 24> H -2.572399988689193 -1.6869680281695627 -0.2074427366881732
| 25> *
| 26>
| 27>                          ****END OF INPUT****

CARTESIAN COORDINATES (ANGSTROEM)
---------------------------------
  C      2.406336   -0.662507   -0.138223
  C      1.117536   -0.099228    0.419130
  H      1.150627   -0.116243    1.519420
  C      0.760619    1.305150   -0.059244
  C     -0.760935    1.305218    0.059065
  C     -1.118591   -0.099021   -0.419612
  H     -1.155335   -0.115156   -1.519750
  O      0.000429   -0.935954   -0.002747
  C     -2.405422   -0.663163    0.141555
  H      2.382905   -0.661638   -1.233116
  H      3.252590   -0.051149    0.192675
  H      2.572172   -1.686746    0.210052
  H      1.248014    2.078013    0.540687
  H      1.064787    1.430159   -1.105633
  H     -1.064878    1.430209    1.105514
  H     -1.248295    2.078302   -0.540599
  H     -3.252912   -0.051437   -0.185516
  H     -2.378105   -0.663684    1.236363
  H     -2.572400   -1.686968   -0.207443

 Total Charge           Charge          ....    0
 Multiplicity           Mult            ....    1
 Number of Electrons    NEL             ....   56
 Basis Dimension        Dim             ....  289

ORBITAL ENERGIES
----------------

  NO   OCC          E(Eh)            E(eV)
   0   2.0000     -21.656509      -589.3036
   1   2.0000     -12.090826      -329.0081
   2   2.0000     -12.090579      -329.0014
   3   2.0000     -12.045445      -327.7732
   4   2.0000     -12.044313      -327.7424
   5   2.0000     -12.031995      -327.4072
   6   2.0000     -12.031946      -327.4059
   7   2.0000      -1.656242       -45.0686
   8   2.0000      -1.314352       -35.7653
   9   2.0000      -1.298214       -35.3262
  10   2.0000      -1.214688       -33.0534
  11   2.0000      -1.141354       -31.0578
  12   2.0000      -1.091430       -29.6993
  13   2.0000      -1.054300       -28.6890
  14   2.0000      -0.975417       -26.5424
  15   2.0000      -0.954593       -25.9758
  16   2.0000      -0.914816       -24.8934
  17   2.0000      -0.877996       -23.8915
  18   2.0000      -0.865461       -23.5504
  19   2.0000      -0.850013       -23.1300
  20   2.0000      -0.837989       -22.8028
  21   2.0000      -0.829337       -22.5674
  22   2.0000      -0.806027       -21.9331
  23   2.0000      -0.801673       -21.8146
  24   2.0000      -0.790383       -21.5074
  25   2.0000      -0.783704       -21.3257
  26   2.0000      -0.757565       -20.6144
  27   2.0000      -0.749665       -20.3994
  28   0.0000      -0.163752        -4.4559
  29   0.0000      -0.128068        -3.4849
  30   0.0000      -0.033556        -0.9131
  31   0.0000      -0.028365        -0.7718
  32   0.0000      -0.023221        -0.6319

MULLIKEN ATOMIC CHARGES
-----------------------
   0 C :   -0.335461
   1 C :    0.098107
   2 H :    0.057265
   3 C :   -0.188944
   4 C :   -0.189582
   5 C :    0.098530
   6 H :    0.057424
   7 O :   -0.311118
   8 C :   -0.335706
   9 H :    0.103650
  10 H :    0.102398
  11 H :    0.120666
  12 H :    0.104833
  13 H :    0.093116
  14 H :    0.093207
  15 H :    0.104911
  16 H :    0.102416
  17 H :    0.103652
  18 H :    0.120636
Sum of atomic charges:   -0.0000000

LOEWDIN ATOMIC CHARGES
----------------------
   0 C :   -0.283385
   1 C :   -0.320804
   2 H :    0.132296
   3 C :   -0.235384
   4 C :   -0.235398
   5 C :   -0.320552
   6 H :    0.132309
   7 O :    0.148970
   8 C :   -0.283439
   9 H :    0.119800
  10 H :    0.121344
  11 H :    0.121871
  12 H :    0.132903
  13 H :    0.136802
  14 H :    0.136791
  15 H :    0.132902
  16 H :    0.121339
  17 H :    0.119784
  18 H :    0.121849

  Mayer bond orders larger than 0.100000
B(  0-C ,  1-C ) :   0.9738 B(  0-C ,  9-H ) :   0.9759 B(  0-C , 10-H ) :   0.9748
B(  0-C , 11-H ) :   0.9829 B(  1-C ,  2-H ) :   0.9679 B(  1-C ,  3-C ) :   0.9988
B(  1-C ,  7-O ) :   1.0168 B(  3-C ,  4-C ) :   0.9804 B(  3-C , 12-H ) :   0.9655
B(  3-C , 13-H ) :   0.9683 B(  4-C ,  5-C ) :   0.9985 B(  4-C , 14-H ) :   0.9685
B(  4-C , 15-H ) :   0.9655 B(  5-C ,  6-H ) :   0.9679 B(  5-C ,  7-O ) :   1.0163
B(  5-C ,  8-C ) :   0.9738 B(  8-C , 16-H ) :   0.9748 B(  8-C , 17-H ) :   0.9759
B(  8-C , 18-H ) :   0.9829

FINAL SINGLE POINT ENERGY      -311.105570475641

DIPOLE MOMENT
-------------

Method             : SCF
Type of density    : Electron Density
Multiplicity       :   1
Irrep              :   0
Energy             :  -311.1188573813406038 Eh
Relativity type    :
Basis              : AO
                                X                 Y                 Z
Electronic contribution:      0.000269015      -1.183605719      -0.010098041
Nuclear contribution   :     -0.000832656       1.838791418       0.011728770
                        -----------------------------------------
Total Dipole Moment    :     -0.000563640       0.655185699       0.001630729
                        -----------------------------------------
Magnitude (a.u.)       :      0.655187971
Magnitude (Debye)      :      1.665355473

Rotational constants in cm-1:             0.167027             0.066657             0.052289
Rotational constants in MHz :          5007.336674          1998.341565          1567.583681

                             ****ORCA TERMINATED NORMALLY****
TOTAL RUN TIME: 0 days 0 hours 2 minutes 29 seconds 252 msec
