                         Program Version 6.0.0  -   RELEASE  -
|  1> ! wb97x-v def2-tzvp def2/J RIJCOSX DEFGRID2 scfconv7 GCP(DFT/TZ) printgap
|  2> %output
|  3>     printlevel normal
|  4> end
|  5> %cpcm
|  6>     smd true
|  7>     smdsolvent "water"
|  8> end
|  9> * xyz 0 1
| 10> C 2.406335732229416 -0.6625068403591318 -0.13822288310313097
| 11> C 1.117535836461096 -0.09922762666073677 0.419130480329196
| 12> H 1.1506267413829878 -0.1162434581735967 1.519420006056601
| 13> C 0.7606190461489213 1.3051501581733838 -0.059243643237231844
| 14> C -0.7609354483731511 1.305217841135929 0.059065323761536205
| 15> C -1.1185906310239893 -0.09902084322286409 -0.41961223848826223
| 16> H -1.1553350110992433 -0.11515631679483089 -1.519750182584043
| 17> O 0.00042887775064952743 -0.9359540557931028 -0.00274668170881243
| 18> C -2.405422448193772 -0.6631626571215632 0.14155507282164081
| 19> H 2.3829045361616883 -0.6616380333396478 -1.2331158622661231
| 20> H 3.2525898432401004 -0.051148815471492 0.1926748081092852
| 21> H 2.5721718325787966 -1.686746234360966 0.21005180819403785
| 22> H 1.2480141708558186 2.0780132286433712 0.5406866929801738
| 23> H 1.0647869262202747 1.4301594979378522 -1.105633024616305
| 24> H -1.0648782131489762 1.4302085860690212 1.1055141096173207
| 25> H -1.248295311612356 2.078301754952398 -0.5405989860506102
| 26> H -3.2529123230595625 -0.051437019575665065 -0.18551599807232677
| 27> H -2.378104689463298 -0.6636838002301402 1.2363629460163854
| 28> H -2.572399988689193 -1.6869680281695627 -0.2074427366881732
| 29> *
| 30>
| 31>                          ****END OF INPUT****

CARTESIAN COORDINATES (ANGSTROEM)
---------------------------------
  C      2.406336   -0.662507   -0.138223
  C      1.117536   -0.099228    0.419130
  H      1.150627   -0.116243    1.519420
  C      0.760619    1.305150   -0.059244
  C     -0.760935    1.305218    0.059065
  C     -1.118591   -0.099021   -0.419612
  H     -1.155335   -0.115156   -1.519750
  O      0.000429   -0.935954   -0.002747
  C     -2.405422   -0.663163    0.141555
  H      2.382905   -0.661638   -1.233116
  H      3.252590   -0.051149    0.192675
  H      2.572172   -1.686746    0.210052
  H      1.248014    2.078013    0.540687
  H      1.064787    1.430159   -1.105633
  H     -1.064878    1.430209    1.105514
  H     -1.248295    2.078302   -0.540599
  H     -3.252912   -0.051437   -0.185516
  H     -2.378105   -0.663684    1.236363
  H     -2.572400   -1.686968   -0.207443

 Total Charge           Charge          ....    0
 Multiplicity           Mult            ....    1
 Number of Electrons    NEL             ....   56
 Basis Dimension        Dim             ....  289

ORBITAL ENERGIES
----------------

  NO   OCC          E(Eh)            E(eV)
   0   2.0000     -21.664851      -589.5306
   1   2.0000     -12.087544      -328.9188
   2   2.0000     -12.087299      -328.9121
   3   2.0000     -12.034767      -327.4827
   4   2.0000     -12.033646      -327.4521
   5   2.0000     -12.026884      -327.2681
   6   2.0000     -12.026838      -327.2669
   7   2.0000      -1.664663       -45.2978
   8   2.0000      -1.307407       -35.5764
   9   2.0000      -1.295943       -35.2644
  10   2.0000      -1.209731       -32.9185
  11   2.0000      -1.136803       -30.9340
  12   2.0000      -1.088472       -29.6188
  13   2.0000      -1.052564       -28.6417
  14   2.0000      -0.976139       -26.5621
  15   2.0000      -0.955901       -26.0114
  16   2.0000      -0.916069       -24.9275
  17   2.0000      -0.872925       -23.7535
  18   2.0000      -0.858204       -23.3529
  19   2.0000      -0.847730       -23.0679
  20   2.0000      -0.834090       -22.6967
  21   2.0000      -0.823545       -22.4098
  22   2.0000      -0.802335       -21.8326
  23   2.0000      -0.795451       -21.6453
  24   2.0000      -0.784530       -21.3482
  25   2.0000      -0.777090       -21.1457
  26   2.0000      -0.748649       -20.3718
  27   2.0000      -0.747309       -20.3353
  28   0.0000      -0.162630        -4.4254
  29   0.0000      -0.127004        -3.4560
  30   0.0000      -0.025759        -0.7009
  31   0.0000      -0.018918        -0.5148
  32   0.0000      -0.013850        -0.3769

MULLIKEN ATOMIC CHARGES
-----------------------
   0 C :   -0.398458
   1 C :    0.108527
   2 H :    0.081302
   3 C :   -0.206124
   4 C :   -0.206604
   5 C :    0.109012
   6 H :    0.081426
   7 O :   -0.407447
   8 C :   -0.398803
   9 H :    0.122510
  10 H :    0.129133
  11 H :    0.131970
  12 H :    0.126158
  13 H :    0.108720
  14 H :    0.108823
  15 H :    0.126212
  16 H :    0.129131
  17 H :    0.122582
  18 H :    0.131932
Sum of atomic charges:   -0.0000000

LOEWDIN ATOMIC CHARGES
----------------------
   0 C :   -0.291429
   1 C :   -0.320812
   2 H :    0.137909
   3 C :   -0.232553
   4 C :   -0.232552
   5 C :   -0.320556
   6 H :    0.137900
   7 O :    0.107632
   8 C :   -0.291474
   9 H :    0.122213
  10 H :    0.128927
  11 H :    0.121751
  12 H :    0.139076
  13 H :    0.141017
  14 H :    0.141024
  15 H :    0.139066
  16 H :    0.128917
  17 H :    0.122218
  18 H :    0.121726

  Mayer bond orders larger than 0.100000
B(  0-C ,  1-C ) :   0.9727 B(  0-C ,  9-H ) :   0.9720 B(  0-C , 10-H ) :   0.9720
B(  0-C , 11-H ) :   0.9799 B(  1-C ,  2-H ) :   0.9698 B(  1-C ,  3-C ) :   1.0059
B(  1-C ,  7-O ) :   0.9597 B(  3-C ,  4-C ) :   0.9792 B(  3-C , 12-H ) :   0.9606
B(  3-C , 13-H ) :   0.9651 B(  4-C ,  5-C ) :   1.0056 B(  4-C , 14-H ) :   0.9653
B(  4-C , 15-H ) :   0.9607 B(  5-C ,  6-H ) :   0.9698 B(  5-C ,  7-O ) :   0.9591
B(  5-C ,  8-C ) :   0.9727 B(  8-C , 16-H ) :   0.9720 B(  8-C , 17-H ) :   0.9720
B(  8-C , 18-H ) :   0.9799

FINAL SINGLE POINT ENERGY      -311.109974193608

DIPOLE MOMENT
-------------

Method             : SCF
Type of density    : Electron Density
Multiplicity       :   1
Irrep              :   0
Energy             :  -311.1232610993083085 Eh
Relativity type    :
Basis              : AO
                                X                 Y                 Z
Electronic contribution:     -0.000064051      -0.814275559      -0.008974253
Nuclear contribution   :     -0.000832656       1.838791418       0.011728770
                        -----------------------------------------
Total Dipole Moment    :     -0.000896707       1.024515859       0.002754517
                        -----------------------------------------
Magnitude (a.u.)       :      1.024519954
Magnitude (Debye)      :      2.604122770

Rotational constants in cm-1:             0.167027             0.066657             0.052289
Rotational constants in MHz :          5007.336674          1998.341565          1567.583681

                             ****ORCA TERMINATED NORMALLY****
TOTAL RUN TIME: 0 days 0 hours 2 minutes 36 seconds 105 msec
