                         Program Version 6.0.0  -   RELEASE  -
|  1> ! r2scan-3c def2/J RI DEFGRID2 scfconv6 printgap
|  2> %output
|  3>     printlevel normal
|  4> end
|  5> * xyz 0 1
|  6> C -3.2871970816 0.6973711624 0.4061587631
|  7> C -2.4496173862 -0.3871925268 -0.2629885131
|  8> C -0.9582060306 -0.2098570742 -0.1397456248
|  9> C -0.1308718107 -1.3180923138 -0.2990284322
| 10> C 1.2427001799 -1.2034077627 -0.2189591305
| 11> C 1.8420337749 0.0271554935 0.027022672
| 12> C 1.0190402745 1.1318562016 0.1869521992
| 13> C -0.3586917054 1.017602106 0.1031831081
| 14> C 3.3328991417 0.1410266653 0.129559278
| 15> H -4.3386091698 0.4214495842 0.3741140407
| 16> H -3.1749139837 1.6513521776 -0.1028621076
| 17> H -2.9941693012 0.8187068549 1.4465785132
| 18> H -2.7035816147 -0.4276510311 -1.3273815458
| 19> H -2.7145630306 -1.3574829913 0.1650153461
| 20> H -0.5740850761 -2.2856565369 -0.4903693355
| 21> H 1.8619447454 -2.0800322662 -0.3470159856
| 22> H 1.4589554847 2.100524618 0.3789985387
| 23> H -0.9623684759 1.9024789504 0.2302863541
| 24> H 3.6782336614 -0.2987230309 1.0648899849
| 25> H 3.8140613011 -0.3928654252 -0.6873778715
| 26> H 3.6449826885 1.1817471988 0.1036313231
| 27> *
| 28>
| 29>                          ****END OF INPUT****

CARTESIAN COORDINATES (ANGSTROEM)
---------------------------------
  C     -3.287197    0.697371    0.406159
  C     -2.449617   -0.387193   -0.262989
  C     -0.958206   -0.209857   -0.139746
  C     -0.130872   -1.318092   -0.299028
  C      1.242700   -1.203408   -0.218959
  C      1.842034    0.027155    0.027023
  C      1.019040    1.131856    0.186952
  C     -0.358692    1.017602    0.103183
  C      3.332899    0.141027    0.129559
  H     -4.338609    0.421450    0.374114
  H     -3.174914    1.651352   -0.102862
  H     -2.994169    0.818707    1.446579
  H     -2.703582   -0.427651   -1.327382
  H     -2.714563   -1.357483    0.165015
  H     -0.574085   -2.285657   -0.490369
  H      1.861945   -2.080032   -0.347016
  H      1.458955    2.100525    0.378999
  H     -0.962368    1.902479    0.230286
  H      3.678234   -0.298723    1.064890
  H      3.814061   -0.392865   -0.687378
  H      3.644983    1.181747    0.103631

 Total Charge           Charge          ....    0
 Multiplicity           Mult            ....    1
 Number of Electrons    NEL             ....   66
 Basis Dimension        Dim             ....  231

ORBITAL ENERGIES
----------------

  NO   OCC          E(Eh)            E(eV)
   0   2.0000     -10.035528      -273.0806
   1   2.0000     -10.034150      -273.0431
   2   2.0000     -10.032037      -272.9856
   3   2.0000     -10.025740      -272.8143
   4   2.0000     -10.025334      -272.8032
   5   2.0000     -10.025253      -272.8010
   6   2.0000     -10.024816      -272.7891
   7   2.0000     -10.024098      -272.7696
   8   2.0000     -10.019908      -272.6556
   9   2.0000      -0.826113       -22.4797
  10   2.0000      -0.762352       -20.7446
  11   2.0000      -0.712728       -19.3943
  12   2.0000      -0.708590       -19.2817
  13   2.0000      -0.649131       -17.6637
  14   2.0000      -0.591377       -16.0922
  15   2.0000      -0.567812       -15.4509
  16   2.0000      -0.534118       -14.5341
  17   2.0000      -0.462157       -12.5759
  18   2.0000      -0.435808       -11.8589
  19   2.0000      -0.419286       -11.4093
  20   2.0000      -0.412936       -11.2366
  21   2.0000      -0.390318       -10.6211
  22   2.0000      -0.388892       -10.5823
  23   2.0000      -0.380090       -10.3428
  24   2.0000      -0.358687        -9.7604
  25   2.0000      -0.340826        -9.2743
  26   2.0000      -0.334969        -9.1150
  27   2.0000      -0.326015        -8.8713
  28   2.0000      -0.309406        -8.4194
  29   2.0000      -0.297370        -8.0918
  30   2.0000      -0.295153        -8.0315
  31   2.0000      -0.230548        -6.2735
  32   2.0000      -0.211718        -5.7611
  33   0.0000      -0.026987        -0.7344
  34   0.0000      -0.019988        -0.5439
  35   0.0000       0.082234         2.2377
  36   0.0000       0.096094         2.6148
  37   0.0000       0.104807         2.8519

MULLIKEN ATOMIC CHARGES
-----------------------
   0 C :   -0.482138
   1 C :   -0.315357
   2 C :    0.174387
   3 C :   -0.214132
   4 C :   -0.207140
   5 C :    0.213349
   6 C :   -0.241270
   7 C :   -0.195062
   8 C :   -0.538174
   9 H :    0.149081
  10 H :    0.141228
  11 H :    0.164340
  12 H :    0.164160
  13 H :    0.147831
  14 H :    0.143085
  15 H :    0.143692
  16 H :    0.143441
  17 H :    0.140511
  18 H :    0.165247
  19 H :    0.153421
  20 H :    0.149500
Sum of atomic charges:   -0.0000000

LOEWDIN ATOMIC CHARGES
----------------------
   0 C :   -0.419140
   1 C :   -0.287078
   2 C :   -0.096928
   3 C :   -0.157482
   4 C :   -0.160423
   5 C :   -0.105462
   6 C :   -0.163777
   7 C :   -0.160501
   8 C :   -0.391205
   9 H :    0.152384
  10 H :    0.149700
  11 H :    0.155687
  12 H :    0.166058
  13 H :    0.161486
  14 H :    0.167841
  15 H :    0.167769
  16 H :    0.166412
  17 H :    0.169483
  18 H :    0.164427
  19 H :    0.162130
  20 H :    0.158621

  Mayer bond orders larger than 0.100000
B(  0-C ,  1-C ) :   0.8742 B(  0-C ,  9-H ) :   0.9727 B(  0-C , 10-H ) :   0.9633
B(  0-C , 11-H ) :   0.9919 B(  1-C ,  2-C ) :   0.8246 B(  1-C , 12-H ) :   0.9623
B(  1-C , 13-H ) :   1.0126 B(  2-C ,  3-C ) :   1.3815 B(  2-C ,  7-C ) :   1.4521
B(  3-C ,  4-C ) :   1.4767 B(  3-C , 14-H ) :   0.9533 B(  4-C ,  5-C ) :   1.3857
B(  4-C , 15-H ) :   0.9472 B(  5-C ,  6-C ) :   1.4231 B(  5-C ,  8-C ) :   0.7869
B(  6-C ,  7-C ) :   1.4620 B(  6-C , 16-H ) :   0.9391 B(  7-C , 17-H ) :   0.9466
B(  8-C , 18-H ) :   0.9725 B(  8-C , 19-H ) :   0.9837 B(  8-C , 20-H ) :   0.9954

Dispersion correction           -0.006745849
FINAL SINGLE POINT ENERGY      -350.081291091510

DIPOLE MOMENT
-------------

Method             : SCF
Type of density    : Electron Density
Multiplicity       :   1
Irrep              :   0
Energy             :  -350.0818035089510545 Eh
Relativity type    :
Basis              : AO
                                X                 Y                 Z
Electronic contribution:      2.784873989      -1.189752605      -0.765465034
Nuclear contribution   :     -2.818359615       1.157555634       0.758514866
                        -----------------------------------------
Total Dipole Moment    :     -0.033485626      -0.032196971      -0.006950168
                        -----------------------------------------
Magnitude (a.u.)       :      0.046970597
Magnitude (Debye)      :      0.119389769

Rotational constants in cm-1:             0.152661             0.031874             0.026931
Rotational constants in MHz :          4576.658737           955.544700           807.361867

                             ****ORCA TERMINATED NORMALLY****
TOTAL RUN TIME: 0 days 0 hours 0 minutes 24 seconds 319 msec
