                         Program Version 6.0.0  -   RELEASE  -
|  1> ! r2scan-3c def2/J RI DEFGRID2 scfconv6 printgap
|  2> %output
|  3>     printlevel normal
|  4> end
|  5> %cpcm
|  6>     smd true
|  7>     smdsolvent "water"
|  8> end
|  9> * xyz 0 1
| 10> C -3.2871970816 0.6973711624 0.4061587631
| 11> C -2.4496173862 -0.3871925268 -0.2629885131
| 12> C -0.9582060306 -0.2098570742 -0.1397456248
| 13> C -0.1308718107 -1.3180923138 -0.2990284322
| 14> C 1.2427001799 -1.2034077627 -0.2189591305
| 15> C 1.8420337749 0.0271554935 0.027022672
| 16> C 1.0190402745 1.1318562016 0.1869521992
| 17> C -0.3586917054 1.017602106 0.1031831081
| 18> C 3.3328991417 0.1410266653 0.129559278
| 19> H -4.3386091698 0.4214495842 0.3741140407
| 20> H -3.1749139837 1.6513521776 -0.1028621076
| 21> H -2.9941693012 0.8187068549 1.4465785132
| 22> H -2.7035816147 -0.4276510311 -1.3273815458
| 23> H -2.7145630306 -1.3574829913 0.1650153461
| 24> H -0.5740850761 -2.2856565369 -0.4903693355
| 25> H 1.8619447454 -2.0800322662 -0.3470159856
| 26> H 1.4589554847 2.100524618 0.3789985387
| 27> H -0.9623684759 1.9024789504 0.2302863541
| 28> H 3.6782336614 -0.2987230309 1.0648899849
| 29> H 3.8140613011 -0.3928654252 -0.6873778715
| 30> H 3.6449826885 1.1817471988 0.1036313231
| 31> *
| 32>
| 33>                          ****END OF INPUT****

CARTESIAN COORDINATES (ANGSTROEM)
---------------------------------
  C     -3.287197    0.697371    0.406159
  C     -2.449617   -0.387193   -0.262989
  C     -0.958206   -0.209857   -0.139746
  C     -0.130872   -1.318092   -0.299028
  C      1.242700   -1.203408   -0.218959
  C      1.842034    0.027155    0.027023
  C      1.019040    1.131856    0.186952
  C     -0.358692    1.017602    0.103183
  C      3.332899    0.141027    0.129559
  H     -4.338609    0.421450    0.374114
  H     -3.174914    1.651352   -0.102862
  H     -2.994169    0.818707    1.446579
  H     -2.703582   -0.427651   -1.327382
  H     -2.714563   -1.357483    0.165015
  H     -0.574085   -2.285657   -0.490369
  H      1.861945   -2.080032   -0.347016
  H      1.458955    2.100525    0.378999
  H     -0.962368    1.902479    0.230286
  H      3.678234   -0.298723    1.064890
  H      3.814061   -0.392865   -0.687378
  H      3.644983    1.181747    0.103631

 Total Charge           Charge          ....    0
 Multiplicity           Mult            ....    1
 Number of Electrons    NEL             ....   66
 Basis Dimension        Dim             ....  231

ORBITAL ENERGIES
----------------

  NO   OCC          E(Eh)            E(eV)
   0   2.0000     -10.036275      -273.1009
   1   2.0000     -10.034854      -273.0623
   2   2.0000     -10.025698      -272.8131
   3   2.0000     -10.025436      -272.8060
   4   2.0000     -10.025199      -272.7995
   5   2.0000     -10.025079      -272.7963
   6   2.0000     -10.024951      -272.7928
   7   2.0000     -10.016526      -272.5635
   8   2.0000     -10.011182      -272.4181
   9   2.0000      -0.827832       -22.5264
  10   2.0000      -0.759554       -20.6685
  11   2.0000      -0.710887       -19.3442
  12   2.0000      -0.706729       -19.2311
  13   2.0000      -0.644987       -17.5510
  14   2.0000      -0.587158       -15.9774
  15   2.0000      -0.566118       -15.4048
  16   2.0000      -0.532259       -14.4835
  17   2.0000      -0.458887       -12.4869
  18   2.0000      -0.433610       -11.7991
  19   2.0000      -0.413916       -11.2632
  20   2.0000      -0.408913       -11.1271
  21   2.0000      -0.385982       -10.5031
  22   2.0000      -0.384570       -10.4647
  23   2.0000      -0.377163       -10.2631
  24   2.0000      -0.352182        -9.5834
  25   2.0000      -0.337199        -9.1756
  26   2.0000      -0.330927        -9.0050
  27   2.0000      -0.320232        -8.7140
  28   2.0000      -0.306324        -8.3355
  29   2.0000      -0.293793        -7.9945
  30   2.0000      -0.291818        -7.9408
  31   2.0000      -0.235238        -6.4012
  32   2.0000      -0.214034        -5.8242
  33   0.0000      -0.030209        -0.8220
  34   0.0000      -0.022265        -0.6059
  35   0.0000       0.089821         2.4442
  36   0.0000       0.103094         2.8053
  37   0.0000       0.110845         3.0163

MULLIKEN ATOMIC CHARGES
-----------------------
   0 C :   -0.511927
   1 C :   -0.309722
   2 C :    0.131882
   3 C :   -0.242316
   4 C :   -0.234092
   5 C :    0.179006
   6 C :   -0.275670
   7 C :   -0.220313
   8 C :   -0.556622
   9 H :    0.162176
  10 H :    0.156085
  11 H :    0.168833
  12 H :    0.177805
  13 H :    0.166079
  14 H :    0.173015
  15 H :    0.173624
  16 H :    0.173997
  17 H :    0.170354
  18 H :    0.179735
  19 H :    0.169542
  20 H :    0.168531
Sum of atomic charges:    0.0000000

LOEWDIN ATOMIC CHARGES
----------------------
   0 C :   -0.424655
   1 C :   -0.288128
   2 C :   -0.106762
   3 C :   -0.168980
   4 C :   -0.171397
   5 C :   -0.115037
   6 C :   -0.176681
   7 C :   -0.173319
   8 C :   -0.396198
   9 H :    0.156199
  10 H :    0.154298
  11 H :    0.156330
  12 H :    0.171278
  13 H :    0.167361
  14 H :    0.178323
  15 H :    0.178279
  16 H :    0.177109
  17 H :    0.179390
  18 H :    0.170121
  19 H :    0.167962
  20 H :    0.164504

  Mayer bond orders larger than 0.100000
B(  0-C ,  1-C ) :   0.8611 B(  0-C ,  9-H ) :   0.9695 B(  0-C , 10-H ) :   0.9597
B(  0-C , 11-H ) :   0.9908 B(  1-C ,  2-C ) :   0.8386 B(  1-C , 12-H ) :   0.9565
B(  1-C , 13-H ) :   1.0110 B(  2-C ,  3-C ) :   1.3503 B(  2-C ,  7-C ) :   1.4114
B(  3-C ,  4-C ) :   1.4419 B(  3-C , 14-H ) :   0.9662 B(  4-C ,  5-C ) :   1.3482
B(  4-C , 15-H ) :   0.9605 B(  5-C ,  6-C ) :   1.3875 B(  5-C ,  8-C ) :   0.8047
B(  6-C ,  7-C ) :   1.4245 B(  6-C , 16-H ) :   0.9563 B(  7-C , 17-H ) :   0.9574
B(  8-C , 18-H ) :   0.9657 B(  8-C , 19-H ) :   0.9765 B(  8-C , 20-H ) :   0.9896

Dispersion correction           -0.006745849
FINAL SINGLE POINT ENERGY      -350.082265678041

DIPOLE MOMENT
-------------

Method             : SCF
Type of density    : Electron Density
Multiplicity       :   1
Irrep              :   0
Energy             :  -350.0827780954811601 Eh
Relativity type    :
Basis              : AO
                                X                 Y                 Z
Electronic contribution:      2.779141040      -1.208772330      -0.781537096
Nuclear contribution   :     -2.818359615       1.157555634       0.758514866
                        -----------------------------------------
Total Dipole Moment    :     -0.039218576      -0.051216696      -0.023022230
                        -----------------------------------------
Magnitude (a.u.)       :      0.068492844
Magnitude (Debye)      :      0.174094973

Rotational constants in cm-1:             0.152661             0.031874             0.026931
Rotational constants in MHz :          4576.658737           955.544700           807.361867

                             ****ORCA TERMINATED NORMALLY****
TOTAL RUN TIME: 0 days 0 hours 0 minutes 30 seconds 500 msec
