                         Program Version 6.0.0  -   RELEASE  -
|  1> ! r2scan-3c def2/J RI DEFGRID2 scfconv6 printgap
|  2> %output
|  3>     printlevel normal
|  4> end
|  5> * xyz 0 1
|  6> C -3.8530569368 -0.6263959897 0.0018429832
|  7> N -2.6726071855 0.2113096022 0.0003166959
|  8> C -2.8952256342 1.6443396067 -0.001211476
|  9> C -1.4477465578 -0.3719307819 -0.0003669066
| 10> O -1.3149149756 -1.5977752112 -1.33012e-05
| 11> N -0.3908929752 0.5037092699 -0.0010051228
| 12> C 0.9774126819 0.231154672 -0.0004786613
| 13> C 1.8473757781 1.3229141439 0.0005692258
| 14> C 3.2146488825 1.1305744205 0.0011522858
| 15> C 3.7395192953 -0.1515279566 0.000676164
| 16> C 2.8801822114 -1.2366834667 -0.0005083652
| 17> C 1.5088727162 -1.0552653861 -0.0011218121
| 18> H -3.532187083 -1.6659311147 0.0058161667
| 19> H -4.4509549477 -0.4386568083 -0.891161097
| 20> H -4.4527505329 -0.4321952832 0.8921865068
| 21> H -2.4767192375 2.1108702299 -0.8956142915
| 22> H -2.4791735219 2.1124117984 0.8936166458
| 23> H -3.9681329325 1.8147190806 -0.0030055247
| 24> H -0.6099602016 1.4889293885 -8.50953e-05
| 25> H 1.4463991302 2.3259655481 0.0008828208
| 26> H 3.8737638437 1.9855088593 0.0019215462
| 27> H 4.8078179596 -0.3031460255 0.00132599
| 28> H 3.2765461084 -2.2410493592 -0.0007934252
| 29> H 0.8442454671 -1.9032941977 -0.001907325
| 30> *
| 31>
| 32>                          ****END OF INPUT****

CARTESIAN COORDINATES (ANGSTROEM)
---------------------------------
  C     -3.853057   -0.626396    0.001843
  N     -2.672607    0.211310    0.000317
  C     -2.895226    1.644340   -0.001211
  C     -1.447747   -0.371931   -0.000367
  O     -1.314915   -1.597775   -0.000013
  N     -0.390893    0.503709   -0.001005
  C      0.977413    0.231155   -0.000479
  C      1.847376    1.322914    0.000569
  C      3.214649    1.130574    0.001152
  C      3.739519   -0.151528    0.000676
  C      2.880182   -1.236683   -0.000508
  C      1.508873   -1.055265   -0.001122
  H     -3.532187   -1.665931    0.005816
  H     -4.450955   -0.438657   -0.891161
  H     -4.452751   -0.432195    0.892187
  H     -2.476719    2.110870   -0.895614
  H     -2.479174    2.112412    0.893617
  H     -3.968133    1.814719   -0.003006
  H     -0.609960    1.488929   -0.000085
  H      1.446399    2.325966    0.000883
  H      3.873764    1.985509    0.001922
  H      4.807818   -0.303146    0.001326
  H      3.276546   -2.241049   -0.000793
  H      0.844245   -1.903294   -0.001907

 Total Charge           Charge          ....    0
 Multiplicity           Mult            ....    1
 Number of Electrons    NEL             ....   88
 Basis Dimension        Dim             ....  303

ORBITAL ENERGIES
----------------

  NO   OCC          E(Eh)            E(eV)
   0   2.0000     -18.899490      -514.2813
   1   2.0000     -14.199698      -386.3934
   2   2.0000     -14.193844      -386.2341
   3   2.0000     -10.150365      -276.2055
   4   2.0000     -10.084331      -274.4086
   5   2.0000     -10.080230      -274.2970
   6   2.0000     -10.060726      -273.7663
   7   2.0000     -10.033512      -273.0257
   8   2.0000     -10.032420      -272.9960
   9   2.0000     -10.027875      -272.8724
  10   2.0000     -10.023217      -272.7456
  11   2.0000     -10.019726      -272.6506
  12   2.0000      -1.011097       -27.5134
  13   2.0000      -0.913989       -24.8709
  14   2.0000      -0.901532       -24.5319
  15   2.0000      -0.813970       -22.1493
  16   2.0000      -0.720484       -19.6054
  17   2.0000      -0.712780       -19.3957
  18   2.0000      -0.702831       -19.1250
  19   2.0000      -0.664976       -18.0949
  20   2.0000      -0.593227       -16.1425
  21   2.0000      -0.579949       -15.7812
  22   2.0000      -0.531385       -14.4597
  23   2.0000      -0.519622       -14.1396
  24   2.0000      -0.493540       -13.4299
  25   2.0000      -0.460208       -12.5229
  26   2.0000      -0.458691       -12.4816
  27   2.0000      -0.434588       -11.8258
  28   2.0000      -0.414529       -11.2799
  29   2.0000      -0.399402       -10.8683
  30   2.0000      -0.393340       -10.7033
  31   2.0000      -0.389442       -10.5973
  32   2.0000      -0.388566       -10.5734
  33   2.0000      -0.384632       -10.4664
  34   2.0000      -0.375859       -10.2276
  35   2.0000      -0.350378        -9.5343
  36   2.0000      -0.342027        -9.3070
  37   2.0000      -0.325282        -8.8514
  38   2.0000      -0.308827        -8.4036
  39   2.0000      -0.282516        -7.6876
  40   2.0000      -0.232890        -6.3373
  41   2.0000      -0.222679        -6.0594
  42   2.0000      -0.216963        -5.9039
  43   2.0000      -0.194801        -5.3008
  44   0.0000      -0.027679        -0.7532
  45   0.0000      -0.023439        -0.6378
  46   0.0000       0.045065         1.2263
  47   0.0000       0.045924         1.2496
  48   0.0000       0.075406         2.0519

MULLIKEN ATOMIC CHARGES
-----------------------
   0 C :   -0.408780
   1 N :    0.110955
   2 C :   -0.458686
   3 C :    0.207264
   4 O :   -0.518246
   5 N :   -0.080298
   6 C :    0.180262
   7 C :   -0.354702
   8 C :   -0.136660
   9 C :   -0.172890
  10 C :   -0.156158
  11 C :   -0.198804
  12 H :    0.205135
  13 H :    0.142003
  14 H :    0.141838
  15 H :    0.160908
  16 H :    0.161023
  17 H :    0.164063
  18 H :    0.243268
  19 H :    0.128360
  20 H :    0.145891
  21 H :    0.145212
  22 H :    0.146662
  23 H :    0.202381
Sum of atomic charges:   -0.0000000

LOEWDIN ATOMIC CHARGES
----------------------
   0 C :   -0.105331
   1 N :   -0.810122
   2 C :   -0.119345
   3 C :    0.446899
   4 O :   -0.475456
   5 N :   -0.556097
   6 C :    0.163030
   7 C :   -0.151942
   8 C :   -0.159534
   9 C :   -0.187510
  10 C :   -0.153575
  11 C :   -0.127954
  12 H :    0.213774
  13 H :    0.168967
  14 H :    0.168995
  15 H :    0.170620
  16 H :    0.170571
  17 H :    0.190134
  18 H :    0.280948
  19 H :    0.165621
  20 H :    0.167142
  21 H :    0.165389
  22 H :    0.168213
  23 H :    0.206566

  Mayer bond orders larger than 0.100000
B(  0-C ,  1-N ) :   0.9049 B(  0-C , 12-H ) :   0.9506 B(  0-C , 13-H ) :   0.9569
B(  0-C , 14-H ) :   0.9570 B(  1-N ,  2-C ) :   0.8754 B(  1-N ,  3-C ) :   1.2450
B(  2-C , 15-H ) :   0.9628 B(  2-C , 16-H ) :   0.9628 B(  2-C , 17-H ) :   0.9510
B(  3-C ,  4-O ) :   1.7648 B(  3-C ,  5-N ) :   1.1027 B(  5-N ,  6-C ) :   1.0169
B(  5-N , 18-H ) :   0.9115 B(  6-C ,  7-C ) :   1.2988 B(  6-C , 11-C ) :   1.4504
B(  7-C ,  8-C ) :   1.4323 B(  7-C , 19-H ) :   0.9440 B(  8-C ,  9-C ) :   1.4190
B(  8-C , 20-H ) :   0.9395 B(  9-C , 10-C ) :   1.4042 B(  9-C , 21-H ) :   0.9490
B( 10-C , 11-C ) :   1.3550 B( 10-C , 22-H ) :   0.9594 B( 11-C , 23-H ) :   0.9259

Dispersion correction           -0.008501459
FINAL SINGLE POINT ENERGY      -534.789633827562

DIPOLE MOMENT
-------------

Method             : SCF
Type of density    : Electron Density
Multiplicity       :   1
Irrep              :   0
Energy             :  -534.8010539073185328 Eh
Relativity type    :
Basis              : AO
                                X                 Y                 Z
Electronic contribution:      6.416176384      -3.008886862      -0.002601203
Nuclear contribution   :     -7.279995743       4.534247647       0.002982142
                        -----------------------------------------
Total Dipole Moment    :     -0.863819359       1.525360785       0.000380939
                        -----------------------------------------
Magnitude (a.u.)       :      1.752971635
Magnitude (Debye)      :      4.455699796

Rotational constants in cm-1:             0.087763             0.016178             0.013732
Rotational constants in MHz :          2631.059228           485.008014           411.663676

                             ****ORCA TERMINATED NORMALLY****
TOTAL RUN TIME: 0 days 0 hours 0 minutes 37 seconds 438 msec
