                         Program Version 6.0.0  -   RELEASE  -
|  1> ! r2scan-3c def2/J RI DEFGRID2 scfconv6 printgap
|  2> %output
|  3>     printlevel normal
|  4> end
|  5> %cpcm
|  6>     smd true
|  7>     smdsolvent "water"
|  8> end
|  9> * xyz 0 1
| 10> C -3.8530569368 -0.6263959897 0.0018429832
| 11> N -2.6726071855 0.2113096022 0.0003166959
| 12> C -2.8952256342 1.6443396067 -0.001211476
| 13> C -1.4477465578 -0.3719307819 -0.0003669066
| 14> O -1.3149149756 -1.5977752112 -1.33012e-05
| 15> N -0.3908929752 0.5037092699 -0.0010051228
| 16> C 0.9774126819 0.231154672 -0.0004786613
| 17> C 1.8473757781 1.3229141439 0.0005692258
| 18> C 3.2146488825 1.1305744205 0.0011522858
| 19> C 3.7395192953 -0.1515279566 0.000676164
| 20> C 2.8801822114 -1.2366834667 -0.0005083652
| 21> C 1.5088727162 -1.0552653861 -0.0011218121
| 22> H -3.532187083 -1.6659311147 0.0058161667
| 23> H -4.4509549477 -0.4386568083 -0.891161097
| 24> H -4.4527505329 -0.4321952832 0.8921865068
| 25> H -2.4767192375 2.1108702299 -0.8956142915
| 26> H -2.4791735219 2.1124117984 0.8936166458
| 27> H -3.9681329325 1.8147190806 -0.0030055247
| 28> H -0.6099602016 1.4889293885 -8.50953e-05
| 29> H 1.4463991302 2.3259655481 0.0008828208
| 30> H 3.8737638437 1.9855088593 0.0019215462
| 31> H 4.8078179596 -0.3031460255 0.00132599
| 32> H 3.2765461084 -2.2410493592 -0.0007934252
| 33> H 0.8442454671 -1.9032941977 -0.001907325
| 34> *
| 35>
| 36>                          ****END OF INPUT****

CARTESIAN COORDINATES (ANGSTROEM)
---------------------------------
  C     -3.853057   -0.626396    0.001843
  N     -2.672607    0.211310    0.000317
  C     -2.895226    1.644340   -0.001211
  C     -1.447747   -0.371931   -0.000367
  O     -1.314915   -1.597775   -0.000013
  N     -0.390893    0.503709   -0.001005
  C      0.977413    0.231155   -0.000479
  C      1.847376    1.322914    0.000569
  C      3.214649    1.130574    0.001152
  C      3.739519   -0.151528    0.000676
  C      2.880182   -1.236683   -0.000508
  C      1.508873   -1.055265   -0.001122
  H     -3.532187   -1.665931    0.005816
  H     -4.450955   -0.438657   -0.891161
  H     -4.452751   -0.432195    0.892187
  H     -2.476719    2.110870   -0.895614
  H     -2.479174    2.112412    0.893617
  H     -3.968133    1.814719   -0.003006
  H     -0.609960    1.488929   -0.000085
  H      1.446399    2.325966    0.000883
  H      3.873764    1.985509    0.001922
  H      4.807818   -0.303146    0.001326
  H      3.276546   -2.241049   -0.000793
  H      0.844245   -1.903294   -0.001907

 Total Charge           Charge          ....    0
 Multiplicity           Mult            ....    1
 Number of Electrons    NEL             ....   88
 Basis Dimension        Dim             ....  303

ORBITAL ENERGIES
----------------

  NO   OCC          E(Eh)            E(eV)
   0   2.0000     -18.915305      -514.7116
   1   2.0000     -14.197027      -386.3208
   2   2.0000     -14.189170      -386.1069
   3   2.0000     -10.157056      -276.3876
   4   2.0000     -10.084774      -274.4207
   5   2.0000     -10.056672      -273.6560
   6   2.0000     -10.048911      -273.4448
   7   2.0000     -10.034296      -273.0471
   8   2.0000     -10.033382      -273.0222
   9   2.0000     -10.032814      -273.0067
  10   2.0000     -10.028008      -272.8760
  11   2.0000     -10.026540      -272.8360
  12   2.0000      -1.020973       -27.7821
  13   2.0000      -0.917151       -24.9569
  14   2.0000      -0.896614       -24.3981
  15   2.0000      -0.818656       -22.2768
  16   2.0000      -0.721545       -19.6342
  17   2.0000      -0.717522       -19.5248
  18   2.0000      -0.684362       -18.6224
  19   2.0000      -0.659271       -17.9397
  20   2.0000      -0.594053       -16.1650
  21   2.0000      -0.579386       -15.7659
  22   2.0000      -0.531319       -14.4579
  23   2.0000      -0.512488       -13.9455
  24   2.0000      -0.487496       -13.2654
  25   2.0000      -0.459444       -12.5021
  26   2.0000      -0.447757       -12.1841
  27   2.0000      -0.427536       -11.6338
  28   2.0000      -0.417014       -11.3475
  29   2.0000      -0.400114       -10.8876
  30   2.0000      -0.393910       -10.7188
  31   2.0000      -0.391126       -10.6431
  32   2.0000      -0.382630       -10.4119
  33   2.0000      -0.369892       -10.0653
  34   2.0000      -0.367569       -10.0021
  35   2.0000      -0.350212        -9.5297
  36   2.0000      -0.341566        -9.2945
  37   2.0000      -0.326902        -8.8954
  38   2.0000      -0.311181        -8.4677
  39   2.0000      -0.290329        -7.9002
  40   2.0000      -0.240941        -6.5563
  41   2.0000      -0.239243        -6.5101
  42   2.0000      -0.220855        -6.0098
  43   2.0000      -0.195889        -5.3304
  44   0.0000      -0.034181        -0.9301
  45   0.0000      -0.030452        -0.8286
  46   0.0000       0.039454         1.0736
  47   0.0000       0.064658         1.7594
  48   0.0000       0.093315         2.5392

MULLIKEN ATOMIC CHARGES
-----------------------
   0 C :   -0.423183
   1 N :    0.105783
   2 C :   -0.467969
   3 C :    0.210319
   4 O :   -0.613552
   5 N :   -0.105042
   6 C :    0.174081
   7 C :   -0.358910
   8 C :   -0.159604
   9 C :   -0.213431
  10 C :   -0.202833
  11 C :   -0.256180
  12 H :    0.187603
  13 H :    0.168305
  14 H :    0.168244
  15 H :    0.181426
  16 H :    0.181526
  17 H :    0.186114
  18 H :    0.318666
  19 H :    0.177552
  20 H :    0.180837
  21 H :    0.177573
  22 H :    0.177933
  23 H :    0.204741
Sum of atomic charges:   -0.0000000

LOEWDIN ATOMIC CHARGES
----------------------
   0 C :   -0.105039
   1 N :   -0.798727
   2 C :   -0.109402
   3 C :    0.442347
   4 O :   -0.556820
   5 N :   -0.539061
   6 C :    0.154800
   7 C :   -0.146404
   8 C :   -0.166282
   9 C :   -0.201795
  10 C :   -0.167151
  11 C :   -0.156942
  12 H :    0.204162
  13 H :    0.180224
  14 H :    0.180311
  15 H :    0.182468
  16 H :    0.182435
  17 H :    0.198889
  18 H :    0.300236
  19 H :    0.185990
  20 H :    0.179271
  21 H :    0.175757
  22 H :    0.178347
  23 H :    0.202386

  Mayer bond orders larger than 0.100000
B(  0-C ,  1-N ) :   0.8983 B(  0-C , 12-H ) :   0.9559 B(  0-C , 13-H ) :   0.9491
B(  0-C , 14-H ) :   0.9491 B(  1-N ,  2-C ) :   0.8831 B(  1-N ,  3-C ) :   1.2902
B(  2-C , 15-H ) :   0.9522 B(  2-C , 16-H ) :   0.9522 B(  2-C , 17-H ) :   0.9423
B(  3-C ,  4-O ) :   1.6960 B(  3-C ,  5-N ) :   1.1135 B(  5-N ,  6-C ) :   0.9973
B(  5-N , 18-H ) :   0.8901 B(  6-C ,  7-C ) :   1.3028 B(  6-C , 11-C ) :   1.3626
B(  7-C ,  8-C ) :   1.3877 B(  7-C , 19-H ) :   0.9611 B(  8-C ,  9-C ) :   1.3653
B(  8-C , 20-H ) :   0.9517 B(  9-C , 10-C ) :   1.3777 B(  9-C , 21-H ) :   0.9584
B( 10-C , 11-C ) :   1.3399 B( 10-C , 22-H ) :   0.9668 B( 11-C , 23-H ) :   0.9434

Dispersion correction           -0.008501459
FINAL SINGLE POINT ENERGY      -534.805364061924

DIPOLE MOMENT
-------------

Method             : SCF
Type of density    : Electron Density
Multiplicity       :   1
Irrep              :   0
Energy             :  -534.8167841416809551 Eh
Relativity type    :
Basis              : AO
                                X                 Y                 Z
Electronic contribution:      6.135411685      -2.026488512      -0.002379436
Nuclear contribution   :     -7.279995743       4.534247647       0.002982142
                        -----------------------------------------
Total Dipole Moment    :     -1.144584057       2.507759134       0.000602707
                        -----------------------------------------
Magnitude (a.u.)       :      2.756615480
Magnitude (Debye)      :      7.006759713

Rotational constants in cm-1:             0.087763             0.016178             0.013732
Rotational constants in MHz :          2631.059228           485.008014           411.663676

                             ****ORCA TERMINATED NORMALLY****
TOTAL RUN TIME: 0 days 0 hours 0 minutes 46 seconds 263 msec
