                         Program Version 6.0.0  -   RELEASE  -
|  1> ! r2scan-3c def2/J RI DEFGRID2 scfconv6 printgap
|  2> %output
|  3>     printlevel normal
|  4> end
|  5> * xyz 0 1
|  6> C 0.658455315 -3.407e-07 1.05517e-05
|  7> C -0.6584554103 5.475e-07 3.8107e-06
|  8> H 1.2286942687 0.9141934449 -2.76221e-05
|  9> H 1.2286901999 -0.914195423 -7.94728e-05
| 10> H -1.228694447 -0.9141906916 -6.0991e-06
| 11> H -1.2286888865 0.9141902059 -5.79496e-05
| 12> *
| 13>
| 14>                          ****END OF INPUT****

CARTESIAN COORDINATES (ANGSTROEM)
---------------------------------
  C      0.658455   -0.000000    0.000011
  C     -0.658455    0.000001    0.000004
  H      1.228694    0.914193   -0.000028
  H      1.228690   -0.914195   -0.000079
  H     -1.228694   -0.914191   -0.000006
  H     -1.228689    0.914190   -0.000058

 Total Charge           Charge          ....    0
 Multiplicity           Mult            ....    1
 Number of Electrons    NEL             ....   16
 Basis Dimension        Dim             ....   58

ORBITAL ENERGIES
----------------

  NO   OCC          E(Eh)            E(eV)
   0   2.0000     -10.030201      -272.9356
   1   2.0000     -10.029355      -272.9126
   2   2.0000      -0.732278       -19.9263
   3   2.0000      -0.551039       -14.9945
   4   2.0000      -0.440097       -11.9756
   5   2.0000      -0.391800       -10.6614
   6   2.0000      -0.323147        -8.7933
   7   2.0000      -0.256055        -6.9676
   8   0.0000      -0.021884        -0.5955
   9   0.0000       0.132065         3.5937
  10   0.0000       0.147776         4.0212
  11   0.0000       0.155269         4.2251
  12   0.0000       0.192756         5.2452

MULLIKEN ATOMIC CHARGES
-----------------------
   0 C :   -0.277316
   1 C :   -0.277316
   2 H :    0.138658
   3 H :    0.138658
   4 H :    0.138658
   5 H :    0.138658
Sum of atomic charges:   -0.0000000

LOEWDIN ATOMIC CHARGES
----------------------
   0 C :   -0.306703
   1 C :   -0.306703
   2 H :    0.153352
   3 H :    0.153352
   4 H :    0.153351
   5 H :    0.153351

  Mayer bond orders larger than 0.100000
B(  0-C ,  1-C ) :   1.9723 B(  0-C ,  2-H ) :   0.9631 B(  0-C ,  3-H ) :   0.9631
B(  1-C ,  4-H ) :   0.9631 B(  1-C ,  5-H ) :   0.9631

Dispersion correction           -0.000620829
FINAL SINGLE POINT ENERGY       -78.555676949552

DIPOLE MOMENT
-------------

Method             : SCF
Type of density    : Electron Density
Multiplicity       :   1
Irrep              :   0
Energy             :   -78.5567902464223380 Eh
Relativity type    :
Basis              : AO
                                X                 Y                 Z
Electronic contribution:     -0.000002013       0.000002664       0.000098490
Nuclear contribution   :      0.000001065      -0.000002312      -0.000160562
                        -----------------------------------------
Total Dipole Moment    :     -0.000000948       0.000000352      -0.000062072
                        -----------------------------------------
Magnitude (a.u.)       :      0.000062080
Magnitude (Debye)      :      0.000157796

Rotational constants in cm-1:             5.002662             1.021545             0.848318
Rotational constants in MHz :        149976.020800         30625.148486         25431.938952

                             ****ORCA TERMINATED NORMALLY****
TOTAL RUN TIME: 0 days 0 hours 0 minutes 4 seconds 644 msec
