                         Program Version 6.0.0  -   RELEASE  -
|  1> ! r2scan-3c def2/J RI DEFGRID2 scfconv6 printgap
|  2> %output
|  3>     printlevel normal
|  4> end
|  5> %cpcm
|  6>     smd true
|  7>     smdsolvent "water"
|  8> end
|  9> * xyz 0 1
| 10> C 0.658455315 -3.407e-07 1.05517e-05
| 11> C -0.6584554103 5.475e-07 3.8107e-06
| 12> H 1.2286942687 0.9141934449 -2.76221e-05
| 13> H 1.2286901999 -0.914195423 -7.94728e-05
| 14> H -1.228694447 -0.9141906916 -6.0991e-06
| 15> H -1.2286888865 0.9141902059 -5.79496e-05
| 16> *
| 17>
| 18>                          ****END OF INPUT****

CARTESIAN COORDINATES (ANGSTROEM)
---------------------------------
  C      0.658455   -0.000000    0.000011
  C     -0.658455    0.000001    0.000004
  H      1.228694    0.914193   -0.000028
  H      1.228690   -0.914195   -0.000079
  H     -1.228694   -0.914191   -0.000006
  H     -1.228689    0.914190   -0.000058

 Total Charge           Charge          ....    0
 Multiplicity           Mult            ....    1
 Number of Electrons    NEL             ....   16
 Basis Dimension        Dim             ....   58

ORBITAL ENERGIES
----------------

  NO   OCC          E(Eh)            E(eV)
   0   2.0000     -10.025481      -272.8072
   1   2.0000     -10.024635      -272.7842
   2   2.0000      -0.729051       -19.8385
   3   2.0000      -0.545174       -14.8349
   4   2.0000      -0.434204       -11.8153
   5   2.0000      -0.386313       -10.5121
   6   2.0000      -0.315648        -8.5892
   7   2.0000      -0.256639        -6.9835
   8   0.0000      -0.020953        -0.5702
   9   0.0000       0.136781         3.7220
  10   0.0000       0.157429         4.2839
  11   0.0000       0.165838         4.5127
  12   0.0000       0.197543         5.3754

MULLIKEN ATOMIC CHARGES
-----------------------
   0 C :   -0.331196
   1 C :   -0.331194
   2 H :    0.165598
   3 H :    0.165598
   4 H :    0.165598
   5 H :    0.165597
Sum of atomic charges:   -0.0000000

LOEWDIN ATOMIC CHARGES
----------------------
   0 C :   -0.321634
   1 C :   -0.321633
   2 H :    0.160817
   3 H :    0.160817
   4 H :    0.160817
   5 H :    0.160816

  Mayer bond orders larger than 0.100000
B(  0-C ,  1-C ) :   1.9340 B(  0-C ,  2-H ) :   0.9593 B(  0-C ,  3-H ) :   0.9593
B(  1-C ,  4-H ) :   0.9593 B(  1-C ,  5-H ) :   0.9593

Dispersion correction           -0.000620829
FINAL SINGLE POINT ENERGY       -78.553785808393

DIPOLE MOMENT
-------------

Method             : SCF
Type of density    : Electron Density
Multiplicity       :   1
Irrep              :   0
Energy             :   -78.5548991052638570 Eh
Relativity type    :
Basis              : AO
                                X                 Y                 Z
Electronic contribution:     -0.000002464       0.000002679       0.000080951
Nuclear contribution   :      0.000001065      -0.000002312      -0.000160562
                        -----------------------------------------
Total Dipole Moment    :     -0.000001399       0.000000367      -0.000079611
                        -----------------------------------------
Magnitude (a.u.)       :      0.000079624
Magnitude (Debye)      :      0.000202388

Rotational constants in cm-1:             5.002662             1.021545             0.848318
Rotational constants in MHz :        149976.020800         30625.148486         25431.938952

                             ****ORCA TERMINATED NORMALLY****
TOTAL RUN TIME: 0 days 0 hours 0 minutes 5 seconds 137 msec
