                         Program Version 6.0.0  -   RELEASE  -
|  1> ! pbe def2-sv(p) def2/J RI DEFGRID1 loosescf d4 GCP(DFT/SV(P)) printgap
|  2> %output
|  3>     printlevel normal
|  4> end
|  5> * xyz 0 1
|  6> C -1.9190887247 -0.5614130436 -0.7990943593
|  7> C -1.2145956687 -0.0865032433 0.4855165247
|  8> H -1.9449263398 -0.0728946085 1.3050139996
|  9> C -0.6174515421 1.3218965305 0.3320234314
| 10> H -1.3432762044 1.9533989141 -0.1987152748
| 11> C 0.6767125133 1.3106269082 -0.5000848036
| 12> H 1.1604508447 2.2899794278 -0.3470758147
| 13> C 1.650194917 0.2454966146 0.0409215619
| 14> H 2.4537595245 0.0772155958 -0.6845326968
| 15> C 0.9539566642 -1.1154224152 0.2474385644
| 16> H 1.5933318157 -1.7233407273 0.9114731329
| 17> O -0.2493785619 -1.0221631569 0.9588216257
| 18> O 0.8162223889 -1.7216212526 -0.9994608862
| 19> O 2.2697664928 0.6832113229 1.2213938422
| 20> O 0.3334452673 1.1348626406 -1.8476426482
| 21> O -0.281422416 1.8771375154 1.5836255019
| 22> O -2.3390911696 -1.8996329156 -0.709393235
| 23> H -1.2312551521 -0.5126101844 -1.6433404975
| 24> H -2.7668260893 0.1072060992 -0.9958700081
| 25> H 0.2774717355 -2.5238121379 -0.9135408322
| 26> H 1.5848082068 1.0196944428 1.8250608451
| 27> H 1.132927665 1.1461745511 -2.3926121761
| 28> H -1.0792117507 2.0061287093 2.1166368588
| 29> H -2.9565192799 -1.9988228815 0.029400705
| 30> *
| 31>
| 32>                          ****END OF INPUT****

CARTESIAN COORDINATES (ANGSTROEM)
---------------------------------
  C     -1.919089   -0.561413   -0.799094
  C     -1.214596   -0.086503    0.485517
  H     -1.944926   -0.072895    1.305014
  C     -0.617452    1.321897    0.332023
  H     -1.343276    1.953399   -0.198715
  C      0.676713    1.310627   -0.500085
  H      1.160451    2.289979   -0.347076
  C      1.650195    0.245497    0.040922
  H      2.453760    0.077216   -0.684533
  C      0.953957   -1.115422    0.247439
  H      1.593332   -1.723341    0.911473
  O     -0.249379   -1.022163    0.958822
  O      0.816222   -1.721621   -0.999461
  O      2.269766    0.683211    1.221394
  O      0.333445    1.134863   -1.847643
  O     -0.281422    1.877138    1.583626
  O     -2.339091   -1.899633   -0.709393
  H     -1.231255   -0.512610   -1.643340
  H     -2.766826    0.107206   -0.995870
  H      0.277472   -2.523812   -0.913541
  H      1.584808    1.019694    1.825061
  H      1.132928    1.146175   -2.392612
  H     -1.079212    2.006129    2.116637
  H     -2.956519   -1.998823    0.029401

 Total Charge           Charge          ....    0
 Multiplicity           Mult            ....    1
 Number of Electrons    NEL             ....   96
 Basis Dimension        Dim             ....  192

ORBITAL ENERGIES
----------------

  NO   OCC          E(Eh)            E(eV)
   0   2.0000     -18.775637      -510.9111
   1   2.0000     -18.761677      -510.5312
   2   2.0000     -18.759421      -510.4698
   3   2.0000     -18.748703      -510.1781
   4   2.0000     -18.748130      -510.1626
   5   2.0000     -18.735753      -509.8258
   6   2.0000      -9.973033      -271.3800
   7   2.0000      -9.954664      -270.8802
   8   2.0000      -9.946526      -270.6587
   9   2.0000      -9.945943      -270.6429
  10   2.0000      -9.933437      -270.3026
  11   2.0000      -9.924069      -270.0477
  12   2.0000      -0.975707       -26.5503
  13   2.0000      -0.950416       -25.8621
  14   2.0000      -0.935831       -25.4653
  15   2.0000      -0.923172       -25.1208
  16   2.0000      -0.912796       -24.8384
  17   2.0000      -0.900506       -24.5040
  18   2.0000      -0.708478       -19.2787
  19   2.0000      -0.680611       -18.5204
  20   2.0000      -0.621099       -16.9010
  21   2.0000      -0.583210       -15.8700
  22   2.0000      -0.571056       -15.5392
  23   2.0000      -0.523379       -14.2419
  24   2.0000      -0.504719       -13.7341
  25   2.0000      -0.478458       -13.0195
  26   2.0000      -0.474540       -12.9129
  27   2.0000      -0.452177       -12.3044
  28   2.0000      -0.441608       -12.0168
  29   2.0000      -0.421477       -11.4690
  30   2.0000      -0.413432       -11.2501
  31   2.0000      -0.403097       -10.9688
  32   2.0000      -0.388468       -10.5707
  33   2.0000      -0.371270       -10.1028
  34   2.0000      -0.359547        -9.7838
  35   2.0000      -0.348640        -9.4870
  36   2.0000      -0.328710        -8.9447
  37   2.0000      -0.321586        -8.7508
  38   2.0000      -0.312736        -8.5100
  39   2.0000      -0.289855        -7.8874
  40   2.0000      -0.280239        -7.6257
  41   2.0000      -0.253139        -6.8883
  42   2.0000      -0.246592        -6.7101
  43   2.0000      -0.239903        -6.5281
  44   2.0000      -0.228650        -6.2219
  45   2.0000      -0.224879        -6.1193
  46   2.0000      -0.210452        -5.7267
  47   2.0000      -0.198267        -5.3951
  48   0.0000       0.003526         0.0960
  49   0.0000       0.018344         0.4992
  50   0.0000       0.030642         0.8338
  51   0.0000       0.056055         1.5253
  52   0.0000       0.066251         1.8028

MULLIKEN ATOMIC CHARGES
-----------------------
   0 C :    0.020805
   1 C :    0.013946
   2 H :    0.039340
   3 C :    0.037516
   4 H :    0.075018
   5 C :    0.039101
   6 H :    0.078462
   7 C :    0.045752
   8 H :    0.066298
   9 C :    0.202529
  10 H :    0.063126
  11 O :   -0.311489
  12 O :   -0.405683
  13 O :   -0.430413
  14 O :   -0.399765
  15 O :   -0.421696
  16 O :   -0.431103
  17 H :    0.128661
  18 H :    0.065421
  19 H :    0.306058
  20 H :    0.303630
  21 H :    0.310869
  22 H :    0.310800
  23 H :    0.292817
Sum of atomic charges:    0.0000000

LOEWDIN ATOMIC CHARGES
----------------------
   0 C :   -0.155468
   1 C :   -0.074933
   2 H :    0.100596
   3 C :   -0.066869
   4 H :    0.109886
   5 C :   -0.069441
   6 H :    0.106340
   7 C :   -0.082163
   8 H :    0.115109
   9 C :   -0.006407
  10 H :    0.096576
  11 O :   -0.144813
  12 O :   -0.314302
  13 O :   -0.318445
  14 O :   -0.303329
  15 O :   -0.308228
  16 O :   -0.332534
  17 H :    0.126126
  18 H :    0.095998
  19 H :    0.286144
  20 H :    0.274378
  21 H :    0.292714
  22 H :    0.292049
  23 H :    0.281017

  Mayer bond orders larger than 0.100000
B(  0-C ,  1-C ) :   1.0365 B(  0-C , 16-O ) :   1.0491 B(  0-C , 17-H ) :   0.8840
B(  0-C , 18-H ) :   0.9093 B(  1-C ,  2-H ) :   0.8920 B(  1-C ,  3-C ) :   0.9908
B(  1-C , 11-O ) :   1.0277 B(  3-C ,  4-H ) :   0.8943 B(  3-C ,  5-C ) :   1.0045
B(  3-C , 15-O ) :   1.0183 B(  5-C ,  6-H ) :   0.9012 B(  5-C ,  7-C ) :   0.9774
B(  5-C , 14-O ) :   1.0769 B(  7-C ,  8-H ) :   0.8897 B(  7-C ,  9-C ) :   0.9728
B(  7-C , 13-O ) :   1.0618 B(  9-C , 10-H ) :   0.9022 B(  9-C , 11-O ) :   1.0539
B(  9-C , 12-O ) :   1.1150 B( 12-O , 19-H ) :   0.8247 B( 13-O , 20-H ) :   0.8160
B( 14-O , 21-H ) :   0.8406 B( 15-O , 22-H ) :   0.8423 B( 16-O , 23-H ) :   0.8532

Dispersion correction           -0.026064428
FINAL SINGLE POINT ENERGY      -685.694158915352

DIPOLE MOMENT
-------------

Method             : SCF
Type of density    : Electron Density
Multiplicity       :   1
Irrep              :   0
Energy             :  -685.8253241356143235 Eh
Relativity type    :
Basis              : AO
                                X                 Y                 Z
Electronic contribution:      1.855466380      -1.162836173       1.247986113
Nuclear contribution   :     -2.918260050       1.644935169      -0.923935845
                        -----------------------------------------
Total Dipole Moment    :     -1.062793671       0.482098997       0.324050268
                        -----------------------------------------
Magnitude (a.u.)       :      1.211180583
Magnitude (Debye)      :      3.078576384

Rotational constants in cm-1:             0.042165             0.028362             0.025305
Rotational constants in MHz :          1264.068123           850.268481           758.613788

                             ****ORCA TERMINATED NORMALLY****
TOTAL RUN TIME: 0 days 0 hours 0 minutes 12 seconds 376 msec
