                         Program Version 6.0.0  -   RELEASE  -
|  1> ! r2scan-3c def2/J RI DEFGRID2 scfconv6 printgap
|  2> %output
|  3>     printlevel normal
|  4> end
|  5> * xyz 0 1
|  6> C -1.3822967984 -0.8727752835 0.2330250514
|  7> S 0.002886907 0.1532599749 -0.433966816
|  8> O 0.0027850645 1.3998367843 0.3891658785
|  9> C 1.3747634718 -0.8708096382 0.2316376315
| 10> H -2.0258874784 -1.129571874 -0.6000278783
| 11> H -1.9214593002 -0.2577438 0.9446480956
| 12> H -1.0076075611 -1.7692717308 0.7086185545
| 13> H 1.3300707244 -1.8364882751 -0.2557465407
| 14> H 1.2738984777 -0.9570635069 1.3073661628
| 15> H 2.3047059922 -0.3687501268 -0.0137727234
| 16> *
| 17>
| 18>                          ****END OF INPUT****

CARTESIAN COORDINATES (ANGSTROEM)
---------------------------------
  C     -1.382297   -0.872775    0.233025
  S      0.002887    0.153260   -0.433967
  O      0.002785    1.399837    0.389166
  C      1.374763   -0.870810    0.231638
  H     -2.025887   -1.129572   -0.600028
  H     -1.921459   -0.257744    0.944648
  H     -1.007608   -1.769272    0.708619
  H      1.330071   -1.836488   -0.255747
  H      1.273898   -0.957064    1.307366
  H      2.304706   -0.368750   -0.013773

 Total Charge           Charge          ....    0
 Multiplicity           Mult            ....    1
 Number of Electrons    NEL             ....   42
 Basis Dimension        Dim             ....  119

ORBITAL ENERGIES
----------------

  NO   OCC          E(Eh)            E(eV)
   0   2.0000     -88.661609     -2412.6050
   1   2.0000     -18.903676      -514.3952
   2   2.0000     -10.059101      -273.7221
   3   2.0000     -10.057358      -273.6746
   4   2.0000      -7.944405      -216.1783
   5   2.0000      -5.890734      -160.2950
   6   2.0000      -5.889726      -160.2676
   7   2.0000      -5.882906      -160.0820
   8   2.0000      -0.973769       -26.4976
   9   2.0000      -0.752904       -20.4876
  10   2.0000      -0.689902       -18.7732
  11   2.0000      -0.571912       -15.5625
  12   2.0000      -0.436133       -11.8678
  13   2.0000      -0.427356       -11.6289
  14   2.0000      -0.425883       -11.5889
  15   2.0000      -0.399211       -10.8631
  16   2.0000      -0.375084       -10.2065
  17   2.0000      -0.362790        -9.8720
  18   2.0000      -0.325884        -8.8678
  19   2.0000      -0.236432        -6.4336
  20   2.0000      -0.198779        -5.4090
  21   0.0000       0.004290         0.1167
  22   0.0000       0.012787         0.3480
  23   0.0000       0.053324         1.4510
  24   0.0000       0.089158         2.4261
  25   0.0000       0.135018         3.6740

MULLIKEN ATOMIC CHARGES
-----------------------
   0 C :   -0.463637
   1 S :    0.439101
   2 O :   -0.549095
   3 C :   -0.450987
   4 H :    0.165932
   5 H :    0.196624
   6 H :    0.159991
   7 H :    0.151308
   8 H :    0.178204
   9 H :    0.172559
Sum of atomic charges:   -0.0000000

LOEWDIN ATOMIC CHARGES
----------------------
   0 C :   -0.446467
   1 S :    0.605479
   2 O :   -0.728888
   3 C :   -0.447025
   4 H :    0.164705
   5 H :    0.183154
   6 H :    0.164805
   7 H :    0.162953
   8 H :    0.169435
   9 H :    0.171848

  Mayer bond orders larger than 0.100000
B(  0-C ,  1-S ) :   0.8682 B(  0-C ,  4-H ) :   0.9514 B(  0-C ,  5-H ) :   0.9431
B(  0-C ,  6-H ) :   0.9466 B(  1-S ,  2-O ) :   1.4857 B(  1-S ,  3-C ) :   0.8961
B(  3-C ,  7-H ) :   0.9419 B(  3-C ,  8-H ) :   0.9437 B(  3-C ,  9-H ) :   0.9431

Dispersion correction           -0.002095583
FINAL SINGLE POINT ENERGY      -553.131081876157

DIPOLE MOMENT
-------------

Method             : SCF
Type of density    : Electron Density
Multiplicity       :   1
Irrep              :   0
Energy             :  -553.1405729929795143 Eh
Relativity type    :
Basis              : AO
                                X                 Y                 Z
Electronic contribution:      0.027884557       4.399748229      -2.126574133
Nuclear contribution   :     -0.043458973      -5.911813626       1.979970063
                        -----------------------------------------
Total Dipole Moment    :     -0.015574416      -1.512065397      -0.146604070
                        -----------------------------------------
Magnitude (a.u.)       :      1.519235689
Magnitude (Debye)      :      3.861590236

Rotational constants in cm-1:             0.232104             0.219971             0.137461
Rotational constants in MHz :          6958.305491          6594.578609          4120.972167

                             ****ORCA TERMINATED NORMALLY****
TOTAL RUN TIME: 0 days 0 hours 0 minutes 12 seconds 206 msec
