                         Program Version 6.0.0  -   RELEASE  -
|  1> ! r2scan-3c def2/J RI DEFGRID2 scfconv6 printgap
|  2> %output
|  3>     printlevel normal
|  4> end
|  5> %cpcm
|  6>     smd true
|  7>     smdsolvent "water"
|  8> end
|  9> * xyz 0 1
| 10> C -1.3822967984 -0.8727752835 0.2330250514
| 11> S 0.002886907 0.1532599749 -0.433966816
| 12> O 0.0027850645 1.3998367843 0.3891658785
| 13> C 1.3747634718 -0.8708096382 0.2316376315
| 14> H -2.0258874784 -1.129571874 -0.6000278783
| 15> H -1.9214593002 -0.2577438 0.9446480956
| 16> H -1.0076075611 -1.7692717308 0.7086185545
| 17> H 1.3300707244 -1.8364882751 -0.2557465407
| 18> H 1.2738984777 -0.9570635069 1.3073661628
| 19> H 2.3047059922 -0.3687501268 -0.0137727234
| 20> *
| 21>
| 22>                          ****END OF INPUT****

CARTESIAN COORDINATES (ANGSTROEM)
---------------------------------
  C     -1.382297   -0.872775    0.233025
  S      0.002887    0.153260   -0.433967
  O      0.002785    1.399837    0.389166
  C      1.374763   -0.870810    0.231638
  H     -2.025887   -1.129572   -0.600028
  H     -1.921459   -0.257744    0.944648
  H     -1.007608   -1.769272    0.708619
  H      1.330071   -1.836488   -0.255747
  H      1.273898   -0.957064    1.307366
  H      2.304706   -0.368750   -0.013773

 Total Charge           Charge          ....    0
 Multiplicity           Mult            ....    1
 Number of Electrons    NEL             ....   42
 Basis Dimension        Dim             ....  119

ORBITAL ENERGIES
----------------

  NO   OCC          E(Eh)            E(eV)
   0   2.0000     -88.662295     -2412.6237
   1   2.0000     -18.917611      -514.7744
   2   2.0000     -10.045621      -273.3552
   3   2.0000     -10.044001      -273.3112
   4   2.0000      -7.945549      -216.2094
   5   2.0000      -5.892226      -160.3356
   6   2.0000      -5.890387      -160.2856
   7   2.0000      -5.884045      -160.1130
   8   2.0000      -0.987446       -26.8698
   9   2.0000      -0.746278       -20.3073
  10   2.0000      -0.675768       -18.3886
  11   2.0000      -0.566830       -15.4242
  12   2.0000      -0.424654       -11.5554
  13   2.0000      -0.420282       -11.4365
  14   2.0000      -0.418545       -11.3892
  15   2.0000      -0.383251       -10.4288
  16   2.0000      -0.379815       -10.3353
  17   2.0000      -0.349298        -9.5049
  18   2.0000      -0.331683        -9.0256
  19   2.0000      -0.249566        -6.7910
  20   2.0000      -0.210089        -5.7168
  21   0.0000       0.005758         0.1567
  22   0.0000       0.014915         0.4059
  23   0.0000       0.061101         1.6626
  24   0.0000       0.108561         2.9541
  25   0.0000       0.153040         4.1644

MULLIKEN ATOMIC CHARGES
-----------------------
   0 C :   -0.469650
   1 S :    0.426879
   2 O :   -0.657118
   3 C :   -0.461375
   4 H :    0.190871
   5 H :    0.200564
   6 H :    0.195740
   7 H :    0.186884
   8 H :    0.197986
   9 H :    0.189219
Sum of atomic charges:   -0.0000000

LOEWDIN ATOMIC CHARGES
----------------------
   0 C :   -0.430997
   1 S :    0.610988
   2 O :   -0.825036
   3 C :   -0.432460
   4 H :    0.176006
   5 H :    0.185325
   6 H :    0.180269
   7 H :    0.180371
   8 H :    0.178134
   9 H :    0.177401

  Mayer bond orders larger than 0.100000
B(  0-C ,  1-S ) :   0.8923 B(  0-C ,  4-H ) :   0.9405 B(  0-C ,  5-H ) :   0.9370
B(  0-C ,  6-H ) :   0.9348 B(  1-S ,  2-O ) :   1.3962 B(  1-S ,  3-C ) :   0.9204
B(  3-C ,  7-H ) :   0.9291 B(  3-C ,  8-H ) :   0.9358 B(  3-C ,  9-H ) :   0.9338

Dispersion correction           -0.002095583
FINAL SINGLE POINT ENERGY      -553.144531335397

DIPOLE MOMENT
-------------

Method             : SCF
Type of density    : Electron Density
Multiplicity       :   1
Irrep              :   0
Energy             :  -553.1540224522192375 Eh
Relativity type    :
Basis              : AO
                                X                 Y                 Z
Electronic contribution:      0.025709262       3.688963787      -2.197709927
Nuclear contribution   :     -0.043458973      -5.911813626       1.979970063
                        -----------------------------------------
Total Dipole Moment    :     -0.017749711      -2.222849839      -0.217739864
                        -----------------------------------------
Magnitude (a.u.)       :      2.233559291
Magnitude (Debye)      :      5.677256539

Rotational constants in cm-1:             0.232104             0.219971             0.137461
Rotational constants in MHz :          6958.305491          6594.578609          4120.972167

                             ****ORCA TERMINATED NORMALLY****
TOTAL RUN TIME: 0 days 0 hours 0 minutes 13 seconds 502 msec
