                         Program Version 6.0.0  -   RELEASE  -
|  1> ! r2scan-3c def2/J RI DEFGRID2 scfconv6 printgap
|  2> %output
|  3>     printlevel normal
|  4> end
|  5> * xyz 0 1
|  6> C 2.8606321087 0.0004653655 -0.8209345841
|  7> C 2.4859980467 -1.1300087231 0.1357852468
|  8> H 2.6044493392 -2.1473640628 -0.2213648054
|  9> C 1.0724642898 -0.7758774704 0.6454812264
| 10> H 0.9597656617 -1.2021671097 1.6445025713
| 11> C 1.0724514438 0.7759222683 0.6455437769
| 12> H 0.959254172 1.2021720583 1.6445191248
| 13> C 2.4860214976 1.1303915859 0.1363891889
| 14> H 2.6046375608 2.1479642984 -0.2201402389
| 15> C 3.3420120646 0.7345089529 1.3514838659
| 16> H 3.3565247195 1.3427164546 2.243218625
| 17> C 3.3420372131 -0.7348991481 1.351069339
| 18> H 3.3566084254 -1.343689788 2.2424149403
| 19> O 4.5016476574 -8.36058e-05 1.0760546475
| 20> C -0.2443199958 1.1167348838 -0.1067060586
| 21> C -1.2955206041 0.6703195048 0.9149884144
| 22> C -1.2956025111 -0.6697733585 0.9151963577
| 23> C -0.2444433761 -1.1168465712 -0.1062855733
| 24> C -0.5041256011 -0.000262455 -1.1462710405
| 25> Cl -2.2418666539 -0.0003900806 -1.6607263808
| 26> Cl 0.3355143768 -0.0006063951 -2.6797315329
| 27> Cl -0.3947052058 -2.7623655123 -0.6852654148
| 28> Cl -2.1691821258 -1.7434048156 1.8856152319
| 29> Cl -2.1691341353 1.7445264579 1.8847785221
| 30> Cl -0.3941893105 2.762021385 -0.6864414639
| 31> H 2.3311359784 0.000737197 -1.7556313572
| 32> H 3.9309487527 0.0006181679 -1.0200976461
| 33> *
| 34>
| 35>                          ****END OF INPUT****

CARTESIAN COORDINATES (ANGSTROEM)
---------------------------------
  C      2.860632    0.000465   -0.820935
  C      2.485998   -1.130009    0.135785
  H      2.604449   -2.147364   -0.221365
  C      1.072464   -0.775877    0.645481
  H      0.959766   -1.202167    1.644503
  C      1.072451    0.775922    0.645544
  H      0.959254    1.202172    1.644519
  C      2.486021    1.130392    0.136389
  H      2.604638    2.147964   -0.220140
  C      3.342012    0.734509    1.351484
  H      3.356525    1.342716    2.243219
  C      3.342037   -0.734899    1.351069
  H      3.356608   -1.343690    2.242415
  O      4.501648   -0.000084    1.076055
  C     -0.244320    1.116735   -0.106706
  C     -1.295521    0.670320    0.914988
  C     -1.295603   -0.669773    0.915196
  C     -0.244443   -1.116847   -0.106286
  C     -0.504126   -0.000262   -1.146271
  Cl    -2.241867   -0.000390   -1.660726
  Cl     0.335514   -0.000606   -2.679732
  Cl    -0.394705   -2.762366   -0.685265
  Cl    -2.169182   -1.743405    1.885615
  Cl    -2.169134    1.744526    1.884779
  Cl    -0.394189    2.762021   -0.686441
  H      2.331136    0.000737   -1.755631
  H      3.930949    0.000618   -1.020098

 Total Charge           Charge          ....    0
 Multiplicity           Mult            ....    1
 Number of Electrons    NEL             ....  190
 Basis Dimension        Dim             ....  454

ORBITAL ENERGIES
----------------

  NO   OCC          E(Eh)            E(eV)
   0   2.0000    -101.255008     -2755.2888
   1   2.0000    -101.254996     -2755.2885
   2   2.0000    -101.243008     -2754.9623
   3   2.0000    -101.236459     -2754.7841
   4   2.0000    -101.236457     -2754.7840
   5   2.0000    -101.225065     -2754.4741
   6   2.0000     -18.985024      -516.6088
   7   2.0000     -10.199329      -277.5379
   8   2.0000     -10.161264      -276.5021
   9   2.0000     -10.161260      -276.5019
  10   2.0000     -10.132102      -275.7085
  11   2.0000     -10.131411      -275.6897
  12   2.0000     -10.103605      -274.9331
  13   2.0000     -10.103372      -274.9267
  14   2.0000     -10.086239      -274.4605
  15   2.0000     -10.086130      -274.4575
  16   2.0000     -10.064753      -273.8758
  17   2.0000     -10.064744      -273.8756
  18   2.0000     -10.032352      -272.9942
  19   2.0000      -9.410309      -256.0675
  20   2.0000      -9.410298      -256.0672
  21   2.0000      -9.399524      -255.7740
  22   2.0000      -9.392229      -255.5756
  23   2.0000      -9.392227      -255.5755
  24   2.0000      -9.381131      -255.2736
  25   2.0000      -7.156861      -194.7481
  26   2.0000      -7.156851      -194.7478
  27   2.0000      -7.146654      -194.4703
  28   2.0000      -7.146644      -194.4701
  29   2.0000      -7.146287      -194.4604
  30   2.0000      -7.145787      -194.4468
  31   2.0000      -7.145777      -194.4465
  32   2.0000      -7.138893      -194.2591
  33   2.0000      -7.138891      -194.2591
  34   2.0000      -7.135307      -194.1616
  35   2.0000      -7.135080      -194.1554
  36   2.0000      -7.128193      -193.9680
  37   2.0000      -7.128140      -193.9666
  38   2.0000      -7.128138      -193.9665
  39   2.0000      -7.127947      -193.9613
  40   2.0000      -7.127945      -193.9612
  41   2.0000      -7.117011      -193.6637
  42   2.0000      -7.116445      -193.6483
  43   2.0000      -1.084174       -29.5019
  44   2.0000      -0.966556       -26.3013
  45   2.0000      -0.887367       -24.1465
  46   2.0000      -0.874553       -23.7978
  47   2.0000      -0.866440       -23.5770
  48   2.0000      -0.840121       -22.8609
  49   2.0000      -0.836509       -22.7626
  50   2.0000      -0.810185       -22.0463
  51   2.0000      -0.790466       -21.5097
  52   2.0000      -0.732658       -19.9366
  53   2.0000      -0.715424       -19.4677
  54   2.0000      -0.678155       -18.4535
  55   2.0000      -0.677355       -18.4318
  56   2.0000      -0.656248       -17.8574
  57   2.0000      -0.590093       -16.0573
  58   2.0000      -0.567411       -15.4400
  59   2.0000      -0.541846       -14.7444
  60   2.0000      -0.539835       -14.6897
  61   2.0000      -0.531729       -14.4691
  62   2.0000      -0.524676       -14.2772
  63   2.0000      -0.508430       -13.8351
  64   2.0000      -0.502894       -13.6844
  65   2.0000      -0.490966       -13.3599
  66   2.0000      -0.451840       -12.2952
  67   2.0000      -0.445215       -12.1149
  68   2.0000      -0.443262       -12.0618
  69   2.0000      -0.437308       -11.8997
  70   2.0000      -0.423926       -11.5356
  71   2.0000      -0.415243       -11.2993
  72   2.0000      -0.412983       -11.2378
  73   2.0000      -0.386416       -10.5149
  74   2.0000      -0.382486       -10.4080
  75   2.0000      -0.362668        -9.8687
  76   2.0000      -0.353141        -9.6095
  77   2.0000      -0.352707        -9.5976
  78   2.0000      -0.352616        -9.5952
  79   2.0000      -0.340255        -9.2588
  80   2.0000      -0.334626        -9.1056
  81   2.0000      -0.324053        -8.8179
  82   2.0000      -0.322638        -8.7794
  83   2.0000      -0.319045        -8.6816
  84   2.0000      -0.313431        -8.5289
  85   2.0000      -0.302530        -8.2323
  86   2.0000      -0.301271        -8.1980
  87   2.0000      -0.300498        -8.1770
  88   2.0000      -0.298073        -8.1110
  89   2.0000      -0.288358        -7.8466
  90   2.0000      -0.287265        -7.8169
  91   2.0000      -0.281846        -7.6694
  92   2.0000      -0.273283        -7.4364
  93   2.0000      -0.249243        -6.7822
  94   2.0000      -0.231796        -6.3075
  95   0.0000      -0.067188        -1.8283
  96   0.0000      -0.064028        -1.7423
  97   0.0000      -0.046729        -1.2716
  98   0.0000      -0.008273        -0.2251
  99   0.0000       0.013823         0.3761

MULLIKEN ATOMIC CHARGES
-----------------------
   0 C :   -0.496629
   1 C :    0.101682
   2 H :    0.187658
   3 C :   -0.455330
   4 H :    0.209477
   5 C :   -0.455375
   6 H :    0.209486
   7 C :    0.101663
   8 H :    0.187650
   9 C :   -0.171767
  10 H :    0.157753
  11 C :   -0.171895
  12 H :    0.157765
  13 O :   -0.160421
  14 C :    0.535630
  15 C :   -0.165764
  16 C :   -0.165741
  17 C :    0.535833
  18 C :   -0.095464
  19 Cl:   -0.093267
  20 Cl:   -0.065152
  21 Cl:   -0.100703
  22 Cl:   -0.023286
  23 Cl:   -0.023263
  24 Cl:   -0.100717
  25 H :    0.167963
  26 H :    0.192213
Sum of atomic charges:    0.0000000

LOEWDIN ATOMIC CHARGES
----------------------
   0 C :   -0.258112
   1 C :   -0.157973
   2 H :    0.176669
   3 C :   -0.157386
   4 H :    0.190920
   5 C :   -0.157366
   6 H :    0.190913
   7 C :   -0.157996
   8 H :    0.176675
   9 C :    0.091562
  10 H :    0.182986
  11 C :    0.091552
  12 H :    0.182992
  13 O :   -0.648848
  14 C :   -0.221290
  15 C :   -0.245652
  16 C :   -0.245663
  17 C :   -0.221309
  18 C :   -0.270308
  19 Cl:    0.142976
  20 Cl:    0.178027
  21 Cl:    0.167711
  22 Cl:    0.220019
  23 Cl:    0.220027
  24 Cl:    0.167706
  25 H :    0.165659
  26 H :    0.195511

  Mayer bond orders larger than 0.100000
B(  0-C ,  1-C ) :   0.8914 B(  0-C ,  7-C ) :   0.8915 B(  0-C , 13-O ) :   0.1472
B(  0-C , 25-H ) :   0.9375 B(  0-C , 26-H ) :   0.9608 B(  1-C ,  2-H ) :   0.8810
B(  1-C ,  3-C ) :   0.9609 B(  1-C , 11-C ) :   0.9133 B(  1-C , 13-O ) :  -0.1097
B(  3-C ,  4-H ) :   0.9277 B(  3-C ,  5-C ) :   1.0992 B(  3-C , 17-C ) :   0.8615
B(  5-C ,  6-H ) :   0.9277 B(  5-C ,  7-C ) :   0.9608 B(  5-C , 14-C ) :   0.8616
B(  7-C ,  8-H ) :   0.8810 B(  7-C ,  9-C ) :   0.9134 B(  7-C , 13-O ) :  -0.1097
B(  9-C , 10-H ) :   0.9631 B(  9-C , 11-C ) :   1.0779 B(  9-C , 13-O ) :   0.9002
B( 11-C , 12-H ) :   0.9632 B( 11-C , 13-O ) :   0.9002 B( 14-C , 15-C ) :   0.7201
B( 14-C , 18-C ) :   0.8734 B( 14-C , 24-Cl) :   0.9715 B( 15-C , 16-C ) :   1.6074
B( 15-C , 23-Cl) :   1.1875 B( 16-C , 17-C ) :   0.7201 B( 16-C , 22-Cl) :   1.1875
B( 17-C , 18-C ) :   0.8735 B( 17-C , 21-Cl) :   0.9715 B( 18-C , 19-Cl) :   1.0641
B( 18-C , 20-Cl) :   1.0696

Dispersion correction           -0.018900234
FINAL SINGLE POINT ENERGY     -3298.151406566340

DIPOLE MOMENT
-------------

Method             : SCF
Type of density    : Electron Density
Multiplicity       :   1
Irrep              :   0
Energy             : -3298.1508402300673879 Eh
Relativity type    :
Basis              : AO
                                X                 Y                 Z
Electronic contribution:    -27.945810944      -0.001072469      -6.149840010
Nuclear contribution   :     28.367542252       0.001218837       6.897838779
                        -----------------------------------------
Total Dipole Moment    :      0.421731308       0.000146368       0.747998769
                        -----------------------------------------
Magnitude (a.u.)       :      0.858696381
Magnitude (Debye)      :      2.182632745

Rotational constants in cm-1:             0.010241             0.007418             0.007115
Rotational constants in MHz :           307.029750           222.387330           213.312068

                             ****ORCA TERMINATED NORMALLY****
TOTAL RUN TIME: 0 days 0 hours 1 minutes 45 seconds 562 msec
