                         Program Version 6.0.0  -   RELEASE  -
|  1> ! r2scan-3c def2/J RI DEFGRID2 scfconv6 printgap
|  2> %output
|  3>     printlevel normal
|  4> end
|  5> %cpcm
|  6>     smd true
|  7>     smdsolvent "water"
|  8> end
|  9> * xyz 0 1
| 10> C 2.8606321087 0.0004653655 -0.8209345841
| 11> C 2.4859980467 -1.1300087231 0.1357852468
| 12> H 2.6044493392 -2.1473640628 -0.2213648054
| 13> C 1.0724642898 -0.7758774704 0.6454812264
| 14> H 0.9597656617 -1.2021671097 1.6445025713
| 15> C 1.0724514438 0.7759222683 0.6455437769
| 16> H 0.959254172 1.2021720583 1.6445191248
| 17> C 2.4860214976 1.1303915859 0.1363891889
| 18> H 2.6046375608 2.1479642984 -0.2201402389
| 19> C 3.3420120646 0.7345089529 1.3514838659
| 20> H 3.3565247195 1.3427164546 2.243218625
| 21> C 3.3420372131 -0.7348991481 1.351069339
| 22> H 3.3566084254 -1.343689788 2.2424149403
| 23> O 4.5016476574 -8.36058e-05 1.0760546475
| 24> C -0.2443199958 1.1167348838 -0.1067060586
| 25> C -1.2955206041 0.6703195048 0.9149884144
| 26> C -1.2956025111 -0.6697733585 0.9151963577
| 27> C -0.2444433761 -1.1168465712 -0.1062855733
| 28> C -0.5041256011 -0.000262455 -1.1462710405
| 29> Cl -2.2418666539 -0.0003900806 -1.6607263808
| 30> Cl 0.3355143768 -0.0006063951 -2.6797315329
| 31> Cl -0.3947052058 -2.7623655123 -0.6852654148
| 32> Cl -2.1691821258 -1.7434048156 1.8856152319
| 33> Cl -2.1691341353 1.7445264579 1.8847785221
| 34> Cl -0.3941893105 2.762021385 -0.6864414639
| 35> H 2.3311359784 0.000737197 -1.7556313572
| 36> H 3.9309487527 0.0006181679 -1.0200976461
| 37> *
| 38>
| 39>                          ****END OF INPUT****

CARTESIAN COORDINATES (ANGSTROEM)
---------------------------------
  C      2.860632    0.000465   -0.820935
  C      2.485998   -1.130009    0.135785
  H      2.604449   -2.147364   -0.221365
  C      1.072464   -0.775877    0.645481
  H      0.959766   -1.202167    1.644503
  C      1.072451    0.775922    0.645544
  H      0.959254    1.202172    1.644519
  C      2.486021    1.130392    0.136389
  H      2.604638    2.147964   -0.220140
  C      3.342012    0.734509    1.351484
  H      3.356525    1.342716    2.243219
  C      3.342037   -0.734899    1.351069
  H      3.356608   -1.343690    2.242415
  O      4.501648   -0.000084    1.076055
  C     -0.244320    1.116735   -0.106706
  C     -1.295521    0.670320    0.914988
  C     -1.295603   -0.669773    0.915196
  C     -0.244443   -1.116847   -0.106286
  C     -0.504126   -0.000262   -1.146271
  Cl    -2.241867   -0.000390   -1.660726
  Cl     0.335514   -0.000606   -2.679732
  Cl    -0.394705   -2.762366   -0.685265
  Cl    -2.169182   -1.743405    1.885615
  Cl    -2.169134    1.744526    1.884779
  Cl    -0.394189    2.762021   -0.686441
  H      2.331136    0.000737   -1.755631
  H      3.930949    0.000618   -1.020098

 Total Charge           Charge          ....    0
 Multiplicity           Mult            ....    1
 Number of Electrons    NEL             ....  190
 Basis Dimension        Dim             ....  454

ORBITAL ENERGIES
----------------

  NO   OCC          E(Eh)            E(eV)
   0   2.0000    -101.253094     -2755.2367
   1   2.0000    -101.253082     -2755.2364
   2   2.0000    -101.243257     -2754.9691
   3   2.0000    -101.235448     -2754.7566
   4   2.0000    -101.235445     -2754.7565
   5   2.0000    -101.228569     -2754.5694
   6   2.0000     -18.979147      -516.4489
   7   2.0000     -10.198120      -277.5050
   8   2.0000     -10.156883      -276.3828
   9   2.0000     -10.156880      -276.3827
  10   2.0000     -10.128490      -275.6102
  11   2.0000     -10.127800      -275.5915
  12   2.0000     -10.088612      -274.5251
  13   2.0000     -10.088378      -274.5187
  14   2.0000     -10.071801      -274.0676
  15   2.0000     -10.071691      -274.0646
  16   2.0000     -10.050150      -273.4785
  17   2.0000     -10.050141      -273.4782
  18   2.0000     -10.020087      -272.6604
  19   2.0000      -9.408415      -256.0160
  20   2.0000      -9.408405      -256.0157
  21   2.0000      -9.399801      -255.7816
  22   2.0000      -9.391305      -255.5504
  23   2.0000      -9.391302      -255.5503
  24   2.0000      -9.384767      -255.3725
  25   2.0000      -7.154926      -194.6954
  26   2.0000      -7.154916      -194.6952
  27   2.0000      -7.146519      -194.4667
  28   2.0000      -7.144745      -194.4184
  29   2.0000      -7.144735      -194.4181
  30   2.0000      -7.143947      -194.3967
  31   2.0000      -7.143937      -194.3964
  32   2.0000      -7.137862      -194.2311
  33   2.0000      -7.137859      -194.2310
  34   2.0000      -7.135628      -194.1703
  35   2.0000      -7.135352      -194.1628
  36   2.0000      -7.131637      -194.0617
  37   2.0000      -7.127275      -193.9430
  38   2.0000      -7.127273      -193.9430
  39   2.0000      -7.127054      -193.9370
  40   2.0000      -7.127052      -193.9369
  41   2.0000      -7.120742      -193.7652
  42   2.0000      -7.120153      -193.7492
  43   2.0000      -1.076353       -29.2890
  44   2.0000      -0.962910       -26.2021
  45   2.0000      -0.886095       -24.1119
  46   2.0000      -0.872099       -23.7310
  47   2.0000      -0.858346       -23.3568
  48   2.0000      -0.838173       -22.8079
  49   2.0000      -0.831665       -22.6308
  50   2.0000      -0.808981       -22.0135
  51   2.0000      -0.790059       -21.4986
  52   2.0000      -0.719405       -19.5760
  53   2.0000      -0.706398       -19.2221
  54   2.0000      -0.671936       -18.2843
  55   2.0000      -0.671271       -18.2662
  56   2.0000      -0.645745       -17.5716
  57   2.0000      -0.578841       -15.7511
  58   2.0000      -0.561735       -15.2856
  59   2.0000      -0.532227       -14.4826
  60   2.0000      -0.529590       -14.4109
  61   2.0000      -0.525575       -14.3016
  62   2.0000      -0.511658       -13.9229
  63   2.0000      -0.504049       -13.7159
  64   2.0000      -0.494975       -13.4689
  65   2.0000      -0.483194       -13.1484
  66   2.0000      -0.446398       -12.1471
  67   2.0000      -0.438077       -11.9207
  68   2.0000      -0.437845       -11.9144
  69   2.0000      -0.429913       -11.6985
  70   2.0000      -0.419326       -11.4104
  71   2.0000      -0.411642       -11.2013
  72   2.0000      -0.409365       -11.1394
  73   2.0000      -0.382239       -10.4012
  74   2.0000      -0.370116       -10.0714
  75   2.0000      -0.356072        -9.6892
  76   2.0000      -0.347272        -9.4497
  77   2.0000      -0.342594        -9.3225
  78   2.0000      -0.339369        -9.2347
  79   2.0000      -0.330797        -9.0014
  80   2.0000      -0.326934        -8.8963
  81   2.0000      -0.322377        -8.7723
  82   2.0000      -0.321230        -8.7411
  83   2.0000      -0.312283        -8.4977
  84   2.0000      -0.307523        -8.3681
  85   2.0000      -0.302589        -8.2339
  86   2.0000      -0.300633        -8.1807
  87   2.0000      -0.299055        -8.1377
  88   2.0000      -0.293705        -7.9921
  89   2.0000      -0.286346        -7.7919
  90   2.0000      -0.279682        -7.6105
  91   2.0000      -0.278450        -7.5770
  92   2.0000      -0.272219        -7.4075
  93   2.0000      -0.240880        -6.5547
  94   2.0000      -0.228933        -6.2296
  95   0.0000      -0.063374        -1.7245
  96   0.0000      -0.062150        -1.6912
  97   0.0000      -0.046358        -1.2615
  98   0.0000      -0.007064        -0.1922
  99   0.0000       0.016799         0.4571

MULLIKEN ATOMIC CHARGES
-----------------------
   0 C :   -0.509060
   1 C :    0.090261
   2 H :    0.205507
   3 C :   -0.441995
   4 H :    0.246644
   5 C :   -0.441947
   6 H :    0.246634
   7 C :    0.090248
   8 H :    0.205510
   9 C :   -0.176760
  10 H :    0.188222
  11 C :   -0.176831
  12 H :    0.188233
  13 O :   -0.219735
  14 C :    0.532070
  15 C :   -0.162361
  16 C :   -0.162329
  17 C :    0.532258
  18 C :   -0.109700
  19 Cl:   -0.118202
  20 Cl:   -0.069780
  21 Cl:   -0.118859
  22 Cl:   -0.031038
  23 Cl:   -0.031014
  24 Cl:   -0.118873
  25 H :    0.168974
  26 H :    0.193925
Sum of atomic charges:    0.0000000

LOEWDIN ATOMIC CHARGES
----------------------
   0 C :   -0.261989
   1 C :   -0.155001
   2 H :    0.181745
   3 C :   -0.151701
   4 H :    0.204420
   5 C :   -0.151675
   6 H :    0.204412
   7 C :   -0.155018
   8 H :    0.181754
   9 C :    0.099893
  10 H :    0.195507
  11 C :    0.099882
  12 H :    0.195513
  13 O :   -0.692040
  14 C :   -0.219537
  15 C :   -0.243370
  16 C :   -0.243384
  17 C :   -0.219553
  18 C :   -0.271960
  19 Cl:    0.125237
  20 Cl:    0.173435
  21 Cl:    0.157137
  22 Cl:    0.215165
  23 Cl:    0.215176
  24 Cl:    0.157132
  25 H :    0.164794
  26 H :    0.194026

  Mayer bond orders larger than 0.100000
B(  0-C ,  1-C ) :   0.8816 B(  0-C ,  7-C ) :   0.8817 B(  0-C , 13-O ) :   0.1418
B(  0-C , 25-H ) :   0.9401 B(  0-C , 26-H ) :   0.9641 B(  1-C ,  2-H ) :   0.8747
B(  1-C ,  3-C ) :   0.9788 B(  1-C , 11-C ) :   0.9352 B(  1-C , 13-O ) :  -0.1027
B(  3-C ,  4-H ) :   0.9055 B(  3-C ,  5-C ) :   1.0650 B(  3-C , 17-C ) :   0.8613
B(  5-C ,  6-H ) :   0.9055 B(  5-C ,  7-C ) :   0.9787 B(  5-C , 14-C ) :   0.8615
B(  7-C ,  8-H ) :   0.8748 B(  7-C ,  9-C ) :   0.9352 B(  7-C , 13-O ) :  -0.1027
B(  9-C , 10-H ) :   0.9474 B(  9-C , 11-C ) :   1.0749 B(  9-C , 13-O ) :   0.8910
B( 11-C , 12-H ) :   0.9474 B( 11-C , 13-O ) :   0.8910 B( 14-C , 15-C ) :   0.7254
B( 14-C , 18-C ) :   0.8779 B( 14-C , 24-Cl) :   0.9496 B( 15-C , 16-C ) :   1.6211
B( 15-C , 23-Cl) :   1.1748 B( 16-C , 17-C ) :   0.7254 B( 16-C , 22-Cl) :   1.1747
B( 17-C , 18-C ) :   0.8781 B( 17-C , 21-Cl) :   0.9496 B( 18-C , 19-Cl) :   1.0405
B( 18-C , 20-Cl) :   1.0801

Dispersion correction           -0.018900234
FINAL SINGLE POINT ENERGY     -3298.158256183932

DIPOLE MOMENT
-------------

Method             : SCF
Type of density    : Electron Density
Multiplicity       :   1
Irrep              :   0
Energy             : -3298.1576898476591850 Eh
Relativity type    :
Basis              : AO
                                X                 Y                 Z
Electronic contribution:    -27.724161268      -0.001011287      -5.628207254
Nuclear contribution   :     28.367542252       0.001218837       6.897838779
                        -----------------------------------------
Total Dipole Moment    :      0.643380985       0.000207550       1.269631524
                        -----------------------------------------
Magnitude (a.u.)       :      1.423342314
Magnitude (Debye)      :      3.617848647

Rotational constants in cm-1:             0.010241             0.007418             0.007115
Rotational constants in MHz :           307.029750           222.387330           213.312068

                             ****ORCA TERMINATED NORMALLY****
TOTAL RUN TIME: 0 days 0 hours 2 minutes 10 seconds 625 msec
