                         Program Version 6.0.0  -   RELEASE  -
|  1> ! r2scan-3c def2/J RI DEFGRID2 scfconv6 printgap
|  2> %output
|  3>     printlevel normal
|  4> end
|  5> * xyz 0 1
|  6> C -3.8393431362 0.1766153528 1.5257042813
|  7> N -2.5908662874 0.1515226516 0.795513431
|  8> C -2.4847460319 -0.3584249174 -0.4365198938
|  9> O -3.4037820222 -0.8592523706 -1.0607184289
| 10> O -1.2576967261 -0.3452663145 -1.0077349838
| 11> C -0.205305988 0.4210155755 -0.5021731631
| 12> C -0.3143486411 1.7820937977 -0.3675460579
| 13> C 0.783074292 2.5334945556 0.0785292454
| 14> C 1.9673940142 1.9213536704 0.378397932
| 15> C 2.1120736123 0.5248444481 0.2396898778
| 16> C 1.0097111928 -0.2495177835 -0.2104064903
| 17> C 1.1549469213 -1.6449410541 -0.351612308
| 18> C 2.3446650274 -2.2505442736 -0.057573203
| 19> C 3.4371169496 -1.4898002795 0.3883805538
| 20> C 3.3240641322 -0.1352946691 0.5334764517
| 21> H -4.6094430353 -0.248251681 0.8852655935
| 22> H -4.1002748869 1.2030167588 1.7802322217
| 23> H -3.7549935802 -0.4166774563 2.4351880472
| 24> H -1.7677025754 0.5044036556 1.262004883
| 25> H -1.2436403117 2.2721930036 -0.6164682662
| 26> H 0.6758564042 3.6019684484 0.1761247491
| 27> H 2.8124284643 2.498223884 0.720859795
| 28> H 0.308710263 -2.2168746881 -0.7023593159
| 29> H 2.4502346477 -3.3188258167 -0.1683001879
| 30> H 4.3684226223 -1.9860856616 0.6142016525
| 31> H 4.1624552169 0.4533437362 0.8738193665
| 32> *
| 33>
| 34>                          ****END OF INPUT****

CARTESIAN COORDINATES (ANGSTROEM)
---------------------------------
  C     -3.839343    0.176615    1.525704
  N     -2.590866    0.151523    0.795513
  C     -2.484746   -0.358425   -0.436520
  O     -3.403782   -0.859252   -1.060718
  O     -1.257697   -0.345266   -1.007735
  C     -0.205306    0.421016   -0.502173
  C     -0.314349    1.782094   -0.367546
  C      0.783074    2.533495    0.078529
  C      1.967394    1.921354    0.378398
  C      2.112074    0.524844    0.239690
  C      1.009711   -0.249518   -0.210406
  C      1.154947   -1.644941   -0.351612
  C      2.344665   -2.250544   -0.057573
  C      3.437117   -1.489800    0.388381
  C      3.324064   -0.135295    0.533476
  H     -4.609443   -0.248252    0.885266
  H     -4.100275    1.203017    1.780232
  H     -3.754994   -0.416677    2.435188
  H     -1.767703    0.504404    1.262005
  H     -1.243640    2.272193   -0.616468
  H      0.675856    3.601968    0.176125
  H      2.812428    2.498224    0.720860
  H      0.308710   -2.216875   -0.702359
  H      2.450235   -3.318826   -0.168300
  H      4.368423   -1.986086    0.614202
  H      4.162455    0.453344    0.873819

 Total Charge           Charge          ....    0
 Multiplicity           Mult            ....    1
 Number of Electrons    NEL             ....  106
 Basis Dimension        Dim             ....  355

ORBITAL ENERGIES
----------------

  NO   OCC          E(Eh)            E(eV)
   0   2.0000     -19.007436      -517.2186
   1   2.0000     -18.909867      -514.5636
   2   2.0000     -14.196629      -386.3099
   3   2.0000     -10.174924      -276.8738
   4   2.0000     -10.114796      -275.2376
   5   2.0000     -10.070017      -274.0191
   6   2.0000     -10.061204      -273.7793
   7   2.0000     -10.060801      -273.7683
   8   2.0000     -10.053483      -273.5692
   9   2.0000     -10.053078      -273.5582
  10   2.0000     -10.048786      -273.4414
  11   2.0000     -10.048422      -273.4315
  12   2.0000     -10.047466      -273.4054
  13   2.0000     -10.046597      -273.3818
  14   2.0000     -10.046060      -273.3672
  15   2.0000      -1.081690       -29.4343
  16   2.0000      -0.980745       -26.6874
  17   2.0000      -0.901614       -24.5342
  18   2.0000      -0.859864       -23.3981
  19   2.0000      -0.807784       -21.9809
  20   2.0000      -0.758063       -20.6279
  21   2.0000      -0.729493       -19.8505
  22   2.0000      -0.706722       -19.2309
  23   2.0000      -0.687809       -18.7162
  24   2.0000      -0.625124       -17.0105
  25   2.0000      -0.602812       -16.4033
  26   2.0000      -0.598337       -16.2816
  27   2.0000      -0.563477       -15.3330
  28   2.0000      -0.540065       -14.6959
  29   2.0000      -0.504025       -13.7152
  30   2.0000      -0.486743       -13.2450
  31   2.0000      -0.477178       -12.9847
  32   2.0000      -0.459622       -12.5069
  33   2.0000      -0.447034       -12.1644
  34   2.0000      -0.426552       -11.6071
  35   2.0000      -0.411272       -11.1913
  36   2.0000      -0.408554       -11.1173
  37   2.0000      -0.403772       -10.9872
  38   2.0000      -0.391084       -10.6419
  39   2.0000      -0.389129       -10.5887
  40   2.0000      -0.380198       -10.3457
  41   2.0000      -0.371951       -10.1213
  42   2.0000      -0.365790        -9.9536
  43   2.0000      -0.353745        -9.6259
  44   2.0000      -0.327776        -8.9193
  45   2.0000      -0.323593        -8.8054
  46   2.0000      -0.317018        -8.6265
  47   2.0000      -0.291277        -7.9260
  48   2.0000      -0.266844        -7.2612
  49   2.0000      -0.248725        -6.7682
  50   2.0000      -0.239649        -6.5212
  51   2.0000      -0.234892        -6.3917
  52   2.0000      -0.211498        -5.7552
  53   0.0000      -0.080670        -2.1951
  54   0.0000      -0.051529        -1.4022
  55   0.0000      -0.013644        -0.3713
  56   0.0000       0.024887         0.6772
  57   0.0000       0.048820         1.3284

MULLIKEN ATOMIC CHARGES
-----------------------
   0 C :   -0.397316
   1 N :   -0.178439
   2 C :    0.312269
   3 O :   -0.444956
   4 O :   -0.130618
   5 C :    0.172760
   6 C :   -0.191582
   7 C :   -0.139369
   8 C :   -0.256462
   9 C :    0.173152
  10 C :    0.014705
  11 C :   -0.249802
  12 C :   -0.139487
  13 C :   -0.134957
  14 C :   -0.217922
  15 H :    0.199828
  16 H :    0.143888
  17 H :    0.146114
  18 H :    0.251437
  19 H :    0.160242
  20 H :    0.149136
  21 H :    0.146341
  22 H :    0.170965
  23 H :    0.148040
  24 H :    0.147210
  25 H :    0.144824
Sum of atomic charges:    0.0000000

LOEWDIN ATOMIC CHARGES
----------------------
   0 C :   -0.108499
   1 N :   -0.626025
   2 C :    0.452773
   3 O :   -0.394117
   4 O :   -0.487724
   5 C :    0.204167
   6 C :   -0.139604
   7 C :   -0.156387
   8 C :   -0.147619
   9 C :   -0.053486
  10 C :   -0.023937
  11 C :   -0.121541
  12 C :   -0.155980
  13 C :   -0.155696
  14 C :   -0.141813
  15 H :    0.207334
  16 H :    0.169124
  17 H :    0.170659
  18 H :    0.279601
  19 H :    0.185016
  20 H :    0.171271
  21 H :    0.172435
  22 H :    0.188536
  23 H :    0.170253
  24 H :    0.169230
  25 H :    0.172027

  Mayer bond orders larger than 0.100000
B(  0-C ,  1-N ) :   0.8973 B(  0-C , 15-H ) :   0.9542 B(  0-C , 16-H ) :   0.9630
B(  0-C , 17-H ) :   0.9608 B(  1-N ,  2-C ) :   1.1612 B(  1-N , 18-H ) :   0.9134
B(  2-C ,  3-O ) :   1.9420 B(  2-C ,  4-O ) :   1.0425 B(  4-O ,  5-C ) :   0.8392
B(  5-C ,  6-C ) :   1.4867 B(  5-C , 10-C ) :   1.3001 B(  5-C , 11-C ) :  -0.1035
B(  6-C ,  7-C ) :   1.2178 B(  6-C , 19-H ) :   0.9387 B(  7-C ,  8-C ) :   1.4944
B(  7-C , 20-H ) :   0.9583 B(  8-C ,  9-C ) :   1.1718 B(  8-C , 21-H ) :   0.9475
B(  9-C , 10-C ) :   1.4081 B(  9-C , 14-C ) :   1.1852 B( 10-C , 11-C ) :   1.2907
B( 11-C , 12-C ) :   1.4735 B( 11-C , 22-H ) :   0.9588 B( 12-C , 13-C ) :   1.2585
B( 12-C , 23-H ) :   0.9540 B( 13-C , 14-C ) :   1.5114 B( 13-C , 24-H ) :   0.9487
B( 14-C , 25-H ) :   0.9513

Dispersion correction           -0.010890980
FINAL SINGLE POINT ENERGY      -668.973568919675

DIPOLE MOMENT
-------------

Method             : SCF
Type of density    : Electron Density
Multiplicity       :   1
Irrep              :   0
Energy             :  -668.9774374957693226 Eh
Relativity type    :
Basis              : AO
                                X                 Y                 Z
Electronic contribution:      1.725665884      -1.355102537      -5.308526570
Nuclear contribution   :     -0.738056563       2.184350402       6.785391594
                        -----------------------------------------
Total Dipole Moment    :      0.987609320       0.829247866       1.476865024
                        -----------------------------------------
Magnitude (a.u.)       :      1.960651547
Magnitude (Debye)      :      4.983580182

Rotational constants in cm-1:             0.037638             0.013577             0.011263
Rotational constants in MHz :          1128.356185           407.014566           337.649441

                             ****ORCA TERMINATED NORMALLY****
TOTAL RUN TIME: 0 days 0 hours 0 minutes 44 seconds 492 msec
