                         Program Version 6.0.0  -   RELEASE  -
|  1> ! r2scan-3c def2/J RI DEFGRID2 scfconv6 printgap
|  2> %output
|  3>     printlevel normal
|  4> end
|  5> %cpcm
|  6>     smd true
|  7>     smdsolvent "water"
|  8> end
|  9> * xyz 0 1
| 10> C -3.8393431362 0.1766153528 1.5257042813
| 11> N -2.5908662874 0.1515226516 0.795513431
| 12> C -2.4847460319 -0.3584249174 -0.4365198938
| 13> O -3.4037820222 -0.8592523706 -1.0607184289
| 14> O -1.2576967261 -0.3452663145 -1.0077349838
| 15> C -0.205305988 0.4210155755 -0.5021731631
| 16> C -0.3143486411 1.7820937977 -0.3675460579
| 17> C 0.783074292 2.5334945556 0.0785292454
| 18> C 1.9673940142 1.9213536704 0.378397932
| 19> C 2.1120736123 0.5248444481 0.2396898778
| 20> C 1.0097111928 -0.2495177835 -0.2104064903
| 21> C 1.1549469213 -1.6449410541 -0.351612308
| 22> C 2.3446650274 -2.2505442736 -0.057573203
| 23> C 3.4371169496 -1.4898002795 0.3883805538
| 24> C 3.3240641322 -0.1352946691 0.5334764517
| 25> H -4.6094430353 -0.248251681 0.8852655935
| 26> H -4.1002748869 1.2030167588 1.7802322217
| 27> H -3.7549935802 -0.4166774563 2.4351880472
| 28> H -1.7677025754 0.5044036556 1.262004883
| 29> H -1.2436403117 2.2721930036 -0.6164682662
| 30> H 0.6758564042 3.6019684484 0.1761247491
| 31> H 2.8124284643 2.498223884 0.720859795
| 32> H 0.308710263 -2.2168746881 -0.7023593159
| 33> H 2.4502346477 -3.3188258167 -0.1683001879
| 34> H 4.3684226223 -1.9860856616 0.6142016525
| 35> H 4.1624552169 0.4533437362 0.8738193665
| 36> *
| 37>
| 38>                          ****END OF INPUT****

CARTESIAN COORDINATES (ANGSTROEM)
---------------------------------
  C     -3.839343    0.176615    1.525704
  N     -2.590866    0.151523    0.795513
  C     -2.484746   -0.358425   -0.436520
  O     -3.403782   -0.859252   -1.060718
  O     -1.257697   -0.345266   -1.007735
  C     -0.205306    0.421016   -0.502173
  C     -0.314349    1.782094   -0.367546
  C      0.783074    2.533495    0.078529
  C      1.967394    1.921354    0.378398
  C      2.112074    0.524844    0.239690
  C      1.009711   -0.249518   -0.210406
  C      1.154947   -1.644941   -0.351612
  C      2.344665   -2.250544   -0.057573
  C      3.437117   -1.489800    0.388381
  C      3.324064   -0.135295    0.533476
  H     -4.609443   -0.248252    0.885266
  H     -4.100275    1.203017    1.780232
  H     -3.754994   -0.416677    2.435188
  H     -1.767703    0.504404    1.262005
  H     -1.243640    2.272193   -0.616468
  H      0.675856    3.601968    0.176125
  H      2.812428    2.498224    0.720860
  H      0.308710   -2.216875   -0.702359
  H      2.450235   -3.318826   -0.168300
  H      4.368423   -1.986086    0.614202
  H      4.162455    0.453344    0.873819

 Total Charge           Charge          ....    0
 Multiplicity           Mult            ....    1
 Number of Electrons    NEL             ....  106
 Basis Dimension        Dim             ....  355

ORBITAL ENERGIES
----------------

  NO   OCC          E(Eh)            E(eV)
   0   2.0000     -19.015382      -517.4349
   1   2.0000     -18.932484      -515.1791
   2   2.0000     -14.194276      -386.2459
   3   2.0000     -10.188601      -277.2459
   4   2.0000     -10.110499      -275.1207
   5   2.0000     -10.056818      -273.6599
   6   2.0000     -10.056460      -273.6502
   7   2.0000     -10.054029      -273.5840
   8   2.0000     -10.044610      -273.3277
   9   2.0000     -10.042297      -273.2648
  10   2.0000     -10.040498      -273.2158
  11   2.0000     -10.039331      -273.1841
  12   2.0000     -10.038914      -273.1727
  13   2.0000     -10.038663      -273.1659
  14   2.0000     -10.038014      -273.1482
  15   2.0000      -1.091395       -29.6984
  16   2.0000      -0.998779       -27.1782
  17   2.0000      -0.901234       -24.5238
  18   2.0000      -0.854248       -23.2453
  19   2.0000      -0.800729       -21.7889
  20   2.0000      -0.752920       -20.4880
  21   2.0000      -0.721794       -19.6410
  22   2.0000      -0.700988       -19.0749
  23   2.0000      -0.679717       -18.4960
  24   2.0000      -0.622054       -16.9269
  25   2.0000      -0.594794       -16.1852
  26   2.0000      -0.592302       -16.1174
  27   2.0000      -0.559596       -15.2274
  28   2.0000      -0.534557       -14.5460
  29   2.0000      -0.496230       -13.5031
  30   2.0000      -0.477733       -12.9998
  31   2.0000      -0.470188       -12.7945
  32   2.0000      -0.455821       -12.4035
  33   2.0000      -0.445879       -12.1330
  34   2.0000      -0.418163       -11.3788
  35   2.0000      -0.416136       -11.3236
  36   2.0000      -0.402288       -10.9468
  37   2.0000      -0.399863       -10.8808
  38   2.0000      -0.395408       -10.7596
  39   2.0000      -0.383748       -10.4423
  40   2.0000      -0.373302       -10.1581
  41   2.0000      -0.367740       -10.0067
  42   2.0000      -0.357955        -9.7404
  43   2.0000      -0.349040        -9.4979
  44   2.0000      -0.322930        -8.7874
  45   2.0000      -0.316080        -8.6010
  46   2.0000      -0.310231        -8.4418
  47   2.0000      -0.295176        -8.0321
  48   2.0000      -0.267975        -7.2920
  49   2.0000      -0.265061        -7.2127
  50   2.0000      -0.244820        -6.6619
  51   2.0000      -0.237705        -6.4683
  52   2.0000      -0.207133        -5.6364
  53   0.0000      -0.075224        -2.0469
  54   0.0000      -0.045376        -1.2348
  55   0.0000      -0.009484        -0.2581
  56   0.0000       0.015194         0.4134
  57   0.0000       0.057177         1.5559

MULLIKEN ATOMIC CHARGES
-----------------------
   0 C :   -0.409906
   1 N :   -0.195952
   2 C :    0.345986
   3 O :   -0.551565
   4 O :   -0.149754
   5 C :    0.180412
   6 C :   -0.177513
   7 C :   -0.181228
   8 C :   -0.266675
   9 C :    0.118108
  10 C :    0.025511
  11 C :   -0.280690
  12 C :   -0.180485
  13 C :   -0.168194
  14 C :   -0.231942
  15 H :    0.186702
  16 H :    0.171830
  17 H :    0.172640
  18 H :    0.304061
  19 H :    0.192849
  20 H :    0.183447
  21 H :    0.181898
  22 H :    0.188724
  23 H :    0.180022
  24 H :    0.180461
  25 H :    0.181253
Sum of atomic charges:    0.0000000

LOEWDIN ATOMIC CHARGES
----------------------
   0 C :   -0.103688
   1 N :   -0.593674
   2 C :    0.453205
   3 O :   -0.479161
   4 O :   -0.504647
   5 C :    0.198462
   6 C :   -0.127379
   7 C :   -0.156682
   8 C :   -0.147586
   9 C :   -0.063973
  10 C :   -0.030121
  11 C :   -0.137069
  12 C :   -0.162619
  13 C :   -0.164379
  14 C :   -0.144509
  15 H :    0.200933
  16 H :    0.181968
  17 H :    0.182510
  18 H :    0.294769
  19 H :    0.196630
  20 H :    0.183609
  21 H :    0.185176
  22 H :    0.192118
  23 H :    0.180784
  24 H :    0.180334
  25 H :    0.184988

  Mayer bond orders larger than 0.100000
B(  0-C ,  1-N ) :   0.8886 B(  0-C , 15-H ) :   0.9556 B(  0-C , 16-H ) :   0.9542
B(  0-C , 17-H ) :   0.9524 B(  1-N ,  2-C ) :   1.2203 B(  1-N , 18-H ) :   0.8952
B(  2-C ,  3-O ) :   1.8529 B(  2-C ,  4-O ) :   1.0668 B(  4-O ,  5-C ) :   0.8242
B(  5-C ,  6-C ) :   1.4768 B(  5-C , 10-C ) :   1.2782 B(  5-C , 11-C ) :  -0.1028
B(  6-C ,  7-C ) :   1.2024 B(  6-C , 19-H ) :   0.9379 B(  7-C ,  8-C ) :   1.4638
B(  7-C , 20-H ) :   0.9683 B(  8-C ,  9-C ) :   1.1749 B(  8-C , 21-H ) :   0.9563
B(  9-C , 10-C ) :   1.3454 B(  9-C , 14-C ) :   1.1887 B( 10-C , 11-C ) :   1.2356
B( 11-C , 12-C ) :   1.4578 B( 11-C , 22-H ) :   0.9697 B( 12-C , 13-C ) :   1.2337
B( 12-C , 23-H ) :   0.9625 B( 13-C , 14-C ) :   1.4767 B( 13-C , 24-H ) :   0.9587
B( 14-C , 25-H ) :   0.9571

Dispersion correction           -0.010890980
FINAL SINGLE POINT ENERGY      -668.988780492760

DIPOLE MOMENT
-------------

Method             : SCF
Type of density    : Electron Density
Multiplicity       :   1
Irrep              :   0
Energy             :  -668.9926490688545755 Eh
Relativity type    :
Basis              : AO
                                X                 Y                 Z
Electronic contribution:      2.120237755      -0.812265703      -4.570344354
Nuclear contribution   :     -0.738056563       2.184350402       6.785391594
                        -----------------------------------------
Total Dipole Moment    :      1.382181192       1.372084700       2.215047240
                        -----------------------------------------
Magnitude (a.u.)       :      2.949487336
Magnitude (Debye)      :      7.497001012

Rotational constants in cm-1:             0.037638             0.013577             0.011263
Rotational constants in MHz :          1128.356185           407.014566           337.649441

                             ****ORCA TERMINATED NORMALLY****
TOTAL RUN TIME: 0 days 0 hours 0 minutes 56 seconds 155 msec
