                         Program Version 6.0.0  -   RELEASE  -
|  1> ! pbe def2-sv(p) def2/J RI DEFGRID1 loosescf d4 GCP(DFT/SV(P)) printgap
|  2> %output
|  3>     printlevel normal
|  4> end
|  5> * xyz 0 1
|  6> C 1.4528243552 0.4104316023 1.1765633518
|  7> C 0.6847251909 0.440270573 -0.1393800347
|  8> C 1.3971534606 -0.4039014545 -1.2037958719
|  9> C -0.7688390142 0.0012203393 -0.0611939983
| 10> O -1.4457919783 -0.0612982158 -1.0721670565
| 11> C -1.3367463025 -0.3340609727 1.2831630234
| 12> H 0.9884816748 1.0450466764 1.9252263051
| 13> H 1.5223735237 -0.6024993341 1.5638779008
| 14> H 2.4631579988 0.7741885048 1.0058610516
| 15> H 0.6485787348 1.4737268319 -0.5073361219
| 16> H 1.5017490215 -1.4307031314 -0.8600467501
| 17> H 2.3854459733 -0.0009981542 -1.4057589837
| 18> H 0.8206997524 -0.4054242446 -2.1259443554
| 19> H -2.3721693466 -0.6462163963 1.1759392452
| 20> H -1.2828450884 0.5374740876 1.93017001
| 21> H -0.755567886 -1.1295932879 1.7410546983
| 22> *
| 23>
| 24>                          ****END OF INPUT****

CARTESIAN COORDINATES (ANGSTROEM)
---------------------------------
  C      1.452824    0.410432    1.176563
  C      0.684725    0.440271   -0.139380
  C      1.397153   -0.403901   -1.203796
  C     -0.768839    0.001220   -0.061194
  O     -1.445792   -0.061298   -1.072167
  C     -1.336746   -0.334061    1.283163
  H      0.988482    1.045047    1.925226
  H      1.522374   -0.602499    1.563878
  H      2.463158    0.774189    1.005861
  H      0.648579    1.473727   -0.507336
  H      1.501749   -1.430703   -0.860047
  H      2.385446   -0.000998   -1.405759
  H      0.820700   -0.405424   -2.125944
  H     -2.372169   -0.646216    1.175939
  H     -1.282845    0.537474    1.930170
  H     -0.755568   -1.129593    1.741055

 Total Charge           Charge          ....    0
 Multiplicity           Mult            ....    1
 Number of Electrons    NEL             ....   48
 Basis Dimension        Dim             ....  104

ORBITAL ENERGIES
----------------

  NO   OCC          E(Eh)            E(eV)
   0   2.0000     -18.734566      -509.7935
   1   2.0000      -9.969692      -271.2891
   2   2.0000      -9.904115      -269.5047
   3   2.0000      -9.885939      -269.0101
   4   2.0000      -9.885701      -269.0036
   5   2.0000      -9.879505      -268.8350
   6   2.0000      -0.931527       -25.3481
   7   2.0000      -0.731105       -19.8944
   8   2.0000      -0.666087       -18.1251
   9   2.0000      -0.617660       -16.8074
  10   2.0000      -0.557861       -15.1802
  11   2.0000      -0.465306       -12.6616
  12   2.0000      -0.425466       -11.5775
  13   2.0000      -0.417987       -11.3740
  14   2.0000      -0.392406       -10.6779
  15   2.0000      -0.380166       -10.3448
  16   2.0000      -0.360137        -9.7998
  17   2.0000      -0.350040        -9.5251
  18   2.0000      -0.346332        -9.4242
  19   2.0000      -0.330552        -8.9948
  20   2.0000      -0.312484        -8.5031
  21   2.0000      -0.301417        -8.2020
  22   2.0000      -0.287997        -7.8368
  23   2.0000      -0.192820        -5.2469
  24   0.0000      -0.050088        -1.3630
  25   0.0000       0.027396         0.7455
  26   0.0000       0.065177         1.7735
  27   0.0000       0.066403         1.8069
  28   0.0000       0.093288         2.5385

MULLIKEN ATOMIC CHARGES
-----------------------
   0 C :   -0.226603
   1 C :   -0.194051
   2 C :   -0.254984
   3 C :   -0.007837
   4 O :   -0.175608
   5 C :   -0.231709
   6 H :    0.100877
   7 H :    0.098264
   8 H :    0.106420
   9 H :    0.103044
  10 H :    0.096231
  11 H :    0.102111
  12 H :    0.123350
  13 H :    0.117413
  14 H :    0.122610
  15 H :    0.120471
Sum of atomic charges:   -0.0000000

LOEWDIN ATOMIC CHARGES
----------------------
   0 C :   -0.333146
   1 C :   -0.184412
   2 C :   -0.322344
   3 C :    0.049841
   4 O :   -0.134646
   5 C :   -0.360081
   6 H :    0.118430
   7 H :    0.118890
   8 H :    0.124527
   9 H :    0.141095
  10 H :    0.117802
  11 H :    0.119314
  12 H :    0.127367
  13 H :    0.134200
  14 H :    0.142344
  15 H :    0.140820

  Mayer bond orders larger than 0.100000
B(  0-C ,  1-C ) :   1.1301 B(  0-C ,  6-H ) :   0.9382 B(  0-C ,  7-H ) :   0.9408
B(  0-C ,  8-H ) :   0.9426 B(  1-C ,  2-C ) :   1.1068 B(  1-C ,  3-C ) :   0.9201
B(  1-C ,  9-H ) :   0.8718 B(  2-C , 10-H ) :   0.9537 B(  2-C , 11-H ) :   0.9515
B(  2-C , 12-H ) :   0.9396 B(  3-C ,  4-O ) :   2.1648 B(  3-C ,  5-C ) :   1.1297
B(  5-C , 13-H ) :   0.9291 B(  5-C , 14-H ) :   0.9148 B(  5-C , 15-H ) :   0.9150

Dispersion correction           -0.011894394
FINAL SINGLE POINT ENERGY      -271.140892347096

DIPOLE MOMENT
-------------

Method             : SCF
Type of density    : Electron Density
Multiplicity       :   1
Irrep              :   0
Energy             :  -271.1951898160567680 Eh
Relativity type    :
Basis              : AO
                                X                 Y                 Z
Electronic contribution:     -4.924749814       0.456089422      -3.344645612
Nuclear contribution   :      5.532404736      -0.362101496       4.152406305
                        -----------------------------------------
Total Dipole Moment    :      0.607654922       0.093987925       0.807760693
                        -----------------------------------------
Magnitude (a.u.)       :      1.015162830
Magnitude (Debye)      :      2.580338851

Rotational constants in cm-1:             0.152872             0.106520             0.070077
Rotational constants in MHz :          4583.001999          3193.391843          2100.841291

                             ****ORCA TERMINATED NORMALLY****
TOTAL RUN TIME: 0 days 0 hours 0 minutes 6 seconds 338 msec
