                         Program Version 6.0.0  -   RELEASE  -
|  1> ! r2scan-3c def2/J RI DEFGRID2 scfconv6 printgap
|  2> %output
|  3>     printlevel normal
|  4> end
|  5> * xyz 0 1
|  6> C -2.2022988127 0.2794770787 0.3821951072
|  7> C -0.9861872252 0.2255146995 -0.5425691111
|  8> C 0.0018200921 -0.7959664029 -0.070607679
|  9> C 1.2858580724 -0.5898692422 0.1803428047
| 10> C 2.0096888659 0.7140028623 0.0265855708
| 11> H -1.898512481 0.5567324457 1.3891667779
| 12> H -2.6911849172 -0.6912945769 0.4271722411
| 13> H -2.9209582964 1.0121177298 0.0229170194
| 14> H -1.3194899063 -0.0439695065 -1.5495209541
| 15> H -0.5230752553 1.2103475597 -0.5912181556
| 16> H -0.4125318747 -1.7853472489 0.0787568817
| 17> H 1.8856760171 -1.4178319448 0.534946898
| 18> H 3.0832323423 0.5621193993 0.0929622318
| 19> H 1.7150342908 1.4083362956 0.813305398
| 20> H 1.7843718675 1.1768861149 -0.9318664069
| 21> *
| 22>
| 23>                          ****END OF INPUT****

CARTESIAN COORDINATES (ANGSTROEM)
---------------------------------
  C     -2.202299    0.279477    0.382195
  C     -0.986187    0.225515   -0.542569
  C      0.001820   -0.795966   -0.070608
  C      1.285858   -0.589869    0.180343
  C      2.009689    0.714003    0.026586
  H     -1.898512    0.556732    1.389167
  H     -2.691185   -0.691295    0.427172
  H     -2.920958    1.012118    0.022917
  H     -1.319490   -0.043970   -1.549521
  H     -0.523075    1.210348   -0.591218
  H     -0.412532   -1.785347    0.078757
  H      1.885676   -1.417832    0.534947
  H      3.083232    0.562119    0.092962
  H      1.715034    1.408336    0.813305
  H      1.784372    1.176886   -0.931866

 Total Charge           Charge          ....    0
 Multiplicity           Mult            ....    1
 Number of Electrons    NEL             ....   40
 Basis Dimension        Dim             ....  145

ORBITAL ENERGIES
----------------

  NO   OCC          E(Eh)            E(eV)
   0   2.0000     -10.027954      -272.8745
   1   2.0000     -10.022584      -272.7284
   2   2.0000     -10.021384      -272.6957
   3   2.0000     -10.019307      -272.6392
   4   2.0000     -10.018365      -272.6136
   5   2.0000      -0.772177       -21.0120
   6   2.0000      -0.717612       -19.5272
   7   2.0000      -0.646826       -17.6010
   8   2.0000      -0.582298       -15.8451
   9   2.0000      -0.493414       -13.4265
  10   2.0000      -0.447813       -12.1856
  11   2.0000      -0.404383       -11.0038
  12   2.0000      -0.396599       -10.7920
  13   2.0000      -0.380375       -10.3505
  14   2.0000      -0.349560        -9.5120
  15   2.0000      -0.337964        -9.1965
  16   2.0000      -0.333095        -9.0640
  17   2.0000      -0.309333        -8.4174
  18   2.0000      -0.289650        -7.8818
  19   2.0000      -0.217563        -5.9202
  20   0.0000      -0.003595        -0.0978
  21   0.0000       0.091683         2.4948
  22   0.0000       0.120756         3.2859
  23   0.0000       0.128808         3.5051
  24   0.0000       0.143018         3.8917

MULLIKEN ATOMIC CHARGES
-----------------------
   0 C :   -0.455066
   1 C :   -0.245200
   2 C :   -0.142782
   3 C :   -0.145735
   4 C :   -0.496705
   5 H :    0.147214
   6 H :    0.142399
   7 H :    0.144311
   8 H :    0.147746
   9 H :    0.139144
  10 H :    0.146329
  11 H :    0.152001
  12 H :    0.145374
  13 H :    0.161627
  14 H :    0.159343
Sum of atomic charges:   -0.0000000

LOEWDIN ATOMIC CHARGES
----------------------
   0 C :   -0.415058
   1 C :   -0.304380
   2 C :   -0.209345
   3 C :   -0.217335
   4 C :   -0.422480
   5 H :    0.152754
   6 H :    0.150061
   7 H :    0.149124
   8 H :    0.160624
   9 H :    0.156973
  10 H :    0.162172
  11 H :    0.159902
  12 H :    0.155640
  13 H :    0.162118
  14 H :    0.159230

  Mayer bond orders larger than 0.100000
B(  0-C ,  1-C ) :   0.8882 B(  0-C ,  5-H ) :   0.9775 B(  0-C ,  6-H ) :   0.9811
B(  0-C ,  7-H ) :   0.9722 B(  1-C ,  2-C ) :   0.9346 B(  1-C ,  8-H ) :   0.9726
B(  1-C ,  9-H ) :   0.9792 B(  2-C ,  3-C ) :   1.9463 B(  2-C , 10-H ) :   0.9372
B(  3-C ,  4-C ) :   0.8930 B(  3-C , 11-H ) :   0.9465 B(  4-C , 12-H ) :   0.9738
B(  4-C , 13-H ) :   0.9710 B(  4-C , 14-H ) :   0.9868

Dispersion correction           -0.003266339
FINAL SINGLE POINT ENERGY      -196.459308150668

DIPOLE MOMENT
-------------

Method             : SCF
Type of density    : Electron Density
Multiplicity       :   1
Irrep              :   0
Energy             :  -196.4621857920016055 Eh
Relativity type    :
Basis              : AO
                                X                 Y                 Z
Electronic contribution:      1.188670278      -1.731235678      -0.295081325
Nuclear contribution   :     -1.217219497       1.865175169       0.268900514
                        -----------------------------------------
Total Dipole Moment    :     -0.028549218       0.133939491      -0.026180811
                        -----------------------------------------
Magnitude (a.u.)       :      0.139428405
Magnitude (Debye)      :      0.354398840

Rotational constants in cm-1:             0.381288             0.087909             0.079809
Rotational constants in MHz :         11430.736700          2635.442549          2392.609995

                             ****ORCA TERMINATED NORMALLY****
TOTAL RUN TIME: 0 days 0 hours 0 minutes 10 seconds 931 msec
