                         Program Version 6.0.0  -   RELEASE  -
|  1> ! r2scan-3c def2/J RI DEFGRID2 scfconv6 printgap
|  2> %output
|  3>     printlevel normal
|  4> end
|  5> %cpcm
|  6>     smd true
|  7>     smdsolvent "water"
|  8> end
|  9> * xyz 0 1
| 10> C -2.2022988127 0.2794770787 0.3821951072
| 11> C -0.9861872252 0.2255146995 -0.5425691111
| 12> C 0.0018200921 -0.7959664029 -0.070607679
| 13> C 1.2858580724 -0.5898692422 0.1803428047
| 14> C 2.0096888659 0.7140028623 0.0265855708
| 15> H -1.898512481 0.5567324457 1.3891667779
| 16> H -2.6911849172 -0.6912945769 0.4271722411
| 17> H -2.9209582964 1.0121177298 0.0229170194
| 18> H -1.3194899063 -0.0439695065 -1.5495209541
| 19> H -0.5230752553 1.2103475597 -0.5912181556
| 20> H -0.4125318747 -1.7853472489 0.0787568817
| 21> H 1.8856760171 -1.4178319448 0.534946898
| 22> H 3.0832323423 0.5621193993 0.0929622318
| 23> H 1.7150342908 1.4083362956 0.813305398
| 24> H 1.7843718675 1.1768861149 -0.9318664069
| 25> *
| 26>
| 27>                          ****END OF INPUT****

CARTESIAN COORDINATES (ANGSTROEM)
---------------------------------
  C     -2.202299    0.279477    0.382195
  C     -0.986187    0.225515   -0.542569
  C      0.001820   -0.795966   -0.070608
  C      1.285858   -0.589869    0.180343
  C      2.009689    0.714003    0.026586
  H     -1.898512    0.556732    1.389167
  H     -2.691185   -0.691295    0.427172
  H     -2.920958    1.012118    0.022917
  H     -1.319490   -0.043970   -1.549521
  H     -0.523075    1.210348   -0.591218
  H     -0.412532   -1.785347    0.078757
  H      1.885676   -1.417832    0.534947
  H      3.083232    0.562119    0.092962
  H      1.715034    1.408336    0.813305
  H      1.784372    1.176886   -0.931866

 Total Charge           Charge          ....    0
 Multiplicity           Mult            ....    1
 Number of Electrons    NEL             ....   40
 Basis Dimension        Dim             ....  145

ORBITAL ENERGIES
----------------

  NO   OCC          E(Eh)            E(eV)
   0   2.0000     -10.021736      -272.7053
   1   2.0000     -10.020943      -272.6837
   2   2.0000     -10.018041      -272.6048
   3   2.0000     -10.014086      -272.4971
   4   2.0000     -10.011592      -272.4293
   5   2.0000      -0.769207       -20.9312
   6   2.0000      -0.712484       -19.3877
   7   2.0000      -0.642300       -17.4779
   8   2.0000      -0.577316       -15.7096
   9   2.0000      -0.488897       -13.3036
  10   2.0000      -0.443205       -12.0602
  11   2.0000      -0.399124       -10.8607
  12   2.0000      -0.391205       -10.6452
  13   2.0000      -0.374413       -10.1883
  14   2.0000      -0.343108        -9.3364
  15   2.0000      -0.332227        -9.0403
  16   2.0000      -0.327551        -8.9131
  17   2.0000      -0.302817        -8.2401
  18   2.0000      -0.284699        -7.7471
  19   2.0000      -0.218551        -5.9471
  20   0.0000      -0.003498        -0.0952
  21   0.0000       0.097540         2.6542
  22   0.0000       0.126650         3.4463
  23   0.0000       0.135583         3.6894
  24   0.0000       0.149513         4.0684

MULLIKEN ATOMIC CHARGES
-----------------------
   0 C :   -0.490477
   1 C :   -0.244403
   2 C :   -0.192354
   3 C :   -0.194910
   4 C :   -0.515171
   5 H :    0.153755
   6 H :    0.156681
   7 H :    0.157496
   8 H :    0.158749
   9 H :    0.155426
  10 H :    0.169822
  11 H :    0.175763
  12 H :    0.161892
  13 H :    0.174697
  14 H :    0.173033
Sum of atomic charges:   -0.0000000

LOEWDIN ATOMIC CHARGES
----------------------
   0 C :   -0.422133
   1 C :   -0.306961
   2 C :   -0.223928
   3 C :   -0.231004
   4 C :   -0.428798
   5 H :    0.153583
   6 H :    0.153745
   7 H :    0.153372
   8 H :    0.165125
   9 H :    0.161624
  10 H :    0.167992
  11 H :    0.165667
  12 H :    0.160259
  13 H :    0.167399
  14 H :    0.164058

  Mayer bond orders larger than 0.100000
B(  0-C ,  1-C ) :   0.8785 B(  0-C ,  5-H ) :   0.9759 B(  0-C ,  6-H ) :   0.9784
B(  0-C ,  7-H ) :   0.9691 B(  1-C ,  2-C ) :   0.9211 B(  1-C ,  8-H ) :   0.9664
B(  1-C ,  9-H ) :   0.9805 B(  2-C ,  3-C ) :   1.9117 B(  2-C , 10-H ) :   0.9408
B(  3-C ,  4-C ) :   0.8870 B(  3-C , 11-H ) :   0.9510 B(  4-C , 12-H ) :   0.9703
B(  4-C , 13-H ) :   0.9647 B(  4-C , 14-H ) :   0.9817

Dispersion correction           -0.003266339
FINAL SINGLE POINT ENERGY      -196.458093500497

DIPOLE MOMENT
-------------

Method             : SCF
Type of density    : Electron Density
Multiplicity       :   1
Irrep              :   0
Energy             :  -196.4609711418307540 Eh
Relativity type    :
Basis              : AO
                                X                 Y                 Z
Electronic contribution:      1.168839428      -1.671060793      -0.316875297
Nuclear contribution   :     -1.217219497       1.865175169       0.268900514
                        -----------------------------------------
Total Dipole Moment    :     -0.048380069       0.194114376      -0.047974783
                        -----------------------------------------
Magnitude (a.u.)       :      0.205724577
Magnitude (Debye)      :      0.522910320

Rotational constants in cm-1:             0.381288             0.087909             0.079809
Rotational constants in MHz :         11430.736700          2635.442549          2392.609995

                             ****ORCA TERMINATED NORMALLY****
TOTAL RUN TIME: 0 days 0 hours 0 minutes 13 seconds 721 msec
