                         Program Version 6.0.0  -   RELEASE  -
|  1> ! wb97x-v def2-tzvp def2/J RIJCOSX DEFGRID2 scfconv7 GCP(DFT/TZ) printgap
|  2> %output
|  3>     printlevel normal
|  4> end
|  5> * xyz 0 1
|  6> C 3.3222930807478095 1.076612802978329 0.001326314717209498
|  7> N 2.281384531631946 0.04590091030359506 -0.0013289713627902347
|  8> C 2.493189494123852 -1.2853511095910315 -0.0013229535840461085
|  9> N 1.3677070079365206 -2.0073531244176386 -0.0017438167901825624
| 10> C 0.3877786198167864 -1.0695515171176402 -0.0020930271054657476
| 11> C 0.9056820246335184 0.21484420054354084 -0.0014486591362950878
| 12> C 0.08762290240061837 1.3726454476594825 -0.0009691306545525504
| 13> O 0.45320097785073055 2.5558302172022196 -3.394985174608665e-05
| 14> N -1.2867140009934805 1.0536354713711205 -0.001093031965311682
| 15> C -1.842836841591978 -0.23091615529753556 0.0018558860055503138
| 16> O -3.0623444806605784 -0.4195303723176538 0.008659614301630815
| 17> N -0.9645310798688622 -1.2951497040120743 -0.0037609724740076404
| 18> C -1.5276455859359783 -2.6490332905948675 0.0005719984605854581
| 19> C -2.202074993474649 2.202742670588323 -0.000344406576382766
| 20> H 3.951615751221585 0.9657654963514384 -0.8841871111213718
| 21> H 2.8464109970387708 2.054740178807573 -0.011631305277633742
| 22> H 3.9337319968065567 0.9807717240166562 0.9010898368682159
| 23> H 3.492506088858936 -1.7003214967743459 -0.0009584555178127688
| 24> H -2.1700176537101825 -2.7881754717477456 -0.8717558851588855
| 25> H -2.112418903129254 -2.80982511745059 0.9093889483709847
| 26> H -0.7058781290593731 -3.361341624499393 -0.03497867384053643
| 27> H -3.225044892507375 1.8360886471048532 -0.00827756532515541
| 28> H -2.0247496880402567 2.8173236882695107 -0.8859568438982469
| 29> H -2.035648824828933 2.809233486670416 0.8930561128938903
| 30> *
| 31>
| 32>                          ****END OF INPUT****

CARTESIAN COORDINATES (ANGSTROEM)
---------------------------------
  C      3.322293    1.076613    0.001326
  N      2.281385    0.045901   -0.001329
  C      2.493189   -1.285351   -0.001323
  N      1.367707   -2.007353   -0.001744
  C      0.387779   -1.069552   -0.002093
  C      0.905682    0.214844   -0.001449
  C      0.087623    1.372645   -0.000969
  O      0.453201    2.555830   -0.000034
  N     -1.286714    1.053635   -0.001093
  C     -1.842837   -0.230916    0.001856
  O     -3.062344   -0.419530    0.008660
  N     -0.964531   -1.295150   -0.003761
  C     -1.527646   -2.649033    0.000572
  C     -2.202075    2.202743   -0.000344
  H      3.951616    0.965765   -0.884187
  H      2.846411    2.054740   -0.011631
  H      3.933732    0.980772    0.901090
  H      3.492506   -1.700321   -0.000958
  H     -2.170018   -2.788175   -0.871756
  H     -2.112419   -2.809825    0.909389
  H     -0.705878   -3.361342   -0.034979
  H     -3.225045    1.836089   -0.008278
  H     -2.024750    2.817324   -0.885957
  H     -2.035649    2.809233    0.893056

 Total Charge           Charge          ....    0
 Multiplicity           Mult            ....    1
 Number of Electrons    NEL             ....  102
 Basis Dimension        Dim             ....  494

ORBITAL ENERGIES
----------------

  NO   OCC          E(Eh)            E(eV)
   0   2.0000     -21.649626      -589.1163
   1   2.0000     -21.642173      -588.9135
   2   2.0000     -16.617358      -452.1813
   3   2.0000     -16.591996      -451.4912
   4   2.0000     -16.586492      -451.3414
   5   2.0000     -16.537427      -450.0063
   6   2.0000     -12.193610      -331.8050
   7   2.0000     -12.173904      -331.2688
   8   2.0000     -12.135703      -330.2293
   9   2.0000     -12.135213      -330.2159
  10   2.0000     -12.107970      -329.4746
  11   2.0000     -12.092142      -329.0439
  12   2.0000     -12.085546      -328.8644
  13   2.0000     -12.074767      -328.5711
  14   2.0000      -1.709970       -46.5307
  15   2.0000      -1.700821       -46.2817
  16   2.0000      -1.637528       -44.5594
  17   2.0000      -1.579790       -42.9883
  18   2.0000      -1.537180       -41.8288
  19   2.0000      -1.500667       -40.8352
  20   2.0000      -1.349756       -36.7287
  21   2.0000      -1.279202       -34.8089
  22   2.0000      -1.266075       -34.4517
  23   2.0000      -1.249467       -33.9997
  24   2.0000      -1.212191       -32.9854
  25   2.0000      -1.181823       -32.1591
  26   2.0000      -1.132196       -30.8086
  27   2.0000      -1.104892       -30.0656
  28   2.0000      -1.080252       -29.3952
  29   2.0000      -1.043630       -28.3986
  30   2.0000      -1.034140       -28.1404
  31   2.0000      -1.008451       -27.4413
  32   2.0000      -0.978574       -26.6284
  33   2.0000      -0.973848       -26.4997
  34   2.0000      -0.953066       -25.9342
  35   2.0000      -0.947954       -25.7951
  36   2.0000      -0.944924       -25.7127
  37   2.0000      -0.921162       -25.0661
  38   2.0000      -0.891803       -24.2672
  39   2.0000      -0.882621       -24.0173
  40   2.0000      -0.872093       -23.7309
  41   2.0000      -0.867977       -23.6189
  42   2.0000      -0.860342       -23.4111
  43   2.0000      -0.857589       -23.3362
  44   2.0000      -0.846340       -23.0301
  45   2.0000      -0.835545       -22.7363
  46   2.0000      -0.823581       -22.4108
  47   2.0000      -0.804832       -21.9006
  48   2.0000      -0.780508       -21.2387
  49   2.0000      -0.756251       -20.5786
  50   2.0000      -0.668975       -18.2037
  51   0.0000      -0.347687        -9.4610
  52   0.0000      -0.295896        -8.0517
  53   0.0000      -0.265292        -7.2190
  54   0.0000      -0.183132        -4.9833
  55   0.0000      -0.159290        -4.3345

MULLIKEN ATOMIC CHARGES
-----------------------
   0 C :   -0.311843
   1 N :    0.001873
   2 C :    0.027899
   3 N :   -0.301325
   4 C :    0.169598
   5 C :   -0.131236
   6 C :    0.260848
   7 O :   -0.406177
   8 N :   -0.053264
   9 C :    0.266091
  10 O :   -0.408708
  11 N :   -0.053516
  12 C :   -0.271932
  13 C :   -0.277522
  14 H :    0.139259
  15 H :    0.188257
  16 H :    0.139476
  17 H :    0.154521
  18 H :    0.137573
  19 H :    0.135083
  20 H :    0.160336
  21 H :    0.171636
  22 H :    0.131768
  23 H :    0.131303
Sum of atomic charges:    0.0000000

LOEWDIN ATOMIC CHARGES
----------------------
   0 C :   -0.239756
   1 N :    0.259737
   2 C :   -0.230430
   3 N :    0.098632
   4 C :   -0.244548
   5 C :   -0.175028
   6 C :   -0.365517
   7 O :    0.044425
   8 N :    0.232187
   9 C :   -0.425089
  10 O :    0.038953
  11 N :    0.236947
  12 C :   -0.241733
  13 C :   -0.250372
  14 H :    0.121523
  15 H :    0.136544
  16 H :    0.121500
  17 H :    0.136792
  18 H :    0.123205
  19 H :    0.122457
  20 H :    0.127561
  21 H :    0.129660
  22 H :    0.121246
  23 H :    0.121104

  Mayer bond orders larger than 0.100000
B(  0-C ,  1-N ) :   0.8863 B(  0-C , 14-H ) :   0.9690 B(  0-C , 15-H ) :   0.9599
B(  0-C , 16-H ) :   0.9688 B(  1-N ,  2-C ) :   1.3376 B(  1-N ,  5-C ) :   1.1650
B(  2-C ,  3-N ) :   1.5842 B(  2-C , 17-H ) :   0.9602 B(  3-N ,  4-C ) :   1.4339
B(  4-C ,  5-C ) :   1.4129 B(  4-C , 11-N ) :   1.1690 B(  5-C ,  6-C ) :   1.0610
B(  6-C ,  7-O ) :   2.0034 B(  6-C ,  8-N ) :   1.1514 B(  8-N ,  9-C ) :   1.1540
B(  8-N , 13-C ) :   0.9037 B(  9-C , 10-O ) :   2.0070 B(  9-C , 11-N ) :   1.1542
B( 11-N , 12-C ) :   0.9035 B( 12-C , 18-H ) :   0.9715 B( 12-C , 19-H ) :   0.9722
B( 12-C , 20-H ) :   0.9626 B( 13-C , 21-H ) :   0.9596 B( 13-C , 22-H ) :   0.9737
B( 13-C , 23-H ) :   0.9740

FINAL SINGLE POINT ENERGY      -680.426925567146

DIPOLE MOMENT
-------------

Method             : SCF
Type of density    : Electron Density
Multiplicity       :   1
Irrep              :   0
Energy             :  -680.4427135091456194 Eh
Relativity type    :
Basis              : AO
                                X                 Y                 Z
Electronic contribution:     -0.204128991      -1.094993737      -0.011093265
Nuclear contribution   :      1.832643444       0.787977667       0.005335710
                        -----------------------------------------
Total Dipole Moment    :      1.628514453      -0.307016070      -0.005757556
                        -----------------------------------------
Magnitude (a.u.)       :      1.657211918
Magnitude (Debye)      :      4.212297938

Rotational constants in cm-1:             0.035334             0.023417             0.014197
Rotational constants in MHz :          1059.291362           702.009698           425.622938

                             ****ORCA TERMINATED NORMALLY****
TOTAL RUN TIME: 0 days 0 hours 8 minutes 32 seconds 477 msec
