                         Program Version 6.0.0  -   RELEASE  -
|  1> ! wb97x-v def2-tzvp def2/J RIJCOSX DEFGRID2 scfconv7 GCP(DFT/TZ) printgap
|  2> %output
|  3>     printlevel normal
|  4> end
|  5> %cpcm
|  6>     smd true
|  7>     smdsolvent "water"
|  8> end
|  9> * xyz 0 1
| 10> C 3.3222930807478095 1.076612802978329 0.001326314717209498
| 11> N 2.281384531631946 0.04590091030359506 -0.0013289713627902347
| 12> C 2.493189494123852 -1.2853511095910315 -0.0013229535840461085
| 13> N 1.3677070079365206 -2.0073531244176386 -0.0017438167901825624
| 14> C 0.3877786198167864 -1.0695515171176402 -0.0020930271054657476
| 15> C 0.9056820246335184 0.21484420054354084 -0.0014486591362950878
| 16> C 0.08762290240061837 1.3726454476594825 -0.0009691306545525504
| 17> O 0.45320097785073055 2.5558302172022196 -3.394985174608665e-05
| 18> N -1.2867140009934805 1.0536354713711205 -0.001093031965311682
| 19> C -1.842836841591978 -0.23091615529753556 0.0018558860055503138
| 20> O -3.0623444806605784 -0.4195303723176538 0.008659614301630815
| 21> N -0.9645310798688622 -1.2951497040120743 -0.0037609724740076404
| 22> C -1.5276455859359783 -2.6490332905948675 0.0005719984605854581
| 23> C -2.202074993474649 2.202742670588323 -0.000344406576382766
| 24> H 3.951615751221585 0.9657654963514384 -0.8841871111213718
| 25> H 2.8464109970387708 2.054740178807573 -0.011631305277633742
| 26> H 3.9337319968065567 0.9807717240166562 0.9010898368682159
| 27> H 3.492506088858936 -1.7003214967743459 -0.0009584555178127688
| 28> H -2.1700176537101825 -2.7881754717477456 -0.8717558851588855
| 29> H -2.112418903129254 -2.80982511745059 0.9093889483709847
| 30> H -0.7058781290593731 -3.361341624499393 -0.03497867384053643
| 31> H -3.225044892507375 1.8360886471048532 -0.00827756532515541
| 32> H -2.0247496880402567 2.8173236882695107 -0.8859568438982469
| 33> H -2.035648824828933 2.809233486670416 0.8930561128938903
| 34> *
| 35>
| 36>                          ****END OF INPUT****

CARTESIAN COORDINATES (ANGSTROEM)
---------------------------------
  C      3.322293    1.076613    0.001326
  N      2.281385    0.045901   -0.001329
  C      2.493189   -1.285351   -0.001323
  N      1.367707   -2.007353   -0.001744
  C      0.387779   -1.069552   -0.002093
  C      0.905682    0.214844   -0.001449
  C      0.087623    1.372645   -0.000969
  O      0.453201    2.555830   -0.000034
  N     -1.286714    1.053635   -0.001093
  C     -1.842837   -0.230916    0.001856
  O     -3.062344   -0.419530    0.008660
  N     -0.964531   -1.295150   -0.003761
  C     -1.527646   -2.649033    0.000572
  C     -2.202075    2.202743   -0.000344
  H      3.951616    0.965765   -0.884187
  H      2.846411    2.054740   -0.011631
  H      3.933732    0.980772    0.901090
  H      3.492506   -1.700321   -0.000958
  H     -2.170018   -2.788175   -0.871756
  H     -2.112419   -2.809825    0.909389
  H     -0.705878   -3.361342   -0.034979
  H     -3.225045    1.836089   -0.008278
  H     -2.024750    2.817324   -0.885957
  H     -2.035649    2.809233    0.893056

 Total Charge           Charge          ....    0
 Multiplicity           Mult            ....    1
 Number of Electrons    NEL             ....  102
 Basis Dimension        Dim             ....  494

ORBITAL ENERGIES
----------------

  NO   OCC          E(Eh)            E(eV)
   0   2.0000     -21.659241      -589.3779
   1   2.0000     -21.656971      -589.3162
   2   2.0000     -16.604617      -451.8346
   3   2.0000     -16.594216      -451.5516
   4   2.0000     -16.591946      -451.4898
   5   2.0000     -16.532327      -449.8675
   6   2.0000     -12.203915      -332.0854
   7   2.0000     -12.180941      -331.4603
   8   2.0000     -12.132688      -330.1472
   9   2.0000     -12.123992      -329.9106
  10   2.0000     -12.087724      -328.9237
  11   2.0000     -12.081617      -328.7575
  12   2.0000     -12.078461      -328.6716
  13   2.0000     -12.073710      -328.5423
  14   2.0000      -1.724851       -46.9356
  15   2.0000      -1.713022       -46.6137
  16   2.0000      -1.628912       -44.3250
  17   2.0000      -1.580656       -43.0118
  18   2.0000      -1.539668       -41.8965
  19   2.0000      -1.493640       -40.6440
  20   2.0000      -1.345090       -36.6018
  21   2.0000      -1.271301       -34.5939
  22   2.0000      -1.258533       -34.2464
  23   2.0000      -1.248263       -33.9670
  24   2.0000      -1.208646       -32.8889
  25   2.0000      -1.181885       -32.1607
  26   2.0000      -1.129004       -30.7218
  27   2.0000      -1.099616       -29.9221
  28   2.0000      -1.086258       -29.5586
  29   2.0000      -1.050327       -28.5809
  30   2.0000      -1.045311       -28.4444
  31   2.0000      -1.000346       -27.2208
  32   2.0000      -0.976650       -26.5760
  33   2.0000      -0.973430       -26.4884
  34   2.0000      -0.951518       -25.8921
  35   2.0000      -0.938557       -25.5394
  36   2.0000      -0.929676       -25.2978
  37   2.0000      -0.929064       -25.2811
  38   2.0000      -0.895188       -24.3593
  39   2.0000      -0.894277       -24.3345
  40   2.0000      -0.877929       -23.8897
  41   2.0000      -0.876551       -23.8522
  42   2.0000      -0.845397       -23.0044
  43   2.0000      -0.844540       -22.9811
  44   2.0000      -0.839927       -22.8556
  45   2.0000      -0.835740       -22.7417
  46   2.0000      -0.818931       -22.2842
  47   2.0000      -0.798187       -21.7198
  48   2.0000      -0.778868       -21.1941
  49   2.0000      -0.750718       -20.4281
  50   2.0000      -0.665058       -18.0971
  51   0.0000      -0.345215        -9.3938
  52   0.0000      -0.301014        -8.1910
  53   0.0000      -0.255890        -6.9631
  54   0.0000      -0.178400        -4.8545
  55   0.0000      -0.157745        -4.2925

MULLIKEN ATOMIC CHARGES
-----------------------
   0 C :   -0.314822
   1 N :    0.018995
   2 C :    0.037939
   3 N :   -0.360042
   4 C :    0.170053
   5 C :   -0.118245
   6 C :    0.311652
   7 O :   -0.517969
   8 N :   -0.027334
   9 C :    0.323311
  10 O :   -0.525968
  11 N :   -0.027345
  12 C :   -0.310426
  13 C :   -0.316071
  14 H :    0.166414
  15 H :    0.164815
  16 H :    0.166274
  17 H :    0.203297
  18 H :    0.158119
  19 H :    0.158277
  20 H :    0.163607
  21 H :    0.163628
  22 H :    0.155837
  23 H :    0.156005
Sum of atomic charges:   -0.0000000

LOEWDIN ATOMIC CHARGES
----------------------
   0 C :   -0.230286
   1 N :    0.268813
   2 C :   -0.203667
   3 N :    0.068065
   4 C :   -0.239258
   5 C :   -0.169385
   6 C :   -0.351356
   7 O :   -0.016827
   8 N :    0.241225
   9 C :   -0.410578
  10 O :   -0.025972
  11 N :    0.246985
  12 C :   -0.240099
  13 C :   -0.251112
  14 H :    0.131531
  15 H :    0.130221
  16 H :    0.131365
  17 H :    0.153762
  18 H :    0.127625
  19 H :    0.127424
  20 H :    0.130118
  21 H :    0.128794
  22 H :    0.126337
  23 H :    0.126276

  Mayer bond orders larger than 0.100000
B(  0-C ,  1-N ) :   0.8770 B(  0-C , 14-H ) :   0.9628 B(  0-C , 15-H ) :   0.9658
B(  0-C , 16-H ) :   0.9627 B(  1-N ,  2-C ) :   1.3576 B(  1-N ,  5-C ) :   1.1643
B(  2-C ,  3-N ) :   1.5458 B(  2-C , 17-H ) :   0.9474 B(  3-N ,  4-C ) :   1.4650
B(  4-C ,  5-C ) :   1.4226 B(  4-C , 11-N ) :   1.1665 B(  5-C ,  6-C ) :   1.0911
B(  6-C ,  7-O ) :   1.9059 B(  6-C ,  8-N ) :   1.1635 B(  8-N ,  9-C ) :   1.1734
B(  8-N , 13-C ) :   0.8879 B(  9-C , 10-O ) :   1.8921 B(  9-C , 11-N ) :   1.1886
B( 11-N , 12-C ) :   0.8854 B( 12-C , 18-H ) :   0.9662 B( 12-C , 19-H ) :   0.9668
B( 12-C , 20-H ) :   0.9608 B( 13-C , 21-H ) :   0.9604 B( 13-C , 22-H ) :   0.9678
B( 13-C , 23-H ) :   0.9681

FINAL SINGLE POINT ENERGY      -680.446165234282

DIPOLE MOMENT
-------------

Method             : SCF
Type of density    : Electron Density
Multiplicity       :   1
Irrep              :   0
Energy             :  -680.4619531762821225 Eh
Relativity type    :
Basis              : AO
                                X                 Y                 Z
Electronic contribution:      0.511145395      -1.358882469      -0.012893213
Nuclear contribution   :      1.832643444       0.787977667       0.005335710
                        -----------------------------------------
Total Dipole Moment    :      2.343788839      -0.570904802      -0.007557503
                        -----------------------------------------
Magnitude (a.u.)       :      2.412329897
Magnitude (Debye)      :      6.131655307

Rotational constants in cm-1:             0.035334             0.023417             0.014197
Rotational constants in MHz :          1059.291362           702.009698           425.622938

                             ****ORCA TERMINATED NORMALLY****
TOTAL RUN TIME: 0 days 0 hours 8 minutes 6 seconds 667 msec
