                         Program Version 6.0.0  -   RELEASE  -
|  1> ! r2scan-3c def2/J RI DEFGRID2 scfconv6 printgap
|  2> %output
|  3>     printlevel normal
|  4> end
|  5> * xyz 0 1
|  6> C -1.49226e-05 -2.5148547042 -3.79622e-05
|  7> C 1.2070960043 -1.8329865596 -7.8689e-06
|  8> C 1.2058033729 -0.4502579717 3.65753e-05
|  9> C 3.7875e-06 0.2626758375 7.66953e-05
| 10> C -1.2058147939 -0.4502395833 7.77981e-05
| 11> C -1.207121854 -1.8329752065 6.7118e-06
| 12> Cl -2.6966405287 0.432278337 -2.98329e-05
| 13> C 1.83047e-05 1.6741130751 2.81903e-05
| 14> N 4.89536e-05 2.8218338916 -2.10355e-05
| 15> Cl 2.6966327153 0.4322476605 -2.07427e-05
| 16> H -1.73615e-05 -3.5925230205 -5.2178e-05
| 17> H 2.1443755382 -2.3632414244 -2.56008e-05
| 18> H -2.1444049386 -2.3632201709 2.4575e-06
| 19> *
| 20>
| 21>                          ****END OF INPUT****

CARTESIAN COORDINATES (ANGSTROEM)
---------------------------------
  C     -0.000015   -2.514855   -0.000038
  C      1.207096   -1.832987   -0.000008
  C      1.205803   -0.450258    0.000037
  C      0.000004    0.262676    0.000077
  C     -1.205815   -0.450240    0.000078
  C     -1.207122   -1.832975    0.000007
  Cl    -2.696641    0.432278   -0.000030
  C      0.000018    1.674113    0.000028
  N      0.000049    2.821834   -0.000021
  Cl     2.696633    0.432248   -0.000021
  H     -0.000017   -3.592523   -0.000052
  H      2.144376   -2.363241   -0.000026
  H     -2.144405   -2.363220    0.000002

 Total Charge           Charge          ....    0
 Multiplicity           Mult            ....    1
 Number of Electrons    NEL             ....   86
 Basis Dimension        Dim             ....  226

ORBITAL ENERGIES
----------------

  NO   OCC          E(Eh)            E(eV)
   0   2.0000    -101.247168     -2755.0755
   1   2.0000    -101.247167     -2755.0755
   2   2.0000     -14.167786      -385.5250
   3   2.0000     -10.144365      -276.0422
   4   2.0000     -10.144362      -276.0421
   5   2.0000     -10.114359      -275.2257
   6   2.0000     -10.086607      -274.4705
   7   2.0000     -10.081300      -274.3261
   8   2.0000     -10.081276      -274.3255
   9   2.0000     -10.080786      -274.3121
  10   2.0000      -9.402723      -255.8611
  11   2.0000      -9.402722      -255.8611
  12   2.0000      -7.149257      -194.5412
  13   2.0000      -7.149257      -194.5412
  14   2.0000      -7.139011      -194.2624
  15   2.0000      -7.139011      -194.2624
  16   2.0000      -7.138235      -194.2413
  17   2.0000      -7.138234      -194.2412
  18   2.0000      -0.917789       -24.9743
  19   2.0000      -0.881584       -23.9891
  20   2.0000      -0.869828       -23.6692
  21   2.0000      -0.822614       -22.3845
  22   2.0000      -0.772565       -21.0226
  23   2.0000      -0.734706       -19.9924
  24   2.0000      -0.649909       -17.6849
  25   2.0000      -0.609357       -16.5814
  26   2.0000      -0.557453       -15.1691
  27   2.0000      -0.497672       -13.5423
  28   2.0000      -0.494085       -13.4447
  29   2.0000      -0.454491       -12.3673
  30   2.0000      -0.443008       -12.0549
  31   2.0000      -0.429638       -11.6911
  32   2.0000      -0.389890       -10.6094
  33   2.0000      -0.383249       -10.4287
  34   2.0000      -0.366310        -9.9678
  35   2.0000      -0.347625        -9.4594
  36   2.0000      -0.338960        -9.2236
  37   2.0000      -0.328041        -8.9264
  38   2.0000      -0.323386        -8.7998
  39   2.0000      -0.315051        -8.5730
  40   2.0000      -0.302350        -8.2274
  41   2.0000      -0.265108        -7.2140
  42   2.0000      -0.257918        -7.0183
  43   0.0000      -0.102632        -2.7928
  44   0.0000      -0.077049        -2.0966
  45   0.0000      -0.035789        -0.9739
  46   0.0000      -0.010207        -0.2777
  47   0.0000       0.010256         0.2791

MULLIKEN ATOMIC CHARGES
-----------------------
   0 C :   -0.074673
   1 C :   -0.221092
   2 C :    0.092509
   3 C :   -0.019890
   4 C :    0.092513
   5 C :   -0.221097
   6 Cl:   -0.082472
   7 C :    0.230811
   8 N :   -0.207925
   9 Cl:   -0.082472
  10 H :    0.158256
  11 H :    0.167766
  12 H :    0.167766
Sum of atomic charges:   -0.0000000

LOEWDIN ATOMIC CHARGES
----------------------
   0 C :   -0.123746
   1 C :   -0.164888
   2 C :   -0.122435
   3 C :   -0.100203
   4 C :   -0.122433
   5 C :   -0.164887
   6 Cl:    0.190826
   7 C :    0.140926
   8 N :   -0.270816
   9 Cl:    0.190828
  10 H :    0.178110
  11 H :    0.184359
  12 H :    0.184359

  Mayer bond orders larger than 0.100000
B(  0-C ,  1-C ) :   1.3674 B(  0-C ,  5-C ) :   1.3674 B(  0-C , 10-H ) :   0.9514
B(  1-C ,  2-C ) :   1.3558 B(  1-C , 11-H ) :   0.9391 B(  2-C ,  3-C ) :   1.2676
B(  2-C ,  9-Cl) :   1.0861 B(  3-C ,  4-C ) :   1.2676 B(  3-C ,  7-C ) :   1.1000
B(  4-C ,  5-C ) :   1.3558 B(  4-C ,  6-Cl) :   1.0861 B(  5-C , 12-H ) :   0.9391
B(  7-C ,  8-N ) :   2.8117

Dispersion correction           -0.005936237
FINAL SINGLE POINT ENERGY     -1243.560156502662

DIPOLE MOMENT
-------------

Method             : SCF
Type of density    : Electron Density
Multiplicity       :   1
Irrep              :   0
Energy             : -1243.5592838172822212 Eh
Relativity type    :
Basis              : AO
                                X                 Y                 Z
Electronic contribution:      0.000004854       6.781864529       0.000021191
Nuclear contribution   :     -0.000033114      -8.949508788      -0.000002898
                        -----------------------------------------
Total Dipole Moment    :     -0.000028260      -2.167644259       0.000018294
                        -----------------------------------------
Magnitude (a.u.)       :      2.167644259
Magnitude (Debye)      :      5.509713843

Rotational constants in cm-1:             0.048851             0.028341             0.017935
Rotational constants in MHz :          1464.503210           849.636783           537.692534

                             ****ORCA TERMINATED NORMALLY****
TOTAL RUN TIME: 0 days 0 hours 0 minutes 26 seconds 376 msec
