                         Program Version 6.0.0  -   RELEASE  -
|  1> ! r2scan-3c def2/J RI DEFGRID2 scfconv6 printgap
|  2> %output
|  3>     printlevel normal
|  4> end
|  5> %cpcm
|  6>     smd true
|  7>     smdsolvent "water"
|  8> end
|  9> * xyz 0 1
| 10> C -1.49226e-05 -2.5148547042 -3.79622e-05
| 11> C 1.2070960043 -1.8329865596 -7.8689e-06
| 12> C 1.2058033729 -0.4502579717 3.65753e-05
| 13> C 3.7875e-06 0.2626758375 7.66953e-05
| 14> C -1.2058147939 -0.4502395833 7.77981e-05
| 15> C -1.207121854 -1.8329752065 6.7118e-06
| 16> Cl -2.6966405287 0.432278337 -2.98329e-05
| 17> C 1.83047e-05 1.6741130751 2.81903e-05
| 18> N 4.89536e-05 2.8218338916 -2.10355e-05
| 19> Cl 2.6966327153 0.4322476605 -2.07427e-05
| 20> H -1.73615e-05 -3.5925230205 -5.2178e-05
| 21> H 2.1443755382 -2.3632414244 -2.56008e-05
| 22> H -2.1444049386 -2.3632201709 2.4575e-06
| 23> *
| 24>
| 25>                          ****END OF INPUT****

CARTESIAN COORDINATES (ANGSTROEM)
---------------------------------
  C     -0.000015   -2.514855   -0.000038
  C      1.207096   -1.832987   -0.000008
  C      1.205803   -0.450258    0.000037
  C      0.000004    0.262676    0.000077
  C     -1.205815   -0.450240    0.000078
  C     -1.207122   -1.832975    0.000007
  Cl    -2.696641    0.432278   -0.000030
  C      0.000018    1.674113    0.000028
  N      0.000049    2.821834   -0.000021
  Cl     2.696633    0.432248   -0.000021
  H     -0.000017   -3.592523   -0.000052
  H      2.144376   -2.363241   -0.000026
  H     -2.144405   -2.363220    0.000002

 Total Charge           Charge          ....    0
 Multiplicity           Mult            ....    1
 Number of Electrons    NEL             ....   86
 Basis Dimension        Dim             ....  226

ORBITAL ENERGIES
----------------

  NO   OCC          E(Eh)            E(eV)
   0   2.0000    -101.242985     -2754.9617
   1   2.0000    -101.242984     -2754.9616
   2   2.0000     -14.175941      -385.7470
   3   2.0000     -10.133732      -275.7529
   4   2.0000     -10.133729      -275.7528
   5   2.0000     -10.106432      -275.0100
   6   2.0000     -10.094075      -274.6737
   7   2.0000     -10.066600      -273.9261
   8   2.0000     -10.063487      -273.8414
   9   2.0000     -10.063449      -273.8404
  10   2.0000      -9.398582      -255.7484
  11   2.0000      -9.398581      -255.7484
  12   2.0000      -7.144981      -194.4248
  13   2.0000      -7.144981      -194.4248
  14   2.0000      -7.134896      -194.1504
  15   2.0000      -7.134895      -194.1504
  16   2.0000      -7.134205      -194.1316
  17   2.0000      -7.134204      -194.1316
  18   2.0000      -0.913535       -24.8586
  19   2.0000      -0.887277       -24.1440
  20   2.0000      -0.863392       -23.4941
  21   2.0000      -0.811771       -22.0894
  22   2.0000      -0.764283       -20.7972
  23   2.0000      -0.721195       -19.6247
  24   2.0000      -0.638126       -17.3643
  25   2.0000      -0.597760       -16.2659
  26   2.0000      -0.545692       -14.8490
  27   2.0000      -0.484536       -13.1849
  28   2.0000      -0.481067       -13.0905
  29   2.0000      -0.439387       -11.9563
  30   2.0000      -0.431687       -11.7468
  31   2.0000      -0.421400       -11.4669
  32   2.0000      -0.373235       -10.1562
  33   2.0000      -0.368700       -10.0328
  34   2.0000      -0.359876        -9.7927
  35   2.0000      -0.355705        -9.6792
  36   2.0000      -0.351231        -9.5575
  37   2.0000      -0.334713        -9.1080
  38   2.0000      -0.315156        -8.5758
  39   2.0000      -0.310718        -8.4551
  40   2.0000      -0.301000        -8.1906
  41   2.0000      -0.259431        -7.0595
  42   2.0000      -0.246879        -6.7179
  43   0.0000      -0.095399        -2.5959
  44   0.0000      -0.063179        -1.7192
  45   0.0000      -0.028529        -0.7763
  46   0.0000      -0.018450        -0.5021
  47   0.0000       0.017242         0.4692

MULLIKEN ATOMIC CHARGES
-----------------------
   0 C :   -0.100081
   1 C :   -0.220290
   2 C :    0.084393
   3 C :    0.042165
   4 C :    0.084378
   5 C :   -0.220279
   6 Cl:   -0.104831
   7 C :    0.220467
   8 N :   -0.294426
   9 Cl:   -0.104831
  10 H :    0.202439
  11 H :    0.205448
  12 H :    0.205447
Sum of atomic charges:   -0.0000000

LOEWDIN ATOMIC CHARGES
----------------------
   0 C :   -0.103590
   1 C :   -0.152616
   2 C :   -0.121825
   3 C :   -0.106420
   4 C :   -0.121823
   5 C :   -0.152615
   6 Cl:    0.174894
   7 C :    0.155989
   8 N :   -0.338523
   9 Cl:    0.174896
  10 H :    0.194935
  11 H :    0.198349
  12 H :    0.198348

  Mayer bond orders larger than 0.100000
B(  0-C ,  1-C ) :   1.3629 B(  0-C ,  5-C ) :   1.3629 B(  0-C , 10-H ) :   0.9481
B(  1-C ,  2-C ) :   1.3363 B(  1-C , 11-H ) :   0.9349 B(  2-C ,  3-C ) :   1.2492
B(  2-C ,  9-Cl) :   1.0782 B(  3-C ,  4-C ) :   1.2491 B(  3-C ,  7-C ) :   1.0792
B(  4-C ,  5-C ) :   1.3363 B(  4-C ,  6-Cl) :   1.0782 B(  5-C , 12-H ) :   0.9349
B(  7-C ,  8-N ) :   2.8110

Dispersion correction           -0.005936237
FINAL SINGLE POINT ENERGY     -1243.565657747321

DIPOLE MOMENT
-------------

Method             : SCF
Type of density    : Electron Density
Multiplicity       :   1
Irrep              :   0
Energy             : -1243.5647850619413930 Eh
Relativity type    :
Basis              : AO
                                X                 Y                 Z
Electronic contribution:     -0.000007143       5.768111861       0.000032172
Nuclear contribution   :     -0.000033114      -8.949508788      -0.000002898
                        -----------------------------------------
Total Dipole Moment    :     -0.000040257      -3.181396927       0.000029274
                        -----------------------------------------
Magnitude (a.u.)       :      3.181396928
Magnitude (Debye)      :      8.086468348

Rotational constants in cm-1:             0.048851             0.028341             0.017935
Rotational constants in MHz :          1464.503210           849.636783           537.692534

                             ****ORCA TERMINATED NORMALLY****
TOTAL RUN TIME: 0 days 0 hours 0 minutes 39 seconds 189 msec
