                         Program Version 6.0.0  -   RELEASE  -
|  1> ! pbe def2-sv(p) def2/J RI DEFGRID1 loosescf d4 GCP(DFT/SV(P)) printgap
|  2> %output
|  3>     printlevel normal
|  4> end
|  5> * xyz 0 1
|  6> C -1.8124798335 0.0410531797 -0.4232652535
|  7> C -1.2016813855 -1.3135886196 -0.0404198768
|  8> C 0.2518598827 -1.1647928053 0.4240933989
|  9> C 0.940422485 -0.0272312395 -0.3327573162
| 10> C 0.2974357122 1.3180117613 0.0494034354
| 11> C -1.1860268777 1.159261231 0.4029679728
| 12> O 2.341457159 -0.0179432031 -0.1279621711
| 13> H -2.8916255654 0.0170938108 -0.2669977768
| 14> H -1.6367961393 0.2458054921 -1.480791413
| 15> H -1.7825639997 -1.7694396629 0.7627239141
| 16> H -1.2469067185 -1.984222073 -0.8996779065
| 17> H 0.2875356572 -0.9441717346 1.4930432113
| 18> H 0.7995808489 -2.0935279759 0.2564414724
| 19> H 0.836125781 -0.2025729573 -1.4090171707
| 20> H 0.8359664318 1.7348777609 0.9033698822
| 21> H 0.416976904 2.0156708082 -0.7806183252
| 22> H -1.2988146997 0.9214796611 1.4618587821
| 23> H -1.7063532615 2.1001722969 0.2202690398
| 24> H 2.5188776407 0.0921598485 0.8170521947
| 25> *
| 26>
| 27>                          ****END OF INPUT****

CARTESIAN COORDINATES (ANGSTROEM)
---------------------------------
  C     -1.812480    0.041053   -0.423265
  C     -1.201681   -1.313589   -0.040420
  C      0.251860   -1.164793    0.424093
  C      0.940422   -0.027231   -0.332757
  C      0.297436    1.318012    0.049403
  C     -1.186027    1.159261    0.402968
  O      2.341457   -0.017943   -0.127962
  H     -2.891626    0.017094   -0.266998
  H     -1.636796    0.245805   -1.480791
  H     -1.782564   -1.769440    0.762724
  H     -1.246907   -1.984222   -0.899678
  H      0.287536   -0.944172    1.493043
  H      0.799581   -2.093528    0.256441
  H      0.836126   -0.202573   -1.409017
  H      0.835966    1.734878    0.903370
  H      0.416977    2.015671   -0.780618
  H     -1.298815    0.921480    1.461859
  H     -1.706353    2.100172    0.220269
  H      2.518878    0.092160    0.817052

 Total Charge           Charge          ....    0
 Multiplicity           Mult            ....    1
 Number of Electrons    NEL             ....   56
 Basis Dimension        Dim             ....  122

ORBITAL ENERGIES
----------------

  NO   OCC          E(Eh)            E(eV)
   0   2.0000     -18.735732      -509.8252
   1   2.0000      -9.931365      -270.2462
   2   2.0000      -9.884308      -268.9657
   3   2.0000      -9.884250      -268.9641
   4   2.0000      -9.883257      -268.9371
   5   2.0000      -9.880779      -268.8697
   6   2.0000      -9.879966      -268.8476
   7   2.0000      -0.913281       -24.8516
   8   2.0000      -0.749040       -20.3824
   9   2.0000      -0.665656       -18.1134
  10   2.0000      -0.650396       -17.6982
  11   2.0000      -0.556640       -15.1470
  12   2.0000      -0.545537       -14.8448
  13   2.0000      -0.488027       -13.2799
  14   2.0000      -0.444161       -12.0862
  15   2.0000      -0.441973       -12.0267
  16   2.0000      -0.398466       -10.8428
  17   2.0000      -0.381875       -10.3914
  18   2.0000      -0.364403        -9.9159
  19   2.0000      -0.347359        -9.4521
  20   2.0000      -0.331622        -9.0239
  21   2.0000      -0.330517        -8.9938
  22   2.0000      -0.315581        -8.5874
  23   2.0000      -0.294472        -8.0130
  24   2.0000      -0.273773        -7.4497
  25   2.0000      -0.272612        -7.4182
  26   2.0000      -0.251959        -6.8561
  27   2.0000      -0.204768        -5.5720
  28   0.0000       0.025839         0.7031
  29   0.0000       0.038262         1.0412
  30   0.0000       0.048054         1.3076
  31   0.0000       0.073398         1.9973
  32   0.0000       0.090777         2.4702

MULLIKEN ATOMIC CHARGES
-----------------------
   0 C :   -0.166304
   1 C :   -0.157986
   2 C :   -0.134537
   3 C :    0.013349
   4 C :   -0.128486
   5 C :   -0.152492
   6 O :   -0.422734
   7 H :    0.086700
   8 H :    0.081299
   9 H :    0.082476
  10 H :    0.085749
  11 H :    0.057618
  12 H :    0.090997
  13 H :    0.066113
  14 H :    0.062224
  15 H :    0.086878
  16 H :    0.074388
  17 H :    0.085836
  18 H :    0.288913
Sum of atomic charges:    0.0000000

LOEWDIN ATOMIC CHARGES
----------------------
   0 C :   -0.231104
   1 C :   -0.228164
   2 C :   -0.244173
   3 C :   -0.055879
   4 C :   -0.238709
   5 C :   -0.230206
   6 O :   -0.326327
   7 H :    0.118428
   8 H :    0.115181
   9 H :    0.117767
  10 H :    0.118541
  11 H :    0.109421
  12 H :    0.120730
  13 H :    0.111873
  14 H :    0.113063
  15 H :    0.120367
  16 H :    0.114328
  17 H :    0.118682
  18 H :    0.276182

  Mayer bond orders larger than 0.100000
B(  0-C ,  1-C ) :   1.1396 B(  0-C ,  5-C ) :   1.1883 B(  0-C ,  7-H ) :   0.9219
B(  0-C ,  8-H ) :   0.9120 B(  1-C ,  2-C ) :   1.1239 B(  1-C ,  9-H ) :   0.9179
B(  1-C , 10-H ) :   0.9209 B(  2-C ,  3-C ) :   1.1399 B(  2-C , 11-H ) :   0.8929
B(  2-C , 12-H ) :   0.9152 B(  3-C ,  4-C ) :   1.0766 B(  3-C ,  6-O ) :   1.0469
B(  3-C , 13-H ) :   0.8895 B(  4-C ,  5-C ) :   1.1225 B(  4-C , 14-H ) :   0.9076
B(  4-C , 15-H ) :   0.9140 B(  5-C , 16-H ) :   0.9062 B(  5-C , 17-H ) :   0.9180
B(  6-O , 18-H ) :   0.8538

Dispersion correction           -0.016274990
FINAL SINGLE POINT ENERGY      -310.336014200078

DIPOLE MOMENT
-------------

Method             : SCF
Type of density    : Electron Density
Multiplicity       :   1
Irrep              :   0
Energy             :  -310.4090428025089068 Eh
Relativity type    :
Basis              : AO
                                X                 Y                 Z
Electronic contribution:      4.099108418      -0.064559477      -0.566311197
Nuclear contribution   :     -4.532251387       0.124814953       1.009120994
                        -----------------------------------------
Total Dipole Moment    :     -0.433142969       0.060255476       0.442809798
                        -----------------------------------------
Magnitude (a.u.)       :      0.622353654
Magnitude (Debye)      :      1.581897273

Rotational constants in cm-1:             0.141428             0.075475             0.055789
Rotational constants in MHz :          4239.895937          2262.672724          1672.514306

                             ****ORCA TERMINATED NORMALLY****
TOTAL RUN TIME: 0 days 0 hours 0 minutes 29 seconds 275 msec
