                         Program Version 6.0.0  -   RELEASE  -
|  1> ! pbe def2-sv(p) def2/J RI DEFGRID1 loosescf d4 GCP(DFT/SV(P)) printgap
|  2> %output
|  3>     printlevel normal
|  4> end
|  5> * xyz 0 1
|  6> C -2.2779405251 -1.1013960796 -0.0843591148
|  7> C -0.8826569674 -0.560615462 0.2556783336
|  8> H -0.7445806422 -0.5530909317 1.3470855331
|  9> C -0.7028483862 0.8750056227 -0.2685933719
| 10> H -1.040901046 0.9118964627 -1.3164201126
| 11> C 0.7853749463 1.2769297714 -0.2676468603
| 12> H 0.8394849674 2.261070829 0.2157158785
| 13> C 1.6393925208 0.2649489302 0.5233539875
| 14> H 2.704388581 0.4848868781 0.3521843459
| 15> C 1.4144959504 -1.1550945508 -0.0411672056
| 16> H 1.7690252102 -1.8832753389 0.7056471171
| 17> O 0.0612957703 -1.4292320003 -0.3438731432
| 18> O 2.1700956118 -1.3694893967 -1.1804998217
| 19> O 1.3550461487 0.2528263318 1.8978969679
| 20> O 1.2300807969 1.3378289598 -1.6045351909
| 21> O -1.4110292844 1.8021641504 0.5141870088
| 22> O -3.2920157119 -0.3693071447 0.5609559843
| 23> H -2.314019996 -2.1647985661 0.1691180961
| 24> H -2.4504958798 -0.998273197 -1.1581621403
| 25> H 1.8388072213 -0.7833136923 -1.8851860602
| 26> H 1.5746096302 1.112163322 2.2881151375
| 27> H 1.9945030966 1.9268581649 -1.6749975103
| 28> H -2.3422873779 1.5210587906 0.5431415067
| 29> H -3.3416299834 -0.6341269343 1.4905698458
| 30> *
| 31>
| 32>                          ****END OF INPUT****

CARTESIAN COORDINATES (ANGSTROEM)
---------------------------------
  C     -2.277941   -1.101396   -0.084359
  C     -0.882657   -0.560615    0.255678
  H     -0.744581   -0.553091    1.347086
  C     -0.702848    0.875006   -0.268593
  H     -1.040901    0.911896   -1.316420
  C      0.785375    1.276930   -0.267647
  H      0.839485    2.261071    0.215716
  C      1.639393    0.264949    0.523354
  H      2.704389    0.484887    0.352184
  C      1.414496   -1.155095   -0.041167
  H      1.769025   -1.883275    0.705647
  O      0.061296   -1.429232   -0.343873
  O      2.170096   -1.369489   -1.180500
  O      1.355046    0.252826    1.897897
  O      1.230081    1.337829   -1.604535
  O     -1.411029    1.802164    0.514187
  O     -3.292016   -0.369307    0.560956
  H     -2.314020   -2.164799    0.169118
  H     -2.450496   -0.998273   -1.158162
  H      1.838807   -0.783314   -1.885186
  H      1.574610    1.112163    2.288115
  H      1.994503    1.926858   -1.674998
  H     -2.342287    1.521059    0.543142
  H     -3.341630   -0.634127    1.490570

 Total Charge           Charge          ....    0
 Multiplicity           Mult            ....    1
 Number of Electrons    NEL             ....   96
 Basis Dimension        Dim             ....  192

ORBITAL ENERGIES
----------------

  NO   OCC          E(Eh)            E(eV)
   0   2.0000     -18.772191      -510.8173
   1   2.0000     -18.771476      -510.7978
   2   2.0000     -18.763202      -510.5727
   3   2.0000     -18.759526      -510.4727
   4   2.0000     -18.740736      -509.9613
   5   2.0000     -18.739917      -509.9391
   6   2.0000      -9.977886      -271.5121
   7   2.0000      -9.948340      -270.7081
   8   2.0000      -9.943198      -270.5682
   9   2.0000      -9.937119      -270.4027
  10   2.0000      -9.935567      -270.3605
  11   2.0000      -9.932937      -270.2890
  12   2.0000      -0.973543       -26.4914
  13   2.0000      -0.946194       -25.7473
  14   2.0000      -0.945213       -25.7206
  15   2.0000      -0.935687       -25.4613
  16   2.0000      -0.917445       -24.9649
  17   2.0000      -0.899791       -24.4846
  18   2.0000      -0.698030       -18.9944
  19   2.0000      -0.685586       -18.6557
  20   2.0000      -0.625178       -17.0120
  21   2.0000      -0.573938       -15.6176
  22   2.0000      -0.570659       -15.5284
  23   2.0000      -0.514166       -13.9912
  24   2.0000      -0.506248       -13.7757
  25   2.0000      -0.489348       -13.3158
  26   2.0000      -0.484652       -13.1880
  27   2.0000      -0.459872       -12.5138
  28   2.0000      -0.445718       -12.1286
  29   2.0000      -0.438446       -11.9307
  30   2.0000      -0.412480       -11.2242
  31   2.0000      -0.393854       -10.7173
  32   2.0000      -0.384892       -10.4735
  33   2.0000      -0.368845       -10.0368
  34   2.0000      -0.363120        -9.8810
  35   2.0000      -0.351340        -9.5605
  36   2.0000      -0.326876        -8.8947
  37   2.0000      -0.315336        -8.5807
  38   2.0000      -0.301021        -8.1912
  39   2.0000      -0.298366        -8.1189
  40   2.0000      -0.283257        -7.7078
  41   2.0000      -0.275028        -7.4839
  42   2.0000      -0.252815        -6.8794
  43   2.0000      -0.245158        -6.6711
  44   2.0000      -0.234441        -6.3795
  45   2.0000      -0.221813        -6.0358
  46   2.0000      -0.210979        -5.7410
  47   2.0000      -0.193805        -5.2737
  48   0.0000       0.005341         0.1453
  49   0.0000       0.013876         0.3776
  50   0.0000       0.016631         0.4526
  51   0.0000       0.058643         1.5958
  52   0.0000       0.072699         1.9782

MULLIKEN ATOMIC CHARGES
-----------------------
   0 C :    0.077591
   1 C :   -0.021980
   2 H :    0.065831
   3 C :    0.080227
   4 H :    0.056200
   5 C :    0.054153
   6 H :    0.061370
   7 C :   -0.028460
   8 H :    0.062520
   9 C :    0.225457
  10 H :    0.068703
  11 O :   -0.310403
  12 O :   -0.398322
  13 O :   -0.400184
  14 O :   -0.415070
  15 O :   -0.432410
  16 O :   -0.438341
  17 H :    0.093351
  18 H :    0.087011
  19 H :    0.292578
  20 H :    0.306564
  21 H :    0.309688
  22 H :    0.295803
  23 H :    0.308120
Sum of atomic charges:   -0.0000000

LOEWDIN ATOMIC CHARGES
----------------------
   0 C :   -0.124534
   1 C :   -0.089894
   2 H :    0.103752
   3 C :   -0.062247
   4 H :    0.105323
   5 C :   -0.069613
   6 H :    0.106156
   7 C :   -0.104308
   8 H :    0.102180
   9 C :    0.016266
  10 H :    0.102836
  11 O :   -0.151217
  12 O :   -0.303274
  13 O :   -0.307808
  14 O :   -0.308403
  15 O :   -0.329922
  16 O :   -0.322568
  17 H :    0.107249
  18 H :    0.115835
  19 H :    0.270147
  20 H :    0.289460
  21 H :    0.292477
  22 H :    0.270962
  23 H :    0.291147

  Mayer bond orders larger than 0.100000
B(  0-C ,  1-C ) :   1.0219 B(  0-C , 16-O ) :   1.0380 B(  0-C , 17-H ) :   0.9238
B(  0-C , 18-H ) :   0.9130 B(  1-C ,  2-H ) :   0.8572 B(  1-C ,  3-C ) :   1.0372
B(  1-C , 11-O ) :   1.0042 B(  3-C ,  4-H ) :   0.8760 B(  3-C ,  5-C ) :   0.9882
B(  3-C , 15-O ) :   1.0964 B(  5-C ,  6-H ) :   0.8819 B(  5-C ,  7-C ) :   1.0031
B(  5-C , 14-O ) :   1.0426 B(  7-C ,  8-H ) :   0.8994 B(  7-C ,  9-C ) :   0.9542
B(  7-C , 13-O ) :   1.0518 B(  9-C , 10-H ) :   0.9021 B(  9-C , 11-O ) :   1.0345
B(  9-C , 12-O ) :   1.1482 B( 12-O , 19-H ) :   0.8197 B( 13-O , 20-H ) :   0.8432
B( 14-O , 21-H ) :   0.8418 B( 15-O , 22-H ) :   0.8098 B( 16-O , 22-H ) :   0.1031
B( 16-O , 23-H ) :   0.8442

Dispersion correction           -0.024808387
FINAL SINGLE POINT ENERGY      -685.692233422833

DIPOLE MOMENT
-------------

Method             : SCF
Type of density    : Electron Density
Multiplicity       :   1
Irrep              :   0
Energy             :  -685.8236431488666085 Eh
Relativity type    :
Basis              : AO
                                X                 Y                 Z
Electronic contribution:      1.525346075      -0.293305146      -0.428188787
Nuclear contribution   :     -1.417860608       1.130124812       1.007923393
                        -----------------------------------------
Total Dipole Moment    :      0.107485467       0.836819666       0.579734606
                        -----------------------------------------
Magnitude (a.u.)       :      1.023675970
Magnitude (Debye)      :      2.601977534

Rotational constants in cm-1:             0.044316             0.024673             0.021752
Rotational constants in MHz :          1328.550961           739.671243           652.123205

                             ****ORCA TERMINATED NORMALLY****
TOTAL RUN TIME: 0 days 0 hours 0 minutes 12 seconds 86 msec
