                         Program Version 6.0.0  -   RELEASE  -
|  1> ! r2scan-3c def2/J RI DEFGRID2 scfconv6 printgap
|  2> %output
|  3>     printlevel normal
|  4> end
|  5> * xyz 0 1
|  6> C -2.770248978 -0.7793756095 2.56841e-05
|  7> O -1.7987642373 0.246615438 -1.20392e-05
|  8> C -0.4782820971 -0.1106194653 -9.1972e-06
|  9> C -0.0002490391 -1.4108283953 -1.14415e-05
| 10> C 1.3654346462 -1.6594560737 -3.266e-06
| 11> C 2.2630603757 -0.6126192091 6.629e-06
| 12> C 1.7972400205 0.6939300156 6.5116e-06
| 13> C 0.4392241073 0.9578425399 -2.005e-06
| 14> O -0.0648737576 2.2238294252 -3.5785e-06
| 15> H -3.7279129719 -0.2637987549 5.33971e-05
| 16> H -2.687683078 -1.4023961409 0.8948893357
| 17> H -2.6877417614 -1.4024064355 -0.8948364053
| 18> H -0.6862562224 -2.241867887 -1.88941e-05
| 19> H 1.7158346471 -2.6795511246 -5.258e-06
| 20> H 3.3248625659 -0.8010927075 1.19436e-05
| 21> H 2.4968657488 1.5167519392 1.01128e-05
| 22> H 0.6587810878 2.8691733068 -1.02229e-05
| 23> *
| 24>
| 25>                          ****END OF INPUT****

CARTESIAN COORDINATES (ANGSTROEM)
---------------------------------
  C     -2.770249   -0.779376    0.000026
  O     -1.798764    0.246615   -0.000012
  C     -0.478282   -0.110619   -0.000009
  C     -0.000249   -1.410828   -0.000011
  C      1.365435   -1.659456   -0.000003
  C      2.263060   -0.612619    0.000007
  C      1.797240    0.693930    0.000007
  C      0.439224    0.957843   -0.000002
  O     -0.064874    2.223829   -0.000004
  H     -3.727913   -0.263799    0.000053
  H     -2.687683   -1.402396    0.894889
  H     -2.687742   -1.402406   -0.894836
  H     -0.686256   -2.241868   -0.000019
  H      1.715835   -2.679551   -0.000005
  H      3.324863   -0.801093    0.000012
  H      2.496866    1.516752    0.000010
  H      0.658781    2.869173   -0.000010

 Total Charge           Charge          ....    0
 Multiplicity           Mult            ....    1
 Number of Electrons    NEL             ....   66
 Basis Dimension        Dim             ....  221

ORBITAL ENERGIES
----------------

  NO   OCC          E(Eh)            E(eV)
   0   2.0000     -18.982093      -516.5290
   1   2.0000     -18.981874      -516.5231
   2   2.0000     -10.093782      -274.6658
   3   2.0000     -10.091757      -274.6107
   4   2.0000     -10.084180      -274.4045
   5   2.0000     -10.033009      -273.0121
   6   2.0000     -10.032261      -272.9917
   7   2.0000     -10.028031      -272.8766
   8   2.0000     -10.027058      -272.8501
   9   2.0000      -1.036594       -28.2071
  10   2.0000      -1.017003       -27.6741
  11   2.0000      -0.818735       -22.2789
  12   2.0000      -0.724760       -19.7217
  13   2.0000      -0.712264       -19.3817
  14   2.0000      -0.661978       -18.0133
  15   2.0000      -0.595510       -16.2046
  16   2.0000      -0.562116       -15.2960
  17   2.0000      -0.518505       -14.1092
  18   2.0000      -0.490392       -13.3443
  19   2.0000      -0.457451       -12.4479
  20   2.0000      -0.436476       -11.8771
  21   2.0000      -0.430767       -11.7218
  22   2.0000      -0.408842       -11.1252
  23   2.0000      -0.394393       -10.7320
  24   2.0000      -0.380829       -10.3629
  25   2.0000      -0.362289        -9.8584
  26   2.0000      -0.339107        -9.2276
  27   2.0000      -0.316999        -8.6260
  28   2.0000      -0.315647        -8.5892
  29   2.0000      -0.296069        -8.0565
  30   2.0000      -0.292642        -7.9632
  31   2.0000      -0.222069        -6.0428
  32   2.0000      -0.187692        -5.1073
  33   0.0000      -0.022496        -0.6121
  34   0.0000      -0.010487        -0.2854
  35   0.0000       0.047550         1.2939
  36   0.0000       0.073839         2.0093
  37   0.0000       0.090176         2.4538

MULLIKEN ATOMIC CHARGES
-----------------------
   0 C :   -0.320607
   1 O :   -0.182749
   2 C :    0.164854
   3 C :   -0.247198
   4 C :   -0.192463
   5 C :   -0.155337
   6 C :   -0.308147
   7 C :    0.301620
   8 O :   -0.406215
   9 H :    0.155305
  10 H :    0.151394
  11 H :    0.151394
  12 H :    0.148348
  13 H :    0.145354
  14 H :    0.146547
  15 H :    0.138499
  16 H :    0.309402
Sum of atomic charges:    0.0000000

LOEWDIN ATOMIC CHARGES
----------------------
   0 C :   -0.050863
   1 O :   -0.664013
   2 C :    0.201935
   3 C :   -0.166345
   4 C :   -0.180204
   5 C :   -0.177679
   6 C :   -0.168284
   7 C :    0.206227
   8 O :   -0.475487
   9 H :    0.180948
  10 H :    0.164130
  11 H :    0.164129
  12 H :    0.175874
  13 H :    0.166847
  14 H :    0.167042
  15 H :    0.169067
  16 H :    0.286674

  Mayer bond orders larger than 0.100000
B(  0-C ,  1-O ) :   0.8578 B(  0-C ,  9-H ) :   0.9676 B(  0-C , 10-H ) :   0.9630
B(  0-C , 11-H ) :   0.9630 B(  1-O ,  2-C ) :   1.0593 B(  2-C ,  3-C ) :   1.3465
B(  2-C ,  7-C ) :   1.4838 B(  2-C ,  8-O ) :   0.1232 B(  3-C ,  4-C ) :   1.3628
B(  3-C , 12-H ) :   0.9305 B(  4-C ,  5-C ) :   1.4710 B(  4-C , 13-H ) :   0.9497
B(  5-C ,  6-C ) :   1.3672 B(  5-C , 14-H ) :   0.9400 B(  6-C ,  7-C ) :   1.2860
B(  6-C , 15-H ) :   0.9530 B(  7-C ,  8-O ) :   0.9098 B(  8-O , 16-H ) :   0.8847

Dispersion correction           -0.005357536
FINAL SINGLE POINT ENERGY      -421.896986810747

DIPOLE MOMENT
-------------

Method             : SCF
Type of density    : Electron Density
Multiplicity       :   1
Irrep              :   0
Energy             :  -421.8999080835592963 Eh
Relativity type    :
Basis              : AO
                                X                 Y                 Z
Electronic contribution:      1.628814737       3.922398359      -0.000076545
Nuclear contribution   :     -1.522347035      -4.096220444       0.000087965
                        -----------------------------------------
Total Dipole Moment    :      0.106467703      -0.173822084       0.000011420
                        -----------------------------------------
Magnitude (a.u.)       :      0.203836917
Magnitude (Debye)      :      0.518112268

Rotational constants in cm-1:             0.086440             0.052143             0.032728
Rotational constants in MHz :          2591.409106          1563.202100           981.147988

                             ****ORCA TERMINATED NORMALLY****
TOTAL RUN TIME: 0 days 0 hours 0 minutes 27 seconds 829 msec
