                         Program Version 6.0.0  -   RELEASE  -
|  1> ! r2scan-3c def2/J RI DEFGRID2 scfconv6 printgap
|  2> %output
|  3>     printlevel normal
|  4> end
|  5> %cpcm
|  6>     smd true
|  7>     smdsolvent "water"
|  8> end
|  9> * xyz 0 1
| 10> C -2.770248978 -0.7793756095 2.56841e-05
| 11> O -1.7987642373 0.246615438 -1.20392e-05
| 12> C -0.4782820971 -0.1106194653 -9.1972e-06
| 13> C -0.0002490391 -1.4108283953 -1.14415e-05
| 14> C 1.3654346462 -1.6594560737 -3.266e-06
| 15> C 2.2630603757 -0.6126192091 6.629e-06
| 16> C 1.7972400205 0.6939300156 6.5116e-06
| 17> C 0.4392241073 0.9578425399 -2.005e-06
| 18> O -0.0648737576 2.2238294252 -3.5785e-06
| 19> H -3.7279129719 -0.2637987549 5.33971e-05
| 20> H -2.687683078 -1.4023961409 0.8948893357
| 21> H -2.6877417614 -1.4024064355 -0.8948364053
| 22> H -0.6862562224 -2.241867887 -1.88941e-05
| 23> H 1.7158346471 -2.6795511246 -5.258e-06
| 24> H 3.3248625659 -0.8010927075 1.19436e-05
| 25> H 2.4968657488 1.5167519392 1.01128e-05
| 26> H 0.6587810878 2.8691733068 -1.02229e-05
| 27> *
| 28>
| 29>                          ****END OF INPUT****

CARTESIAN COORDINATES (ANGSTROEM)
---------------------------------
  C     -2.770249   -0.779376    0.000026
  O     -1.798764    0.246615   -0.000012
  C     -0.478282   -0.110619   -0.000009
  C     -0.000249   -1.410828   -0.000011
  C      1.365435   -1.659456   -0.000003
  C      2.263060   -0.612619    0.000007
  C      1.797240    0.693930    0.000007
  C      0.439224    0.957843   -0.000002
  O     -0.064874    2.223829   -0.000004
  H     -3.727913   -0.263799    0.000053
  H     -2.687683   -1.402396    0.894889
  H     -2.687742   -1.402406   -0.894836
  H     -0.686256   -2.241868   -0.000019
  H      1.715835   -2.679551   -0.000005
  H      3.324863   -0.801093    0.000012
  H      2.496866    1.516752    0.000010
  H      0.658781    2.869173   -0.000010

 Total Charge           Charge          ....    0
 Multiplicity           Mult            ....    1
 Number of Electrons    NEL             ....   66
 Basis Dimension        Dim             ....  221

ORBITAL ENERGIES
----------------

  NO   OCC          E(Eh)            E(eV)
   0   2.0000     -18.988919      -516.7148
   1   2.0000     -18.984729      -516.6007
   2   2.0000     -10.097421      -274.7648
   3   2.0000     -10.096117      -274.7293
   4   2.0000     -10.073123      -274.1036
   5   2.0000     -10.033076      -273.0139
   6   2.0000     -10.032013      -272.9850
   7   2.0000     -10.028770      -272.8967
   8   2.0000     -10.028179      -272.8806
   9   2.0000      -1.041741       -28.3472
  10   2.0000      -1.020365       -27.7655
  11   2.0000      -0.822024       -22.3684
  12   2.0000      -0.725929       -19.7535
  13   2.0000      -0.713494       -19.4152
  14   2.0000      -0.659086       -17.9347
  15   2.0000      -0.594927       -16.1888
  16   2.0000      -0.561518       -15.2797
  17   2.0000      -0.517138       -14.0720
  18   2.0000      -0.489176       -13.3111
  19   2.0000      -0.459838       -12.5128
  20   2.0000      -0.435175       -11.8417
  21   2.0000      -0.429239       -11.6802
  22   2.0000      -0.404056       -10.9949
  23   2.0000      -0.393228       -10.7003
  24   2.0000      -0.384007       -10.4494
  25   2.0000      -0.363635        -9.8950
  26   2.0000      -0.338858        -9.2208
  27   2.0000      -0.320438        -8.7196
  28   2.0000      -0.317219        -8.6320
  29   2.0000      -0.299679        -8.1547
  30   2.0000      -0.296114        -8.0577
  31   2.0000      -0.226637        -6.1671
  32   2.0000      -0.194284        -5.2867
  33   0.0000      -0.026152        -0.7116
  34   0.0000      -0.015718        -0.4277
  35   0.0000       0.051956         1.4138
  36   0.0000       0.097220         2.6455
  37   0.0000       0.099406         2.7050

MULLIKEN ATOMIC CHARGES
-----------------------
   0 C :   -0.326520
   1 O :   -0.235363
   2 C :    0.150705
   3 C :   -0.251508
   4 C :   -0.238971
   5 C :   -0.187565
   6 C :   -0.302928
   7 C :    0.235715
   8 O :   -0.459729
   9 H :    0.173248
  10 H :    0.171187
  11 H :    0.171188
  12 H :    0.186531
  13 H :    0.178040
  14 H :    0.179772
  15 H :    0.187184
  16 H :    0.369014
Sum of atomic charges:    0.0000000

LOEWDIN ATOMIC CHARGES
----------------------
   0 C :   -0.046017
   1 O :   -0.699614
   2 C :    0.187660
   3 C :   -0.168631
   4 C :   -0.193109
   5 C :   -0.190430
   6 C :   -0.164701
   7 C :    0.193009
   8 O :   -0.498349
   9 H :    0.187706
  10 H :    0.174534
  11 H :    0.174534
  12 H :    0.190565
  13 H :    0.177498
  14 H :    0.177770
  15 H :    0.187945
  16 H :    0.309628

  Mayer bond orders larger than 0.100000
B(  0-C ,  1-O ) :   0.8505 B(  0-C ,  9-H ) :   0.9600 B(  0-C , 10-H ) :   0.9546
B(  0-C , 11-H ) :   0.9546 B(  1-O ,  2-C ) :   1.0279 B(  2-C ,  3-C ) :   1.3306
B(  2-C ,  7-C ) :   1.4365 B(  2-C ,  8-O ) :   0.1175 B(  3-C ,  4-C ) :   1.3245
B(  3-C , 12-H ) :   0.9376 B(  4-C ,  5-C ) :   1.4111 B(  4-C , 13-H ) :   0.9641
B(  5-C ,  6-C ) :   1.3176 B(  5-C , 14-H ) :   0.9545 B(  6-C ,  7-C ) :   1.2916
B(  6-C , 15-H ) :   0.9637 B(  7-C ,  8-O ) :   0.9167 B(  8-O , 16-H ) :   0.8544

Dispersion correction           -0.005357536
FINAL SINGLE POINT ENERGY      -421.909320007098

DIPOLE MOMENT
-------------

Method             : SCF
Type of density    : Electron Density
Multiplicity       :   1
Irrep              :   0
Energy             :  -421.9122412799100061 Eh
Relativity type    :
Basis              : AO
                                X                 Y                 Z
Electronic contribution:      1.817585704       3.783053456      -0.000072369
Nuclear contribution   :     -1.522347035      -4.096220444       0.000087965
                        -----------------------------------------
Total Dipole Moment    :      0.295238669      -0.313166988       0.000015596
                        -----------------------------------------
Magnitude (a.u.)       :      0.430394510
Magnitude (Debye)      :      1.093975904

Rotational constants in cm-1:             0.086440             0.052143             0.032728
Rotational constants in MHz :          2591.409106          1563.202100           981.147988

                             ****ORCA TERMINATED NORMALLY****
TOTAL RUN TIME: 0 days 0 hours 0 minutes 32 seconds 745 msec
