                         Program Version 6.0.0  -   RELEASE  -
|  1> ! pbe def2-sv(p) def2/J RI DEFGRID1 loosescf d4 GCP(DFT/SV(P)) printgap
|  2> %output
|  3>     printlevel normal
|  4> end
|  5> * xyz 0 1
|  6> C 1.3328023878 0.9384011075 0.939875192
|  7> C 0.7027110781 0.3392089302 -0.3204517746
|  8> C 1.4619602225 -0.9140495122 -0.762280049
|  9> C -0.7690262897 0.0416847899 -0.0998897048
| 10> O -1.6228909825 0.6133901255 -0.7532671104
| 11> C -1.1202689403 -0.9727073267 0.9447459172
| 12> H 2.3313499523 1.2991064896 0.7078717612
| 13> H 0.7409353297 1.7754631006 1.3031157639
| 14> H 1.4123587895 0.1924906399 1.7254181076
| 15> H 0.7468644348 1.0825181531 -1.1247164218
| 16> H 1.5226122568 -1.6361617326 0.0467431659
| 17> H 2.4726626389 -0.6396734919 -1.052876047
| 18> H 0.9728066862 -1.3770252482 -1.6163701281
| 19> H -2.2003348489 -1.0662015817 1.0171421294
| 20> H -0.712822547 -0.6708371294 1.9052540055
| 21> H -0.6891010895 -1.9342677047 0.6801478363
| 22> *
| 23>
| 24>                          ****END OF INPUT****

CARTESIAN COORDINATES (ANGSTROEM)
---------------------------------
  C      1.332802    0.938401    0.939875
  C      0.702711    0.339209   -0.320452
  C      1.461960   -0.914050   -0.762280
  C     -0.769026    0.041685   -0.099890
  O     -1.622891    0.613390   -0.753267
  C     -1.120269   -0.972707    0.944746
  H      2.331350    1.299106    0.707872
  H      0.740935    1.775463    1.303116
  H      1.412359    0.192491    1.725418
  H      0.746864    1.082518   -1.124716
  H      1.522612   -1.636162    0.046743
  H      2.472663   -0.639673   -1.052876
  H      0.972807   -1.377025   -1.616370
  H     -2.200335   -1.066202    1.017142
  H     -0.712823   -0.670837    1.905254
  H     -0.689101   -1.934268    0.680148

 Total Charge           Charge          ....    0
 Multiplicity           Mult            ....    1
 Number of Electrons    NEL             ....   48
 Basis Dimension        Dim             ....  104

ORBITAL ENERGIES
----------------

  NO   OCC          E(Eh)            E(eV)
   0   2.0000     -18.733350      -509.7604
   1   2.0000      -9.968619      -271.2599
   2   2.0000      -9.902211      -269.4529
   3   2.0000      -9.888591      -269.0822
   4   2.0000      -9.888584      -269.0821
   5   2.0000      -9.885574      -269.0001
   6   2.0000      -0.929879       -25.3033
   7   2.0000      -0.734663       -19.9912
   8   2.0000      -0.662777       -18.0351
   9   2.0000      -0.625107       -17.0100
  10   2.0000      -0.557682       -15.1753
  11   2.0000      -0.466979       -12.7071
  12   2.0000      -0.419514       -11.4155
  13   2.0000      -0.412456       -11.2235
  14   2.0000      -0.408206       -11.1079
  15   2.0000      -0.372323       -10.1314
  16   2.0000      -0.366130        -9.9629
  17   2.0000      -0.360557        -9.8113
  18   2.0000      -0.347201        -9.4478
  19   2.0000      -0.319768        -8.7013
  20   2.0000      -0.318964        -8.6795
  21   2.0000      -0.300012        -8.1637
  22   2.0000      -0.298484        -8.1222
  23   2.0000      -0.189325        -5.1518
  24   0.0000      -0.046267        -1.2590
  25   0.0000       0.027478         0.7477
  26   0.0000       0.062750         1.7075
  27   0.0000       0.070002         1.9048
  28   0.0000       0.088672         2.4129

MULLIKEN ATOMIC CHARGES
-----------------------
   0 C :   -0.270867
   1 C :   -0.134988
   2 C :   -0.270704
   3 C :   -0.002037
   4 O :   -0.166000
   5 C :   -0.267773
   6 H :    0.110470
   7 H :    0.117612
   8 H :    0.105505
   9 H :    0.077561
  10 H :    0.105397
  11 H :    0.110178
  12 H :    0.117339
  13 H :    0.116816
  14 H :    0.124828
  15 H :    0.126662
Sum of atomic charges:    0.0000000

LOEWDIN ATOMIC CHARGES
----------------------
   0 C :   -0.325765
   1 C :   -0.178025
   2 C :   -0.326310
   3 C :    0.047439
   4 O :   -0.132438
   5 C :   -0.363377
   6 H :    0.125444
   7 H :    0.124426
   8 H :    0.117074
   9 H :    0.126178
  10 H :    0.117139
  11 H :    0.125276
  12 H :    0.124230
  13 H :    0.135653
  14 H :    0.140778
  15 H :    0.142279

  Mayer bond orders larger than 0.100000
B(  0-C ,  1-C ) :   1.0852 B(  0-C ,  6-H ) :   0.9473 B(  0-C ,  7-H ) :   0.9512
B(  0-C ,  8-H ) :   0.9423 B(  1-C ,  2-C ) :   1.0856 B(  1-C ,  3-C ) :   0.9592
B(  1-C ,  9-H ) :   0.8809 B(  2-C , 10-H ) :   0.9420 B(  2-C , 11-H ) :   0.9474
B(  2-C , 12-H ) :   0.9515 B(  3-C ,  4-O ) :   2.2016 B(  3-C ,  5-C ) :   1.0590
B(  5-C , 13-H ) :   0.9301 B(  5-C , 14-H ) :   0.9228 B(  5-C , 15-H ) :   0.9209

Dispersion correction           -0.012015681
FINAL SINGLE POINT ENERGY      -271.141447504920

DIPOLE MOMENT
-------------

Method             : SCF
Type of density    : Electron Density
Multiplicity       :   1
Irrep              :   0
Energy             :  -271.1951939732701362 Eh
Relativity type    :
Basis              : AO
                                X                 Y                 Z
Electronic contribution:     -5.361974149       2.317285859      -2.822645872
Nuclear contribution   :      6.165316713      -2.781557958       3.358464197
                        -----------------------------------------
Total Dipole Moment    :      0.803342563      -0.464272099       0.535818326
                        -----------------------------------------
Magnitude (a.u.)       :      1.071451881
Magnitude (Debye)      :      2.723414249

Rotational constants in cm-1:             0.153441             0.086339             0.085424
Rotational constants in MHz :          4600.038997          2588.388983          2560.935482

                             ****ORCA TERMINATED NORMALLY****
TOTAL RUN TIME: 0 days 0 hours 0 minutes 6 seconds 352 msec
