                         Program Version 6.0.0  -   RELEASE  -
|  1> ! pbe def2-sv(p) def2/J RI DEFGRID1 loosescf d4 GCP(DFT/SV(P)) printgap
|  2> %output
|  3>     printlevel normal
|  4> end
|  5> * xyz 0 1
|  6> C -1.8098363078 -0.9676437355 -0.7164413747
|  7> C -1.0495859587 -0.4044516766 0.5053079498
|  8> H -1.7226725595 -0.4731532571 1.3689057387
|  9> C -0.6545368309 1.0771878608 0.332185921
| 10> H -1.453384168 1.5855976389 -0.2189676324
| 11> C 0.6520997334 1.2431943525 -0.4707800257
| 12> H 0.9755288791 2.2820333192 -0.3293187277
| 13> C 1.7495684518 0.3206869683 0.0959393389
| 14> H 2.6245101427 0.3484472594 -0.5712217936
| 15> C 1.2271852875 -1.1302417612 0.1247843977
| 16> H 1.927193844 -1.78063271 0.6658824405
| 17> O 0.048962416 -1.2279121537 0.8868325829
| 18> O 1.1254485519 -1.6595725022 -1.157054781
| 19> O 2.0763562443 0.7911868115 1.378971083
| 20> O 0.4034612758 0.9571862066 -1.8298884888
| 21> O -0.5699128934 1.7443225204 1.565098908
| 22> O -3.2039533835 -0.8162141647 -0.5925633975
| 23> H -1.6305074504 -2.0443633455 -0.762164361
| 24> H -1.4563020596 -0.5027576397 -1.6428372156
| 25> H 0.7122692543 -1.0019612886 -1.7473408319
| 26> H 2.7761262273 0.247646867 1.7682835792
| 27> H 0.9897632422 1.4790581395 -2.3958865679
| 28> H 0.2236659275 1.4342390659 2.0329635963
| 29> H -3.4362413865 0.122061608 -0.6216359656
| 30> *
| 31>
| 32>                          ****END OF INPUT****

CARTESIAN COORDINATES (ANGSTROEM)
---------------------------------
  C     -1.809836   -0.967644   -0.716441
  C     -1.049586   -0.404452    0.505308
  H     -1.722673   -0.473153    1.368906
  C     -0.654537    1.077188    0.332186
  H     -1.453384    1.585598   -0.218968
  C      0.652100    1.243194   -0.470780
  H      0.975529    2.282033   -0.329319
  C      1.749568    0.320687    0.095939
  H      2.624510    0.348447   -0.571222
  C      1.227185   -1.130242    0.124784
  H      1.927194   -1.780633    0.665882
  O      0.048962   -1.227912    0.886833
  O      1.125449   -1.659573   -1.157055
  O      2.076356    0.791187    1.378971
  O      0.403461    0.957186   -1.829888
  O     -0.569913    1.744323    1.565099
  O     -3.203953   -0.816214   -0.592563
  H     -1.630507   -2.044363   -0.762164
  H     -1.456302   -0.502758   -1.642837
  H      0.712269   -1.001961   -1.747341
  H      2.776126    0.247647    1.768284
  H      0.989763    1.479058   -2.395887
  H      0.223666    1.434239    2.032964
  H     -3.436241    0.122062   -0.621636

 Total Charge           Charge          ....    0
 Multiplicity           Mult            ....    1
 Number of Electrons    NEL             ....   96
 Basis Dimension        Dim             ....  192

ORBITAL ENERGIES
----------------

  NO   OCC          E(Eh)            E(eV)
   0   2.0000     -18.795889      -511.4621
   1   2.0000     -18.783996      -511.1385
   2   2.0000     -18.757981      -510.4306
   3   2.0000     -18.752684      -510.2865
   4   2.0000     -18.741552      -509.9836
   5   2.0000     -18.740361      -509.9511
   6   2.0000      -9.985208      -271.7113
   7   2.0000      -9.963774      -271.1281
   8   2.0000      -9.958001      -270.9710
   9   2.0000      -9.946893      -270.6687
  10   2.0000      -9.932869      -270.2871
  11   2.0000      -9.920359      -269.9467
  12   2.0000      -0.983254       -26.7557
  13   2.0000      -0.961744       -26.1704
  14   2.0000      -0.952271       -25.9126
  15   2.0000      -0.923723       -25.1358
  16   2.0000      -0.916439       -24.9376
  17   2.0000      -0.902377       -24.5549
  18   2.0000      -0.709740       -19.3130
  19   2.0000      -0.691368       -18.8131
  20   2.0000      -0.613893       -16.7049
  21   2.0000      -0.598236       -16.2788
  22   2.0000      -0.574067       -15.6211
  23   2.0000      -0.532632       -14.4937
  24   2.0000      -0.515890       -14.0381
  25   2.0000      -0.496083       -13.4991
  26   2.0000      -0.473665       -12.8891
  27   2.0000      -0.460639       -12.5346
  28   2.0000      -0.449757       -12.2385
  29   2.0000      -0.438296       -11.9266
  30   2.0000      -0.416577       -11.3356
  31   2.0000      -0.405729       -11.0404
  32   2.0000      -0.389126       -10.5886
  33   2.0000      -0.378333       -10.2950
  34   2.0000      -0.363563        -9.8931
  35   2.0000      -0.348028        -9.4703
  36   2.0000      -0.336079        -9.1452
  37   2.0000      -0.327102        -8.9009
  38   2.0000      -0.309422        -8.4198
  39   2.0000      -0.289248        -7.8708
  40   2.0000      -0.279253        -7.5988
  41   2.0000      -0.274893        -7.4802
  42   2.0000      -0.269141        -7.3237
  43   2.0000      -0.251217        -6.8360
  44   2.0000      -0.237964        -6.4753
  45   2.0000      -0.223947        -6.0939
  46   2.0000      -0.216870        -5.9013
  47   2.0000      -0.193542        -5.2665
  48   0.0000      -0.010884        -0.2962
  49   0.0000       0.004390         0.1195
  50   0.0000       0.023842         0.6488
  51   0.0000       0.063824         1.7367
  52   0.0000       0.067240         1.8297

MULLIKEN ATOMIC CHARGES
-----------------------
   0 C :    0.006260
   1 C :    0.024502
   2 H :    0.081593
   3 C :    0.084135
   4 H :    0.057381
   5 C :   -0.017369
   6 H :    0.088760
   7 C :    0.025109
   8 H :    0.066513
   9 C :    0.200684
  10 H :    0.057422
  11 O :   -0.302604
  12 O :   -0.407465
  13 O :   -0.419030
  14 O :   -0.410122
  15 O :   -0.428899
  16 O :   -0.432606
  17 H :    0.099049
  18 H :    0.083155
  19 H :    0.307021
  20 H :    0.314675
  21 H :    0.320152
  22 H :    0.305252
  23 H :    0.296434
Sum of atomic charges:   -0.0000000

LOEWDIN ATOMIC CHARGES
----------------------
   0 C :   -0.149592
   1 C :   -0.079008
   2 H :    0.123327
   3 C :   -0.065185
   4 H :    0.109893
   5 C :   -0.072688
   6 H :    0.114845
   7 C :   -0.098282
   8 H :    0.101554
   9 C :   -0.011100
  10 H :    0.102473
  11 O :   -0.142469
  12 O :   -0.309822
  13 O :   -0.305908
  14 O :   -0.302907
  15 O :   -0.320170
  16 O :   -0.332475
  17 H :    0.120732
  18 H :    0.096176
  19 H :    0.269123
  20 H :    0.295418
  21 H :    0.300365
  22 H :    0.275340
  23 H :    0.280360

  Mayer bond orders larger than 0.100000
B(  0-C ,  1-C ) :   1.0180 B(  0-C , 16-O ) :   1.0571 B(  0-C , 17-H ) :   0.9088
B(  0-C , 18-H ) :   0.9072 B(  1-C ,  2-H ) :   0.8947 B(  1-C ,  3-C ) :   0.9804
B(  1-C , 11-O ) :   0.9999 B(  3-C ,  4-H ) :   0.8873 B(  3-C ,  5-C ) :   0.9935
B(  3-C , 15-O ) :   1.0651 B(  5-C ,  6-H ) :   0.9009 B(  5-C ,  7-C ) :   0.9830
B(  5-C , 14-O ) :   1.0332 B(  7-C ,  8-H ) :   0.8964 B(  7-C ,  9-C ) :   0.9697
B(  7-C , 13-O ) :   1.0250 B(  9-C , 10-H ) :   0.9089 B(  9-C , 11-O ) :   1.0639
B(  9-C , 12-O ) :   1.1347 B( 12-O , 19-H ) :   0.7924 B( 13-O , 20-H ) :   0.8384
B( 14-O , 19-H ) :   0.1006 B( 14-O , 21-H ) :   0.8368 B( 15-O , 22-H ) :   0.8165
B( 16-O , 23-H ) :   0.8525

Dispersion correction           -0.025879568
FINAL SINGLE POINT ENERGY      -685.692479652947

DIPOLE MOMENT
-------------

Method             : SCF
Type of density    : Electron Density
Multiplicity       :   1
Irrep              :   0
Energy             :  -685.8250881966082488 Eh
Relativity type    :
Basis              : AO
                                X                 Y                 Z
Electronic contribution:      0.938576471      -0.504317434       1.698180954
Nuclear contribution   :      0.495410781       1.588212937      -2.297923856
                        -----------------------------------------
Total Dipole Moment    :      1.433987252       1.083895503      -0.599742901
                        -----------------------------------------
Magnitude (a.u.)       :      1.894951305
Magnitude (Debye)      :      4.816583436

Rotational constants in cm-1:             0.041073             0.027925             0.024122
Rotational constants in MHz :          1231.327896           837.175715           723.169778

                             ****ORCA TERMINATED NORMALLY****
TOTAL RUN TIME: 0 days 0 hours 0 minutes 12 seconds 353 msec
