                         Program Version 6.0.0  -   RELEASE  -
|  1> ! wb97x-v def2-tzvp def2/J RIJCOSX DEFGRID2 scfconv7 GCP(DFT/TZ) printgap
|  2> %output
|  3>     printlevel normal
|  4> end
|  5> * xyz 0 1
|  6> C -3.916838748498744 1.5479095223878188 -0.0790421814583858
|  7> C -3.5438223704047265 0.5820284084359849 -1.0118358472663562
|  8> C -2.2640068630137473 0.03911492802924661 -0.985248434065569
|  9> C -1.3382300877768996 0.46194267674642514 -0.024736655600416626
| 10> C -1.7141526617977367 1.4422529694884365 0.8997333331234211
| 11> C -2.998436281129617 1.9777899130469565 0.8751579379496793
| 12> C 0.041324182757530865 -0.07440623684260317 -0.003523497805888059
| 13> C 1.1136220663102026 0.8247473899667062 -0.07533573019026721
| 14> C 2.418800624116161 0.35940522644373885 -0.06286205715863191
| 15> C 2.7139268588347942 -0.9944331619214136 0.020690672103089662
| 16> C 1.6613949020136536 -1.8970311415239423 0.1057713657423585
| 17> C 0.35015476611151225 -1.436874893721887 0.09625655660429155
| 18> Cl -0.9287505355381335 -2.6318127590598253 0.28429655024501027
| 19> Cl 3.7377521899766037 1.5197165660108345 -0.1641162607383718
| 20> H -4.918115648623616 1.966136924447905 -0.09921682935094933
| 21> H -4.250887249109796 0.25244521791307906 -1.766480661934594
| 22> H -1.9749072738507818 -0.7020788165809204 -1.7229050952028486
| 23> H -0.9998816553264754 1.7745704075038766 1.6468686111561788
| 24> H -3.2806767961181804 2.7305154551805932 1.6043892446673327
| 25> H 0.9067112754192896 1.8858555524373681 -0.15693689750334053
| 26> H 3.738283415447817 -1.3474357621903257 0.026655150210158903
| 27> H 1.86737192232789 -2.957718705827731 0.1911140346676599
| 28> *
| 29>
| 30>                          ****END OF INPUT****

CARTESIAN COORDINATES (ANGSTROEM)
---------------------------------
  C     -3.916839    1.547910   -0.079042
  C     -3.543822    0.582028   -1.011836
  C     -2.264007    0.039115   -0.985248
  C     -1.338230    0.461943   -0.024737
  C     -1.714153    1.442253    0.899733
  C     -2.998436    1.977790    0.875158
  C      0.041324   -0.074406   -0.003523
  C      1.113622    0.824747   -0.075336
  C      2.418801    0.359405   -0.062862
  C      2.713927   -0.994433    0.020691
  C      1.661395   -1.897031    0.105771
  C      0.350155   -1.436875    0.096257
  Cl    -0.928751   -2.631813    0.284297
  Cl     3.737752    1.519717   -0.164116
  H     -4.918116    1.966137   -0.099217
  H     -4.250887    0.252445   -1.766481
  H     -1.974907   -0.702079   -1.722905
  H     -0.999882    1.774570    1.646869
  H     -3.280677    2.730515    1.604389
  H      0.906711    1.885856   -0.156937
  H      3.738283   -1.347436    0.026655
  H      1.867372   -2.957719    0.191114

 Total Charge           Charge          ....    0
 Multiplicity           Mult            ....    1
 Number of Electrons    NEL             ....  114
 Basis Dimension        Dim             ....  494

ORBITAL ENERGIES
----------------

  NO   OCC          E(Eh)            E(eV)
   0   2.0000    -107.149893     -2915.6968
   1   2.0000    -107.148454     -2915.6577
   2   2.0000     -12.128253      -330.0265
   3   2.0000     -12.127561      -330.0077
   4   2.0000     -12.090765      -329.0064
   5   2.0000     -12.079696      -328.7052
   6   2.0000     -12.077537      -328.6465
   7   2.0000     -12.077246      -328.6386
   8   2.0000     -12.073976      -328.5496
   9   2.0000     -12.062028      -328.2245
  10   2.0000     -12.060977      -328.1959
  11   2.0000     -12.060298      -328.1774
  12   2.0000     -12.058899      -328.1393
  13   2.0000     -12.057551      -328.1027
  14   2.0000     -11.302968      -307.5694
  15   2.0000     -11.301591      -307.5319
  16   2.0000      -9.094489      -247.4736
  17   2.0000      -9.093176      -247.4379
  18   2.0000      -9.091873      -247.4025
  19   2.0000      -9.091855      -247.4020
  20   2.0000      -9.090461      -247.3640
  21   2.0000      -9.090423      -247.3630
  22   2.0000      -1.451247       -39.4904
  23   2.0000      -1.428122       -38.8612
  24   2.0000      -1.397671       -38.0326
  25   2.0000      -1.375571       -37.4312
  26   2.0000      -1.325603       -36.0715
  27   2.0000      -1.284000       -34.9394
  28   2.0000      -1.281592       -34.8739
  29   2.0000      -1.266176       -34.4544
  30   2.0000      -1.159943       -31.5637
  31   2.0000      -1.130656       -30.7667
  32   2.0000      -1.113094       -30.2888
  33   2.0000      -1.096576       -29.8393
  34   2.0000      -1.005041       -27.3486
  35   2.0000      -0.999449       -27.1964
  36   2.0000      -0.973095       -26.4793
  37   2.0000      -0.959555       -26.1108
  38   2.0000      -0.952119       -25.9085
  39   2.0000      -0.934096       -25.4180
  40   2.0000      -0.911195       -24.7949
  41   2.0000      -0.900193       -24.4955
  42   2.0000      -0.883498       -24.0412
  43   2.0000      -0.874365       -23.7927
  44   2.0000      -0.857589       -23.3362
  45   2.0000      -0.842657       -22.9299
  46   2.0000      -0.830566       -22.6008
  47   2.0000      -0.821122       -22.3439
  48   2.0000      -0.816632       -22.2217
  49   2.0000      -0.796363       -21.6701
  50   2.0000      -0.795921       -21.6581
  51   2.0000      -0.783756       -21.3271
  52   2.0000      -0.769540       -20.9402
  53   2.0000      -0.681963       -18.5571
  54   2.0000      -0.667810       -18.1720
  55   2.0000      -0.647205       -17.6114
  56   2.0000      -0.639677       -17.4065
  57   0.0000      -0.292573        -7.9613
  58   0.0000      -0.276645        -7.5279
  59   0.0000      -0.272268        -7.4088
  60   0.0000      -0.270942        -7.3727
  61   0.0000      -0.244326        -6.6484

MULLIKEN ATOMIC CHARGES
-----------------------
   0 C :   -0.121537
   1 C :   -0.108783
   2 C :   -0.216221
   3 C :    0.205915
   4 C :   -0.240797
   5 C :   -0.115427
   6 C :    0.147889
   7 C :   -0.291571
   8 C :    0.169780
   9 C :   -0.178932
  10 C :   -0.187528
  11 C :    0.039611
  12 Cl:   -0.080252
  13 Cl:   -0.094423
  14 H :    0.121259
  15 H :    0.120925
  16 H :    0.137760
  17 H :    0.138942
  18 H :    0.120864
  19 H :    0.154605
  20 H :    0.138976
  21 H :    0.138946
Sum of atomic charges:   -0.0000000

LOEWDIN ATOMIC CHARGES
----------------------
   0 C :   -0.134766
   1 C :   -0.133665
   2 C :   -0.100523
   3 C :   -0.113368
   4 C :   -0.098558
   5 C :   -0.135236
   6 C :   -0.099950
   7 C :   -0.095232
   8 C :   -0.405433
   9 C :   -0.135792
  10 C :   -0.133436
  11 C :   -0.365023
  12 Cl:    0.395079
  13 Cl:    0.370436
  14 H :    0.142500
  15 H :    0.143477
  16 H :    0.148124
  17 H :    0.149536
  18 H :    0.143256
  19 H :    0.157679
  20 H :    0.150203
  21 H :    0.150693

  Mayer bond orders larger than 0.100000
B(  0-C ,  1-C ) :   1.4147 B(  0-C ,  5-C ) :   1.4237 B(  0-C , 14-H ) :   0.9711
B(  1-C ,  2-C ) :   1.4555 B(  1-C , 15-H ) :   0.9727 B(  2-C ,  3-C ) :   1.3603
B(  2-C , 16-H ) :   0.9629 B(  3-C ,  4-C ) :   1.3888 B(  3-C ,  6-C ) :   0.8256
B(  4-C ,  5-C ) :   1.4489 B(  4-C , 17-H ) :   0.9654 B(  5-C , 18-H ) :   0.9736
B(  6-C ,  7-C ) :   1.3557 B(  6-C , 11-C ) :   1.3037 B(  7-C ,  8-C ) :   1.3995
B(  7-C , 19-H ) :   0.9622 B(  8-C ,  9-C ) :   1.3889 B(  8-C , 13-Cl) :   0.9710
B(  9-C , 10-C ) :   1.4006 B(  9-C , 20-H ) :   0.9663 B( 10-C , 11-C ) :   1.4155
B( 10-C , 21-H ) :   0.9624 B( 11-C , 12-Cl) :   1.0773

FINAL SINGLE POINT ENERGY     -1382.414343043486

DIPOLE MOMENT
-------------

Method             : SCF
Type of density    : Electron Density
Multiplicity       :   1
Irrep              :   0
Energy             : -1382.4250068251860739 Eh
Relativity type    :
Basis              : AO
                                X                 Y                 Z
Electronic contribution:     11.900730238      -4.875986038       0.411673654
Nuclear contribution   :    -12.148819540       4.910614960      -0.443189804
                        -----------------------------------------
Total Dipole Moment    :     -0.248089302       0.034628923      -0.031516150
                        -----------------------------------------
Magnitude (a.u.)       :      0.252469269
Magnitude (Debye)      :      0.641725883

Rotational constants in cm-1:             0.027520             0.011780             0.008751
Rotational constants in MHz :           825.027643           353.152656           262.341021

                             ****ORCA TERMINATED NORMALLY****
TOTAL RUN TIME: 0 days 0 hours 7 minutes 36 seconds 389 msec
