                         Program Version 6.0.0  -   RELEASE  -
|  1> ! wb97x-v def2-tzvp def2/J RIJCOSX DEFGRID2 scfconv7 GCP(DFT/TZ) printgap
|  2> %output
|  3>     printlevel normal
|  4> end
|  5> %cpcm
|  6>     smd true
|  7>     smdsolvent "water"
|  8> end
|  9> * xyz 0 1
| 10> C -3.916838748498744 1.5479095223878188 -0.0790421814583858
| 11> C -3.5438223704047265 0.5820284084359849 -1.0118358472663562
| 12> C -2.2640068630137473 0.03911492802924661 -0.985248434065569
| 13> C -1.3382300877768996 0.46194267674642514 -0.024736655600416626
| 14> C -1.7141526617977367 1.4422529694884365 0.8997333331234211
| 15> C -2.998436281129617 1.9777899130469565 0.8751579379496793
| 16> C 0.041324182757530865 -0.07440623684260317 -0.003523497805888059
| 17> C 1.1136220663102026 0.8247473899667062 -0.07533573019026721
| 18> C 2.418800624116161 0.35940522644373885 -0.06286205715863191
| 19> C 2.7139268588347942 -0.9944331619214136 0.020690672103089662
| 20> C 1.6613949020136536 -1.8970311415239423 0.1057713657423585
| 21> C 0.35015476611151225 -1.436874893721887 0.09625655660429155
| 22> Cl -0.9287505355381335 -2.6318127590598253 0.28429655024501027
| 23> Cl 3.7377521899766037 1.5197165660108345 -0.1641162607383718
| 24> H -4.918115648623616 1.966136924447905 -0.09921682935094933
| 25> H -4.250887249109796 0.25244521791307906 -1.766480661934594
| 26> H -1.9749072738507818 -0.7020788165809204 -1.7229050952028486
| 27> H -0.9998816553264754 1.7745704075038766 1.6468686111561788
| 28> H -3.2806767961181804 2.7305154551805932 1.6043892446673327
| 29> H 0.9067112754192896 1.8858555524373681 -0.15693689750334053
| 30> H 3.738283415447817 -1.3474357621903257 0.026655150210158903
| 31> H 1.86737192232789 -2.957718705827731 0.1911140346676599
| 32> *
| 33>
| 34>                          ****END OF INPUT****

CARTESIAN COORDINATES (ANGSTROEM)
---------------------------------
  C     -3.916839    1.547910   -0.079042
  C     -3.543822    0.582028   -1.011836
  C     -2.264007    0.039115   -0.985248
  C     -1.338230    0.461943   -0.024737
  C     -1.714153    1.442253    0.899733
  C     -2.998436    1.977790    0.875158
  C      0.041324   -0.074406   -0.003523
  C      1.113622    0.824747   -0.075336
  C      2.418801    0.359405   -0.062862
  C      2.713927   -0.994433    0.020691
  C      1.661395   -1.897031    0.105771
  C      0.350155   -1.436875    0.096257
  Cl    -0.928751   -2.631813    0.284297
  Cl     3.737752    1.519717   -0.164116
  H     -4.918116    1.966137   -0.099217
  H     -4.250887    0.252445   -1.766481
  H     -1.974907   -0.702079   -1.722905
  H     -0.999882    1.774570    1.646869
  H     -3.280677    2.730515    1.604389
  H      0.906711    1.885856   -0.156937
  H      3.738283   -1.347436    0.026655
  H      1.867372   -2.957719    0.191114

 Total Charge           Charge          ....    0
 Multiplicity           Mult            ....    1
 Number of Electrons    NEL             ....  114
 Basis Dimension        Dim             ....  494

ORBITAL ENERGIES
----------------

  NO   OCC          E(Eh)            E(eV)
   0   2.0000    -107.150331     -2915.7087
   1   2.0000    -107.149424     -2915.6841
   2   2.0000     -12.124148      -329.9149
   3   2.0000     -12.122856      -329.8797
   4   2.0000     -12.085536      -328.8642
   5   2.0000     -12.071317      -328.4772
   6   2.0000     -12.070434      -328.4532
   7   2.0000     -12.069019      -328.4147
   8   2.0000     -12.068897      -328.4114
   9   2.0000     -12.054853      -328.0292
  10   2.0000     -12.054331      -328.0150
  11   2.0000     -12.053039      -327.9799
  12   2.0000     -12.051617      -327.9412
  13   2.0000     -12.050246      -327.9039
  14   2.0000     -11.303499      -307.5838
  15   2.0000     -11.302646      -307.5606
  16   2.0000      -9.095007      -247.4877
  17   2.0000      -9.094211      -247.4661
  18   2.0000      -9.092441      -247.4179
  19   2.0000      -9.092435      -247.4177
  20   2.0000      -9.091547      -247.3936
  21   2.0000      -9.091516      -247.3927
  22   2.0000      -1.448425       -39.4137
  23   2.0000      -1.427780       -38.8519
  24   2.0000      -1.393455       -37.9178
  25   2.0000      -1.372530       -37.3484
  26   2.0000      -1.319298       -35.8999
  27   2.0000      -1.278757       -34.7968
  28   2.0000      -1.275739       -34.7146
  29   2.0000      -1.261187       -34.3187
  30   2.0000      -1.153607       -31.3913
  31   2.0000      -1.124329       -30.5946
  32   2.0000      -1.106291       -30.1037
  33   2.0000      -1.090566       -29.6758
  34   2.0000      -0.999558       -27.1994
  35   2.0000      -0.993453       -27.0332
  36   2.0000      -0.966055       -26.2877
  37   2.0000      -0.953380       -25.9428
  38   2.0000      -0.946969       -25.7683
  39   2.0000      -0.928749       -25.2726
  40   2.0000      -0.901880       -24.5414
  41   2.0000      -0.891598       -24.2616
  42   2.0000      -0.875181       -23.8149
  43   2.0000      -0.868902       -23.6440
  44   2.0000      -0.849299       -23.1106
  45   2.0000      -0.840592       -22.8737
  46   2.0000      -0.823213       -22.4008
  47   2.0000      -0.821286       -22.3483
  48   2.0000      -0.808600       -22.0031
  49   2.0000      -0.797048       -21.6888
  50   2.0000      -0.795607       -21.6496
  51   2.0000      -0.780684       -21.2435
  52   2.0000      -0.766903       -20.8685
  53   2.0000      -0.676586       -18.4109
  54   2.0000      -0.663574       -18.0568
  55   2.0000      -0.642615       -17.4864
  56   2.0000      -0.634907       -17.2767
  57   0.0000      -0.287869        -7.8333
  58   0.0000      -0.273243        -7.4353
  59   0.0000      -0.270288        -7.3549
  60   0.0000      -0.266385        -7.2487
  61   0.0000      -0.239277        -6.5110

MULLIKEN ATOMIC CHARGES
-----------------------
   0 C :   -0.163394
   1 C :   -0.151115
   2 C :   -0.257112
   3 C :    0.178052
   4 C :   -0.261811
   5 C :   -0.156990
   6 C :    0.164546
   7 C :   -0.298881
   8 C :    0.178537
   9 C :   -0.211804
  10 C :   -0.223220
  11 C :    0.054561
  12 Cl:   -0.100695
  13 Cl:   -0.111900
  14 H :    0.162988
  15 H :    0.161956
  16 H :    0.170462
  17 H :    0.171429
  18 H :    0.161928
  19 H :    0.181723
  20 H :    0.176194
  21 H :    0.174545
Sum of atomic charges:   -0.0000000

LOEWDIN ATOMIC CHARGES
----------------------
   0 C :   -0.143138
   1 C :   -0.143187
   2 C :   -0.110214
   3 C :   -0.121276
   4 C :   -0.100640
   5 C :   -0.142915
   6 C :   -0.100882
   7 C :   -0.091514
   8 C :   -0.411464
   9 C :   -0.132364
  10 C :   -0.130588
  11 C :   -0.368474
  12 Cl:    0.380535
  13 Cl:    0.356244
  14 H :    0.151829
  15 H :    0.152684
  16 H :    0.155132
  17 H :    0.158917
  18 H :    0.152677
  19 H :    0.166536
  20 H :    0.160939
  21 H :    0.161163

  Mayer bond orders larger than 0.100000
B(  0-C ,  1-C ) :   1.3942 B(  0-C ,  5-C ) :   1.4002 B(  0-C , 14-H ) :   0.9736
B(  1-C ,  2-C ) :   1.4410 B(  1-C , 15-H ) :   0.9759 B(  2-C ,  3-C ) :   1.3315
B(  2-C , 16-H ) :   0.9703 B(  3-C ,  4-C ) :   1.3726 B(  3-C ,  6-C ) :   0.8283
B(  4-C ,  5-C ) :   1.4299 B(  4-C , 17-H ) :   0.9732 B(  5-C , 18-H ) :   0.9777
B(  6-C ,  7-C ) :   1.3627 B(  6-C , 11-C ) :   1.2915 B(  7-C ,  8-C ) :   1.3815
B(  7-C , 19-H ) :   0.9619 B(  8-C ,  9-C ) :   1.3561 B(  8-C , 13-Cl) :   0.9662
B(  9-C , 10-C ) :   1.4096 B(  9-C , 20-H ) :   0.9687 B( 10-C , 11-C ) :   1.3862
B( 10-C , 21-H ) :   0.9666 B( 11-C , 12-Cl) :   1.0504

FINAL SINGLE POINT ENERGY     -1382.418045639701

DIPOLE MOMENT
-------------

Method             : SCF
Type of density    : Electron Density
Multiplicity       :   1
Irrep              :   0
Energy             : -1382.4287094214009812 Eh
Relativity type    :
Basis              : AO
                                X                 Y                 Z
Electronic contribution:     11.967946718      -4.847075574       0.404391375
Nuclear contribution   :    -12.148819540       4.910614960      -0.443189804
                        -----------------------------------------
Total Dipole Moment    :     -0.180872822       0.063539387      -0.038798429
                        -----------------------------------------
Magnitude (a.u.)       :      0.195595372
Magnitude (Debye)      :      0.497163926

Rotational constants in cm-1:             0.027520             0.011780             0.008751
Rotational constants in MHz :           825.027643           353.152656           262.341021

                             ****ORCA TERMINATED NORMALLY****
TOTAL RUN TIME: 0 days 0 hours 7 minutes 14 seconds 94 msec
