                         Program Version 6.0.0  -   RELEASE  -
|  1> ! pbe def2-sv(p) def2/J RI DEFGRID1 loosescf d4 GCP(DFT/SV(P)) printgap
|  2> %output
|  3>     printlevel normal
|  4> end
|  5> * xyz 0 1
|  6> C -3.0363738591 0.697206527 0.6378225683
|  7> O -1.8440152641 0.7247523167 -0.1491713234
|  8> C -1.0696883137 -0.3564835664 -0.1221290368
|  9> O -1.3438364181 -1.3383069771 0.5360033973
| 10> C 0.1306957828 -0.2231181309 -1.0369451182
| 11> C 1.1660995818 -1.3126149305 -0.7480981236
| 12> C 1.8484941097 -1.0809396808 0.5979864581
| 13> C 2.4820084149 0.3057095064 0.6542817169
| 14> C 1.4279251205 1.3801856152 0.4054237566
| 15> C 0.7650617869 1.1696402878 -0.9526586103
| 16> H -2.793080128 0.4849627598 1.6798858143
| 17> H -3.7093467413 -0.0772730591 0.2675430539
| 18> H -3.4796566613 1.6822995077 0.5323676584
| 19> H -0.2690538356 -0.3657924713 -2.0485636216
| 20> H 0.6737521568 -2.2866258096 -0.7455159423
| 21> H 1.9136291026 -1.3041287851 -1.5425545352
| 22> H 1.1070388778 -1.1794084051 1.3940743558
| 23> H 2.6091687051 -1.8472101568 0.7563662725
| 24> H 2.9488088537 0.4596448218 1.6286865575
| 25> H 3.2602964478 0.3794673206 -0.1081571721
| 26> H 0.670342981 1.3337732718 1.1919126366
| 27> H 1.886657253 2.3696870781 0.4400523647
| 28> H 0.0045663148 1.9312847906 -1.1246210328
| 29> H 1.5189604814 1.2520440681 -1.7371693693
| 30> *
| 31>
| 32>                          ****END OF INPUT****

CARTESIAN COORDINATES (ANGSTROEM)
---------------------------------
  C     -3.036374    0.697207    0.637823
  O     -1.844015    0.724752   -0.149171
  C     -1.069688   -0.356484   -0.122129
  O     -1.343836   -1.338307    0.536003
  C      0.130696   -0.223118   -1.036945
  C      1.166100   -1.312615   -0.748098
  C      1.848494   -1.080940    0.597986
  C      2.482008    0.305710    0.654282
  C      1.427925    1.380186    0.405424
  C      0.765062    1.169640   -0.952659
  H     -2.793080    0.484963    1.679886
  H     -3.709347   -0.077273    0.267543
  H     -3.479657    1.682300    0.532368
  H     -0.269054   -0.365792   -2.048564
  H      0.673752   -2.286626   -0.745516
  H      1.913629   -1.304129   -1.542555
  H      1.107039   -1.179408    1.394074
  H      2.609169   -1.847210    0.756366
  H      2.948809    0.459645    1.628687
  H      3.260296    0.379467   -0.108157
  H      0.670343    1.333773    1.191913
  H      1.886657    2.369687    0.440052
  H      0.004566    1.931285   -1.124621
  H      1.518960    1.252044   -1.737169

 Total Charge           Charge          ....    0
 Multiplicity           Mult            ....    1
 Number of Electrons    NEL             ....   78
 Basis Dimension        Dim             ....  168

ORBITAL ENERGIES
----------------

  NO   OCC          E(Eh)            E(eV)
   0   2.0000     -18.799151      -511.5509
   1   2.0000     -18.735868      -509.8289
   2   2.0000     -10.004755      -272.2432
   3   2.0000      -9.942241      -270.5421
   4   2.0000      -9.904187      -269.5066
   5   2.0000      -9.885649      -269.0022
   6   2.0000      -9.882280      -268.9105
   7   2.0000      -9.881243      -268.8823
   8   2.0000      -9.879133      -268.8249
   9   2.0000      -9.875893      -268.7367
  10   2.0000      -1.006973       -27.4011
  11   2.0000      -0.910651       -24.7801
  12   2.0000      -0.760248       -20.6874
  13   2.0000      -0.690999       -18.8030
  14   2.0000      -0.665827       -18.1181
  15   2.0000      -0.650511       -17.7013
  16   2.0000      -0.559337       -15.2203
  17   2.0000      -0.539992       -14.6939
  18   2.0000      -0.515386       -14.0244
  19   2.0000      -0.492508       -13.4018
  20   2.0000      -0.448390       -12.2013
  21   2.0000      -0.435991       -11.8639
  22   2.0000      -0.424219       -11.5436
  23   2.0000      -0.412068       -11.2129
  24   2.0000      -0.392841       -10.6897
  25   2.0000      -0.388013       -10.5584
  26   2.0000      -0.378282       -10.2936
  27   2.0000      -0.356533        -9.7017
  28   2.0000      -0.334587        -9.1046
  29   2.0000      -0.332779        -9.0554
  30   2.0000      -0.326824        -8.8933
  31   2.0000      -0.324590        -8.8325
  32   2.0000      -0.301536        -8.2052
  33   2.0000      -0.299613        -8.1529
  34   2.0000      -0.280851        -7.6423
  35   2.0000      -0.261302        -7.1104
  36   2.0000      -0.258626        -7.0376
  37   2.0000      -0.256839        -6.9889
  38   2.0000      -0.217822        -5.9272
  39   0.0000      -0.023013        -0.6262
  40   0.0000       0.034254         0.9321
  41   0.0000       0.046467         1.2644
  42   0.0000       0.065762         1.7895
  43   0.0000       0.073949         2.0123

MULLIKEN ATOMIC CHARGES
-----------------------
   0 C :   -0.107230
   1 O :   -0.239689
   2 C :    0.131185
   3 O :   -0.200687
   4 C :   -0.189249
   5 C :   -0.096532
   6 C :   -0.168520
   7 C :   -0.153829
   8 C :   -0.160263
   9 C :   -0.114194
  10 H :    0.119674
  11 H :    0.118912
  12 H :    0.121036
  13 H :    0.098747
  14 H :    0.095152
  15 H :    0.071827
  16 H :    0.095240
  17 H :    0.083292
  18 H :    0.083544
  19 H :    0.070665
  20 H :    0.083482
  21 H :    0.084627
  22 H :    0.097214
  23 H :    0.075597
Sum of atomic charges:    0.0000000

LOEWDIN ATOMIC CHARGES
----------------------
   0 C :   -0.202776
   1 O :   -0.069519
   2 C :    0.043440
   3 O :   -0.162503
   4 C :   -0.166829
   5 C :   -0.213666
   6 C :   -0.229704
   7 C :   -0.226641
   8 C :   -0.227480
   9 C :   -0.216362
  10 H :    0.119653
  11 H :    0.119383
  12 H :    0.120212
  13 H :    0.140889
  14 H :    0.124401
  15 H :    0.115512
  16 H :    0.119961
  17 H :    0.116917
  18 H :    0.115509
  19 H :    0.111880
  20 H :    0.114065
  21 H :    0.117217
  22 H :    0.120078
  23 H :    0.116362

  Mayer bond orders larger than 0.100000
B(  0-C ,  1-O ) :   0.9408 B(  0-C , 10-H ) :   0.9496 B(  0-C , 11-H ) :   0.9541
B(  0-C , 12-H ) :   0.9590 B(  1-O ,  2-C ) :   1.2108 B(  2-C ,  3-O ) :   2.0498
B(  2-C ,  4-C ) :   0.9479 B(  4-C ,  5-C ) :   1.1000 B(  4-C ,  9-C ) :   1.0867
B(  4-C , 13-H ) :   0.8580 B(  5-C ,  6-C ) :   1.1308 B(  5-C , 14-H ) :   0.9053
B(  5-C , 15-H ) :   0.9107 B(  6-C ,  7-C ) :   1.1296 B(  6-C , 16-H ) :   0.9119
B(  6-C , 17-H ) :   0.9177 B(  7-C ,  8-C ) :   1.1284 B(  7-C , 18-H ) :   0.9197
B(  7-C , 19-H ) :   0.9145 B(  8-C ,  9-C ) :   1.1300 B(  8-C , 20-H ) :   0.9123
B(  8-C , 21-H ) :   0.9176 B(  9-C , 22-H ) :   0.9070 B(  9-C , 23-H ) :   0.9098

Dispersion correction           -0.023735140
FINAL SINGLE POINT ENERGY      -462.707168685717

DIPOLE MOMENT
-------------

Method             : SCF
Type of density    : Electron Density
Multiplicity       :   1
Irrep              :   0
Energy             :  -462.7951981328357078 Eh
Relativity type    :
Basis              : AO
                                X                 Y                 Z
Electronic contribution:     -6.073122128      -2.014672892      -0.760864819
Nuclear contribution   :      5.902670612       2.648472738       0.553912975
                        -----------------------------------------
Total Dipole Moment    :     -0.170451516       0.633799846      -0.206951844
                        -----------------------------------------
Magnitude (a.u.)       :      0.688175144
Magnitude (Debye)      :      1.749202206

Rotational constants in cm-1:             0.076586             0.032566             0.028475
Rotational constants in MHz :          2295.983923           976.294696           853.672840

                             ****ORCA TERMINATED NORMALLY****
TOTAL RUN TIME: 0 days 0 hours 0 minutes 12 seconds 580 msec
