                         Program Version 6.0.0  -   RELEASE  -
|  1> ! pbe def2-sv(p) def2/J RI DEFGRID1 loosescf d4 GCP(DFT/SV(P)) printgap
|  2> %output
|  3>     printlevel normal
|  4> end
|  5> * xyz 0 1
|  6> C -2.4809850531 0.5953869139 -1.3068700891
|  7> C -2.051558635 0.4265566626 0.1585421995
|  8> H -2.9599125118 0.3825680615 0.767904468
|  9> C -1.1485877303 1.5841356131 0.6309850986
| 10> C 0.2781464722 1.1299058207 0.927383448
| 11> C 0.7953883302 0.2881445728 -0.2407701555
| 12> H 0.5789863633 0.8326691961 -1.1640801924
| 13> C 0.0261289573 -1.040981583 -0.2390829347
| 14> C -1.3839035014 -0.9236137105 0.2701394622
| 15> O -1.980609066 -1.8903739159 0.7101416605
| 16> C 2.286031229 0.0327121598 -0.189055207
| 17> C 2.9045166633 -0.3562791682 0.9147428148
| 18> C 3.011880479 0.2282534037 -1.4845969343
| 19> H -1.6163186021 0.6465170751 -1.9618831149
| 20> H -3.1034672795 -0.242289529 -1.6151608709
| 21> H -3.0574101051 1.5105621731 -1.4127398148
| 22> H -1.1232655626 2.3533871807 -0.1420888416
| 23> H -1.5746569157 2.0333465537 1.5284337809
| 24> H 0.9178466363 2.0000954433 1.0786848573
| 25> H 0.2941200744 0.5345842547 1.8422329551
| 26> H -0.0275385351 -1.4645419019 -1.2451638573
| 27> H 0.539684796 -1.7793693821 0.3818263771
| 28> H 3.9642770854 -0.5451415154 0.9320586888
| 29> H 2.3856590635 -0.5033891137 1.8462357336
| 30> H 2.5815447081 -0.4110950472 -2.2541278578
| 31> H 2.9150020593 1.2610392526 -1.8163763298
| 32> H 4.0669374914 -0.0084924762 -1.3819961896
| 33> *
| 34>
| 35>                          ****END OF INPUT****

CARTESIAN COORDINATES (ANGSTROEM)
---------------------------------
  C     -2.480985    0.595387   -1.306870
  C     -2.051559    0.426557    0.158542
  H     -2.959913    0.382568    0.767904
  C     -1.148588    1.584136    0.630985
  C      0.278146    1.129906    0.927383
  C      0.795388    0.288145   -0.240770
  H      0.578986    0.832669   -1.164080
  C      0.026129   -1.040982   -0.239083
  C     -1.383904   -0.923614    0.270139
  O     -1.980609   -1.890374    0.710142
  C      2.286031    0.032712   -0.189055
  C      2.904517   -0.356279    0.914743
  C      3.011880    0.228253   -1.484597
  H     -1.616319    0.646517   -1.961883
  H     -3.103467   -0.242290   -1.615161
  H     -3.057410    1.510562   -1.412740
  H     -1.123266    2.353387   -0.142089
  H     -1.574657    2.033347    1.528434
  H      0.917847    2.000095    1.078685
  H      0.294120    0.534584    1.842233
  H     -0.027539   -1.464542   -1.245164
  H      0.539685   -1.779369    0.381826
  H      3.964277   -0.545142    0.932059
  H      2.385659   -0.503389    1.846236
  H      2.581545   -0.411095   -2.254128
  H      2.915002    1.261039   -1.816376
  H      4.066937   -0.008492   -1.381996

 Total Charge           Charge          ....    0
 Multiplicity           Mult            ....    1
 Number of Electrons    NEL             ....   84
 Basis Dimension        Dim             ....  186

ORBITAL ENERGIES
----------------

  NO   OCC          E(Eh)            E(eV)
   0   2.0000     -18.730448      -509.6814
   1   2.0000      -9.967813      -271.2380
   2   2.0000      -9.907929      -269.6084
   3   2.0000      -9.903184      -269.4793
   4   2.0000      -9.901367      -269.4299
   5   2.0000      -9.894690      -269.2482
   6   2.0000      -9.894273      -269.2368
   7   2.0000      -9.893618      -269.2190
   8   2.0000      -9.890927      -269.1458
   9   2.0000      -9.885527      -268.9989
  10   2.0000      -9.871247      -268.6103
  11   2.0000      -0.928505       -25.2659
  12   2.0000      -0.774026       -21.0623
  13   2.0000      -0.729994       -19.8642
  14   2.0000      -0.684074       -18.6146
  15   2.0000      -0.665059       -18.0972
  16   2.0000      -0.618226       -16.8228
  17   2.0000      -0.602803       -16.4031
  18   2.0000      -0.556119       -15.1328
  19   2.0000      -0.542391       -14.7592
  20   2.0000      -0.477380       -12.9902
  21   2.0000      -0.461918       -12.5694
  22   2.0000      -0.438347       -11.9280
  23   2.0000      -0.418164       -11.3788
  24   2.0000      -0.416733       -11.3399
  25   2.0000      -0.401940       -10.9373
  26   2.0000      -0.390324       -10.6212
  27   2.0000      -0.378887       -10.3100
  28   2.0000      -0.369807       -10.0630
  29   2.0000      -0.364280        -9.9126
  30   2.0000      -0.355055        -9.6615
  31   2.0000      -0.350294        -9.5320
  32   2.0000      -0.344360        -9.3705
  33   2.0000      -0.327658        -8.9160
  34   2.0000      -0.320426        -8.7192
  35   2.0000      -0.312088        -8.4923
  36   2.0000      -0.303243        -8.2517
  37   2.0000      -0.292862        -7.9692
  38   2.0000      -0.279238        -7.5984
  39   2.0000      -0.275544        -7.4979
  40   2.0000      -0.220372        -5.9966
  41   2.0000      -0.186424        -5.0728
  42   0.0000      -0.049915        -1.3583
  43   0.0000      -0.017147        -0.4666
  44   0.0000       0.022695         0.6176
  45   0.0000       0.044123         1.2006
  46   0.0000       0.054361         1.4792

MULLIKEN ATOMIC CHARGES
-----------------------
   0 C :   -0.278757
   1 C :   -0.135060
   2 H :    0.073862
   3 C :   -0.082640
   4 C :   -0.132985
   5 C :   -0.160273
   6 H :    0.054856
   7 C :   -0.100304
   8 C :   -0.009600
   9 O :   -0.161933
  10 C :   -0.022775
  11 C :   -0.247643
  12 C :   -0.211462
  13 H :    0.110964
  14 H :    0.118191
  15 H :    0.117658
  16 H :    0.072920
  17 H :    0.090138
  18 H :    0.092685
  19 H :    0.094775
  20 H :    0.113786
  21 H :    0.106561
  22 H :    0.085717
  23 H :    0.094067
  24 H :    0.107865
  25 H :    0.111630
  26 H :    0.097757
Sum of atomic charges:    0.0000000

LOEWDIN ATOMIC CHARGES
----------------------
   0 C :   -0.320026
   1 C :   -0.170290
   2 H :    0.129704
   3 C :   -0.213484
   4 C :   -0.211767
   5 C :   -0.135554
   6 H :    0.115327
   7 C :   -0.232174
   8 C :    0.048302
   9 O :   -0.134278
  10 C :   -0.048558
  11 C :   -0.265983
  12 C :   -0.322067
  13 H :    0.117238
  14 H :    0.126287
  15 H :    0.125593
  16 H :    0.116693
  17 H :    0.124435
  18 H :    0.122656
  19 H :    0.120982
  20 H :    0.145384
  21 H :    0.142898
  22 H :    0.119864
  23 H :    0.117970
  24 H :    0.127749
  25 H :    0.128855
  26 H :    0.124244

  Mayer bond orders larger than 0.100000
B(  0-C ,  1-C ) :   1.0831 B(  0-C , 13-H ) :   0.9456 B(  0-C , 14-H ) :   0.9444
B(  0-C , 15-H ) :   0.9429 B(  1-C ,  2-H ) :   0.8740 B(  1-C ,  3-C ) :   1.0246
B(  1-C ,  8-C ) :   1.0175 B(  3-C ,  4-C ) :   1.1834 B(  3-C , 16-H ) :   0.9065
B(  3-C , 17-H ) :   0.9095 B(  4-C ,  5-C ) :   1.1231 B(  4-C , 18-H ) :   0.9220
B(  4-C , 19-H ) :   0.8821 B(  5-C ,  6-H ) :   0.8660 B(  5-C ,  7-C ) :   1.0458
B(  5-C , 10-C ) :   0.9938 B(  7-C ,  8-C ) :   1.0064 B(  7-C , 20-H ) :   0.8795
B(  7-C , 21-H ) :   0.8844 B(  8-C ,  9-O ) :   2.1854 B( 10-C , 11-C ) :   2.0372
B( 10-C , 12-C ) :   1.1385 B( 11-C , 22-H ) :   0.9019 B( 11-C , 23-H ) :   0.9082
B( 12-C , 24-H ) :   0.9296 B( 12-C , 25-H ) :   0.9273 B( 12-C , 26-H ) :   0.9387

Dispersion correction           -0.028553243
FINAL SINGLE POINT ENERGY      -464.820673023051

DIPOLE MOMENT
-------------

Method             : SCF
Type of density    : Electron Density
Multiplicity       :   1
Irrep              :   0
Energy             :  -464.9060644383109775 Eh
Relativity type    :
Basis              : AO
                                X                 Y                 Z
Electronic contribution:     -4.020799785      -5.257374513       3.760195942
Nuclear contribution   :      4.456462791       6.164289659      -4.320271601
                        -----------------------------------------
Total Dipole Moment    :      0.435663007       0.906915146      -0.560075659
                        -----------------------------------------
Magnitude (a.u.)       :      1.151512954
Magnitude (Debye)      :      2.926913322

Rotational constants in cm-1:             0.061127             0.023693             0.022097
Rotational constants in MHz :          1832.526733           710.291143           662.444133

                             ****ORCA TERMINATED NORMALLY****
TOTAL RUN TIME: 0 days 0 hours 0 minutes 14 seconds 670 msec
