                         Program Version 6.0.0  -   RELEASE  -
|  1> ! r2scan-3c def2/J RI DEFGRID2 scfconv6 printgap
|  2> %output
|  3>     printlevel normal
|  4> end
|  5> * xyz 0 1
|  6> C -1.8505279159 0.0179684441 -0.6190647641
|  7> C -0.8465270534 -0.0468454595 0.5291958063
|  8> C 0.1113535658 -1.24131321 0.3806611377
|  9> C 1.3984413458 -0.698080539 -0.2697592315
| 10> C 1.1702026513 0.8039992238 -0.4785700919
| 11> C 0.0889606289 1.1656966019 0.5362578286
| 12> H -2.4738860468 0.9050385318 -0.529997315
| 13> H -1.339460627 0.0488460583 -1.577264494
| 14> H -2.497691101 -0.8562136734 -0.6042808259
| 15> H -1.404749215 -0.111450056 1.4676641412
| 16> H 0.3358968949 -1.6638941739 1.3601368486
| 17> H -0.340931106 -2.0282693706 -0.2213132468
| 18> H 2.2498789384 -0.8596567017 0.3914927532
| 19> H 1.6146658576 -1.1992302913 -1.2123350253
| 20> H 2.082144974 1.3811801763 -0.3323016993
| 21> H 0.8105081613 0.997795576 -1.4893768538
| 22> H 0.535073903 1.2787274531 1.5257084389
| 23> H -0.4283110422 2.0901442194 0.2837641434
| 24> *
| 25>
| 26>                          ****END OF INPUT****

CARTESIAN COORDINATES (ANGSTROEM)
---------------------------------
  C     -1.850528    0.017968   -0.619065
  C     -0.846527   -0.046845    0.529196
  C      0.111354   -1.241313    0.380661
  C      1.398441   -0.698081   -0.269759
  C      1.170203    0.803999   -0.478570
  C      0.088961    1.165697    0.536258
  H     -2.473886    0.905039   -0.529997
  H     -1.339461    0.048846   -1.577264
  H     -2.497691   -0.856214   -0.604281
  H     -1.404749   -0.111450    1.467664
  H      0.335897   -1.663894    1.360137
  H     -0.340931   -2.028269   -0.221313
  H      2.249879   -0.859657    0.391493
  H      1.614666   -1.199230   -1.212335
  H      2.082145    1.381180   -0.332302
  H      0.810508    0.997796   -1.489377
  H      0.535074    1.278727    1.525708
  H     -0.428311    2.090144    0.283764

 Total Charge           Charge          ....    0
 Multiplicity           Mult            ....    1
 Number of Electrons    NEL             ....   48
 Basis Dimension        Dim             ....  174

ORBITAL ENERGIES
----------------

  NO   OCC          E(Eh)            E(eV)
   0   2.0000     -10.026102      -272.8241
   1   2.0000     -10.018001      -272.6037
   2   2.0000     -10.017804      -272.5983
   3   2.0000     -10.016692      -272.5681
   4   2.0000     -10.016312      -272.5577
   5   2.0000     -10.012172      -272.4450
   6   2.0000      -0.803234       -21.8571
   7   2.0000      -0.704039       -19.1579
   8   2.0000      -0.671445       -18.2709
   9   2.0000      -0.622510       -16.9394
  10   2.0000      -0.527752       -14.3609
  11   2.0000      -0.507764       -13.8169
  12   2.0000      -0.454255       -12.3609
  13   2.0000      -0.437603       -11.9078
  14   2.0000      -0.398406       -10.8412
  15   2.0000      -0.373428       -10.1615
  16   2.0000      -0.359786        -9.7903
  17   2.0000      -0.351596        -9.5674
  18   2.0000      -0.303112        -8.2481
  19   2.0000      -0.300474        -8.1763
  20   2.0000      -0.291069        -7.9204
  21   2.0000      -0.286181        -7.7874
  22   2.0000      -0.281332        -7.6554
  23   2.0000      -0.275488        -7.4964
  24   0.0000       0.076743         2.0883
  25   0.0000       0.101068         2.7502
  26   0.0000       0.122579         3.3355
  27   0.0000       0.128281         3.4907
  28   0.0000       0.130035         3.5384

MULLIKEN ATOMIC CHARGES
-----------------------
   0 C :   -0.527679
   1 C :    0.037731
   2 C :   -0.380200
   3 C :   -0.315124
   4 C :   -0.339292
   5 C :   -0.301127
   6 H :    0.145833
   7 H :    0.149884
   8 H :    0.149435
   9 H :    0.153482
  10 H :    0.155251
  11 H :    0.151235
  12 H :    0.151062
  13 H :    0.155332
  14 H :    0.151069
  15 H :    0.160374
  16 H :    0.152845
  17 H :    0.149890
Sum of atomic charges:   -0.0000000

LOEWDIN ATOMIC CHARGES
----------------------
   0 C :   -0.413000
   1 C :   -0.237732
   2 C :   -0.302178
   3 C :   -0.307167
   4 C :   -0.307701
   5 C :   -0.300017
   6 H :    0.152559
   7 H :    0.152993
   8 H :    0.152785
   9 H :    0.156547
  10 H :    0.157591
  11 H :    0.158676
  12 H :    0.155614
  13 H :    0.156035
  14 H :    0.155802
  15 H :    0.152891
  16 H :    0.157690
  17 H :    0.158610

  Mayer bond orders larger than 0.100000
B(  0-C ,  1-C ) :   0.9183 B(  0-C ,  6-H ) :   0.9780 B(  0-C ,  7-H ) :   0.9831
B(  0-C ,  8-H ) :   0.9739 B(  1-C ,  2-C ) :   0.9146 B(  1-C ,  5-C ) :   0.8967
B(  1-C ,  9-H ) :   0.9395 B(  2-C ,  3-C ) :   0.9214 B(  2-C , 10-H ) :   0.9685
B(  2-C , 11-H ) :   0.9803 B(  3-C ,  4-C ) :   0.9203 B(  3-C , 12-H ) :   0.9842
B(  3-C , 13-H ) :   0.9771 B(  4-C ,  5-C ) :   0.8863 B(  4-C , 14-H ) :   0.9511
B(  4-C , 15-H ) :   1.0040 B(  5-C , 16-H ) :   0.9765 B(  5-C , 17-H ) :   0.9661

Dispersion correction           -0.004765850
FINAL SINGLE POINT ENERGY      -235.783199706583

DIPOLE MOMENT
-------------

Method             : SCF
Type of density    : Electron Density
Multiplicity       :   1
Irrep              :   0
Energy             :  -235.7860316665005485 Eh
Relativity type    :
Basis              : AO
                                X                 Y                 Z
Electronic contribution:      0.803729513       0.015455134       0.919281036
Nuclear contribution   :     -0.803874766      -0.015932121      -0.880093688
                        -----------------------------------------
Total Dipole Moment    :     -0.000145252      -0.000476987       0.039187348
                        -----------------------------------------
Magnitude (a.u.)       :      0.039190520
Magnitude (Debye)      :      0.099614385

Rotational constants in cm-1:             0.171002             0.112339             0.089738
Rotational constants in MHz :          5126.508089          3367.841606          2690.270366

                             ****ORCA TERMINATED NORMALLY****
TOTAL RUN TIME: 0 days 0 hours 0 minutes 11 seconds 387 msec
