                         Program Version 6.0.0  -   RELEASE  -
|  1> ! r2scan-3c def2/J RI DEFGRID2 scfconv6 printgap
|  2> %output
|  3>     printlevel normal
|  4> end
|  5> %cpcm
|  6>     smd true
|  7>     smdsolvent "water"
|  8> end
|  9> * xyz 0 1
| 10> C -1.8505279159 0.0179684441 -0.6190647641
| 11> C -0.8465270534 -0.0468454595 0.5291958063
| 12> C 0.1113535658 -1.24131321 0.3806611377
| 13> C 1.3984413458 -0.698080539 -0.2697592315
| 14> C 1.1702026513 0.8039992238 -0.4785700919
| 15> C 0.0889606289 1.1656966019 0.5362578286
| 16> H -2.4738860468 0.9050385318 -0.529997315
| 17> H -1.339460627 0.0488460583 -1.577264494
| 18> H -2.497691101 -0.8562136734 -0.6042808259
| 19> H -1.404749215 -0.111450056 1.4676641412
| 20> H 0.3358968949 -1.6638941739 1.3601368486
| 21> H -0.340931106 -2.0282693706 -0.2213132468
| 22> H 2.2498789384 -0.8596567017 0.3914927532
| 23> H 1.6146658576 -1.1992302913 -1.2123350253
| 24> H 2.082144974 1.3811801763 -0.3323016993
| 25> H 0.8105081613 0.997795576 -1.4893768538
| 26> H 0.535073903 1.2787274531 1.5257084389
| 27> H -0.4283110422 2.0901442194 0.2837641434
| 28> *
| 29>
| 30>                          ****END OF INPUT****

CARTESIAN COORDINATES (ANGSTROEM)
---------------------------------
  C     -1.850528    0.017968   -0.619065
  C     -0.846527   -0.046845    0.529196
  C      0.111354   -1.241313    0.380661
  C      1.398441   -0.698081   -0.269759
  C      1.170203    0.803999   -0.478570
  C      0.088961    1.165697    0.536258
  H     -2.473886    0.905039   -0.529997
  H     -1.339461    0.048846   -1.577264
  H     -2.497691   -0.856214   -0.604281
  H     -1.404749   -0.111450    1.467664
  H      0.335897   -1.663894    1.360137
  H     -0.340931   -2.028269   -0.221313
  H      2.249879   -0.859657    0.391493
  H      1.614666   -1.199230   -1.212335
  H      2.082145    1.381180   -0.332302
  H      0.810508    0.997796   -1.489377
  H      0.535074    1.278727    1.525708
  H     -0.428311    2.090144    0.283764

 Total Charge           Charge          ....    0
 Multiplicity           Mult            ....    1
 Number of Electrons    NEL             ....   48
 Basis Dimension        Dim             ....  174

ORBITAL ENERGIES
----------------

  NO   OCC          E(Eh)            E(eV)
   0   2.0000     -10.019553      -272.6459
   1   2.0000     -10.011378      -272.4234
   2   2.0000     -10.011047      -272.4144
   3   2.0000     -10.009881      -272.3827
   4   2.0000     -10.009599      -272.3750
   5   2.0000     -10.004816      -272.2449
   6   2.0000      -0.796642       -21.6777
   7   2.0000      -0.697518       -18.9804
   8   2.0000      -0.665146       -18.0995
   9   2.0000      -0.616040       -16.7633
  10   2.0000      -0.521504       -14.1909
  11   2.0000      -0.501443       -13.6450
  12   2.0000      -0.447580       -12.1793
  13   2.0000      -0.431051       -11.7295
  14   2.0000      -0.391481       -10.6527
  15   2.0000      -0.366617        -9.9762
  16   2.0000      -0.352767        -9.5993
  17   2.0000      -0.344647        -9.3783
  18   2.0000      -0.296924        -8.0797
  19   2.0000      -0.294133        -8.0038
  20   2.0000      -0.284484        -7.7412
  21   2.0000      -0.279547        -7.6069
  22   2.0000      -0.274401        -7.4668
  23   2.0000      -0.268512        -7.3066
  24   0.0000       0.084667         2.3039
  25   0.0000       0.108375         2.9490
  26   0.0000       0.127854         3.4791
  27   0.0000       0.132796         3.6136
  28   0.0000       0.136289         3.7086

MULLIKEN ATOMIC CHARGES
-----------------------
   0 C :   -0.562618
   1 C :    0.040207
   2 C :   -0.399040
   3 C :   -0.331878
   4 C :   -0.354463
   5 C :   -0.324270
   6 H :    0.155515
   7 H :    0.161586
   8 H :    0.159086
   9 H :    0.160583
  10 H :    0.163751
  11 H :    0.159657
  12 H :    0.159939
  13 H :    0.163046
  14 H :    0.158489
  15 H :    0.170069
  16 H :    0.161844
  17 H :    0.158496
Sum of atomic charges:    0.0000000

LOEWDIN ATOMIC CHARGES
----------------------
   0 C :   -0.421030
   1 C :   -0.237431
   2 C :   -0.306188
   3 C :   -0.311349
   4 C :   -0.311852
   5 C :   -0.304273
   6 H :    0.154527
   7 H :    0.156207
   8 H :    0.154803
   9 H :    0.158258
  10 H :    0.159530
  11 H :    0.160409
  12 H :    0.157562
  13 H :    0.157742
  14 H :    0.157224
  15 H :    0.155611
  16 H :    0.159789
  17 H :    0.160461

  Mayer bond orders larger than 0.100000
B(  0-C ,  1-C ) :   0.9123 B(  0-C ,  6-H ) :   0.9758 B(  0-C ,  7-H ) :   0.9801
B(  0-C ,  8-H ) :   0.9712 B(  1-C ,  2-C ) :   0.9132 B(  1-C ,  5-C ) :   0.8949
B(  1-C ,  9-H ) :   0.9408 B(  2-C ,  3-C ) :   0.9162 B(  2-C , 10-H ) :   0.9678
B(  2-C , 11-H ) :   0.9801 B(  3-C ,  4-C ) :   0.9162 B(  3-C , 12-H ) :   0.9833
B(  3-C , 13-H ) :   0.9755 B(  4-C ,  5-C ) :   0.8859 B(  4-C , 14-H ) :   0.9505
B(  4-C , 15-H ) :   1.0010 B(  5-C , 16-H ) :   0.9752 B(  5-C , 17-H ) :   0.9654

Dispersion correction           -0.004765850
FINAL SINGLE POINT ENERGY      -235.781058505035

DIPOLE MOMENT
-------------

Method             : SCF
Type of density    : Electron Density
Multiplicity       :   1
Irrep              :   0
Energy             :  -235.7838904649516394 Eh
Relativity type    :
Basis              : AO
                                X                 Y                 Z
Electronic contribution:      0.800682511       0.015073429       0.922845898
Nuclear contribution   :     -0.803874766      -0.015932121      -0.880093688
                        -----------------------------------------
Total Dipole Moment    :     -0.003192255      -0.000858692       0.042752209
                        -----------------------------------------
Magnitude (a.u.)       :      0.042879823
Magnitude (Debye)      :      0.108991849

Rotational constants in cm-1:             0.171002             0.112339             0.089738
Rotational constants in MHz :          5126.508089          3367.841606          2690.270366

                             ****ORCA TERMINATED NORMALLY****
TOTAL RUN TIME: 0 days 0 hours 0 minutes 13 seconds 427 msec
