                         Program Version 6.0.0  -   RELEASE  -
|  1> ! pbe def2-sv(p) def2/J RI DEFGRID1 loosescf d4 GCP(DFT/SV(P)) printgap
|  2> %output
|  3>     printlevel normal
|  4> end
|  5> * xyz 0 1
|  6> C -2.3205770286 -1.0065904872 -0.3504579074
|  7> C -0.9519566691 -0.5623841882 0.1642022096
|  8> H -0.8909752024 -0.7823039454 1.242377031
|  9> C -0.7443216522 0.9583677506 -0.0242170927
| 10> H -1.3905745052 1.3270136961 -0.8321175673
| 11> C 0.7171744869 1.2477480817 -0.435825261
| 12> H 0.9293568529 2.2954637402 -0.1960447259
| 13> C 1.6577104102 0.346612433 0.375748503
| 14> H 2.6927139601 0.4995916014 0.0472848975
| 15> C 1.3212272509 -1.1413109935 0.0866889404
| 16> H 1.326156458 -1.6804116913 1.0560584242
| 17> O 0.0446671749 -1.2984235178 -0.5146454644
| 18> O 2.2596829824 -1.6452682807 -0.7880015975
| 19> O 1.6028029659 0.6283938773 1.750192019
| 20> O 0.9117625695 1.1180376873 -1.8167981642
| 21> O -1.0027340348 1.6536001218 1.1733083026
| 22> O -3.287050259 -0.2413933869 0.3307121324
| 23> H -2.4434581529 -2.077824767 -0.1550957283
| 24> H -2.3634588302 -0.8343260515 -1.4325289728
| 25> H 2.0479443309 -2.5658837115 -1.0109503991
| 26> H 0.7521363742 1.0546192796 1.9583481173
| 27> H 0.8762136505 0.1790034317 -2.0568366952
| 28> H -1.9422915419 1.5552533 1.3925147557
| 29> H -4.1709419931 -0.5046656392 0.0387370447
| 30> *
| 31>
| 32>                          ****END OF INPUT****

CARTESIAN COORDINATES (ANGSTROEM)
---------------------------------
  C     -2.320577   -1.006590   -0.350458
  C     -0.951957   -0.562384    0.164202
  H     -0.890975   -0.782304    1.242377
  C     -0.744322    0.958368   -0.024217
  H     -1.390575    1.327014   -0.832118
  C      0.717174    1.247748   -0.435825
  H      0.929357    2.295464   -0.196045
  C      1.657710    0.346612    0.375749
  H      2.692714    0.499592    0.047285
  C      1.321227   -1.141311    0.086689
  H      1.326156   -1.680412    1.056058
  O      0.044667   -1.298424   -0.514645
  O      2.259683   -1.645268   -0.788002
  O      1.602803    0.628394    1.750192
  O      0.911763    1.118038   -1.816798
  O     -1.002734    1.653600    1.173308
  O     -3.287050   -0.241393    0.330712
  H     -2.443458   -2.077825   -0.155096
  H     -2.363459   -0.834326   -1.432529
  H      2.047944   -2.565884   -1.010950
  H      0.752136    1.054619    1.958348
  H      0.876214    0.179003   -2.056837
  H     -1.942292    1.555253    1.392515
  H     -4.170942   -0.504666    0.038737

 Total Charge           Charge          ....    0
 Multiplicity           Mult            ....    1
 Number of Electrons    NEL             ....   96
 Basis Dimension        Dim             ....  192

ORBITAL ENERGIES
----------------

  NO   OCC          E(Eh)            E(eV)
   0   2.0000     -18.780019      -511.0303
   1   2.0000     -18.776970      -510.9473
   2   2.0000     -18.767858      -510.6994
   3   2.0000     -18.766398      -510.6597
   4   2.0000     -18.741452      -509.9808
   5   2.0000     -18.735571      -509.8208
   6   2.0000      -9.984386      -271.6890
   7   2.0000      -9.950998      -270.7804
   8   2.0000      -9.949913      -270.7509
   9   2.0000      -9.941899      -270.5328
  10   2.0000      -9.937616      -270.4163
  11   2.0000      -9.930609      -270.2256
  12   2.0000      -0.990660       -26.9572
  13   2.0000      -0.952312       -25.9137
  14   2.0000      -0.942794       -25.6547
  15   2.0000      -0.924534       -25.1578
  16   2.0000      -0.919639       -25.0246
  17   2.0000      -0.910684       -24.7810
  18   2.0000      -0.705147       -19.1880
  19   2.0000      -0.681403       -18.5419
  20   2.0000      -0.630518       -17.1573
  21   2.0000      -0.578165       -15.7327
  22   2.0000      -0.566981       -15.4283
  23   2.0000      -0.516670       -14.0593
  24   2.0000      -0.508096       -13.8260
  25   2.0000      -0.497409       -13.5352
  26   2.0000      -0.492061       -13.3897
  27   2.0000      -0.475753       -12.9459
  28   2.0000      -0.447341       -12.1728
  29   2.0000      -0.422633       -11.5004
  30   2.0000      -0.421146       -11.4600
  31   2.0000      -0.406025       -11.0485
  32   2.0000      -0.382463       -10.4074
  33   2.0000      -0.374763       -10.1978
  34   2.0000      -0.357217        -9.7204
  35   2.0000      -0.348013        -9.4699
  36   2.0000      -0.327622        -8.9151
  37   2.0000      -0.324153        -8.8206
  38   2.0000      -0.317762        -8.6467
  39   2.0000      -0.308045        -8.3823
  40   2.0000      -0.280910        -7.6439
  41   2.0000      -0.267950        -7.2913
  42   2.0000      -0.259402        -7.0587
  43   2.0000      -0.245365        -6.6767
  44   2.0000      -0.240233        -6.5371
  45   2.0000      -0.226200        -6.1552
  46   2.0000      -0.208377        -5.6702
  47   2.0000      -0.201662        -5.4875
  48   0.0000      -0.000515        -0.0140
  49   0.0000       0.022342         0.6080
  50   0.0000       0.040651         1.1062
  51   0.0000       0.050209         1.3662
  52   0.0000       0.055740         1.5168

MULLIKEN ATOMIC CHARGES
-----------------------
   0 C :    0.058819
   1 C :    0.009916
   2 H :    0.057527
   3 C :    0.033122
   4 H :    0.069879
   5 C :    0.030423
   6 H :    0.087794
   7 C :    0.036375
   8 H :    0.088825
   9 C :    0.174464
  10 H :    0.058907
  11 O :   -0.320967
  12 O :   -0.375946
  13 O :   -0.428350
  14 O :   -0.415679
  15 O :   -0.424067
  16 O :   -0.445718
  17 H :    0.084711
  18 H :    0.080749
  19 H :    0.306246
  20 H :    0.307354
  21 H :    0.297518
  22 H :    0.314183
  23 H :    0.313916
Sum of atomic charges:    0.0000000

LOEWDIN ATOMIC CHARGES
----------------------
   0 C :   -0.121764
   1 C :   -0.072414
   2 H :    0.104958
   3 C :   -0.080029
   4 H :    0.110437
   5 C :   -0.069250
   6 H :    0.123013
   7 C :   -0.082365
   8 H :    0.121887
   9 C :   -0.007369
  10 H :    0.088228
  11 O :   -0.164847
  12 O :   -0.287767
  13 O :   -0.322805
  14 O :   -0.310790
  15 O :   -0.312571
  16 O :   -0.341463
  17 H :    0.102515
  18 H :    0.101355
  19 H :    0.289834
  20 H :    0.274136
  21 H :    0.272753
  22 H :    0.289128
  23 H :    0.295189

  Mayer bond orders larger than 0.100000
B(  0-C ,  1-C ) :   1.0625 B(  0-C , 16-O ) :   1.0719 B(  0-C , 17-H ) :   0.9171
B(  0-C , 18-H ) :   0.9080 B(  1-C ,  2-H ) :   0.8629 B(  1-C ,  3-C ) :   0.9857
B(  1-C , 11-O ) :   1.0354 B(  3-C ,  4-H ) :   0.8886 B(  3-C ,  5-C ) :   0.9767
B(  3-C , 15-O ) :   1.0351 B(  5-C ,  6-H ) :   0.8921 B(  5-C ,  7-C ) :   1.0265
B(  5-C , 14-O ) :   1.0679 B(  7-C ,  8-H ) :   0.8927 B(  7-C ,  9-C ) :   0.9288
B(  7-C , 13-O ) :   1.0846 B(  9-C , 10-H ) :   0.8966 B(  9-C , 11-O ) :   0.9796
B(  9-C , 12-O ) :   1.1601 B( 12-O , 19-H ) :   0.8398 B( 13-O , 20-H ) :   0.8071
B( 14-O , 21-H ) :   0.8334 B( 15-O , 20-H ) :   0.1022 B( 15-O , 22-H ) :   0.8277
B( 16-O , 23-H ) :   0.8454

Dispersion correction           -0.025025127
FINAL SINGLE POINT ENERGY      -685.695702902049

DIPOLE MOMENT
-------------

Method             : SCF
Type of density    : Electron Density
Multiplicity       :   1
Irrep              :   0
Energy             :  -685.8283735361447953 Eh
Relativity type    :
Basis              : AO
                                X                 Y                 Z
Electronic contribution:      2.485277651       0.283039772      -0.249933802
Nuclear contribution   :     -4.286333374      -1.436410288       0.050543229
                        -----------------------------------------
Total Dipole Moment    :     -1.801055723      -1.153370516      -0.199390572
                        -----------------------------------------
Magnitude (a.u.)       :      2.147980881
Magnitude (Debye)      :      5.459733507

Rotational constants in cm-1:             0.043412             0.025537             0.021771
Rotational constants in MHz :          1301.468851           765.571346           652.684845

                             ****ORCA TERMINATED NORMALLY****
TOTAL RUN TIME: 0 days 0 hours 0 minutes 12 seconds 352 msec
