                         Program Version 6.0.0  -   RELEASE  -
|  1> ! wb97x-v def2-tzvp def2/J RIJCOSX DEFGRID2 scfconv7 GCP(DFT/TZ) printgap
|  2> %output
|  3>     printlevel normal
|  4> end
|  5> * xyz 0 1
|  6> C -2.611807718861124 -0.9372780947926397 -0.00025222103959880753
|  7> C -1.1519898143347818 -0.5825805505071632 9.296031797064782e-06
|  8> C -0.17527377597842903 -1.5791289557215231 3.464230049957095e-05
|  9> C 1.1855533889235987 -1.2796502007688972 5.841257196105975e-05
| 10> C 1.5789863627384553 0.05407835214861699 6.963619295262619e-05
| 11> C 0.6241790824131794 1.0689985385811356 8.0875628764974e-05
| 12> C -0.7374061877197653 0.7652780832345979 3.954832635966953e-05
| 13> C -1.7524748695943215 1.871548370026658 -0.00011892188201904349
| 14> O 2.9089512320967095 0.4314206745798804 7.648478436788459e-05
| 15> H -3.125494105144533 -0.5294715282365073 0.8784022089505974
| 16> H -3.124589754688312 -0.531611439783399 -0.880446266761199
| 17> H -2.747146927499597 -2.0216382849142636 0.0009692571076807475
| 18> H -0.48328218884925445 -2.621433232216004 3.24161912748912e-05
| 19> H 1.9306517873089324 -2.0704306896356415 6.894435725094044e-05
| 20> H 0.9518761788920732 2.1045845794139413 0.00011817889075640227
| 21> H -2.4043129069297478 1.8108916388845515 -0.8794251605883918
| 22> H -2.4056291839414747 1.810022864821277 0.8781352788272083
| 23> H -1.2679163556862463 2.850469778972286 0.0007144202392835726
| 24> H 3.4563396181709773 -0.3660864939239888 2.1402689265462342e-05
| 25> *
| 26>
| 27>                          ****END OF INPUT****

CARTESIAN COORDINATES (ANGSTROEM)
---------------------------------
  C     -2.611808   -0.937278   -0.000252
  C     -1.151990   -0.582581    0.000009
  C     -0.175274   -1.579129    0.000035
  C      1.185553   -1.279650    0.000058
  C      1.578986    0.054078    0.000070
  C      0.624179    1.068999    0.000081
  C     -0.737406    0.765278    0.000040
  C     -1.752475    1.871548   -0.000119
  O      2.908951    0.431421    0.000076
  H     -3.125494   -0.529472    0.878402
  H     -3.124590   -0.531611   -0.880446
  H     -2.747147   -2.021638    0.000969
  H     -0.483282   -2.621433    0.000032
  H      1.930652   -2.070431    0.000069
  H      0.951876    2.104585    0.000118
  H     -2.404313    1.810892   -0.879425
  H     -2.405629    1.810023    0.878135
  H     -1.267916    2.850470    0.000714
  H      3.456340   -0.366086    0.000021

 Total Charge           Charge          ....    0
 Multiplicity           Mult            ....    1
 Number of Electrons    NEL             ....   66
 Basis Dimension        Dim             ....  339

ORBITAL ENERGIES
----------------

  NO   OCC          E(Eh)            E(eV)
   0   2.0000     -21.698382      -590.4430
   1   2.0000     -12.107787      -329.4696
   2   2.0000     -12.058902      -328.1394
   3   2.0000     -12.050587      -327.9131
   4   2.0000     -12.048377      -327.8530
   5   2.0000     -12.045695      -327.7800
   6   2.0000     -12.042960      -327.7056
   7   2.0000     -12.041443      -327.6643
   8   2.0000     -12.040381      -327.6354
   9   2.0000      -1.709453       -46.5166
  10   2.0000      -1.386039       -37.7161
  11   2.0000      -1.301106       -35.4049
  12   2.0000      -1.286260       -35.0009
  13   2.0000      -1.213819       -33.0297
  14   2.0000      -1.181809       -32.1587
  15   2.0000      -1.130336       -30.7580
  16   2.0000      -1.100303       -29.9408
  17   2.0000      -1.037541       -28.2329
  18   2.0000      -1.002506       -27.2796
  19   2.0000      -0.945318       -25.7234
  20   2.0000      -0.941677       -25.6243
  21   2.0000      -0.930835       -25.3293
  22   2.0000      -0.890121       -24.2214
  23   2.0000      -0.870113       -23.6770
  24   2.0000      -0.847637       -23.0654
  25   2.0000      -0.838604       -22.8196
  26   2.0000      -0.828982       -22.5577
  27   2.0000      -0.822613       -22.3844
  28   2.0000      -0.813050       -22.1242
  29   2.0000      -0.796267       -21.6675
  30   2.0000      -0.752336       -20.4721
  31   2.0000      -0.634958       -17.2781
  32   2.0000      -0.626857       -17.0576
  33   0.0000      -0.243414        -6.6236
  34   0.0000      -0.236254        -6.4288
  35   0.0000      -0.145158        -3.9500
  36   0.0000      -0.072411        -1.9704
  37   0.0000      -0.067661        -1.8411

MULLIKEN ATOMIC CHARGES
-----------------------
   0 C :   -0.352368
   1 C :    0.044003
   2 C :   -0.182716
   3 C :   -0.221145
   4 C :    0.255258
   5 C :   -0.268339
   6 C :    0.126030
   7 C :   -0.353817
   8 O :   -0.395662
   9 H :    0.117906
  10 H :    0.117958
  11 H :    0.114185
  12 H :    0.109030
  13 H :    0.105187
  14 H :    0.112737
  15 H :    0.120762
  16 H :    0.120746
  17 H :    0.119643
  18 H :    0.310604
Sum of atomic charges:   -0.0000000

LOEWDIN ATOMIC CHARGES
----------------------
   0 C :   -0.252364
   1 C :   -0.158093
   2 C :   -0.115470
   3 C :   -0.153420
   4 C :   -0.260332
   5 C :   -0.099840
   6 C :   -0.137610
   7 C :   -0.245697
   8 O :    0.056030
   9 H :    0.124681
  10 H :    0.124700
  11 H :    0.123864
  12 H :    0.143570
  13 H :    0.138466
  14 H :    0.148647
  15 H :    0.127347
  16 H :    0.127327
  17 H :    0.124850
  18 H :    0.183343

  Mayer bond orders larger than 0.100000
B(  0-C ,  1-C ) :   0.9283 B(  0-C ,  9-H ) :   0.9810 B(  0-C , 10-H ) :   0.9809
B(  0-C , 11-H ) :   0.9895 B(  1-C ,  2-C ) :   1.4568 B(  1-C ,  6-C ) :   1.3347
B(  2-C ,  3-C ) :   1.4126 B(  2-C , 12-H ) :   0.9612 B(  3-C ,  4-C ) :   1.3715
B(  3-C , 13-H ) :   0.9625 B(  4-C ,  5-C ) :   1.4132 B(  4-C ,  8-O ) :   1.1356
B(  5-C ,  6-C ) :   1.4372 B(  5-C , 14-H ) :   0.9720 B(  6-C ,  7-C ) :   0.9240
B(  7-C , 15-H ) :   0.9786 B(  7-C , 16-H ) :   0.9787 B(  7-C , 17-H ) :   0.9908
B(  8-O , 18-H ) :   0.8926

FINAL SINGLE POINT ENERGY      -386.121955036765

DIPOLE MOMENT
-------------

Method             : SCF
Type of density    : Electron Density
Multiplicity       :   1
Irrep              :   0
Energy             :  -386.1332044496651861 Eh
Relativity type    :
Basis              : AO
                                X                 Y                 Z
Electronic contribution:      8.494019408      -0.859262124       0.001047104
Nuclear contribution   :     -8.662710134       0.421729961      -0.001233179
                        -----------------------------------------
Total Dipole Moment    :     -0.168690726      -0.437532164      -0.000186075
                        -----------------------------------------
Magnitude (a.u.)       :      0.468925356
Magnitude (Debye)      :      1.191913533

Rotational constants in cm-1:             0.100022             0.043315             0.030567
Rotational constants in MHz :          2998.573585          1298.551025           916.380627

                             ****ORCA TERMINATED NORMALLY****
TOTAL RUN TIME: 0 days 0 hours 3 minutes 17 seconds 836 msec
