                         Program Version 6.0.0  -   RELEASE  -
|  1> ! wb97x-v def2-tzvp def2/J RIJCOSX DEFGRID2 scfconv7 GCP(DFT/TZ) printgap
|  2> %output
|  3>     printlevel normal
|  4> end
|  5> %cpcm
|  6>     smd true
|  7>     smdsolvent "water"
|  8> end
|  9> * xyz 0 1
| 10> C -2.611807718861124 -0.9372780947926397 -0.00025222103959880753
| 11> C -1.1519898143347818 -0.5825805505071632 9.296031797064782e-06
| 12> C -0.17527377597842903 -1.5791289557215231 3.464230049957095e-05
| 13> C 1.1855533889235987 -1.2796502007688972 5.841257196105975e-05
| 14> C 1.5789863627384553 0.05407835214861699 6.963619295262619e-05
| 15> C 0.6241790824131794 1.0689985385811356 8.0875628764974e-05
| 16> C -0.7374061877197653 0.7652780832345979 3.954832635966953e-05
| 17> C -1.7524748695943215 1.871548370026658 -0.00011892188201904349
| 18> O 2.9089512320967095 0.4314206745798804 7.648478436788459e-05
| 19> H -3.125494105144533 -0.5294715282365073 0.8784022089505974
| 20> H -3.124589754688312 -0.531611439783399 -0.880446266761199
| 21> H -2.747146927499597 -2.0216382849142636 0.0009692571076807475
| 22> H -0.48328218884925445 -2.621433232216004 3.24161912748912e-05
| 23> H 1.9306517873089324 -2.0704306896356415 6.894435725094044e-05
| 24> H 0.9518761788920732 2.1045845794139413 0.00011817889075640227
| 25> H -2.4043129069297478 1.8108916388845515 -0.8794251605883918
| 26> H -2.4056291839414747 1.810022864821277 0.8781352788272083
| 27> H -1.2679163556862463 2.850469778972286 0.0007144202392835726
| 28> H 3.4563396181709773 -0.3660864939239888 2.1402689265462342e-05
| 29> *
| 30>
| 31>                          ****END OF INPUT****

CARTESIAN COORDINATES (ANGSTROEM)
---------------------------------
  C     -2.611808   -0.937278   -0.000252
  C     -1.151990   -0.582581    0.000009
  C     -0.175274   -1.579129    0.000035
  C      1.185553   -1.279650    0.000058
  C      1.578986    0.054078    0.000070
  C      0.624179    1.068999    0.000081
  C     -0.737406    0.765278    0.000040
  C     -1.752475    1.871548   -0.000119
  O      2.908951    0.431421    0.000076
  H     -3.125494   -0.529472    0.878402
  H     -3.124590   -0.531611   -0.880446
  H     -2.747147   -2.021638    0.000969
  H     -0.483282   -2.621433    0.000032
  H      1.930652   -2.070431    0.000069
  H      0.951876    2.104585    0.000118
  H     -2.404313    1.810892   -0.879425
  H     -2.405629    1.810023    0.878135
  H     -1.267916    2.850470    0.000714
  H      3.456340   -0.366086    0.000021

 Total Charge           Charge          ....    0
 Multiplicity           Mult            ....    1
 Number of Electrons    NEL             ....   66
 Basis Dimension        Dim             ....  339

ORBITAL ENERGIES
----------------

  NO   OCC          E(Eh)            E(eV)
   0   2.0000     -21.698226      -590.4388
   1   2.0000     -12.108027      -329.4762
   2   2.0000     -12.057925      -328.1128
   3   2.0000     -12.048359      -327.8525
   4   2.0000     -12.046340      -327.7976
   5   2.0000     -12.042235      -327.6859
   6   2.0000     -12.040303      -327.6333
   7   2.0000     -12.032995      -327.4344
   8   2.0000     -12.031613      -327.3968
   9   2.0000      -1.709871       -46.5280
  10   2.0000      -1.385913       -37.7126
  11   2.0000      -1.298944       -35.3461
  12   2.0000      -1.284836       -34.9622
  13   2.0000      -1.208658       -32.8892
  14   2.0000      -1.176906       -32.0252
  15   2.0000      -1.128380       -30.7048
  16   2.0000      -1.098145       -29.8821
  17   2.0000      -1.035514       -28.1778
  18   2.0000      -1.004417       -27.3316
  19   2.0000      -0.945213       -25.7205
  20   2.0000      -0.944779       -25.7088
  21   2.0000      -0.926130       -25.2013
  22   2.0000      -0.885663       -24.1001
  23   2.0000      -0.865903       -23.5624
  24   2.0000      -0.840329       -22.8665
  25   2.0000      -0.833044       -22.6683
  26   2.0000      -0.821859       -22.3639
  27   2.0000      -0.813447       -22.1350
  28   2.0000      -0.804000       -21.8780
  29   2.0000      -0.790439       -21.5089
  30   2.0000      -0.752468       -20.4757
  31   2.0000      -0.635967       -17.3056
  32   2.0000      -0.627119       -17.0648
  33   0.0000      -0.243635        -6.6296
  34   0.0000      -0.236764        -6.4427
  35   0.0000      -0.144050        -3.9198
  36   0.0000      -0.071752        -1.9525
  37   0.0000      -0.044745        -1.2176

MULLIKEN ATOMIC CHARGES
-----------------------
   0 C :   -0.394291
   1 C :    0.016036
   2 C :   -0.206224
   3 C :   -0.281673
   4 C :    0.273144
   5 C :   -0.317679
   6 C :    0.089404
   7 C :   -0.393845
   8 O :   -0.477114
   9 H :    0.138878
  10 H :    0.138879
  11 H :    0.140043
  12 H :    0.156271
  13 H :    0.166250
  14 H :    0.147705
  15 H :    0.142557
  16 H :    0.142579
  17 H :    0.142510
  18 H :    0.376571
Sum of atomic charges:   -0.0000000

LOEWDIN ATOMIC CHARGES
----------------------
   0 C :   -0.255259
   1 C :   -0.165929
   2 C :   -0.124728
   3 C :   -0.153652
   4 C :   -0.275278
   5 C :   -0.116461
   6 C :   -0.145694
   7 C :   -0.248262
   8 O :    0.028539
   9 H :    0.130053
  10 H :    0.130063
  11 H :    0.128983
  12 H :    0.153815
  13 H :    0.154373
  14 H :    0.155297
  15 H :    0.133065
  16 H :    0.133053
  17 H :    0.129492
  18 H :    0.208530

  Mayer bond orders larger than 0.100000
B(  0-C ,  1-C ) :   0.9392 B(  0-C ,  9-H ) :   0.9757 B(  0-C , 10-H ) :   0.9756
B(  0-C , 11-H ) :   0.9843 B(  1-C ,  2-C ) :   1.4273 B(  1-C ,  6-C ) :   1.3137
B(  2-C ,  3-C ) :   1.3628 B(  2-C , 12-H ) :   0.9689 B(  3-C ,  4-C ) :   1.3730
B(  3-C , 13-H ) :   0.9748 B(  4-C ,  5-C ) :   1.3800 B(  4-C ,  8-O ) :   1.0941
B(  5-C ,  6-C ) :   1.4423 B(  5-C , 14-H ) :   0.9796 B(  6-C ,  7-C ) :   0.9369
B(  7-C , 15-H ) :   0.9727 B(  7-C , 16-H ) :   0.9728 B(  7-C , 17-H ) :   0.9849
B(  8-O , 18-H ) :   0.8513

FINAL SINGLE POINT ENERGY      -386.130846487606

DIPOLE MOMENT
-------------

Method             : SCF
Type of density    : Electron Density
Multiplicity       :   1
Irrep              :   0
Energy             :  -386.1420959005063764 Eh
Relativity type    :
Basis              : AO
                                X                 Y                 Z
Electronic contribution:      8.395371780      -1.072087338       0.000997624
Nuclear contribution   :     -8.662710134       0.421729961      -0.001233179
                        -----------------------------------------
Total Dipole Moment    :     -0.267338354      -0.650357378      -0.000235555
                        -----------------------------------------
Magnitude (a.u.)       :      0.703160416
Magnitude (Debye)      :      1.787291738

Rotational constants in cm-1:             0.100022             0.043315             0.030567
Rotational constants in MHz :          2998.573585          1298.551025           916.380627

                             ****ORCA TERMINATED NORMALLY****
TOTAL RUN TIME: 0 days 0 hours 3 minutes 14 seconds 446 msec
