                         Program Version 6.0.0  -   RELEASE  -
|  1> ! pbe def2-sv(p) def2/J RI DEFGRID1 loosescf d4 GCP(DFT/SV(P)) printgap
|  2> %output
|  3>     printlevel normal
|  4> end
|  5> * xyz 0 1
|  6> C -3.4904507315 -0.4527790045 -0.2946556647
|  7> O -2.2221251652 0.079461714 -0.6930170423
|  8> C -1.2019593219 0.0268429891 0.1558004158
|  9> O -1.2781927938 -0.4424847765 1.2720178165
| 10> C 0.0547827484 0.5826255688 -0.4738437662
| 11> C 0.8209391618 -0.6008249925 -1.1061343007
| 12> C 1.7275352331 -1.2483662261 -0.0671815867
| 13> C 2.8543716256 -0.2864444897 0.3307216939
| 14> C 2.3982059928 1.1747358146 0.2416397288
| 15> C 0.916438423 1.2974314556 0.5770643994
| 16> H -3.7781760713 -1.2016918007 -1.0296711115
| 17> H -4.2077261291 0.3659005402 -0.2869806878
| 18> H -3.4092499756 -0.8975014651 0.6977059087
| 19> H -0.2543294408 1.266755011 -1.2672204278
| 20> H 0.1098644379 -1.3278132175 -1.5034063453
| 21> H 1.4221330345 -0.2351285789 -1.9384313927
| 22> H 1.124871448 -1.5064674524 0.8060296534
| 23> H 2.1490403716 -2.1735562959 -0.4617231105
| 24> H 3.1728277105 -0.5134110594 1.3489387774
| 25> H 3.7151207626 -0.4329485496 -0.3234333552
| 26> H 2.9816551963 1.786755807 0.9299037947
| 27> H 2.5654688562 1.5616181975 -0.7646466201
| 28> H 0.7269957396 0.8452015352 1.5530957172
| 29> H 0.6263905393 2.3472683523 0.6349244831
| 30> *
| 31>
| 32>                          ****END OF INPUT****

CARTESIAN COORDINATES (ANGSTROEM)
---------------------------------
  C     -3.490451   -0.452779   -0.294656
  O     -2.222125    0.079462   -0.693017
  C     -1.201959    0.026843    0.155800
  O     -1.278193   -0.442485    1.272018
  C      0.054783    0.582626   -0.473844
  C      0.820939   -0.600825   -1.106134
  C      1.727535   -1.248366   -0.067182
  C      2.854372   -0.286444    0.330722
  C      2.398206    1.174736    0.241640
  C      0.916438    1.297431    0.577064
  H     -3.778176   -1.201692   -1.029671
  H     -4.207726    0.365901   -0.286981
  H     -3.409250   -0.897501    0.697706
  H     -0.254329    1.266755   -1.267220
  H      0.109864   -1.327813   -1.503406
  H      1.422133   -0.235129   -1.938431
  H      1.124871   -1.506467    0.806030
  H      2.149040   -2.173556   -0.461723
  H      3.172828   -0.513411    1.348939
  H      3.715121   -0.432949   -0.323433
  H      2.981655    1.786756    0.929904
  H      2.565469    1.561618   -0.764647
  H      0.726996    0.845202    1.553096
  H      0.626391    2.347268    0.634924

 Total Charge           Charge          ....    0
 Multiplicity           Mult            ....    1
 Number of Electrons    NEL             ....   78
 Basis Dimension        Dim             ....  168

ORBITAL ENERGIES
----------------

  NO   OCC          E(Eh)            E(eV)
   0   2.0000     -18.797526      -511.5067
   1   2.0000     -18.735201      -509.8107
   2   2.0000     -10.003235      -272.2019
   3   2.0000      -9.938834      -270.4494
   4   2.0000      -9.901576      -269.4356
   5   2.0000      -9.890742      -269.1408
   6   2.0000      -9.881045      -268.8769
   7   2.0000      -9.880944      -268.8741
   8   2.0000      -9.879390      -268.8319
   9   2.0000      -9.878642      -268.8115
  10   2.0000      -1.004015       -27.3206
  11   2.0000      -0.910651       -24.7801
  12   2.0000      -0.760134       -20.6843
  13   2.0000      -0.691874       -18.8269
  14   2.0000      -0.663796       -18.0628
  15   2.0000      -0.650202       -17.6929
  16   2.0000      -0.559410       -15.2223
  17   2.0000      -0.552054       -15.0221
  18   2.0000      -0.504650       -13.7322
  19   2.0000      -0.471543       -12.8313
  20   2.0000      -0.454919       -12.3790
  21   2.0000      -0.440552       -11.9880
  22   2.0000      -0.429673       -11.6920
  23   2.0000      -0.414870       -11.2892
  24   2.0000      -0.411152       -11.1880
  25   2.0000      -0.377858       -10.2820
  26   2.0000      -0.370728       -10.0880
  27   2.0000      -0.350686        -9.5427
  28   2.0000      -0.333424        -9.0729
  29   2.0000      -0.332363        -9.0441
  30   2.0000      -0.327119        -8.9014
  31   2.0000      -0.317944        -8.6517
  32   2.0000      -0.315251        -8.5784
  33   2.0000      -0.297336        -8.0909
  34   2.0000      -0.270341        -7.3563
  35   2.0000      -0.261953        -7.1281
  36   2.0000      -0.260735        -7.0950
  37   2.0000      -0.253881        -6.9085
  38   2.0000      -0.219210        -5.9650
  39   0.0000      -0.018094        -0.4924
  40   0.0000       0.030783         0.8377
  41   0.0000       0.054228         1.4756
  42   0.0000       0.057722         1.5707
  43   0.0000       0.078057         2.1240

MULLIKEN ATOMIC CHARGES
-----------------------
   0 C :   -0.130527
   1 O :   -0.240675
   2 C :    0.129254
   3 O :   -0.199864
   4 C :   -0.162464
   5 C :   -0.134991
   6 C :   -0.158822
   7 C :   -0.156184
   8 C :   -0.151510
   9 C :   -0.114488
  10 H :    0.121619
  11 H :    0.122267
  12 H :    0.133993
  13 H :    0.077352
  14 H :    0.093843
  15 H :    0.084969
  16 H :    0.097904
  17 H :    0.084738
  18 H :    0.083402
  19 H :    0.078593
  20 H :    0.085364
  21 H :    0.073442
  22 H :    0.098103
  23 H :    0.084683
Sum of atomic charges:   -0.0000000

LOEWDIN ATOMIC CHARGES
----------------------
   0 C :   -0.209431
   1 O :   -0.071969
   2 C :    0.047166
   3 O :   -0.167893
   4 C :   -0.162817
   5 C :   -0.206707
   6 C :   -0.233634
   7 C :   -0.228340
   8 C :   -0.228763
   9 C :   -0.218956
  10 H :    0.120062
  11 H :    0.120396
  12 H :    0.124365
  13 H :    0.127140
  14 H :    0.119722
  15 H :    0.118684
  16 H :    0.122619
  17 H :    0.118184
  18 H :    0.118000
  19 H :    0.114738
  20 H :    0.119432
  21 H :    0.112942
  22 H :    0.125507
  23 H :    0.119555

  Mayer bond orders larger than 0.100000
B(  0-C ,  1-O ) :   0.9353 B(  0-C , 10-H ) :   0.9606 B(  0-C , 11-H ) :   0.9610
B(  0-C , 12-H ) :   0.9282 B(  1-O ,  2-C ) :   1.2194 B(  2-C ,  3-O ) :   2.0477
B(  2-C ,  4-C ) :   0.9400 B(  4-C ,  5-C ) :   1.0813 B(  4-C ,  9-C ) :   1.0912
B(  4-C , 13-H ) :   0.8791 B(  5-C ,  6-C ) :   1.1798 B(  5-C , 14-H ) :   0.9150
B(  5-C , 15-H ) :   0.9044 B(  6-C ,  7-C ) :   1.1421 B(  6-C , 16-H ) :   0.8991
B(  6-C , 17-H ) :   0.9205 B(  7-C ,  8-C ) :   1.1436 B(  7-C , 18-H ) :   0.9218
B(  7-C , 19-H ) :   0.9214 B(  8-C ,  9-C ) :   1.1913 B(  8-C , 20-H ) :   0.9206
B(  8-C , 21-H ) :   0.9058 B(  9-C , 22-H ) :   0.8907 B(  9-C , 23-H ) :   0.9175

Dispersion correction           -0.023044959
FINAL SINGLE POINT ENERGY      -462.697417627641

DIPOLE MOMENT
-------------

Method             : SCF
Type of density    : Electron Density
Multiplicity       :   1
Irrep              :   0
Energy             :  -462.7857300283435507 Eh
Relativity type    :
Basis              : AO
                                X                 Y                 Z
Electronic contribution:     -6.714018812       0.210234602       0.891326993
Nuclear contribution   :      6.463567554      -0.113289326      -1.497093824
                        -----------------------------------------
Total Dipole Moment    :     -0.250451258       0.096945276      -0.605766832
                        -----------------------------------------
Magnitude (a.u.)       :      0.662629363
Magnitude (Debye)      :      1.684269990

Rotational constants in cm-1:             0.101426             0.025708             0.024634
Rotational constants in MHz :          3040.681950           770.711869           738.502721

                             ****ORCA TERMINATED NORMALLY****
TOTAL RUN TIME: 0 days 0 hours 0 minutes 12 seconds 187 msec
