                         Program Version 6.0.0  -   RELEASE  -
|  1> ! pbe def2-sv(p) def2/J RI DEFGRID1 loosescf d4 GCP(DFT/SV(P)) printgap
|  2> %output
|  3>     printlevel normal
|  4> end
|  5> * xyz 0 1
|  6> C 1.2369183099 -0.0097476837 -4.769e-07
|  7> S -0.587776575 0.043726365 -1.337e-07
|  8> H 1.5693462378 1.0230130546 -2.7132e-05
|  9> H 1.5816955911 -0.5141430762 -0.8960376428
| 10> H 1.581718831 -0.5140791039 0.8960609774
| 11> H -0.7735678474 -1.2696671429 1.37345e-05
| 12> *
| 13>
| 14>                          ****END OF INPUT****

CARTESIAN COORDINATES (ANGSTROEM)
---------------------------------
  C      1.236918   -0.009748   -0.000000
  S     -0.587777    0.043726   -0.000000
  H      1.569346    1.023013   -0.000027
  H      1.581696   -0.514143   -0.896038
  H      1.581719   -0.514079    0.896061
  H     -0.773568   -1.269667    0.000014

 Total Charge           Charge          ....    0
 Multiplicity           Mult            ....    1
 Number of Electrons    NEL             ....   26
 Basis Dimension        Dim             ....   40

ORBITAL ENERGIES
----------------

  NO   OCC          E(Eh)            E(eV)
   0   2.0000     -88.013715     -2394.9749
   1   2.0000      -9.911512      -269.7060
   2   2.0000      -7.660319      -208.4479
   3   2.0000      -5.688920      -154.8034
   4   2.0000      -5.684919      -154.6945
   5   2.0000      -5.676158      -154.4561
   6   2.0000      -0.705867       -19.2076
   7   2.0000      -0.578016       -15.7286
   8   2.0000      -0.404139       -10.9972
   9   2.0000      -0.384997       -10.4763
  10   2.0000      -0.351556        -9.5663
  11   2.0000      -0.289879        -7.8880
  12   2.0000      -0.192312        -5.2331
  13   0.0000       0.007074         0.1925
  14   0.0000       0.040689         1.1072
  15   0.0000       0.074581         2.0294
  16   0.0000       0.101561         2.7636
  17   0.0000       0.103080         2.8049

MULLIKEN ATOMIC CHARGES
-----------------------
   0 C :   -0.393530
   1 S :   -0.198773
   2 H :    0.153545
   3 H :    0.148589
   4 H :    0.148588
   5 H :    0.141581
Sum of atomic charges:   -0.0000000

LOEWDIN ATOMIC CHARGES
----------------------
   0 C :   -0.458302
   1 S :   -0.000640
   2 H :    0.132697
   3 H :    0.124703
   4 H :    0.124702
   5 H :    0.076840

  Mayer bond orders larger than 0.100000
B(  0-C ,  1-S ) :   1.0681 B(  0-C ,  2-H ) :   0.9557 B(  0-C ,  3-H ) :   0.9510
B(  0-C ,  4-H ) :   0.9510 B(  1-S ,  5-H ) :   0.9142

Dispersion correction           -0.002516008
FINAL SINGLE POINT ENERGY      -438.270937318947

DIPOLE MOMENT
-------------

Method             : SCF
Type of density    : Electron Density
Multiplicity       :   1
Irrep              :   0
Energy             :  -438.2923650634533033 Eh
Relativity type    :
Basis              : AO
                                X                 Y                 Z
Electronic contribution:     -3.228915805       0.839017388      -0.000006132
Nuclear contribution   :      3.731175744      -1.197302443       0.000009326
                        -----------------------------------------
Total Dipole Moment    :      0.502259939      -0.358285055       0.000003194
                        -----------------------------------------
Magnitude (a.u.)       :      0.616954801
Magnitude (Debye)      :      1.568174479

Rotational constants in cm-1:             3.444678             0.430036             0.412600
Rotational constants in MHz :        103268.837558         12892.140597         12369.440711

                             ****ORCA TERMINATED NORMALLY****
TOTAL RUN TIME: 0 days 0 hours 0 minutes 3 seconds 714 msec
