                         Program Version 6.0.0  -   RELEASE  -
|  1> ! wb97x-v def2-tzvp def2/J RIJCOSX DEFGRID2 scfconv7 GCP(DFT/TZ) printgap
|  2> %output
|  3>     printlevel normal
|  4> end
|  5> * xyz 0 1
|  6> C -2.5808042818602592 -0.886767570064579 0.35047371303121677
|  7> C -1.1520719200080058 -0.4544689092915998 0.5857888902160197
|  8> H -0.9977980880349897 -0.3927864852157671 1.6756547690252672
|  9> C -0.8092389690050074 0.8989147888221535 -0.040704379356487116
| 10> H -0.9840129132071354 0.8526178147945896 -1.1253264826930218
| 11> C 0.6572002189344422 1.221691186988112 0.2060356599410674
| 12> H 0.8148273815879743 1.3550100214301257 1.2881247253432666
| 13> C 1.539785165551195 0.08242186766987462 -0.28214433838781605
| 14> H 1.444744411149026 -0.01115191548364943 -1.3762554666702358
| 15> C 1.0878857928248282 -1.2343470657004179 0.35127025097967496
| 16> H 1.2177741065841372 -1.2056347272168746 1.4436097375502575
| 17> O -0.2886548135696519 -1.4629583720131225 0.03173810072130923
| 18> O 1.828779509834137 -2.3318967113429685 -0.11235545643171468
| 19> O 2.884688985588723 0.3954013520907767 0.0856199612852475
| 20> O 0.9439299160306588 2.443832550514559 -0.484537620882325
| 21> O -1.660079377161137 1.8783543816339558 0.5608891589553799
| 22> O -2.8505084983903988 -0.9002889012412802 -1.0588469827040095
| 23> H -3.2493886928741476 -0.18952918679484743 0.8709162995750772
| 24> H -2.7188579993206954 -1.88711786916852 0.7817597737160713
| 25> H 1.8518727579234162 -2.2956835172672663 -1.0806264547008888
| 26> H 3.4633783746635762 -0.24945752117556258 -0.3425740470329424
| 27> H 1.827217649850519 2.7295792031375665 -0.2167395633320942
| 28> H -1.404596490669756 2.7373264960398664 0.19828568061507285
| 29> H -3.7587964216535226 -1.2055508565860014 -1.172935236087069
| 30> *
| 31>
| 32>                          ****END OF INPUT****

CARTESIAN COORDINATES (ANGSTROEM)
---------------------------------
  C     -2.580804   -0.886768    0.350474
  C     -1.152072   -0.454469    0.585789
  H     -0.997798   -0.392786    1.675655
  C     -0.809239    0.898915   -0.040704
  H     -0.984013    0.852618   -1.125326
  C      0.657200    1.221691    0.206036
  H      0.814827    1.355010    1.288125
  C      1.539785    0.082422   -0.282144
  H      1.444744   -0.011152   -1.376255
  C      1.087886   -1.234347    0.351270
  H      1.217774   -1.205635    1.443610
  O     -0.288655   -1.462958    0.031738
  O      1.828780   -2.331897   -0.112355
  O      2.884689    0.395401    0.085620
  O      0.943930    2.443833   -0.484538
  O     -1.660079    1.878354    0.560889
  O     -2.850508   -0.900289   -1.058847
  H     -3.249389   -0.189529    0.870916
  H     -2.718858   -1.887118    0.781760
  H      1.851873   -2.295684   -1.080626
  H      3.463378   -0.249458   -0.342574
  H      1.827218    2.729579   -0.216740
  H     -1.404596    2.737326    0.198286
  H     -3.758796   -1.205551   -1.172935

 Total Charge           Charge          ....    0
 Multiplicity           Mult            ....    1
 Number of Electrons    NEL             ....   96
 Basis Dimension        Dim             ....  444

ORBITAL ENERGIES
----------------

  NO   OCC          E(Eh)            E(eV)
   0   2.0000     -21.695511      -590.3649
   1   2.0000     -21.691775      -590.2632
   2   2.0000     -21.684949      -590.0775
   3   2.0000     -21.684851      -590.0748
   4   2.0000     -21.675006      -589.8069
   5   2.0000     -21.672037      -589.7261
   6   2.0000     -12.155935      -330.7798
   7   2.0000     -12.112016      -329.5847
   8   2.0000     -12.109072      -329.5046
   9   2.0000     -12.108738      -329.4955
  10   2.0000     -12.101516      -329.2990
  11   2.0000     -12.095165      -329.1262
  12   2.0000      -1.722685       -46.8766
  13   2.0000      -1.695713       -46.1427
  14   2.0000      -1.687364       -45.9155
  15   2.0000      -1.680163       -45.7196
  16   2.0000      -1.675116       -45.5822
  17   2.0000      -1.671051       -45.4716
  18   2.0000      -1.337862       -36.4051
  19   2.0000      -1.322004       -35.9735
  20   2.0000      -1.235492       -33.6195
  21   2.0000      -1.202550       -32.7230
  22   2.0000      -1.164369       -31.6841
  23   2.0000      -1.123475       -30.5713
  24   2.0000      -1.091533       -29.7021
  25   2.0000      -1.064990       -28.9799
  26   2.0000      -1.055219       -28.7140
  27   2.0000      -1.038206       -28.2510
  28   2.0000      -1.031387       -28.0655
  29   2.0000      -1.013992       -27.5921
  30   2.0000      -1.002605       -27.2823
  31   2.0000      -0.987655       -26.8755
  32   2.0000      -0.972985       -26.4763
  33   2.0000      -0.967525       -26.3277
  34   2.0000      -0.963972       -26.2310
  35   2.0000      -0.942438       -25.6450
  36   2.0000      -0.935313       -25.4512
  37   2.0000      -0.925887       -25.1947
  38   2.0000      -0.923076       -25.1182
  39   2.0000      -0.909510       -24.7490
  40   2.0000      -0.898965       -24.4621
  41   2.0000      -0.895093       -24.3567
  42   2.0000      -0.846932       -23.0462
  43   2.0000      -0.831243       -22.6193
  44   2.0000      -0.815964       -22.2035
  45   2.0000      -0.802814       -21.8457
  46   2.0000      -0.796291       -21.6682
  47   2.0000      -0.773710       -21.0537
  48   0.0000      -0.236565        -6.4373
  49   0.0000      -0.196873        -5.3572
  50   0.0000      -0.174070        -4.7367
  51   0.0000      -0.151156        -4.1132
  52   0.0000      -0.127609        -3.4724

MULLIKEN ATOMIC CHARGES
-----------------------
   0 C :   -0.070855
   1 C :    0.104154
   2 H :    0.076204
   3 C :    0.070719
   4 H :    0.099996
   5 C :    0.048397
   6 H :    0.090475
   7 C :    0.001987
   8 H :    0.082961
   9 C :    0.096111
  10 H :    0.081554
  11 O :   -0.243541
  12 O :   -0.406668
  13 O :   -0.435423
  14 O :   -0.457621
  15 O :   -0.455259
  16 O :   -0.446782
  17 H :    0.110509
  18 H :    0.099046
  19 H :    0.306488
  20 H :    0.312544
  21 H :    0.319864
  22 H :    0.316590
  23 H :    0.298550
Sum of atomic charges:    0.0000000

LOEWDIN ATOMIC CHARGES
----------------------
   0 C :   -0.310344
   1 C :   -0.292168
   2 H :    0.147014
   3 C :   -0.299458
   4 H :    0.148671
   5 C :   -0.312695
   6 H :    0.144919
   7 C :   -0.326912
   8 H :    0.140920
   9 C :   -0.408560
  10 H :    0.133417
  11 O :    0.193163
  12 O :    0.010341
  13 O :   -0.014027
  14 O :   -0.018159
  15 O :   -0.010403
  16 O :   -0.045639
  17 H :    0.125540
  18 H :    0.121314
  19 H :    0.176212
  20 H :    0.173841
  21 H :    0.176977
  22 H :    0.176739
  23 H :    0.169300

  Mayer bond orders larger than 0.100000
B(  0-C ,  1-C ) :   0.9788 B(  0-C , 16-O ) :   1.0927 B(  0-C , 17-H ) :   0.9601
B(  0-C , 18-H ) :   0.9677 B(  1-C ,  2-H ) :   0.9517 B(  1-C ,  3-C ) :   0.9593
B(  1-C , 11-O ) :   0.9832 B(  3-C ,  4-H ) :   0.9636 B(  3-C ,  5-C ) :   0.9492
B(  3-C , 15-O ) :   1.0607 B(  5-C ,  6-H ) :   0.9773 B(  5-C ,  7-C ) :   0.9634
B(  5-C , 14-O ) :   1.0820 B(  7-C ,  8-H ) :   0.9495 B(  7-C ,  9-C ) :   0.9610
B(  7-C , 13-O ) :   1.0996 B(  9-C , 10-H ) :   0.9728 B(  9-C , 11-O ) :   1.0440
B(  9-C , 12-O ) :   1.1237 B( 12-O , 19-H ) :   0.8896 B( 13-O , 20-H ) :   0.8906
B( 14-O , 21-H ) :   0.8888 B( 15-O , 22-H ) :   0.8862 B( 16-O , 23-H ) :   0.9052

FINAL SINGLE POINT ENERGY      -687.246192710605

DIPOLE MOMENT
-------------

Method             : SCF
Type of density    : Electron Density
Multiplicity       :   1
Irrep              :   0
Energy             :  -687.2650208020049831 Eh
Relativity type    :
Basis              : AO
                                X                 Y                 Z
Electronic contribution:      2.195634900      -0.400130461      -1.026739432
Nuclear contribution   :     -2.082106368       0.467396707       0.910506769
                        -----------------------------------------
Total Dipole Moment    :      0.113528532       0.067266246      -0.116232663
                        -----------------------------------------
Magnitude (a.u.)       :      0.175850810
Magnitude (Debye)      :      0.446977237

Rotational constants in cm-1:             0.039637             0.026452             0.017488
Rotational constants in MHz :          1188.280611           793.005377           524.284560

                             ****ORCA TERMINATED NORMALLY****
TOTAL RUN TIME: 0 days 0 hours 4 minutes 37 seconds 919 msec
