                         Program Version 6.0.0  -   RELEASE  -
|  1> ! wb97x-v def2-tzvp def2/J RIJCOSX DEFGRID2 scfconv7 GCP(DFT/TZ) printgap
|  2> %output
|  3>     printlevel normal
|  4> end
|  5> %cpcm
|  6>     smd true
|  7>     smdsolvent "water"
|  8> end
|  9> * xyz 0 1
| 10> C -2.5808042818602592 -0.886767570064579 0.35047371303121677
| 11> C -1.1520719200080058 -0.4544689092915998 0.5857888902160197
| 12> H -0.9977980880349897 -0.3927864852157671 1.6756547690252672
| 13> C -0.8092389690050074 0.8989147888221535 -0.040704379356487116
| 14> H -0.9840129132071354 0.8526178147945896 -1.1253264826930218
| 15> C 0.6572002189344422 1.221691186988112 0.2060356599410674
| 16> H 0.8148273815879743 1.3550100214301257 1.2881247253432666
| 17> C 1.539785165551195 0.08242186766987462 -0.28214433838781605
| 18> H 1.444744411149026 -0.01115191548364943 -1.3762554666702358
| 19> C 1.0878857928248282 -1.2343470657004179 0.35127025097967496
| 20> H 1.2177741065841372 -1.2056347272168746 1.4436097375502575
| 21> O -0.2886548135696519 -1.4629583720131225 0.03173810072130923
| 22> O 1.828779509834137 -2.3318967113429685 -0.11235545643171468
| 23> O 2.884688985588723 0.3954013520907767 0.0856199612852475
| 24> O 0.9439299160306588 2.443832550514559 -0.484537620882325
| 25> O -1.660079377161137 1.8783543816339558 0.5608891589553799
| 26> O -2.8505084983903988 -0.9002889012412802 -1.0588469827040095
| 27> H -3.2493886928741476 -0.18952918679484743 0.8709162995750772
| 28> H -2.7188579993206954 -1.88711786916852 0.7817597737160713
| 29> H 1.8518727579234162 -2.2956835172672663 -1.0806264547008888
| 30> H 3.4633783746635762 -0.24945752117556258 -0.3425740470329424
| 31> H 1.827217649850519 2.7295792031375665 -0.2167395633320942
| 32> H -1.404596490669756 2.7373264960398664 0.19828568061507285
| 33> H -3.7587964216535226 -1.2055508565860014 -1.172935236087069
| 34> *
| 35>
| 36>                          ****END OF INPUT****

CARTESIAN COORDINATES (ANGSTROEM)
---------------------------------
  C     -2.580804   -0.886768    0.350474
  C     -1.152072   -0.454469    0.585789
  H     -0.997798   -0.392786    1.675655
  C     -0.809239    0.898915   -0.040704
  H     -0.984013    0.852618   -1.125326
  C      0.657200    1.221691    0.206036
  H      0.814827    1.355010    1.288125
  C      1.539785    0.082422   -0.282144
  H      1.444744   -0.011152   -1.376255
  C      1.087886   -1.234347    0.351270
  H      1.217774   -1.205635    1.443610
  O     -0.288655   -1.462958    0.031738
  O      1.828780   -2.331897   -0.112355
  O      2.884689    0.395401    0.085620
  O      0.943930    2.443833   -0.484538
  O     -1.660079    1.878354    0.560889
  O     -2.850508   -0.900289   -1.058847
  H     -3.249389   -0.189529    0.870916
  H     -2.718858   -1.887118    0.781760
  H      1.851873   -2.295684   -1.080626
  H      3.463378   -0.249458   -0.342574
  H      1.827218    2.729579   -0.216740
  H     -1.404596    2.737326    0.198286
  H     -3.758796   -1.205551   -1.172935

 Total Charge           Charge          ....    0
 Multiplicity           Mult            ....    1
 Number of Electrons    NEL             ....   96
 Basis Dimension        Dim             ....  444

ORBITAL ENERGIES
----------------

  NO   OCC          E(Eh)            E(eV)
   0   2.0000     -21.692132      -590.2729
   1   2.0000     -21.690547      -590.2298
   2   2.0000     -21.684088      -590.0540
   3   2.0000     -21.681951      -589.9959
   4   2.0000     -21.681125      -589.9734
   5   2.0000     -21.676274      -589.8414
   6   2.0000     -12.151195      -330.6508
   7   2.0000     -12.105514      -329.4078
   8   2.0000     -12.102872      -329.3359
   9   2.0000     -12.101934      -329.3104
  10   2.0000     -12.100844      -329.2807
  11   2.0000     -12.091611      -329.0295
  12   2.0000      -1.722928       -46.8833
  13   2.0000      -1.690728       -46.0071
  14   2.0000      -1.686745       -45.8987
  15   2.0000      -1.680730       -45.7350
  16   2.0000      -1.678520       -45.6748
  17   2.0000      -1.675243       -45.5857
  18   2.0000      -1.334526       -36.3143
  19   2.0000      -1.318965       -35.8909
  20   2.0000      -1.232744       -33.5447
  21   2.0000      -1.200470       -32.6664
  22   2.0000      -1.162495       -31.6331
  23   2.0000      -1.123699       -30.5774
  24   2.0000      -1.088687       -29.6247
  25   2.0000      -1.063762       -28.9464
  26   2.0000      -1.053430       -28.6653
  27   2.0000      -1.037492       -28.2316
  28   2.0000      -1.034129       -28.1401
  29   2.0000      -1.013487       -27.5784
  30   2.0000      -1.002014       -27.2662
  31   2.0000      -0.989357       -26.9218
  32   2.0000      -0.974509       -26.5177
  33   2.0000      -0.968913       -26.3655
  34   2.0000      -0.965493       -26.2724
  35   2.0000      -0.945758       -25.7354
  36   2.0000      -0.939524       -25.5658
  37   2.0000      -0.925514       -25.1845
  38   2.0000      -0.924150       -25.1474
  39   2.0000      -0.911263       -24.7967
  40   2.0000      -0.899269       -24.4704
  41   2.0000      -0.892271       -24.2799
  42   2.0000      -0.846297       -23.0289
  43   2.0000      -0.829859       -22.5816
  44   2.0000      -0.811762       -22.0892
  45   2.0000      -0.799038       -21.7429
  46   2.0000      -0.793864       -21.6021
  47   2.0000      -0.769685       -20.9442
  48   0.0000      -0.233190        -6.3454
  49   0.0000      -0.193029        -5.2526
  50   0.0000      -0.170721        -4.6456
  51   0.0000      -0.148201        -4.0328
  52   0.0000      -0.124019        -3.3747

MULLIKEN ATOMIC CHARGES
-----------------------
   0 C :   -0.084261
   1 C :    0.129256
   2 H :    0.114770
   3 C :    0.060045
   4 H :    0.101415
   5 C :    0.097097
   6 H :    0.108342
   7 C :    0.013623
   8 H :    0.113014
   9 C :    0.108246
  10 H :    0.116882
  11 O :   -0.330205
  12 O :   -0.494460
  13 O :   -0.520634
  14 O :   -0.531041
  15 O :   -0.532347
  16 O :   -0.547500
  17 H :    0.125913
  18 H :    0.128567
  19 H :    0.370475
  20 H :    0.365024
  21 H :    0.364386
  22 H :    0.360653
  23 H :    0.362741
Sum of atomic charges:    0.0000000

LOEWDIN ATOMIC CHARGES
----------------------
   0 C :   -0.306320
   1 C :   -0.292197
   2 H :    0.160048
   3 C :   -0.301239
   4 H :    0.147789
   5 C :   -0.307252
   6 H :    0.153446
   7 C :   -0.314945
   8 H :    0.152987
   9 C :   -0.405530
  10 H :    0.142891
  11 O :    0.161317
  12 O :   -0.019203
  13 O :   -0.038305
  14 O :   -0.043013
  15 O :   -0.038093
  16 O :   -0.083064
  17 H :    0.130530
  18 H :    0.129891
  19 H :    0.201041
  20 H :    0.193745
  21 H :    0.192217
  22 H :    0.191205
  23 H :    0.192053

  Mayer bond orders larger than 0.100000
B(  0-C ,  1-C ) :   0.9600 B(  0-C , 16-O ) :   1.0503 B(  0-C , 17-H ) :   0.9692
B(  0-C , 18-H ) :   0.9760 B(  1-C ,  2-H ) :   0.9465 B(  1-C ,  3-C ) :   0.9706
B(  1-C , 11-O ) :   0.9516 B(  3-C ,  4-H ) :   0.9586 B(  3-C ,  5-C ) :   0.9743
B(  3-C , 15-O ) :   1.0308 B(  5-C ,  6-H ) :   0.9588 B(  5-C ,  7-C ) :   0.9734
B(  5-C , 14-O ) :   1.0556 B(  7-C ,  8-H ) :   0.9573 B(  7-C ,  9-C ) :   0.9730
B(  7-C , 13-O ) :   1.0732 B(  9-C , 10-H ) :   0.9709 B(  9-C , 11-O ) :   1.0075
B(  9-C , 12-O ) :   1.1195 B( 12-O , 19-H ) :   0.8491 B( 13-O , 20-H ) :   0.8588
B( 14-O , 21-H ) :   0.8601 B( 15-O , 22-H ) :   0.8579 B( 16-O , 23-H ) :   0.8669

FINAL SINGLE POINT ENERGY      -687.286628645761

DIPOLE MOMENT
-------------

Method             : SCF
Type of density    : Electron Density
Multiplicity       :   1
Irrep              :   0
Energy             :  -687.3054567371607391 Eh
Relativity type    :
Basis              : AO
                                X                 Y                 Z
Electronic contribution:      2.335182480      -0.383225849      -0.941472134
Nuclear contribution   :     -2.082106368       0.467396707       0.910506769
                        -----------------------------------------
Total Dipole Moment    :      0.253076112       0.084170858      -0.030965365
                        -----------------------------------------
Magnitude (a.u.)       :      0.268497869
Magnitude (Debye)      :      0.682467346

Rotational constants in cm-1:             0.039637             0.026452             0.017488
Rotational constants in MHz :          1188.280611           793.005377           524.284560

                             ****ORCA TERMINATED NORMALLY****
TOTAL RUN TIME: 0 days 0 hours 5 minutes 12 seconds 478 msec
