                         Program Version 6.0.0  -   RELEASE  -
|  1> ! r2scan-3c def2/J RI DEFGRID2 scfconv6 printgap
|  2> %output
|  3>     printlevel normal
|  4> end
|  5> * xyz 0 1
|  6> C -1.6060975062 -0.0919779712 0.5076490819
|  7> C -0.6484120715 0.4979229137 -0.5222893222
|  8> C 0.6677213508 -0.2744673155 -0.6261524409
|  9> N 1.5047977792 -0.0474814881 0.5458499217
| 10> H -1.1900100235 -0.0236158112 1.5095827352
| 11> H -2.5481996377 0.4499860452 0.4968113782
| 12> H -1.8089297479 -1.1379074185 0.2850474072
| 13> H -0.4203242516 1.5318255548 -0.2618714376
| 14> H -1.1276836715 0.489554462 -1.5029224558
| 15> H 0.443368165 -1.3426427342 -0.7949785174
| 16> H 1.2257641573 0.0887069563 -1.4942274343
| 17> H 2.3804073305 -0.5473090516 0.4424964777
| 18> H 1.0427503073 -0.4154806188 1.3704951794
| 19> *
| 20>
| 21>                          ****END OF INPUT****

CARTESIAN COORDINATES (ANGSTROEM)
---------------------------------
  C     -1.606098   -0.091978    0.507649
  C     -0.648412    0.497923   -0.522289
  C      0.667721   -0.274467   -0.626152
  N      1.504798   -0.047481    0.545850
  H     -1.190010   -0.023616    1.509583
  H     -2.548200    0.449986    0.496811
  H     -1.808930   -1.137907    0.285047
  H     -0.420324    1.531826   -0.261871
  H     -1.127684    0.489554   -1.502922
  H      0.443368   -1.342643   -0.794979
  H      1.225764    0.088707   -1.494227
  H      2.380407   -0.547309    0.442496
  H      1.042750   -0.415481    1.370495

 Total Charge           Charge          ....    0
 Multiplicity           Mult            ....    1
 Number of Electrons    NEL             ....   34
 Basis Dimension        Dim             ....  126

ORBITAL ENERGIES
----------------

  NO   OCC          E(Eh)            E(eV)
   0   2.0000     -14.133500      -384.5921
   1   2.0000     -10.047078      -273.3949
   2   2.0000     -10.021327      -272.6942
   3   2.0000     -10.017292      -272.5844
   4   2.0000      -0.845289       -23.0015
   5   2.0000      -0.730448       -19.8765
   6   2.0000      -0.631227       -17.1765
   7   2.0000      -0.540863       -14.7176
   8   2.0000      -0.460594       -12.5334
   9   2.0000      -0.437346       -11.9008
  10   2.0000      -0.381055       -10.3690
  11   2.0000      -0.378680       -10.3044
  12   2.0000      -0.372895       -10.1470
  13   2.0000      -0.309006        -8.4085
  14   2.0000      -0.305464        -8.3121
  15   2.0000      -0.298770        -8.1299
  16   2.0000      -0.204234        -5.5575
  17   0.0000       0.074492         2.0270
  18   0.0000       0.116412         3.1677
  19   0.0000       0.120948         3.2912
  20   0.0000       0.132245         3.5986
  21   0.0000       0.150735         4.1017

MULLIKEN ATOMIC CHARGES
-----------------------
   0 C :   -0.479772
   1 C :   -0.231023
   2 C :   -0.171068
   3 N :   -0.572394
   4 H :    0.138604
   5 H :    0.148056
   6 H :    0.142774
   7 H :    0.149849
   8 H :    0.132377
   9 H :    0.121155
  10 H :    0.137551
  11 H :    0.240210
  12 H :    0.243681
Sum of atomic charges:    0.0000000

LOEWDIN ATOMIC CHARGES
----------------------
   0 C :   -0.427473
   1 C :   -0.297019
   2 C :   -0.078186
   3 N :   -0.748167
   4 H :    0.146570
   5 H :    0.152616
   6 H :    0.150217
   7 H :    0.161102
   8 H :    0.152809
   9 H :    0.146313
  10 H :    0.170810
  11 H :    0.235746
  12 H :    0.234662

  Mayer bond orders larger than 0.100000
B(  0-C ,  1-C ) :   0.9091 B(  0-C ,  4-H ) :   0.9850 B(  0-C ,  5-H ) :   0.9703
B(  0-C ,  6-H ) :   0.9788 B(  1-C ,  2-C ) :   0.9419 B(  1-C ,  7-H ) :   0.9687
B(  1-C ,  8-H ) :   0.9659 B(  2-C ,  3-N ) :   0.9091 B(  2-C ,  9-H ) :   0.9729
B(  2-C , 10-H ) :   0.9749 B(  3-N , 11-H ) :   0.9183 B(  3-N , 12-H ) :   0.9250

Dispersion correction           -0.002457173
FINAL SINGLE POINT ENERGY      -174.423694878470

DIPOLE MOMENT
-------------

Method             : SCF
Type of density    : Electron Density
Multiplicity       :   1
Irrep              :   0
Energy             :  -174.4304669511183477 Eh
Relativity type    :
Basis              : AO
                                X                 Y                 Z
Electronic contribution:      1.795815142       0.403323169      -0.100890340
Nuclear contribution   :     -1.870734126      -0.851072615       0.050321776
                        -----------------------------------------
Total Dipole Moment    :     -0.074918984      -0.447749446      -0.050568565
                        -----------------------------------------
Magnitude (a.u.)       :      0.456781787
Magnitude (Debye)      :      1.161047032

Rotational constants in cm-1:             0.482784             0.161844             0.139416
Rotational constants in MHz :         14473.491029          4851.963253          4179.574546

                             ****ORCA TERMINATED NORMALLY****
TOTAL RUN TIME: 0 days 0 hours 0 minutes 11 seconds 146 msec
