                         Program Version 6.0.0  -   RELEASE  -
|  1> ! r2scan-3c def2/J RI DEFGRID2 scfconv6 printgap
|  2> %output
|  3>     printlevel normal
|  4> end
|  5> %cpcm
|  6>     smd true
|  7>     smdsolvent "water"
|  8> end
|  9> * xyz 0 1
| 10> C -1.6060975062 -0.0919779712 0.5076490819
| 11> C -0.6484120715 0.4979229137 -0.5222893222
| 12> C 0.6677213508 -0.2744673155 -0.6261524409
| 13> N 1.5047977792 -0.0474814881 0.5458499217
| 14> H -1.1900100235 -0.0236158112 1.5095827352
| 15> H -2.5481996377 0.4499860452 0.4968113782
| 16> H -1.8089297479 -1.1379074185 0.2850474072
| 17> H -0.4203242516 1.5318255548 -0.2618714376
| 18> H -1.1276836715 0.489554462 -1.5029224558
| 19> H 0.443368165 -1.3426427342 -0.7949785174
| 20> H 1.2257641573 0.0887069563 -1.4942274343
| 21> H 2.3804073305 -0.5473090516 0.4424964777
| 22> H 1.0427503073 -0.4154806188 1.3704951794
| 23> *
| 24>
| 25>                          ****END OF INPUT****

CARTESIAN COORDINATES (ANGSTROEM)
---------------------------------
  C     -1.606098   -0.091978    0.507649
  C     -0.648412    0.497923   -0.522289
  C      0.667721   -0.274467   -0.626152
  N      1.504798   -0.047481    0.545850
  H     -1.190010   -0.023616    1.509583
  H     -2.548200    0.449986    0.496811
  H     -1.808930   -1.137907    0.285047
  H     -0.420324    1.531826   -0.261871
  H     -1.127684    0.489554   -1.502922
  H      0.443368   -1.342643   -0.794979
  H      1.225764    0.088707   -1.494227
  H      2.380407   -0.547309    0.442496
  H      1.042750   -0.415481    1.370495

 Total Charge           Charge          ....    0
 Multiplicity           Mult            ....    1
 Number of Electrons    NEL             ....   34
 Basis Dimension        Dim             ....  126

ORBITAL ENERGIES
----------------

  NO   OCC          E(Eh)            E(eV)
   0   2.0000     -14.127542      -384.4300
   1   2.0000     -10.040834      -273.2250
   2   2.0000     -10.015638      -272.5394
   3   2.0000     -10.008137      -272.3352
   4   2.0000      -0.839628       -22.8474
   5   2.0000      -0.723719       -19.6934
   6   2.0000      -0.624163       -16.9843
   7   2.0000      -0.534646       -14.5484
   8   2.0000      -0.453319       -12.3354
   9   2.0000      -0.431597       -11.7443
  10   2.0000      -0.373534       -10.1644
  11   2.0000      -0.371304       -10.1037
  12   2.0000      -0.365943        -9.9578
  13   2.0000      -0.302894        -8.2422
  14   2.0000      -0.298504        -8.1227
  15   2.0000      -0.291615        -7.9352
  16   2.0000      -0.205001        -5.5784
  17   0.0000       0.086229         2.3464
  18   0.0000       0.124150         3.3783
  19   0.0000       0.131004         3.5648
  20   0.0000       0.138234         3.7615
  21   0.0000       0.159298         4.3347

MULLIKEN ATOMIC CHARGES
-----------------------
   0 C :   -0.508798
   1 C :   -0.247674
   2 C :   -0.192681
   3 N :   -0.661810
   4 H :    0.155067
   5 H :    0.157273
   6 H :    0.153588
   7 H :    0.145276
   8 H :    0.145966
   9 H :    0.132634
  10 H :    0.150607
  11 H :    0.282329
  12 H :    0.288223
Sum of atomic charges:    0.0000000

LOEWDIN ATOMIC CHARGES
----------------------
   0 C :   -0.434436
   1 C :   -0.301554
   2 C :   -0.081079
   3 N :   -0.770818
   4 H :    0.151708
   5 H :    0.154104
   6 H :    0.153946
   7 H :    0.157167
   8 H :    0.156705
   9 H :    0.151736
  10 H :    0.173153
  11 H :    0.245154
  12 H :    0.244214

  Mayer bond orders larger than 0.100000
B(  0-C ,  1-C ) :   0.9070 B(  0-C ,  4-H ) :   0.9797 B(  0-C ,  5-H ) :   0.9687
B(  0-C ,  6-H ) :   0.9751 B(  1-C ,  2-C ) :   0.9299 B(  1-C ,  7-H ) :   0.9725
B(  1-C ,  8-H ) :   0.9656 B(  2-C ,  3-N ) :   0.9190 B(  2-C ,  9-H ) :   0.9766
B(  2-C , 10-H ) :   0.9752 B(  3-N , 11-H ) :   0.9016 B(  3-N , 12-H ) :   0.9076

Dispersion correction           -0.002457173
FINAL SINGLE POINT ENERGY      -174.429133321181

DIPOLE MOMENT
-------------

Method             : SCF
Type of density    : Electron Density
Multiplicity       :   1
Irrep              :   0
Energy             :  -174.4359053938287616 Eh
Relativity type    :
Basis              : AO
                                X                 Y                 Z
Electronic contribution:      1.768810609       0.199363496      -0.109837822
Nuclear contribution   :     -1.870734126      -0.851072615       0.050321776
                        -----------------------------------------
Total Dipole Moment    :     -0.101923517      -0.651709119      -0.059516046
                        -----------------------------------------
Magnitude (a.u.)       :      0.662310606
Magnitude (Debye)      :      1.683459774

Rotational constants in cm-1:             0.482784             0.161844             0.139416
Rotational constants in MHz :         14473.491029          4851.963253          4179.574546

                             ****ORCA TERMINATED NORMALLY****
TOTAL RUN TIME: 0 days 0 hours 0 minutes 14 seconds 772 msec
