                         Program Version 6.0.0  -   RELEASE  -
|  1> ! pbe def2-sv(p) def2/J RI DEFGRID1 loosescf d4 GCP(DFT/SV(P)) printgap
|  2> %output
|  3>     printlevel normal
|  4> end
|  5> * xyz 0 1
|  6> C -2.3645449944 0.8504755715 -0.2452408989
|  7> O -1.0996487807 0.6327719295 0.3928197959
|  8> C -0.4343135485 -0.4751165796 0.141009895
|  9> O -0.8045471158 -1.3679083522 -0.5842475378
| 10> C 0.8967875089 -0.4808871946 0.8864190962
| 11> C 1.8705422486 0.1690304241 0.0533333702
| 12> N 2.6332353098 0.691691964 -0.6206951752
| 13> H -2.2359748313 1.6252670534 -0.9994444299
| 14> H -3.053322022 1.183383041 0.5272741897
| 15> H -2.7122030446 -0.0728628189 -0.7085050132
| 16> H 1.2105405731 -1.5103158302 1.0679453831
| 17> H 0.8002695391 0.0749153419 1.8205638217
| 18> *
| 19>
| 20>                          ****END OF INPUT****

CARTESIAN COORDINATES (ANGSTROEM)
---------------------------------
  C     -2.364545    0.850476   -0.245241
  O     -1.099649    0.632772    0.392820
  C     -0.434314   -0.475117    0.141010
  O     -0.804547   -1.367908   -0.584248
  C      0.896788   -0.480887    0.886419
  C      1.870542    0.169030    0.053333
  N      2.633235    0.691692   -0.620695
  H     -2.235975    1.625267   -0.999444
  H     -3.053322    1.183383    0.527274
  H     -2.712203   -0.072863   -0.708505
  H      1.210541   -1.510316    1.067945
  H      0.800270    0.074915    1.820564

 Total Charge           Charge          ....    0
 Multiplicity           Mult            ....    1
 Number of Electrons    NEL             ....   52
 Basis Dimension        Dim             ....  108

ORBITAL ENERGIES
----------------

  NO   OCC          E(Eh)            E(eV)
   0   2.0000     -18.828543      -512.3507
   1   2.0000     -18.761352      -510.5223
   2   2.0000     -13.990066      -380.6890
   3   2.0000     -10.037259      -273.1277
   4   2.0000      -9.957584      -270.9596
   5   2.0000      -9.952816      -270.8299
   6   2.0000      -9.937286      -270.4073
   7   2.0000      -1.034169       -28.1412
   8   2.0000      -0.939376       -25.5617
   9   2.0000      -0.825512       -22.4633
  10   2.0000      -0.743888       -20.2422
  11   2.0000      -0.675332       -18.3767
  12   2.0000      -0.538315       -14.6483
  13   2.0000      -0.498888       -13.5754
  14   2.0000      -0.479630       -13.0514
  15   2.0000      -0.451869       -12.2960
  16   2.0000      -0.440770       -11.9940
  17   2.0000      -0.412223       -11.2172
  18   2.0000      -0.392506       -10.6806
  19   2.0000      -0.368524       -10.0280
  20   2.0000      -0.326776        -8.8920
  21   2.0000      -0.305245        -8.3061
  22   2.0000      -0.304921        -8.2973
  23   2.0000      -0.300661        -8.1814
  24   2.0000      -0.280634        -7.6364
  25   2.0000      -0.246368        -6.7040
  26   0.0000      -0.051416        -1.3991
  27   0.0000      -0.002138        -0.0582
  28   0.0000       0.008927         0.2429
  29   0.0000       0.034856         0.9485
  30   0.0000       0.050412         1.3718

MULLIKEN ATOMIC CHARGES
-----------------------
   0 C :   -0.131005
   1 O :   -0.233355
   2 C :    0.097593
   3 O :   -0.179123
   4 C :   -0.050794
   5 C :   -0.272380
   6 N :    0.065992
   7 H :    0.136529
   8 H :    0.131495
   9 H :    0.140137
  10 H :    0.148703
  11 H :    0.146209
Sum of atomic charges:    0.0000000

LOEWDIN ATOMIC CHARGES
----------------------
   0 C :   -0.202778
   1 O :   -0.059533
   2 C :    0.041406
   3 O :   -0.146237
   4 C :   -0.250024
   5 C :   -0.050256
   6 N :   -0.053264
   7 H :    0.128173
   8 H :    0.125950
   9 H :    0.128095
  10 H :    0.170991
  11 H :    0.167475

  Mayer bond orders larger than 0.100000
B(  0-C ,  1-O ) :   0.9206 B(  0-C ,  7-H ) :   0.9581 B(  0-C ,  8-H ) :   0.9600
B(  0-C ,  9-H ) :   0.9310 B(  1-O ,  2-C ) :   1.2363 B(  1-O ,  3-O ) :   0.1054
B(  2-C ,  3-O ) :   2.0968 B(  2-C ,  4-C ) :   0.9506 B(  4-C ,  5-C ) :   1.1795
B(  4-C , 10-H ) :   0.8663 B(  4-C , 11-H ) :   0.8693 B(  5-C ,  6-N ) :   3.0592

Dispersion correction           -0.008708582
FINAL SINGLE POINT ENERGY      -359.877414554541

DIPOLE MOMENT
-------------

Method             : SCF
Type of density    : Electron Density
Multiplicity       :   1
Irrep              :   0
Energy             :  -359.9202844301116784 Eh
Relativity type    :
Basis              : AO
                                X                 Y                 Z
Electronic contribution:      4.413726869      -1.094696260      -0.597909006
Nuclear contribution   :     -5.634042003       1.212900510       1.595990240
                        -----------------------------------------
Total Dipole Moment    :     -1.220315134       0.118204250       0.998081234
                        -----------------------------------------
Magnitude (a.u.)       :      1.580919802
Magnitude (Debye)      :      4.018378792

Rotational constants in cm-1:             0.179353             0.055830             0.050193
Rotational constants in MHz :          5376.861706          1673.726400          1504.757581

                             ****ORCA TERMINATED NORMALLY****
TOTAL RUN TIME: 0 days 0 hours 0 minutes 5 seconds 851 msec
