                         Program Version 6.0.0  -   RELEASE  -
|  1> ! pbe def2-sv(p) def2/J RI DEFGRID1 loosescf d4 GCP(DFT/SV(P)) printgap
|  2> %output
|  3>     printlevel normal
|  4> end
|  5> * xyz 0 1
|  6> C -2.5584147115 -0.8767464911 0.2975097287
|  7> C -1.1187595864 -0.4478680689 0.618809016
|  8> H -0.9882416078 -0.4199820681 1.712219061
|  9> C -0.8246601193 0.9555903476 0.0452386225
| 10> H -1.0808739801 0.9674296711 -1.0195826015
| 11> C 0.6647738741 1.2910180787 0.2058513015
| 12> H 0.891376878 1.4093449538 1.2803285489
| 13> C 1.5347644795 0.1462545131 -0.3269714755
| 14> H 1.392226357 0.0716036772 -1.4164502024
| 15> C 1.1032336269 -1.1802893825 0.3268236039
| 16> H 1.2851130151 -1.116077576 1.4137021362
| 17> O -0.2553847686 -1.4278365088 0.0674842668
| 18> O 1.852422164 -2.2473155563 -0.1308704394
| 19> O 2.8745964885 0.4469671098 -0.0229376016
| 20> O 0.9304307826 2.4913706192 -0.4725299677
| 21> O -1.6527967504 1.9181009679 0.6376794993
| 22> O -2.7730382023 -1.0467822553 -1.0775301516
| 23> H -3.2358788072 -0.0844327605 0.6201249476
| 24> H -2.7830615491 -1.801196167 0.8426209819
| 25> H 1.5259460762 -2.5264966692 -1.0007907673
| 26> H 3.421104005 -0.337701819 -0.1820717934
| 27> H 1.8851627918 2.6562300814 -0.4419264451
| 28> H -1.335521632 2.1292132334 1.5280665425
| 29> H -2.1849621769 -1.7478798211 -1.3928912162
| 30> *
| 31>
| 32>                          ****END OF INPUT****

CARTESIAN COORDINATES (ANGSTROEM)
---------------------------------
  C     -2.558415   -0.876746    0.297510
  C     -1.118760   -0.447868    0.618809
  H     -0.988242   -0.419982    1.712219
  C     -0.824660    0.955590    0.045239
  H     -1.080874    0.967430   -1.019583
  C      0.664774    1.291018    0.205851
  H      0.891377    1.409345    1.280329
  C      1.534764    0.146255   -0.326971
  H      1.392226    0.071604   -1.416450
  C      1.103234   -1.180289    0.326824
  H      1.285113   -1.116078    1.413702
  O     -0.255385   -1.427837    0.067484
  O      1.852422   -2.247316   -0.130870
  O      2.874596    0.446967   -0.022938
  O      0.930431    2.491371   -0.472530
  O     -1.652797    1.918101    0.637679
  O     -2.773038   -1.046782   -1.077530
  H     -3.235879   -0.084433    0.620125
  H     -2.783062   -1.801196    0.842621
  H      1.525946   -2.526497   -1.000791
  H      3.421104   -0.337702   -0.182072
  H      1.885163    2.656230   -0.441926
  H     -1.335522    2.129213    1.528067
  H     -2.184962   -1.747880   -1.392891

 Total Charge           Charge          ....    0
 Multiplicity           Mult            ....    1
 Number of Electrons    NEL             ....   96
 Basis Dimension        Dim             ....  192

ORBITAL ENERGIES
----------------

  NO   OCC          E(Eh)            E(eV)
   0   2.0000     -18.786501      -511.2067
   1   2.0000     -18.778386      -510.9859
   2   2.0000     -18.764458      -510.6068
   3   2.0000     -18.753407      -510.3062
   4   2.0000     -18.749333      -510.1953
   5   2.0000     -18.747728      -510.1516
   6   2.0000      -9.997861      -272.0556
   7   2.0000      -9.949231      -270.7323
   8   2.0000      -9.947053      -270.6731
   9   2.0000      -9.945648      -270.6348
  10   2.0000      -9.941846      -270.5314
  11   2.0000      -9.931962      -270.2624
  12   2.0000      -0.998961       -27.1831
  13   2.0000      -0.946914       -25.7668
  14   2.0000      -0.944016       -25.6880
  15   2.0000      -0.929543       -25.2942
  16   2.0000      -0.920239       -25.0410
  17   2.0000      -0.915734       -24.9184
  18   2.0000      -0.705434       -19.1958
  19   2.0000      -0.695454       -18.9243
  20   2.0000      -0.621348       -16.9077
  21   2.0000      -0.592333       -16.1182
  22   2.0000      -0.562222       -15.2988
  23   2.0000      -0.548778       -14.9330
  24   2.0000      -0.508901       -13.8479
  25   2.0000      -0.499355       -13.5882
  26   2.0000      -0.475395       -12.9362
  27   2.0000      -0.461445       -12.5566
  28   2.0000      -0.448791       -12.2122
  29   2.0000      -0.433735       -11.8025
  30   2.0000      -0.424992       -11.5646
  31   2.0000      -0.417506       -11.3609
  32   2.0000      -0.379651       -10.3308
  33   2.0000      -0.372752       -10.1431
  34   2.0000      -0.363689        -9.8965
  35   2.0000      -0.352894        -9.6027
  36   2.0000      -0.334343        -9.0979
  37   2.0000      -0.326368        -8.8809
  38   2.0000      -0.309442        -8.4203
  39   2.0000      -0.303953        -8.2710
  40   2.0000      -0.284275        -7.7355
  41   2.0000      -0.272722        -7.4211
  42   2.0000      -0.267609        -7.2820
  43   2.0000      -0.249322        -6.7844
  44   2.0000      -0.231886        -6.3099
  45   2.0000      -0.227186        -6.1820
  46   2.0000      -0.219294        -5.9673
  47   2.0000      -0.205376        -5.5886
  48   0.0000       0.007889         0.2147
  49   0.0000       0.022285         0.6064
  50   0.0000       0.028342         0.7712
  51   0.0000       0.043980         1.1968
  52   0.0000       0.050897         1.3850

MULLIKEN ATOMIC CHARGES
-----------------------
   0 C :    0.103049
   1 C :   -0.022313
   2 H :    0.038257
   3 C :    0.077849
   4 H :    0.071715
   5 C :    0.072458
   6 H :    0.033679
   7 C :    0.027774
   8 H :    0.046246
   9 C :    0.180420
  10 H :    0.054391
  11 O :   -0.317974
  12 O :   -0.383728
  13 O :   -0.423000
  14 O :   -0.403336
  15 O :   -0.404457
  16 O :   -0.435742
  17 H :    0.092178
  18 H :    0.079713
  19 H :    0.305349
  20 H :    0.305932
  21 H :    0.307949
  22 H :    0.297979
  23 H :    0.295613
Sum of atomic charges:   -0.0000000

LOEWDIN ATOMIC CHARGES
----------------------
   0 C :   -0.123317
   1 C :   -0.080592
   2 H :    0.098679
   3 C :   -0.067723
   4 H :    0.124291
   5 C :   -0.074442
   6 H :    0.093972
   7 C :   -0.101226
   8 H :    0.101534
   9 C :   -0.005966
  10 H :    0.097910
  11 O :   -0.156464
  12 O :   -0.292759
  13 O :   -0.324950
  14 O :   -0.315873
  15 O :   -0.297829
  16 O :   -0.328219
  17 H :    0.123596
  18 H :    0.100264
  19 H :    0.290395
  20 H :    0.286692
  21 H :    0.288343
  22 H :    0.284285
  23 H :    0.279398

  Mayer bond orders larger than 0.100000
B(  0-C ,  1-C ) :   1.0397 B(  0-C , 16-O ) :   1.0692 B(  0-C , 17-H ) :   0.9089
B(  0-C , 18-H ) :   0.9190 B(  1-C ,  2-H ) :   0.8667 B(  1-C ,  3-C ) :   0.9739
B(  1-C , 11-O ) :   0.9677 B(  3-C ,  4-H ) :   0.8612 B(  3-C ,  5-C ) :   1.0179
B(  3-C , 15-O ) :   1.0395 B(  5-C ,  6-H ) :   0.8664 B(  5-C ,  7-C ) :   1.0056
B(  5-C , 14-O ) :   1.1127 B(  7-C ,  8-H ) :   0.8620 B(  7-C ,  9-C ) :   0.9800
B(  7-C , 13-O ) :   1.0690 B(  9-C , 10-H ) :   0.8777 B(  9-C , 11-O ) :   1.0161
B(  9-C , 12-O ) :   1.1220 B( 12-O , 19-H ) :   0.8403 B( 13-O , 20-H ) :   0.8315
B( 14-O , 21-H ) :   0.8389 B( 15-O , 22-H ) :   0.8464 B( 16-O , 23-H ) :   0.8451

Dispersion correction           -0.023913036
FINAL SINGLE POINT ENERGY      -685.699879747212

DIPOLE MOMENT
-------------

Method             : SCF
Type of density    : Electron Density
Multiplicity       :   1
Irrep              :   0
Energy             :  -685.8297739218232891 Eh
Relativity type    :
Basis              : AO
                                X                 Y                 Z
Electronic contribution:      2.009753432      -0.043205710      -1.430628166
Nuclear contribution   :     -1.118481861      -0.748492129       1.808396843
                        -----------------------------------------
Total Dipole Moment    :      0.891271572      -0.791697839       0.377768678
                        -----------------------------------------
Magnitude (a.u.)       :      1.250543744
Magnitude (Debye)      :      3.178629588

Rotational constants in cm-1:             0.038925             0.027056             0.017745
Rotational constants in MHz :          1166.945699           811.117713           531.979595

                             ****ORCA TERMINATED NORMALLY****
TOTAL RUN TIME: 0 days 0 hours 0 minutes 12 seconds 43 msec
