                         Program Version 6.0.0  -   RELEASE  -
|  1> ! wb97x-v def2-tzvp def2/J RIJCOSX DEFGRID2 scfconv7 GCP(DFT/TZ) printgap
|  2> %output
|  3>     printlevel normal
|  4> end
|  5> * xyz 0 1
|  6> C 0.7243109157446453 -1.17513645353245 0.22005797815285072
|  7> C -0.7235926177652272 -1.1755800769531333 -0.22002345514283825
|  8> O -1.4007838010141715 -0.00043330232270648316 0.25974313588946774
|  9> C -0.7243289982062887 1.1751354916664285 -0.2200285599160168
| 10> C 0.7235749698130447 1.175576546215721 0.2200513352468069
| 11> O 1.4007645070952335 0.0004304780191589482 -0.25971985851291174
| 12> H 1.2499507120907256 -2.0383384939847096 -0.19853503014136772
| 13> H 0.7877580284500763 -1.2119854416540803 1.31862214558936
| 14> H -0.7870162110019259 -1.212484600353308 -1.3185877182246994
| 15> H -1.248691651152737 -2.0391088907971775 0.1985756511073669
| 16> H -0.7877749766058161 1.211991083674856 -1.3185931686490553
| 17> H -1.2499688193941803 2.0383355126465603 0.1985689348171707
| 18> H 1.2486731348778133 2.0391056500094957 -0.19854542475994522
| 19> H 0.7870000409975542 1.2124766872904793 1.318616298359023
| 20> *
| 21>
| 22>                          ****END OF INPUT****

CARTESIAN COORDINATES (ANGSTROEM)
---------------------------------
  C      0.724311   -1.175136    0.220058
  C     -0.723593   -1.175580   -0.220023
  O     -1.400784   -0.000433    0.259743
  C     -0.724329    1.175135   -0.220029
  C      0.723575    1.175577    0.220051
  O      1.400765    0.000430   -0.259720
  H      1.249951   -2.038338   -0.198535
  H      0.787758   -1.211985    1.318622
  H     -0.787016   -1.212485   -1.318588
  H     -1.248692   -2.039109    0.198576
  H     -0.787775    1.211991   -1.318593
  H     -1.249969    2.038336    0.198569
  H      1.248673    2.039106   -0.198545
  H      0.787000    1.212477    1.318616

 Total Charge           Charge          ....    0
 Multiplicity           Mult            ....    1
 Number of Electrons    NEL             ....   48
 Basis Dimension        Dim             ....  234

ORBITAL ENERGIES
----------------

  NO   OCC          E(Eh)            E(eV)
   0   2.0000     -21.678052      -589.8898
   1   2.0000     -21.678014      -589.8887
   2   2.0000     -12.095786      -329.1431
   3   2.0000     -12.095490      -329.1350
   4   2.0000     -12.094398      -329.1053
   5   2.0000     -12.094375      -329.1047
   6   2.0000      -1.689129       -45.9635
   7   2.0000      -1.671448       -45.4824
   8   2.0000      -1.310328       -35.6558
   9   2.0000      -1.235202       -33.6115
  10   2.0000      -1.200357       -32.6634
  11   2.0000      -1.076192       -29.2847
  12   2.0000      -1.017018       -27.6745
  13   2.0000      -1.001221       -27.2446
  14   2.0000      -0.965447       -26.2711
  15   2.0000      -0.951348       -25.8875
  16   2.0000      -0.946514       -25.7560
  17   2.0000      -0.943727       -25.6801
  18   2.0000      -0.851798       -23.1786
  19   2.0000      -0.835748       -22.7419
  20   2.0000      -0.829417       -22.5696
  21   2.0000      -0.806807       -21.9543
  22   2.0000      -0.805856       -21.9285
  23   2.0000      -0.764922       -20.8146
  24   0.0000      -0.204877        -5.5750
  25   0.0000      -0.136521        -3.7149
  26   0.0000      -0.127326        -3.4647
  27   0.0000      -0.090485        -2.4622
  28   0.0000      -0.023150        -0.6299

MULLIKEN ATOMIC CHARGES
-----------------------
   0 C :   -0.037419
   1 C :   -0.037409
   2 O :   -0.305505
   3 C :   -0.037410
   4 C :   -0.037416
   5 O :   -0.305502
   6 H :    0.106853
   7 H :    0.083314
   8 H :    0.083312
   9 H :    0.106851
  10 H :    0.083313
  11 H :    0.106851
  12 H :    0.106853
  13 H :    0.083314
Sum of atomic charges:   -0.0000000

LOEWDIN ATOMIC CHARGES
----------------------
   0 C :   -0.312065
   1 C :   -0.312065
   2 O :    0.127480
   3 C :   -0.312064
   4 C :   -0.312065
   5 O :    0.127480
   6 H :    0.128417
   7 H :    0.119908
   8 H :    0.119907
   9 H :    0.128417
  10 H :    0.119908
  11 H :    0.128417
  12 H :    0.128417
  13 H :    0.119908

  Mayer bond orders larger than 0.100000
B(  0-C ,  1-C ) :   1.0039 B(  0-C ,  5-O ) :   1.0051 B(  0-C ,  6-H ) :   0.9576
B(  0-C ,  7-H ) :   0.9728 B(  1-C ,  2-O ) :   1.0051 B(  1-C ,  8-H ) :   0.9728
B(  1-C ,  9-H ) :   0.9576 B(  2-O ,  3-C ) :   1.0051 B(  3-C ,  4-C ) :   1.0039
B(  3-C , 10-H ) :   0.9728 B(  3-C , 11-H ) :   0.9576 B(  4-C ,  5-O ) :   1.0051
B(  4-C , 12-H ) :   0.9576 B(  4-C , 13-H ) :   0.9728

FINAL SINGLE POINT ENERGY      -307.680283428289

DIPOLE MOMENT
-------------

Method             : SCF
Type of density    : Electron Density
Multiplicity       :   1
Irrep              :   0
Energy             :  -307.6903568826889455 Eh
Relativity type    :
Basis              : AO
                                X                 Y                 Z
Electronic contribution:     -0.000001363      -0.000001032      -0.000009181
Nuclear contribution   :      0.000003398       0.000001202       0.000013312
                        -----------------------------------------
Total Dipole Moment    :      0.000002036       0.000000169       0.000004131
                        -----------------------------------------
Magnitude (a.u.)       :      0.000004609
Magnitude (Debye)      :      0.000011714

Rotational constants in cm-1:             0.167402             0.155495             0.090720
Rotational constants in MHz :          5018.593974          4661.621851          2719.713933

                             ****ORCA TERMINATED NORMALLY****
TOTAL RUN TIME: 0 days 0 hours 1 minutes 22 seconds 788 msec
