                         Program Version 6.0.0  -   RELEASE  -
|  1> ! wb97x-v def2-tzvp def2/J RIJCOSX DEFGRID2 scfconv7 GCP(DFT/TZ) printgap
|  2> %output
|  3>     printlevel normal
|  4> end
|  5> %cpcm
|  6>     smd true
|  7>     smdsolvent "water"
|  8> end
|  9> * xyz 0 1
| 10> C 0.7243109157446453 -1.17513645353245 0.22005797815285072
| 11> C -0.7235926177652272 -1.1755800769531333 -0.22002345514283825
| 12> O -1.4007838010141715 -0.00043330232270648316 0.25974313588946774
| 13> C -0.7243289982062887 1.1751354916664285 -0.2200285599160168
| 14> C 0.7235749698130447 1.175576546215721 0.2200513352468069
| 15> O 1.4007645070952335 0.0004304780191589482 -0.25971985851291174
| 16> H 1.2499507120907256 -2.0383384939847096 -0.19853503014136772
| 17> H 0.7877580284500763 -1.2119854416540803 1.31862214558936
| 18> H -0.7870162110019259 -1.212484600353308 -1.3185877182246994
| 19> H -1.248691651152737 -2.0391088907971775 0.1985756511073669
| 20> H -0.7877749766058161 1.211991083674856 -1.3185931686490553
| 21> H -1.2499688193941803 2.0383355126465603 0.1985689348171707
| 22> H 1.2486731348778133 2.0391056500094957 -0.19854542475994522
| 23> H 0.7870000409975542 1.2124766872904793 1.318616298359023
| 24> *
| 25>
| 26>                          ****END OF INPUT****

CARTESIAN COORDINATES (ANGSTROEM)
---------------------------------
  C      0.724311   -1.175136    0.220058
  C     -0.723593   -1.175580   -0.220023
  O     -1.400784   -0.000433    0.259743
  C     -0.724329    1.175135   -0.220029
  C      0.723575    1.175577    0.220051
  O      1.400765    0.000430   -0.259720
  H      1.249951   -2.038338   -0.198535
  H      0.787758   -1.211985    1.318622
  H     -0.787016   -1.212485   -1.318588
  H     -1.248692   -2.039109    0.198576
  H     -0.787775    1.211991   -1.318593
  H     -1.249969    2.038336    0.198569
  H      1.248673    2.039106   -0.198545
  H      0.787000    1.212477    1.318616

 Total Charge           Charge          ....    0
 Multiplicity           Mult            ....    1
 Number of Electrons    NEL             ....   48
 Basis Dimension        Dim             ....  234

ORBITAL ENERGIES
----------------

  NO   OCC          E(Eh)            E(eV)
   0   2.0000     -21.681226      -589.9761
   1   2.0000     -21.681182      -589.9750
   2   2.0000     -12.088136      -328.9349
   3   2.0000     -12.087845      -328.9270
   4   2.0000     -12.086751      -328.8972
   5   2.0000     -12.086721      -328.8964
   6   2.0000      -1.692063       -46.0434
   7   2.0000      -1.675101       -45.5818
   8   2.0000      -1.305250       -35.5177
   9   2.0000      -1.229977       -33.4694
  10   2.0000      -1.199027       -32.6272
  11   2.0000      -1.072796       -29.1923
  12   2.0000      -1.015703       -27.6387
  13   2.0000      -1.001234       -27.2450
  14   2.0000      -0.967810       -26.3354
  15   2.0000      -0.952073       -25.9072
  16   2.0000      -0.945078       -25.7169
  17   2.0000      -0.940436       -25.5906
  18   2.0000      -0.844052       -22.9678
  19   2.0000      -0.827795       -22.5255
  20   2.0000      -0.827191       -22.5090
  21   2.0000      -0.804294       -21.8860
  22   2.0000      -0.797021       -21.6880
  23   2.0000      -0.760756       -20.7012
  24   0.0000      -0.199898        -5.4395
  25   0.0000      -0.132016        -3.5923
  26   0.0000      -0.121675        -3.3109
  27   0.0000      -0.087235        -2.3738
  28   0.0000      -0.009777        -0.2660

MULLIKEN ATOMIC CHARGES
-----------------------
   0 C :   -0.052996
   1 C :   -0.052980
   2 O :   -0.385572
   3 C :   -0.052985
   4 C :   -0.052989
   5 O :   -0.385569
   6 H :    0.136974
   7 H :    0.108802
   8 H :    0.108799
   9 H :    0.136970
  10 H :    0.108800
  11 H :    0.136972
  12 H :    0.136973
  13 H :    0.108801
Sum of atomic charges:    0.0000000

LOEWDIN ATOMIC CHARGES
----------------------
   0 C :   -0.309212
   1 C :   -0.309212
   2 O :    0.091494
   3 C :   -0.309211
   4 C :   -0.309212
   5 O :    0.091494
   6 H :    0.136453
   7 H :    0.127013
   8 H :    0.127013
   9 H :    0.136452
  10 H :    0.127013
  11 H :    0.136452
  12 H :    0.136452
  13 H :    0.127013

  Mayer bond orders larger than 0.100000
B(  0-C ,  1-C ) :   1.0070 B(  0-C ,  5-O ) :   0.9705 B(  0-C ,  6-H ) :   0.9553
B(  0-C ,  7-H ) :   0.9712 B(  1-C ,  2-O ) :   0.9705 B(  1-C ,  8-H ) :   0.9712
B(  1-C ,  9-H ) :   0.9553 B(  2-O ,  3-C ) :   0.9705 B(  3-C ,  4-C ) :   1.0070
B(  3-C , 10-H ) :   0.9712 B(  3-C , 11-H ) :   0.9553 B(  4-C ,  5-O ) :   0.9705
B(  4-C , 12-H ) :   0.9553 B(  4-C , 13-H ) :   0.9712

FINAL SINGLE POINT ENERGY      -307.689667485613

DIPOLE MOMENT
-------------

Method             : SCF
Type of density    : Electron Density
Multiplicity       :   1
Irrep              :   0
Energy             :  -307.6997409400127026 Eh
Relativity type    :
Basis              : AO
                                X                 Y                 Z
Electronic contribution:     -0.000000526      -0.000001134      -0.000007129
Nuclear contribution   :      0.000003398       0.000001202       0.000013312
                        -----------------------------------------
Total Dipole Moment    :      0.000002872       0.000000068       0.000006183
                        -----------------------------------------
Magnitude (a.u.)       :      0.000006818
Magnitude (Debye)      :      0.000017330

Rotational constants in cm-1:             0.167402             0.155495             0.090720
Rotational constants in MHz :          5018.593974          4661.621851          2719.713933

                             ****ORCA TERMINATED NORMALLY****
TOTAL RUN TIME: 0 days 0 hours 1 minutes 34 seconds 700 msec
