                         Program Version 6.0.0  -   RELEASE  -
|  1> ! pbe def2-sv(p) def2/J RI DEFGRID1 loosescf d4 GCP(DFT/SV(P)) printgap
|  2> %output
|  3>     printlevel normal
|  4> end
|  5> * xyz 0 1
|  6> C 2.454766409 0.0255277602 -0.2860888224
|  7> C 0.9955815525 0.1018884683 0.0363873768
|  8> C 0.303563634 1.23292845 0.0674332254
|  9> C -1.1671060904 1.1932919801 0.3463662413
| 10> C -1.7622374074 0.0476897742 -0.4751193499
| 11> C -1.1503523479 -1.295020588 -0.0684076099
| 12> C 0.3153064173 -1.1874840096 0.4061006441
| 13> H 2.6108273152 -0.582262019 -1.1768368639
| 14> H 2.9992267998 -0.4411299165 0.5341205389
| 15> H 2.865610082 1.0161959542 -0.4626037327
| 16> H 0.7626327645 2.1843153094 -0.1579306033
| 17> H -1.3510436106 1.010793043 1.4094118869
| 18> H -1.6390576459 2.1391742925 0.0786809911
| 19> H -2.8457324715 0.0113168409 -0.3523937502
| 20> H -1.5511924767 0.244114993 -1.5286288339
| 21> H -1.7444955031 -1.7315905888 0.7361321782
| 22> H -1.2074026433 -1.9769529575 -0.917990607
| 23> H 0.3346202467 -1.259058757 1.498129695
| 24> H 0.8908699786 -2.030898994 0.0220662056
| 25> *
| 26>
| 27>                          ****END OF INPUT****

CARTESIAN COORDINATES (ANGSTROEM)
---------------------------------
  C      2.454766    0.025528   -0.286089
  C      0.995582    0.101888    0.036387
  C      0.303564    1.232928    0.067433
  C     -1.167106    1.193292    0.346366
  C     -1.762237    0.047690   -0.475119
  C     -1.150352   -1.295021   -0.068408
  C      0.315306   -1.187484    0.406101
  H      2.610827   -0.582262   -1.176837
  H      2.999227   -0.441130    0.534121
  H      2.865610    1.016196   -0.462604
  H      0.762633    2.184315   -0.157931
  H     -1.351044    1.010793    1.409412
  H     -1.639058    2.139174    0.078681
  H     -2.845732    0.011317   -0.352394
  H     -1.551192    0.244115   -1.528629
  H     -1.744496   -1.731591    0.736132
  H     -1.207403   -1.976953   -0.917991
  H      0.334620   -1.259059    1.498130
  H      0.890870   -2.030899    0.022066

 Total Charge           Charge          ....    0
 Multiplicity           Mult            ....    1
 Number of Electrons    NEL             ....   54
 Basis Dimension        Dim             ....  122

ORBITAL ENERGIES
----------------

  NO   OCC          E(Eh)            E(eV)
   0   2.0000      -9.884480      -268.9704
   1   2.0000      -9.882099      -268.9056
   2   2.0000      -9.880353      -268.8581
   3   2.0000      -9.879414      -268.8325
   4   2.0000      -9.878101      -268.7968
   5   2.0000      -9.874826      -268.7077
   6   2.0000      -9.869043      -268.5503
   7   2.0000      -0.754232       -20.5237
   8   2.0000      -0.683574       -18.6010
   9   2.0000      -0.658503       -17.9188
  10   2.0000      -0.605254       -16.4698
  11   2.0000      -0.547123       -14.8880
  12   2.0000      -0.515108       -14.0168
  13   2.0000      -0.444182       -12.0868
  14   2.0000      -0.422845       -11.5062
  15   2.0000      -0.415753       -11.3132
  16   2.0000      -0.378677       -10.3043
  17   2.0000      -0.366084        -9.9617
  18   2.0000      -0.357570        -9.7300
  19   2.0000      -0.343309        -9.3419
  20   2.0000      -0.335238        -9.1223
  21   2.0000      -0.323689        -8.8080
  22   2.0000      -0.310689        -8.4543
  23   2.0000      -0.281631        -7.6636
  24   2.0000      -0.269896        -7.3442
  25   2.0000      -0.258186        -7.0256
  26   2.0000      -0.198178        -5.3927
  27   0.0000      -0.001598        -0.0435
  28   0.0000       0.032630         0.8879
  29   0.0000       0.062043         1.6883
  30   0.0000       0.066439         1.8079
  31   0.0000       0.075586         2.0568

MULLIKEN ATOMIC CHARGES
-----------------------
   0 C :   -0.210837
   1 C :   -0.095193
   2 C :   -0.204597
   3 C :   -0.081269
   4 C :   -0.157766
   5 C :   -0.155714
   6 C :   -0.096263
   7 H :    0.104396
   8 H :    0.104959
   9 H :    0.094617
  10 H :    0.039804
  11 H :    0.088372
  12 H :    0.079247
  13 H :    0.080308
  14 H :    0.081981
  15 H :    0.074779
  16 H :    0.085568
  17 H :    0.092457
  18 H :    0.075151
Sum of atomic charges:    0.0000000

LOEWDIN ATOMIC CHARGES
----------------------
   0 C :   -0.321951
   1 C :   -0.071122
   2 C :   -0.162718
   3 C :   -0.223359
   4 C :   -0.221989
   5 C :   -0.225652
   6 C :   -0.216455
   7 H :    0.125777
   8 H :    0.125080
   9 H :    0.121594
  10 H :    0.114035
  11 H :    0.121889
  12 H :    0.118915
  13 H :    0.114405
  14 H :    0.116517
  15 H :    0.115574
  16 H :    0.118742
  17 H :    0.131385
  18 H :    0.119332

  Mayer bond orders larger than 0.100000
B(  0-C ,  1-C ) :   1.1303 B(  0-C ,  7-H ) :   0.9291 B(  0-C ,  8-H ) :   0.9345
B(  0-C ,  9-H ) :   0.9440 B(  1-C ,  2-C ) :   1.9047 B(  1-C ,  6-C ) :   1.1085
B(  2-C ,  3-C ) :   1.0671 B(  2-C , 10-H ) :   0.9367 B(  3-C ,  4-C ) :   1.1462
B(  3-C , 11-H ) :   0.8950 B(  3-C , 12-H ) :   0.9162 B(  4-C ,  5-C ) :   1.1638
B(  4-C , 13-H ) :   0.9198 B(  4-C , 14-H ) :   0.9144 B(  5-C ,  6-C ) :   1.1185
B(  5-C , 15-H ) :   0.9177 B(  5-C , 16-H ) :   0.9265 B(  6-C , 17-H ) :   0.8877
B(  6-C , 18-H ) :   0.9148

Dispersion correction           -0.016751119
FINAL SINGLE POINT ENERGY      -273.282746620726

DIPOLE MOMENT
-------------

Method             : SCF
Type of density    : Electron Density
Multiplicity       :   1
Irrep              :   0
Energy             :  -273.3429526749823708 Eh
Relativity type    :
Basis              : AO
                                X                 Y                 Z
Electronic contribution:     -0.116307954       1.201186710       0.315050325
Nuclear contribution   :      0.117141906      -1.328425093      -0.298188988
                        -----------------------------------------
Total Dipole Moment    :      0.000833952      -0.127238383       0.016861338
                        -----------------------------------------
Magnitude (a.u.)       :      0.128353443
Magnitude (Debye)      :      0.326248525

Rotational constants in cm-1:             0.146990             0.077022             0.056390
Rotational constants in MHz :          4406.636116          2309.055795          1690.533185

                             ****ORCA TERMINATED NORMALLY****
TOTAL RUN TIME: 0 days 0 hours 0 minutes 6 seconds 890 msec
