                         Program Version 6.0.0  -   RELEASE  -
|  1> ! r2scan-3c def2/J RI DEFGRID2 scfconv6 printgap
|  2> %output
|  3>     printlevel normal
|  4> end
|  5> * xyz 0 1
|  6> C -2.7812022759 0.219032694 0.999040624
|  7> C -1.7529883136 -0.0484275249 -0.0577951278
|  8> O -2.0458296099 -0.4219594213 -1.1773712895
|  9> C -0.3121763421 0.1656210576 0.36056442
| 10> C 0.3811293577 1.1155076197 -0.6238946792
| 11> C 1.8554186438 1.2796674604 -0.270805023
| 12> C 2.5602554841 -0.0730241132 -0.2702805622
| 13> C 1.8811110309 -1.0205033532 0.7134244657
| 14> C 0.4070321894 -1.1917428633 0.3618611231
| 15> H -2.5662152321 -0.3904002319 1.873533252
| 16> H -2.7203344205 1.2636633779 1.2960379567
| 17> H -3.7782546935 -0.0005195849 0.6274363737
| 18> H -0.2761250642 0.5922765893 1.3658976986
| 19> H 0.2800719224 0.7064526762 -1.6316874409
| 20> H -0.1188601499 2.0866968584 -0.6063754149
| 21> H 2.3292526016 1.9480503803 -0.991523445
| 22> H 1.9425288558 1.734747826 0.7182150538
| 23> H 2.5187067318 -0.5025815647 -1.2735287988
| 24> H 3.610265862 0.0537492136 -0.0013252114
| 25> H 2.3734233359 -1.9941814479 0.6950851081
| 26> H 1.9683057976 -0.6175422473 1.7246464604
| 27> H 0.3096154065 -1.6379502358 -0.6305479215
| 28> H -0.0737257367 -1.8607586643 1.0791190207
| 29> *
| 30>
| 31>                          ****END OF INPUT****

CARTESIAN COORDINATES (ANGSTROEM)
---------------------------------
  C     -2.781202    0.219033    0.999041
  C     -1.752988   -0.048428   -0.057795
  O     -2.045830   -0.421959   -1.177371
  C     -0.312176    0.165621    0.360564
  C      0.381129    1.115508   -0.623895
  C      1.855419    1.279667   -0.270805
  C      2.560255   -0.073024   -0.270281
  C      1.881111   -1.020503    0.713424
  C      0.407032   -1.191743    0.361861
  H     -2.566215   -0.390400    1.873533
  H     -2.720334    1.263663    1.296038
  H     -3.778255   -0.000520    0.627436
  H     -0.276125    0.592277    1.365898
  H      0.280072    0.706453   -1.631687
  H     -0.118860    2.086697   -0.606375
  H      2.329253    1.948050   -0.991523
  H      1.942529    1.734748    0.718215
  H      2.518707   -0.502582   -1.273529
  H      3.610266    0.053749   -0.001325
  H      2.373423   -1.994181    0.695085
  H      1.968306   -0.617542    1.724646
  H      0.309615   -1.637950   -0.630548
  H     -0.073726   -1.860759    1.079119

 Total Charge           Charge          ....    0
 Multiplicity           Mult            ....    1
 Number of Electrons    NEL             ....   70
 Basis Dimension        Dim             ....  246

ORBITAL ENERGIES
----------------

  NO   OCC          E(Eh)            E(eV)
   0   2.0000     -18.934771      -515.2413
   1   2.0000     -10.113901      -275.2132
   2   2.0000     -10.039716      -273.1946
   3   2.0000     -10.033251      -273.0186
   4   2.0000     -10.032025      -272.9853
   5   2.0000     -10.028649      -272.8934
   6   2.0000     -10.027787      -272.8699
   7   2.0000     -10.026554      -272.8364
   8   2.0000     -10.025122      -272.7974
   9   2.0000      -1.000736       -27.2314
  10   2.0000      -0.808515       -22.0008
  11   2.0000      -0.738797       -20.1037
  12   2.0000      -0.713348       -19.4112
  13   2.0000      -0.700776       -19.0691
  14   2.0000      -0.594124       -16.1669
  15   2.0000      -0.580253       -15.7895
  16   2.0000      -0.529526       -14.4091
  17   2.0000      -0.497125       -13.5275
  18   2.0000      -0.448067       -12.1925
  19   2.0000      -0.435384       -11.8474
  20   2.0000      -0.421397       -11.4668
  21   2.0000      -0.418666       -11.3925
  22   2.0000      -0.407497       -11.0886
  23   2.0000      -0.394087       -10.7237
  24   2.0000      -0.376586       -10.2474
  25   2.0000      -0.357901        -9.7390
  26   2.0000      -0.351850        -9.5743
  27   2.0000      -0.346931        -9.4405
  28   2.0000      -0.320908        -8.7324
  29   2.0000      -0.317973        -8.6525
  30   2.0000      -0.312580        -8.5057
  31   2.0000      -0.295049        -8.0287
  32   2.0000      -0.282170        -7.6782
  33   2.0000      -0.270968        -7.3734
  34   2.0000      -0.208851        -5.6831
  35   0.0000      -0.043803        -1.1919
  36   0.0000       0.073058         1.9880
  37   0.0000       0.092283         2.5111
  38   0.0000       0.105861         2.8806
  39   0.0000       0.113344         3.0842

MULLIKEN ATOMIC CHARGES
-----------------------
   0 C :   -0.492729
   1 C :    0.259963
   2 O :   -0.355376
   3 C :   -0.067357
   4 C :   -0.363277
   5 C :   -0.264443
   6 C :   -0.289145
   7 C :   -0.268290
   8 C :   -0.348722
   9 H :    0.159573
  10 H :    0.163582
  11 H :    0.176270
  12 H :    0.167139
  13 H :    0.182862
  14 H :    0.143759
  15 H :    0.148122
  16 H :    0.140532
  17 H :    0.146959
  18 H :    0.147796
  19 H :    0.148512
  20 H :    0.141102
  21 H :    0.181049
  22 H :    0.142118
Sum of atomic charges:   -0.0000000

LOEWDIN ATOMIC CHARGES
----------------------
   0 C :   -0.382195
   1 C :    0.223898
   2 O :   -0.468383
   3 C :   -0.209098
   4 C :   -0.272571
   5 C :   -0.300968
   6 C :   -0.303115
   7 C :   -0.300501
   8 C :   -0.270655
   9 H :    0.172693
  10 H :    0.174028
  11 H :    0.172355
  12 H :    0.165192
  13 H :    0.173558
  14 H :    0.159727
  15 H :    0.157006
  16 H :    0.154381
  17 H :    0.156708
  18 H :    0.155383
  19 H :    0.157124
  20 H :    0.154752
  21 H :    0.171686
  22 H :    0.158995

  Mayer bond orders larger than 0.100000
B(  0-C ,  1-C ) :   0.9093 B(  0-C ,  9-H ) :   0.9418 B(  0-C , 10-H ) :   0.9457
B(  0-C , 11-H ) :   0.9916 B(  1-C ,  2-O ) :   1.9918 B(  1-C ,  3-C ) :   0.8449
B(  3-C ,  4-C ) :   0.8973 B(  3-C ,  8-C ) :   0.8983 B(  3-C , 12-H ) :   0.9488
B(  4-C ,  5-C ) :   0.9007 B(  4-C , 13-H ) :   1.0011 B(  4-C , 14-H ) :   0.9431
B(  5-C ,  6-C ) :   0.9216 B(  5-C , 15-H ) :   0.9437 B(  5-C , 16-H ) :   0.9857
B(  6-C ,  7-C ) :   0.9235 B(  6-C , 17-H ) :   0.9963 B(  6-C , 18-H ) :   0.9481
B(  7-C ,  8-C ) :   0.9030 B(  7-C , 19-H ) :   0.9434 B(  7-C , 20-H ) :   0.9864
B(  8-C , 21-H ) :   1.0014 B(  8-C , 22-H ) :   0.9380

Dispersion correction           -0.007275281
FINAL SINGLE POINT ENERGY      -388.408591725196

DIPOLE MOMENT
-------------

Method             : SCF
Type of density    : Electron Density
Multiplicity       :   1
Irrep              :   0
Energy             :  -388.4109983580213452 Eh
Relativity type    :
Basis              : AO
                                X                 Y                 Z
Electronic contribution:     -4.986625826      -0.973321157      -2.987710368
Nuclear contribution   :      5.409759502       1.290008651       3.965036853
                        -----------------------------------------
Total Dipole Moment    :      0.423133677       0.316687493       0.977326485
                        -----------------------------------------
Magnitude (a.u.)       :      1.111080616
Magnitude (Debye)      :      2.824142488

Rotational constants in cm-1:             0.104605             0.034419             0.031528
Rotational constants in MHz :          3135.978503          1031.852129           945.190983

                             ****ORCA TERMINATED NORMALLY****
TOTAL RUN TIME: 0 days 0 hours 0 minutes 34 seconds 985 msec
