                         Program Version 6.0.0  -   RELEASE  -
|  1> ! r2scan-3c def2/J RI DEFGRID2 scfconv6 printgap
|  2> %output
|  3>     printlevel normal
|  4> end
|  5> %cpcm
|  6>     smd true
|  7>     smdsolvent "water"
|  8> end
|  9> * xyz 0 1
| 10> C -2.7812022759 0.219032694 0.999040624
| 11> C -1.7529883136 -0.0484275249 -0.0577951278
| 12> O -2.0458296099 -0.4219594213 -1.1773712895
| 13> C -0.3121763421 0.1656210576 0.36056442
| 14> C 0.3811293577 1.1155076197 -0.6238946792
| 15> C 1.8554186438 1.2796674604 -0.270805023
| 16> C 2.5602554841 -0.0730241132 -0.2702805622
| 17> C 1.8811110309 -1.0205033532 0.7134244657
| 18> C 0.4070321894 -1.1917428633 0.3618611231
| 19> H -2.5662152321 -0.3904002319 1.873533252
| 20> H -2.7203344205 1.2636633779 1.2960379567
| 21> H -3.7782546935 -0.0005195849 0.6274363737
| 22> H -0.2761250642 0.5922765893 1.3658976986
| 23> H 0.2800719224 0.7064526762 -1.6316874409
| 24> H -0.1188601499 2.0866968584 -0.6063754149
| 25> H 2.3292526016 1.9480503803 -0.991523445
| 26> H 1.9425288558 1.734747826 0.7182150538
| 27> H 2.5187067318 -0.5025815647 -1.2735287988
| 28> H 3.610265862 0.0537492136 -0.0013252114
| 29> H 2.3734233359 -1.9941814479 0.6950851081
| 30> H 1.9683057976 -0.6175422473 1.7246464604
| 31> H 0.3096154065 -1.6379502358 -0.6305479215
| 32> H -0.0737257367 -1.8607586643 1.0791190207
| 33> *
| 34>
| 35>                          ****END OF INPUT****

CARTESIAN COORDINATES (ANGSTROEM)
---------------------------------
  C     -2.781202    0.219033    0.999041
  C     -1.752988   -0.048428   -0.057795
  O     -2.045830   -0.421959   -1.177371
  C     -0.312176    0.165621    0.360564
  C      0.381129    1.115508   -0.623895
  C      1.855419    1.279667   -0.270805
  C      2.560255   -0.073024   -0.270281
  C      1.881111   -1.020503    0.713424
  C      0.407032   -1.191743    0.361861
  H     -2.566215   -0.390400    1.873533
  H     -2.720334    1.263663    1.296038
  H     -3.778255   -0.000520    0.627436
  H     -0.276125    0.592277    1.365898
  H      0.280072    0.706453   -1.631687
  H     -0.118860    2.086697   -0.606375
  H      2.329253    1.948050   -0.991523
  H      1.942529    1.734748    0.718215
  H      2.518707   -0.502582   -1.273529
  H      3.610266    0.053749   -0.001325
  H      2.373423   -1.994181    0.695085
  H      1.968306   -0.617542    1.724646
  H      0.309615   -1.637950   -0.630548
  H     -0.073726   -1.860759    1.079119

 Total Charge           Charge          ....    0
 Multiplicity           Mult            ....    1
 Number of Electrons    NEL             ....   70
 Basis Dimension        Dim             ....  246

ORBITAL ENERGIES
----------------

  NO   OCC          E(Eh)            E(eV)
   0   2.0000     -18.945219      -515.5256
   1   2.0000     -10.121129      -275.4099
   2   2.0000     -10.031737      -272.9774
   3   2.0000     -10.022982      -272.7392
   4   2.0000     -10.022286      -272.7203
   5   2.0000     -10.020865      -272.6816
   6   2.0000     -10.016372      -272.5594
   7   2.0000     -10.015818      -272.5443
   8   2.0000     -10.014010      -272.4951
   9   2.0000      -1.013865       -27.5887
  10   2.0000      -0.799559       -21.7571
  11   2.0000      -0.730972       -19.8907
  12   2.0000      -0.703545       -19.1444
  13   2.0000      -0.691790       -18.8246
  14   2.0000      -0.586025       -15.9465
  15   2.0000      -0.570861       -15.5339
  16   2.0000      -0.519751       -14.1431
  17   2.0000      -0.494228       -13.4486
  18   2.0000      -0.445443       -12.1211
  19   2.0000      -0.430465       -11.7135
  20   2.0000      -0.414334       -11.2746
  21   2.0000      -0.412166       -11.2156
  22   2.0000      -0.398398       -10.8409
  23   2.0000      -0.390027       -10.6132
  24   2.0000      -0.374028       -10.1778
  25   2.0000      -0.349811        -9.5189
  26   2.0000      -0.341491        -9.2924
  27   2.0000      -0.339862        -9.2481
  28   2.0000      -0.322004        -8.7622
  29   2.0000      -0.308024        -8.3818
  30   2.0000      -0.305430        -8.3112
  31   2.0000      -0.284604        -7.7445
  32   2.0000      -0.275405        -7.4941
  33   2.0000      -0.261769        -7.1231
  34   2.0000      -0.218163        -5.9365
  35   0.0000      -0.047350        -1.2885
  36   0.0000       0.083940         2.2841
  37   0.0000       0.104108         2.8329
  38   0.0000       0.114041         3.1032
  39   0.0000       0.126140         3.4324

MULLIKEN ATOMIC CHARGES
-----------------------
   0 C :   -0.523286
   1 C :    0.289684
   2 O :   -0.462987
   3 C :   -0.041898
   4 C :   -0.372435
   5 C :   -0.283544
   6 C :   -0.306493
   7 C :   -0.285524
   8 C :   -0.360170
   9 H :    0.191838
  10 H :    0.195825
  11 H :    0.176258
  12 H :    0.191023
  13 H :    0.168677
  14 H :    0.161393
  15 H :    0.155815
  16 H :    0.153874
  17 H :    0.152640
  18 H :    0.155296
  19 H :    0.156664
  20 H :    0.154383
  21 H :    0.171443
  22 H :    0.161523
Sum of atomic charges:   -0.0000000

LOEWDIN ATOMIC CHARGES
----------------------
   0 C :   -0.379120
   1 C :    0.241309
   2 O :   -0.546234
   3 C :   -0.201990
   4 C :   -0.274823
   5 C :   -0.301909
   6 C :   -0.306284
   7 C :   -0.301225
   8 C :   -0.271345
   9 H :    0.187350
  10 H :    0.188643
  11 H :    0.171577
  12 H :    0.177155
  13 H :    0.167894
  14 H :    0.164666
  15 H :    0.158885
  16 H :    0.159210
  17 H :    0.157717
  18 H :    0.157202
  19 H :    0.159323
  20 H :    0.159499
  21 H :    0.167360
  22 H :    0.165139

  Mayer bond orders larger than 0.100000
B(  0-C ,  1-C ) :   0.9365 B(  0-C ,  9-H ) :   0.9278 B(  0-C , 10-H ) :   0.9308
B(  0-C , 11-H ) :   0.9858 B(  1-C ,  2-O ) :   1.9087 B(  1-C ,  3-C ) :   0.8632
B(  3-C ,  4-C ) :   0.8938 B(  3-C ,  8-C ) :   0.8938 B(  3-C , 12-H ) :   0.9358
B(  4-C ,  5-C ) :   0.9032 B(  4-C , 13-H ) :   1.0000 B(  4-C , 14-H ) :   0.9403
B(  5-C ,  6-C ) :   0.9181 B(  5-C , 15-H ) :   0.9436 B(  5-C , 16-H ) :   0.9834
B(  6-C ,  7-C ) :   0.9192 B(  6-C , 17-H ) :   0.9962 B(  6-C , 18-H ) :   0.9472
B(  7-C ,  8-C ) :   0.9009 B(  7-C , 19-H ) :   0.9432 B(  7-C , 20-H ) :   0.9839
B(  8-C , 21-H ) :   1.0005 B(  8-C , 22-H ) :   0.9352

Dispersion correction           -0.007275281
FINAL SINGLE POINT ENERGY      -388.415326461047

DIPOLE MOMENT
-------------

Method             : SCF
Type of density    : Electron Density
Multiplicity       :   1
Irrep              :   0
Energy             :  -388.4177330938726413 Eh
Relativity type    :
Basis              : AO
                                X                 Y                 Z
Electronic contribution:     -4.827212264      -0.787872656      -2.414423804
Nuclear contribution   :      5.409759502       1.290008651       3.965036853
                        -----------------------------------------
Total Dipole Moment    :      0.582547239       0.502135995       1.550613049
                        -----------------------------------------
Magnitude (a.u.)       :      1.730867606
Magnitude (Debye)      :      4.399515820

Rotational constants in cm-1:             0.104605             0.034419             0.031528
Rotational constants in MHz :          3135.978503          1031.852129           945.190983

                             ****ORCA TERMINATED NORMALLY****
TOTAL RUN TIME: 0 days 0 hours 0 minutes 37 seconds 934 msec
