                         Program Version 6.0.0  -   RELEASE  -
|  1> ! pbe def2-sv(p) def2/J RI DEFGRID1 loosescf d4 GCP(DFT/SV(P)) printgap
|  2> %output
|  3>     printlevel normal
|  4> end
|  5> * xyz 0 1
|  6> C 3.2772024427 1.0718017534 0.0013096858
|  7> N 2.2779025596 0.0358370474 -0.0001463487
|  8> C 2.4781248767 -1.290348816 -0.0014029024
|  9> N 1.3623668562 -1.9966379606 -0.0015153493
| 10> C 0.3783839804 -1.0729251768 6.75762e-05
| 11> C 0.9149471293 0.2117134214 0.000856913
| 12> C 0.0895565778 1.3729532592 0.0005362855
| 13> O 0.456024294 2.5447621978 0.0002052349
| 14> N -1.2652238503 1.0511906129 -0.0002320591
| 15> C -1.8210019978 -0.2204472335 0.0002965352
| 16> O -3.0325319727 -0.3893315227 0.0002187475
| 17> N -0.9642563375 -1.286820918 -0.0003072983
| 18> C -1.5086121742 -2.6320045642 0.0013234013
| 19> C -2.1813087254 2.1834836235 -0.0013371776
| 20> H 3.9086639336 0.9830932544 -0.8818185038
| 21> H 2.7721590622 2.0356003366 -0.0071118771
| 22> H 3.8961307482 0.9929484804 0.8943081568
| 23> H 3.4518384908 -1.7364647004 -0.0023081298
| 24> H -2.1628862163 -2.7607564894 -0.8597637042
| 25> H -2.0933150522 -2.7899043038 0.9067248645
| 26> H -0.6715096814 -3.3211863802 -0.0411905165
| 27> H -3.1967181628 1.7979660189 -0.0092741028
| 28> H -1.9954467409 2.7960550052 -0.8825311311
| 29> H -2.0072694428 2.7890104293 0.887155937
| 30> *
| 31>
| 32>                          ****END OF INPUT****

CARTESIAN COORDINATES (ANGSTROEM)
---------------------------------
  C      3.277202    1.071802    0.001310
  N      2.277903    0.035837   -0.000146
  C      2.478125   -1.290349   -0.001403
  N      1.362367   -1.996638   -0.001515
  C      0.378384   -1.072925    0.000068
  C      0.914947    0.211713    0.000857
  C      0.089557    1.372953    0.000536
  O      0.456024    2.544762    0.000205
  N     -1.265224    1.051191   -0.000232
  C     -1.821002   -0.220447    0.000297
  O     -3.032532   -0.389332    0.000219
  N     -0.964256   -1.286821   -0.000307
  C     -1.508612   -2.632005    0.001323
  C     -2.181309    2.183484   -0.001337
  H      3.908664    0.983093   -0.881819
  H      2.772159    2.035600   -0.007112
  H      3.896131    0.992948    0.894308
  H      3.451838   -1.736465   -0.002308
  H     -2.162886   -2.760756   -0.859764
  H     -2.093315   -2.789904    0.906725
  H     -0.671510   -3.321186   -0.041191
  H     -3.196718    1.797966   -0.009274
  H     -1.995447    2.796055   -0.882531
  H     -2.007269    2.789010    0.887156

 Total Charge           Charge          ....    0
 Multiplicity           Mult            ....    1
 Number of Electrons    NEL             ....  102
 Basis Dimension        Dim             ....  216

ORBITAL ENERGIES
----------------

  NO   OCC          E(Eh)            E(eV)
   0   2.0000     -18.729907      -509.6667
   1   2.0000     -18.723555      -509.4938
   2   2.0000     -14.080246      -383.1430
   3   2.0000     -14.057319      -382.5191
   4   2.0000     -14.048340      -382.2748
   5   2.0000     -13.993445      -380.7810
   6   2.0000     -10.017079      -272.5786
   7   2.0000      -9.997488      -272.0455
   8   2.0000      -9.966740      -271.2088
   9   2.0000      -9.960567      -271.0408
  10   2.0000      -9.941972      -270.5348
  11   2.0000      -9.933813      -270.3128
  12   2.0000      -9.923336      -270.0277
  13   2.0000      -9.912113      -269.7223
  14   2.0000      -0.980603       -26.6836
  15   2.0000      -0.959275       -26.1032
  16   2.0000      -0.939387       -25.5620
  17   2.0000      -0.885712       -24.1014
  18   2.0000      -0.850346       -23.1391
  19   2.0000      -0.825710       -22.4687
  20   2.0000      -0.720467       -19.6049
  21   2.0000      -0.672149       -18.2901
  22   2.0000      -0.666981       -18.1495
  23   2.0000      -0.642250       -17.4765
  24   2.0000      -0.598591       -16.2885
  25   2.0000      -0.583479       -15.8773
  26   2.0000      -0.546956       -14.8834
  27   2.0000      -0.527213       -14.3462
  28   2.0000      -0.484988       -13.1972
  29   2.0000      -0.463109       -12.6018
  30   2.0000      -0.461087       -12.5468
  31   2.0000      -0.439015       -11.9462
  32   2.0000      -0.432426       -11.7669
  33   2.0000      -0.410516       -11.1707
  34   2.0000      -0.407560       -11.0903
  35   2.0000      -0.403938       -10.9917
  36   2.0000      -0.383196       -10.4273
  37   2.0000      -0.379548       -10.3280
  38   2.0000      -0.375583       -10.2201
  39   2.0000      -0.364678        -9.9234
  40   2.0000      -0.356680        -9.7058
  41   2.0000      -0.347700        -9.4614
  42   2.0000      -0.342032        -9.3072
  43   2.0000      -0.341236        -9.2855
  44   2.0000      -0.289983        -7.8908
  45   2.0000      -0.251937        -6.8556
  46   2.0000      -0.251749        -6.8504
  47   2.0000      -0.234575        -6.3831
  48   2.0000      -0.231812        -6.3079
  49   2.0000      -0.210101        -5.7171
  50   2.0000      -0.193281        -5.2594
  51   0.0000      -0.060619        -1.6495
  52   0.0000      -0.008052        -0.2191
  53   0.0000      -0.001125        -0.0306
  54   0.0000       0.039031         1.0621
  55   0.0000       0.058541         1.5930

MULLIKEN ATOMIC CHARGES
-----------------------
   0 C :   -0.190847
   1 N :   -0.138772
   2 C :    0.031894
   3 N :   -0.110735
   4 C :    0.032482
   5 C :   -0.041033
   6 C :    0.138504
   7 O :   -0.205466
   8 N :   -0.277641
   9 C :    0.194083
  10 O :   -0.227595
  11 N :   -0.193756
  12 C :   -0.151908
  13 C :   -0.147874
  14 H :    0.129883
  15 H :    0.165348
  16 H :    0.130097
  17 H :    0.081192
  18 H :    0.128033
  19 H :    0.126735
  20 H :    0.140486
  21 H :    0.146285
  22 H :    0.120402
  23 H :    0.120203
Sum of atomic charges:   -0.0000000

LOEWDIN ATOMIC CHARGES
----------------------
   0 C :   -0.251179
   1 N :    0.065862
   2 C :   -0.071051
   3 N :   -0.122115
   4 C :   -0.001916
   5 C :   -0.101442
   6 C :    0.024034
   7 O :   -0.198384
   8 N :   -0.022363
   9 C :    0.047777
  10 O :   -0.206019
  11 N :    0.004289
  12 C :   -0.239118
  13 C :   -0.248294
  14 H :    0.130609
  15 H :    0.147018
  16 H :    0.130635
  17 H :    0.122790
  18 H :    0.130638
  19 H :    0.129728
  20 H :    0.135057
  21 H :    0.137579
  22 H :    0.127983
  23 H :    0.127881

  Mayer bond orders larger than 0.100000
B(  0-C ,  1-N ) :   0.9757 B(  0-C , 14-H ) :   0.9506 B(  0-C , 15-H ) :   0.9215
B(  0-C , 16-H ) :   0.9506 B(  1-N ,  2-C ) :   1.2677 B(  1-N ,  5-C ) :   1.1693
B(  2-C ,  3-N ) :   1.5365 B(  2-C , 17-H ) :   0.9575 B(  3-N ,  4-C ) :   1.4475
B(  4-C ,  5-C ) :   1.3188 B(  4-C , 11-N ) :   1.1370 B(  5-C ,  6-C ) :   1.0395
B(  6-C ,  7-O ) :   2.0427 B(  6-C ,  8-N ) :   1.0529 B(  8-N ,  9-C ) :   1.0583
B(  8-N , 13-C ) :   0.9761 B(  9-C , 10-O ) :   2.0147 B(  9-C , 11-N ) :   1.0862
B( 11-N , 12-C ) :   0.9758 B( 12-C , 18-H ) :   0.9506 B( 12-C , 19-H ) :   0.9526
B( 12-C , 20-H ) :   0.9296 B( 13-C , 21-H ) :   0.9212 B( 13-C , 22-H ) :   0.9523
B( 13-C , 23-H ) :   0.9528

Dispersion correction           -0.029716096
FINAL SINGLE POINT ENERGY      -679.000481093696

DIPOLE MOMENT
-------------

Method             : SCF
Type of density    : Electron Density
Multiplicity       :   1
Irrep              :   0
Energy             :  -679.0822265580292196 Eh
Relativity type    :
Basis              : AO
                                X                 Y                 Z
Electronic contribution:     -0.354354840      -1.027243029      -0.004000492
Nuclear contribution   :      1.753664437       0.757598347       0.003926061
                        -----------------------------------------
Total Dipole Moment    :      1.399309597      -0.269644682      -0.000074431
                        -----------------------------------------
Magnitude (a.u.)       :      1.425052844
Magnitude (Debye)      :      3.622196468

Rotational constants in cm-1:             0.035719             0.023854             0.014418
Rotational constants in MHz :          1070.813801           715.120809           432.253133

                             ****ORCA TERMINATED NORMALLY****
TOTAL RUN TIME: 0 days 0 hours 0 minutes 16 seconds 216 msec
