                         Program Version 6.0.0  -   RELEASE  -
|  1> ! wb97x-v def2-tzvp def2/J RIJCOSX DEFGRID2 scfconv7 GCP(DFT/TZ) printgap
|  2> %output
|  3>     printlevel normal
|  4> end
|  5> * xyz 0 1
|  6> C -0.6937513020299813 -3.0074401597223823 -0.002521661233638029
|  7> C 0.6931746326959178 -3.007584822049535 0.0023928549674437525
|  8> C 1.3854970711352685 -1.8021417597805285 0.009804037595734375
|  9> C 0.7041083392189275 -0.5867106821936895 0.011419928145757966
| 10> C -0.7041661780771554 -0.5865648699784759 -0.011570334320394058
| 11> C -1.3858145361264373 -1.8018502913305134 -0.00994532896373899
| 12> C -1.5404574038181247 0.6704915749264937 -0.00048463766875113677
| 13> F -1.6213750697299372 1.2225354826015378 1.2386513194898445
| 14> F -1.065216711027723 1.6284146255854803 -0.8318577118172201
| 15> F -2.813259485540785 0.42879879702333784 -0.38902062281252814
| 16> C 1.5406024346813743 0.6702131159125705 0.0005452181985367767
| 17> F 1.0657622383152765 1.6277923354675592 0.8325782095834984
| 18> F 2.813513552567002 0.4281677845244282 0.38848236901343675
| 19> F 1.621151013946474 1.2228485674427216 -1.2383429932864118
| 20> H -1.245738640397034 -3.940757037352389 -0.0033090788439224285
| 21> H 1.2449657664065579 -3.9410180593000965 0.003209309931607517
| 22> H 2.4681316923462338 -1.8108777601600652 0.016338366790256357
| 23> H -2.46845178710412 -1.8103466165987583 -0.016470131282706118
| 24> *
| 25>
| 26>                          ****END OF INPUT****

CARTESIAN COORDINATES (ANGSTROEM)
---------------------------------
  C     -0.693751   -3.007440   -0.002522
  C      0.693175   -3.007585    0.002393
  C      1.385497   -1.802142    0.009804
  C      0.704108   -0.586711    0.011420
  C     -0.704166   -0.586565   -0.011570
  C     -1.385815   -1.801850   -0.009945
  C     -1.540457    0.670492   -0.000485
  F     -1.621375    1.222535    1.238651
  F     -1.065217    1.628415   -0.831858
  F     -2.813259    0.428799   -0.389021
  C      1.540602    0.670213    0.000545
  F      1.065762    1.627792    0.832578
  F      2.813514    0.428168    0.388482
  F      1.621151    1.222849   -1.238343
  H     -1.245739   -3.940757   -0.003309
  H      1.244966   -3.941018    0.003209
  H      2.468132   -1.810878    0.016338
  H     -2.468452   -1.810347   -0.016470

 Total Charge           Charge          ....    0
 Multiplicity           Mult            ....    1
 Number of Electrons    NEL             ....  106
 Basis Dimension        Dim             ....  458

ORBITAL ENERGIES
----------------

  NO   OCC          E(Eh)            E(eV)
   0   2.0000     -27.605470      -751.1830
   1   2.0000     -27.605460      -751.1828
   2   2.0000     -27.600082      -751.0364
   3   2.0000     -27.600028      -751.0349
   4   2.0000     -27.597642      -750.9700
   5   2.0000     -27.597642      -750.9700
   6   2.0000     -12.313947      -335.0795
   7   2.0000     -12.313838      -335.0766
   8   2.0000     -12.114940      -329.6643
   9   2.0000     -12.112882      -329.6083
  10   2.0000     -12.093051      -329.0687
  11   2.0000     -12.092904      -329.0646
  12   2.0000     -12.090343      -328.9950
  13   2.0000     -12.088350      -328.9407
  14   2.0000      -2.063444       -56.1492
  15   2.0000      -2.063379       -56.1474
  16   2.0000      -2.016440       -54.8701
  17   2.0000      -2.015565       -54.8463
  18   2.0000      -2.010915       -54.7198
  19   2.0000      -2.010623       -54.7118
  20   2.0000      -1.446170       -39.3523
  21   2.0000      -1.397753       -38.0348
  22   2.0000      -1.387599       -37.7585
  23   2.0000      -1.320487       -35.9323
  24   2.0000      -1.320163       -35.9235
  25   2.0000      -1.261154       -34.3177
  26   2.0000      -1.257990       -34.2317
  27   2.0000      -1.256073       -34.1795
  28   2.0000      -1.255172       -34.1550
  29   2.0000      -1.223879       -33.3034
  30   2.0000      -1.204404       -32.7735
  31   2.0000      -1.169258       -31.8171
  32   2.0000      -1.167257       -31.7627
  33   2.0000      -1.167237       -31.7621
  34   2.0000      -1.166846       -31.7515
  35   2.0000      -1.155118       -31.4324
  36   2.0000      -1.155027       -31.4299
  37   2.0000      -1.151649       -31.3380
  38   2.0000      -1.150209       -31.2988
  39   2.0000      -1.147356       -31.2211
  40   2.0000      -1.146704       -31.2034
  41   2.0000      -1.141424       -31.0597
  42   2.0000      -1.140849       -31.0441
  43   2.0000      -1.040737       -28.3199
  44   2.0000      -1.010876       -27.5073
  45   2.0000      -0.998851       -27.1801
  46   2.0000      -0.951485       -25.8912
  47   2.0000      -0.924287       -25.1511
  48   2.0000      -0.873279       -23.7631
  49   2.0000      -0.859156       -23.3788
  50   2.0000      -0.821844       -22.3635
  51   2.0000      -0.695205       -18.9175
  52   2.0000      -0.687181       -18.6992
  53   0.0000      -0.343053        -9.3349
  54   0.0000      -0.294604        -8.0166
  55   0.0000      -0.284965        -7.7543
  56   0.0000      -0.277154        -7.5417
  57   0.0000      -0.255466        -6.9516

MULLIKEN ATOMIC CHARGES
-----------------------
   0 C :   -0.110423
   1 C :   -0.110463
   2 C :   -0.151985
   3 C :   -0.009694
   4 C :   -0.009848
   5 C :   -0.151986
   6 C :    0.444487
   7 F :   -0.153664
   8 F :   -0.151303
   9 F :   -0.160423
  10 C :    0.444503
  11 F :   -0.151312
  12 F :   -0.160431
  13 F :   -0.153655
  14 H :    0.136407
  15 H :    0.136392
  16 H :    0.156712
  17 H :    0.156685
Sum of atomic charges:   -0.0000000

LOEWDIN ATOMIC CHARGES
----------------------
   0 C :   -0.113325
   1 C :   -0.113326
   2 C :   -0.080556
   3 C :   -0.083086
   4 C :   -0.083084
   5 C :   -0.080552
   6 C :   -0.598785
   7 F :    0.182687
   8 F :    0.195348
   9 F :    0.191262
  10 C :   -0.598776
  11 F :    0.195315
  12 F :    0.191271
  13 F :    0.182697
  14 H :    0.149243
  15 H :    0.149242
  16 H :    0.157212
  17 H :    0.157213

  Mayer bond orders larger than 0.100000
B(  0-C ,  1-C ) :   1.4317 B(  0-C ,  5-C ) :   1.3897 B(  0-C , 14-H ) :   0.9706
B(  1-C ,  2-C ) :   1.3898 B(  1-C , 15-H ) :   0.9706 B(  2-C ,  3-C ) :   1.4162
B(  2-C , 16-H ) :   0.9538 B(  3-C ,  4-C ) :   1.3290 B(  3-C , 10-C ) :   1.0080
B(  4-C ,  5-C ) :   1.4160 B(  4-C ,  6-C ) :   1.0082 B(  5-C , 17-H ) :   0.9539
B(  6-C ,  7-F ) :   1.1711 B(  6-C ,  8-F ) :   1.1655 B(  6-C ,  9-F ) :   1.1618
B( 10-C , 11-F ) :   1.1656 B( 10-C , 12-F ) :   1.1618 B( 10-C , 13-F ) :   1.1711

FINAL SINGLE POINT ENERGY      -906.413905047276

DIPOLE MOMENT
-------------

Method             : SCF
Type of density    : Electron Density
Multiplicity       :   1
Irrep              :   0
Energy             :  -906.4408206817763585 Eh
Relativity type    :
Basis              : AO
                                X                 Y                 Z
Electronic contribution:      0.001432560      15.048481062       0.000509550
Nuclear contribution   :     -0.001557471     -16.872943292      -0.000631558
                        -----------------------------------------
Total Dipole Moment    :     -0.000124911      -1.824462230      -0.000122009
                        -----------------------------------------
Magnitude (a.u.)       :      1.824462238
Magnitude (Debye)      :      4.637414467

Rotational constants in cm-1:             0.027767             0.024934             0.015290
Rotational constants in MHz :           832.439939           747.490890           458.386722

                             ****ORCA TERMINATED NORMALLY****
TOTAL RUN TIME: 0 days 0 hours 5 minutes 7 seconds 731 msec
