                         Program Version 6.0.0  -   RELEASE  -
|  1> ! wb97x-v def2-tzvp def2/J RIJCOSX DEFGRID2 scfconv7 GCP(DFT/TZ) printgap
|  2> %output
|  3>     printlevel normal
|  4> end
|  5> %cpcm
|  6>     smd true
|  7>     smdsolvent "water"
|  8> end
|  9> * xyz 0 1
| 10> C -0.6937513020299813 -3.0074401597223823 -0.002521661233638029
| 11> C 0.6931746326959178 -3.007584822049535 0.0023928549674437525
| 12> C 1.3854970711352685 -1.8021417597805285 0.009804037595734375
| 13> C 0.7041083392189275 -0.5867106821936895 0.011419928145757966
| 14> C -0.7041661780771554 -0.5865648699784759 -0.011570334320394058
| 15> C -1.3858145361264373 -1.8018502913305134 -0.00994532896373899
| 16> C -1.5404574038181247 0.6704915749264937 -0.00048463766875113677
| 17> F -1.6213750697299372 1.2225354826015378 1.2386513194898445
| 18> F -1.065216711027723 1.6284146255854803 -0.8318577118172201
| 19> F -2.813259485540785 0.42879879702333784 -0.38902062281252814
| 20> C 1.5406024346813743 0.6702131159125705 0.0005452181985367767
| 21> F 1.0657622383152765 1.6277923354675592 0.8325782095834984
| 22> F 2.813513552567002 0.4281677845244282 0.38848236901343675
| 23> F 1.621151013946474 1.2228485674427216 -1.2383429932864118
| 24> H -1.245738640397034 -3.940757037352389 -0.0033090788439224285
| 25> H 1.2449657664065579 -3.9410180593000965 0.003209309931607517
| 26> H 2.4681316923462338 -1.8108777601600652 0.016338366790256357
| 27> H -2.46845178710412 -1.8103466165987583 -0.016470131282706118
| 28> *
| 29>
| 30>                          ****END OF INPUT****

CARTESIAN COORDINATES (ANGSTROEM)
---------------------------------
  C     -0.693751   -3.007440   -0.002522
  C      0.693175   -3.007585    0.002393
  C      1.385497   -1.802142    0.009804
  C      0.704108   -0.586711    0.011420
  C     -0.704166   -0.586565   -0.011570
  C     -1.385815   -1.801850   -0.009945
  C     -1.540457    0.670492   -0.000485
  F     -1.621375    1.222535    1.238651
  F     -1.065217    1.628415   -0.831858
  F     -2.813259    0.428799   -0.389021
  C      1.540602    0.670213    0.000545
  F      1.065762    1.627792    0.832578
  F      2.813514    0.428168    0.388482
  F      1.621151    1.222849   -1.238343
  H     -1.245739   -3.940757   -0.003309
  H      1.244966   -3.941018    0.003209
  H      2.468132   -1.810878    0.016338
  H     -2.468452   -1.810347   -0.016470

 Total Charge           Charge          ....    0
 Multiplicity           Mult            ....    1
 Number of Electrons    NEL             ....  106
 Basis Dimension        Dim             ....  458

ORBITAL ENERGIES
----------------

  NO   OCC          E(Eh)            E(eV)
   0   2.0000     -27.605846      -751.1933
   1   2.0000     -27.605835      -751.1930
   2   2.0000     -27.605549      -751.1852
   3   2.0000     -27.605493      -751.1837
   4   2.0000     -27.602426      -751.1002
   5   2.0000     -27.602425      -751.1002
   6   2.0000     -12.313770      -335.0747
   7   2.0000     -12.313661      -335.0717
   8   2.0000     -12.101723      -329.3046
   9   2.0000     -12.099658      -329.2484
  10   2.0000     -12.074583      -328.5661
  11   2.0000     -12.074356      -328.5599
  12   2.0000     -12.069189      -328.4193
  13   2.0000     -12.067136      -328.3635
  14   2.0000      -2.066848       -56.2418
  15   2.0000      -2.066820       -56.2410
  16   2.0000      -2.019482       -54.9529
  17   2.0000      -2.018642       -54.9300
  18   2.0000      -2.015999       -54.8581
  19   2.0000      -2.015687       -54.8496
  20   2.0000      -1.435461       -39.0609
  21   2.0000      -1.398696       -38.0605
  22   2.0000      -1.381706       -37.5981
  23   2.0000      -1.308532       -35.6070
  24   2.0000      -1.306749       -35.5584
  25   2.0000      -1.264203       -34.4007
  26   2.0000      -1.261839       -34.3364
  27   2.0000      -1.260290       -34.2942
  28   2.0000      -1.260213       -34.2921
  29   2.0000      -1.220109       -33.2009
  30   2.0000      -1.203021       -32.7359
  31   2.0000      -1.171731       -31.8844
  32   2.0000      -1.171323       -31.8733
  33   2.0000      -1.170998       -31.8645
  34   2.0000      -1.170779       -31.8585
  35   2.0000      -1.159171       -31.5426
  36   2.0000      -1.158270       -31.5181
  37   2.0000      -1.155810       -31.4512
  38   2.0000      -1.154564       -31.4173
  39   2.0000      -1.152692       -31.3663
  40   2.0000      -1.152161       -31.3519
  41   2.0000      -1.131101       -30.7788
  42   2.0000      -1.128751       -30.7149
  43   2.0000      -1.030945       -28.0534
  44   2.0000      -0.999156       -27.1884
  45   2.0000      -0.981423       -26.7059
  46   2.0000      -0.931797       -25.3555
  47   2.0000      -0.904389       -24.6097
  48   2.0000      -0.851078       -23.1590
  49   2.0000      -0.838085       -22.8054
  50   2.0000      -0.806480       -21.9454
  51   2.0000      -0.678460       -18.4618
  52   2.0000      -0.670443       -18.2437
  53   0.0000      -0.332535        -9.0487
  54   0.0000      -0.286828        -7.8050
  55   0.0000      -0.280914        -7.6440
  56   0.0000      -0.278296        -7.5728
  57   0.0000      -0.253380        -6.8948

MULLIKEN ATOMIC CHARGES
-----------------------
   0 C :   -0.142380
   1 C :   -0.142454
   2 C :   -0.175133
   3 C :    0.012583
   4 C :    0.012474
   5 C :   -0.175174
   6 C :    0.450399
   7 F :   -0.168734
   8 F :   -0.167282
   9 F :   -0.166178
  10 C :    0.450414
  11 F :   -0.167291
  12 F :   -0.166183
  13 F :   -0.168727
  14 H :    0.175015
  15 H :    0.174999
  16 H :    0.181838
  17 H :    0.181812
Sum of atomic charges:   -0.0000000

LOEWDIN ATOMIC CHARGES
----------------------
   0 C :   -0.106377
   1 C :   -0.106378
   2 C :   -0.077268
   3 C :   -0.091420
   4 C :   -0.091419
   5 C :   -0.077266
   6 C :   -0.596020
   7 F :    0.172381
   8 F :    0.184450
   9 F :    0.188609
  10 C :   -0.596011
  11 F :    0.184417
  12 F :    0.188620
  13 F :    0.172391
  14 H :    0.160519
  15 H :    0.160518
  16 H :    0.165127
  17 H :    0.165128

  Mayer bond orders larger than 0.100000
B(  0-C ,  1-C ) :   1.4115 B(  0-C ,  5-C ) :   1.3764 B(  0-C , 14-H ) :   0.9732
B(  1-C ,  2-C ) :   1.3765 B(  1-C , 15-H ) :   0.9732 B(  2-C ,  3-C ) :   1.3809
B(  2-C , 16-H ) :   0.9660 B(  3-C ,  4-C ) :   1.3011 B(  3-C , 10-C ) :   1.0118
B(  4-C ,  5-C ) :   1.3806 B(  4-C ,  6-C ) :   1.0120 B(  5-C , 17-H ) :   0.9662
B(  6-C ,  7-F ) :   1.1625 B(  6-C ,  8-F ) :   1.1514 B(  6-C ,  9-F ) :   1.1679
B( 10-C , 11-F ) :   1.1515 B( 10-C , 12-F ) :   1.1680 B( 10-C , 13-F ) :   1.1626

FINAL SINGLE POINT ENERGY      -906.414236380090

DIPOLE MOMENT
-------------

Method             : SCF
Type of density    : Electron Density
Multiplicity       :   1
Irrep              :   0
Energy             :  -906.4411520145904433 Eh
Relativity type    :
Basis              : AO
                                X                 Y                 Z
Electronic contribution:      0.001393715      14.458662731       0.000475826
Nuclear contribution   :     -0.001557471     -16.872943292      -0.000631558
                        -----------------------------------------
Total Dipole Moment    :     -0.000163756      -2.414280561      -0.000155732
                        -----------------------------------------
Magnitude (a.u.)       :      2.414280572
Magnitude (Debye)      :      6.136613528

Rotational constants in cm-1:             0.027767             0.024934             0.015290
Rotational constants in MHz :           832.439939           747.490890           458.386722

                             ****ORCA TERMINATED NORMALLY****
TOTAL RUN TIME: 0 days 0 hours 5 minutes 34 seconds 730 msec
