                         Program Version 6.0.0  -   RELEASE  -
|  1> ! pbe def2-sv(p) def2/J RI DEFGRID1 loosescf d4 GCP(DFT/SV(P)) printgap
|  2> %output
|  3>     printlevel normal
|  4> end
|  5> * xyz 0 1
|  6> C -2.22935718 -1.187680619 0.1165409586
|  7> C -0.8528131486 -0.5777823126 0.4320389003
|  8> H -0.8083669871 -0.3284276721 1.5030491159
|  9> C -0.5876030481 0.6886892482 -0.4024980502
| 10> H -0.6064492367 0.4111042661 -1.4632572589
| 11> C 0.8011095633 1.2767798699 -0.069990307
| 12> H 0.6803753555 2.0510615707 0.697160103
| 13> C 1.7486826893 0.1875012162 0.4886682806
| 14> H 2.771299278 0.4429078071 0.1816299015
| 15> C 1.4027019224 -1.1580234732 -0.1591052142
| 16> H 2.0673384856 -1.9397943752 0.237874558
| 17> O 0.1062058609 -1.5932212147 0.1515073165
| 18> O 1.5777380938 -1.0006986441 -1.5366042625
| 19> O 1.6536463937 0.0373968131 1.8809666158
| 20> O 1.3767407989 1.9366633088 -1.1667844812
| 21> O -1.6193449878 1.633640542 -0.251590106
| 22> O -3.2956544401 -0.4265153746 0.6141751559
| 23> H -2.2859533343 -2.1656240996 0.5989967109
| 24> H -2.3167499256 -1.3265982343 -0.9688048583
| 25> H 1.4389752081 -1.8486371311 -1.98532813
| 26> H 2.1260230391 0.7582125674 2.3226843753
| 27> H 1.5520029798 1.2881672068 -1.8660992687
| 28> H -1.5428342918 2.0680827853 0.6107550171
| 29> H -3.2593964768 0.4494262435 0.1916375493
| 30> *
| 31>
| 32>                          ****END OF INPUT****

CARTESIAN COORDINATES (ANGSTROEM)
---------------------------------
  C     -2.229357   -1.187681    0.116541
  C     -0.852813   -0.577782    0.432039
  H     -0.808367   -0.328428    1.503049
  C     -0.587603    0.688689   -0.402498
  H     -0.606449    0.411104   -1.463257
  C      0.801110    1.276780   -0.069990
  H      0.680375    2.051062    0.697160
  C      1.748683    0.187501    0.488668
  H      2.771299    0.442908    0.181630
  C      1.402702   -1.158023   -0.159105
  H      2.067338   -1.939794    0.237875
  O      0.106206   -1.593221    0.151507
  O      1.577738   -1.000699   -1.536604
  O      1.653646    0.037397    1.880967
  O      1.376741    1.936663   -1.166784
  O     -1.619345    1.633641   -0.251590
  O     -3.295654   -0.426515    0.614175
  H     -2.285953   -2.165624    0.598997
  H     -2.316750   -1.326598   -0.968805
  H      1.438975   -1.848637   -1.985328
  H      2.126023    0.758213    2.322684
  H      1.552003    1.288167   -1.866099
  H     -1.542834    2.068083    0.610755
  H     -3.259396    0.449426    0.191638

 Total Charge           Charge          ....    0
 Multiplicity           Mult            ....    1
 Number of Electrons    NEL             ....   96
 Basis Dimension        Dim             ....  192

ORBITAL ENERGIES
----------------

  NO   OCC          E(Eh)            E(eV)
   0   2.0000     -18.780455      -511.0422
   1   2.0000     -18.770203      -510.7632
   2   2.0000     -18.769566      -510.7459
   3   2.0000     -18.769306      -510.7388
   4   2.0000     -18.745920      -510.1024
   5   2.0000     -18.730285      -509.6770
   6   2.0000      -9.994425      -271.9621
   7   2.0000      -9.952234      -270.8140
   8   2.0000      -9.948038      -270.6999
   9   2.0000      -9.945676      -270.6356
  10   2.0000      -9.935569      -270.3606
  11   2.0000      -9.921324      -269.9729
  12   2.0000      -0.989454       -26.9244
  13   2.0000      -0.950533       -25.8653
  14   2.0000      -0.944562       -25.7029
  15   2.0000      -0.926718       -25.2173
  16   2.0000      -0.918981       -25.0067
  17   2.0000      -0.905790       -24.6478
  18   2.0000      -0.702395       -19.1131
  19   2.0000      -0.695060       -18.9136
  20   2.0000      -0.618945       -16.8424
  21   2.0000      -0.593624       -16.1533
  22   2.0000      -0.565324       -15.3832
  23   2.0000      -0.533771       -14.5246
  24   2.0000      -0.512527       -13.9466
  25   2.0000      -0.496203       -13.5024
  26   2.0000      -0.471494       -12.8300
  27   2.0000      -0.458764       -12.4836
  28   2.0000      -0.449528       -12.2323
  29   2.0000      -0.434400       -11.8206
  30   2.0000      -0.415942       -11.3184
  31   2.0000      -0.399307       -10.8657
  32   2.0000      -0.385676       -10.4948
  33   2.0000      -0.366335        -9.9685
  34   2.0000      -0.360597        -9.8123
  35   2.0000      -0.353315        -9.6142
  36   2.0000      -0.347021        -9.4429
  37   2.0000      -0.319549        -8.6954
  38   2.0000      -0.307503        -8.3676
  39   2.0000      -0.299591        -8.1523
  40   2.0000      -0.281398        -7.6572
  41   2.0000      -0.274447        -7.4681
  42   2.0000      -0.261900        -7.1267
  43   2.0000      -0.252929        -6.8826
  44   2.0000      -0.237487        -6.4623
  45   2.0000      -0.218388        -5.9427
  46   2.0000      -0.211213        -5.7474
  47   2.0000      -0.198267        -5.3951
  48   0.0000       0.005834         0.1587
  49   0.0000       0.017127         0.4661
  50   0.0000       0.018170         0.4944
  51   0.0000       0.048933         1.3315
  52   0.0000       0.067303         1.8314

MULLIKEN ATOMIC CHARGES
-----------------------
   0 C :    0.098383
   1 C :    0.013232
   2 H :    0.059057
   3 C :    0.059160
   4 H :    0.052928
   5 C :    0.115914
   6 H :    0.032235
   7 C :   -0.013705
   8 H :    0.078791
   9 C :    0.180851
  10 H :    0.070605
  11 O :   -0.309656
  12 O :   -0.404997
  13 O :   -0.407108
  14 O :   -0.426398
  15 O :   -0.419285
  16 O :   -0.449484
  17 H :    0.089994
  18 H :    0.054722
  19 H :    0.311918
  20 H :    0.310844
  21 H :    0.305994
  22 H :    0.304912
  23 H :    0.291093
Sum of atomic charges:    0.0000000

LOEWDIN ATOMIC CHARGES
----------------------
   0 C :   -0.121630
   1 C :   -0.079660
   2 H :    0.105690
   3 C :   -0.080232
   4 H :    0.116949
   5 C :   -0.072900
   6 H :    0.107490
   7 C :   -0.091722
   8 H :    0.112611
   9 C :    0.001678
  10 H :    0.101862
  11 O :   -0.140849
  12 O :   -0.315462
  13 O :   -0.308845
  14 O :   -0.315832
  15 O :   -0.299124
  16 O :   -0.345605
  17 H :    0.115840
  18 H :    0.092819
  19 H :    0.292132
  20 H :    0.293387
  21 H :    0.279342
  22 H :    0.284937
  23 H :    0.267127

  Mayer bond orders larger than 0.100000
B(  0-C ,  1-C ) :   1.0169 B(  0-C , 16-O ) :   1.0918 B(  0-C , 17-H ) :   0.9223
B(  0-C , 18-H ) :   0.9089 B(  1-C ,  2-H ) :   0.8702 B(  1-C ,  3-C ) :   1.0442
B(  1-C , 11-O ) :   0.9593 B(  3-C ,  4-H ) :   0.8388 B(  3-C ,  5-C ) :   1.0162
B(  3-C , 15-O ) :   0.9995 B(  5-C ,  6-H ) :   0.8624 B(  5-C ,  7-C ) :   0.9681
B(  5-C , 14-O ) :   1.0530 B(  7-C ,  8-H ) :   0.8857 B(  7-C ,  9-C ) :   1.0371
B(  7-C , 13-O ) :   1.0487 B(  9-C , 10-H ) :   0.8935 B(  9-C , 11-O ) :   1.0882
B(  9-C , 12-O ) :   1.1053 B( 12-O , 19-H ) :   0.8372 B( 13-O , 20-H ) :   0.8459
B( 14-O , 21-H ) :   0.8336 B( 15-O , 22-H ) :   0.8379 B( 16-O , 23-H ) :   0.8171

Dispersion correction           -0.024904795
FINAL SINGLE POINT ENERGY      -685.693126466709

DIPOLE MOMENT
-------------

Method             : SCF
Type of density    : Electron Density
Multiplicity       :   1
Irrep              :   0
Energy             :  -685.8246765118338999 Eh
Relativity type    :
Basis              : AO
                                X                 Y                 Z
Electronic contribution:      1.318129105       0.192612883      -0.087426044
Nuclear contribution   :     -0.175348335      -0.122755482       0.052001860
                        -----------------------------------------
Total Dipole Moment    :      1.142780769       0.069857401      -0.035424184
                        -----------------------------------------
Magnitude (a.u.)       :      1.145461835
Magnitude (Debye)      :      2.911532602

Rotational constants in cm-1:             0.042835             0.025310             0.021716
Rotational constants in MHz :          1284.171992           758.782955           651.043078

                             ****ORCA TERMINATED NORMALLY****
TOTAL RUN TIME: 0 days 0 hours 0 minutes 12 seconds 339 msec
