                         Program Version 6.0.0  -   RELEASE  -
|  1> ! wb97x-v def2-tzvp def2/J RIJCOSX DEFGRID2 scfconv7 GCP(DFT/TZ) printgap
|  2> %output
|  3>     printlevel normal
|  4> end
|  5> * xyz 0 1
|  6> C 2.4868626245138428 0.7553723643460183 -0.9191152897221618
|  7> C 1.702941157085779 -0.13071655213469852 -0.00023265982801263426
|  8> O 2.2639522999191795 -0.9182557210461313 0.7600653008663627
|  9> C 0.215830378109133 -0.04579314774666864 -0.02551428657951101
| 10> C -0.4746465938827953 0.9168904963398925 -0.7664417277572809
| 11> C -1.861360654654725 0.9242741040110144 -0.7243983874930872
| 12> C -2.51058424466435 -0.03104916740348542 0.04711063980774538
| 13> N -1.8699210074151817 -0.9712963479233918 0.7616892753184207
| 14> C -0.5355871905721751 -0.963150916006023 0.7174197698690201
| 15> H 3.5513524375529024 0.5454566983101028 -0.8131705066130774
| 16> H 2.2952360456866505 1.807191860063022 -0.6807682343658635
| 17> H 2.176408263409487 0.6016007244421624 -1.9578938494097398
| 18> H 0.05548171770188069 1.6527968105124722 -1.3605690761506422
| 19> H -2.4346162303347922 1.657810085897102 -1.2800886566845548
| 20> H -3.596774449717662 -0.046973312930477844 0.09560150870956019
| 21> H -0.025152477702812353 -1.7288470239813905 1.2954142073066504
| 22> *
| 23>
| 24>                          ****END OF INPUT****

CARTESIAN COORDINATES (ANGSTROEM)
---------------------------------
  C      2.486863    0.755372   -0.919115
  C      1.702941   -0.130717   -0.000233
  O      2.263952   -0.918256    0.760065
  C      0.215830   -0.045793   -0.025514
  C     -0.474647    0.916890   -0.766442
  C     -1.861361    0.924274   -0.724398
  C     -2.510584   -0.031049    0.047111
  N     -1.869921   -0.971296    0.761689
  C     -0.535587   -0.963151    0.717420
  H      3.551352    0.545457   -0.813171
  H      2.295236    1.807192   -0.680768
  H      2.176408    0.601601   -1.957894
  H      0.055482    1.652797   -1.360569
  H     -2.434616    1.657810   -1.280089
  H     -3.596774   -0.046973    0.095602
  H     -0.025152   -1.728847    1.295414

 Total Charge           Charge          ....    0
 Multiplicity           Mult            ....    1
 Number of Electrons    NEL             ....   64
 Basis Dimension        Dim             ....  321

ORBITAL ENERGIES
----------------

  NO   OCC          E(Eh)            E(eV)
   0   2.0000     -21.668241      -589.6228
   1   2.0000     -16.538597      -450.0381
   2   2.0000     -12.152183      -330.6777
   3   2.0000     -12.101916      -329.3099
   4   2.0000     -12.098173      -329.2080
   5   2.0000     -12.091438      -329.0247
   6   2.0000     -12.077765      -328.6527
   7   2.0000     -12.074171      -328.5549
   8   2.0000     -12.062300      -328.2319
   9   2.0000      -1.711206       -46.5643
  10   2.0000      -1.532736       -41.7079
  11   2.0000      -1.371542       -37.3215
  12   2.0000      -1.322283       -35.9811
  13   2.0000      -1.271080       -34.5878
  14   2.0000      -1.185394       -32.2562
  15   2.0000      -1.161162       -31.5968
  16   2.0000      -1.101738       -29.9798
  17   2.0000      -1.034193       -28.1418
  18   2.0000      -1.015323       -27.6283
  19   2.0000      -0.980874       -26.6909
  20   2.0000      -0.963271       -26.2119
  21   2.0000      -0.917516       -24.9669
  22   2.0000      -0.916150       -24.9297
  23   2.0000      -0.893601       -24.3161
  24   2.0000      -0.864100       -23.5134
  25   2.0000      -0.847119       -23.0513
  26   2.0000      -0.843090       -22.9416
  27   2.0000      -0.841395       -22.8955
  28   2.0000      -0.824343       -22.4315
  29   2.0000      -0.776242       -21.1226
  30   2.0000      -0.719329       -19.5739
  31   2.0000      -0.671678       -18.2773
  32   0.0000      -0.353976        -9.6322
  33   0.0000      -0.297001        -8.0818
  34   0.0000      -0.232666        -6.3312
  35   0.0000      -0.098749        -2.6871
  36   0.0000      -0.081888        -2.2283

MULLIKEN ATOMIC CHARGES
-----------------------
   0 C :   -0.369266
   1 C :    0.222389
   2 O :   -0.315975
   3 C :    0.076976
   4 C :   -0.178021
   5 C :   -0.105107
   6 C :   -0.032765
   7 N :   -0.207609
   8 C :   -0.070678
   9 H :    0.148047
  10 H :    0.132801
  11 H :    0.137981
  12 H :    0.143039
  13 H :    0.130233
  14 H :    0.129987
  15 H :    0.157967
Sum of atomic charges:   -0.0000000

LOEWDIN ATOMIC CHARGES
----------------------
   0 C :   -0.255103
   1 C :   -0.298989
   2 O :    0.114598
   3 C :   -0.139465
   4 C :   -0.077680
   5 C :   -0.148960
   6 C :   -0.180676
   7 N :    0.127232
   8 C :   -0.130322
   9 H :    0.134488
  10 H :    0.135579
  11 H :    0.135315
  12 H :    0.150446
  13 H :    0.145968
  14 H :    0.137921
  15 H :    0.149649

  Mayer bond orders larger than 0.100000
B(  0-C ,  1-C ) :   0.9963 B(  0-C ,  9-H ) :   0.9766 B(  0-C , 10-H ) :   0.9513
B(  0-C , 11-H ) :   0.9604 B(  1-C ,  2-O ) :   2.1053 B(  1-C ,  3-C ) :   0.9471
B(  3-C ,  4-C ) :   1.3393 B(  3-C ,  8-C ) :   1.3611 B(  4-C ,  5-C ) :   1.4756
B(  4-C , 12-H ) :   0.9564 B(  5-C ,  6-C ) :   1.4125 B(  5-C , 13-H ) :   0.9644
B(  6-C ,  7-N ) :   1.4779 B(  6-C , 14-H ) :   0.9833 B(  7-N ,  8-C ) :   1.5271
B(  8-C , 15-H ) :   0.9604

FINAL SINGLE POINT ENERGY      -400.948937924532

DIPOLE MOMENT
-------------

Method             : SCF
Type of density    : Electron Density
Multiplicity       :   1
Irrep              :   0
Energy             :  -400.9575348670315975 Eh
Relativity type    :
Basis              : AO
                                X                 Y                 Z
Electronic contribution:     -2.179269011      -3.250531686       3.122793383
Nuclear contribution   :      1.901746442       4.553963879      -4.287581903
                        -----------------------------------------
Total Dipole Moment    :     -0.277522569       1.303432193      -1.164788521
                        -----------------------------------------
Magnitude (a.u.)       :      1.769939704
Magnitude (Debye)      :      4.498829200

Rotational constants in cm-1:             0.125500             0.041287             0.031295
Rotational constants in MHz :          3762.403475          1237.767574           938.201364

                             ****ORCA TERMINATED NORMALLY****
TOTAL RUN TIME: 0 days 0 hours 2 minutes 53 seconds 394 msec
