                         Program Version 6.0.0  -   RELEASE  -
|  1> ! wb97x-v def2-tzvp def2/J RIJCOSX DEFGRID2 scfconv7 GCP(DFT/TZ) printgap
|  2> %output
|  3>     printlevel normal
|  4> end
|  5> %cpcm
|  6>     smd true
|  7>     smdsolvent "water"
|  8> end
|  9> * xyz 0 1
| 10> C 2.4868626245138428 0.7553723643460183 -0.9191152897221618
| 11> C 1.702941157085779 -0.13071655213469852 -0.00023265982801263426
| 12> O 2.2639522999191795 -0.9182557210461313 0.7600653008663627
| 13> C 0.215830378109133 -0.04579314774666864 -0.02551428657951101
| 14> C -0.4746465938827953 0.9168904963398925 -0.7664417277572809
| 15> C -1.861360654654725 0.9242741040110144 -0.7243983874930872
| 16> C -2.51058424466435 -0.03104916740348542 0.04711063980774538
| 17> N -1.8699210074151817 -0.9712963479233918 0.7616892753184207
| 18> C -0.5355871905721751 -0.963150916006023 0.7174197698690201
| 19> H 3.5513524375529024 0.5454566983101028 -0.8131705066130774
| 20> H 2.2952360456866505 1.807191860063022 -0.6807682343658635
| 21> H 2.176408263409487 0.6016007244421624 -1.9578938494097398
| 22> H 0.05548171770188069 1.6527968105124722 -1.3605690761506422
| 23> H -2.4346162303347922 1.657810085897102 -1.2800886566845548
| 24> H -3.596774449717662 -0.046973312930477844 0.09560150870956019
| 25> H -0.025152477702812353 -1.7288470239813905 1.2954142073066504
| 26> *
| 27>
| 28>                          ****END OF INPUT****

CARTESIAN COORDINATES (ANGSTROEM)
---------------------------------
  C      2.486863    0.755372   -0.919115
  C      1.702941   -0.130717   -0.000233
  O      2.263952   -0.918256    0.760065
  C      0.215830   -0.045793   -0.025514
  C     -0.474647    0.916890   -0.766442
  C     -1.861361    0.924274   -0.724398
  C     -2.510584   -0.031049    0.047111
  N     -1.869921   -0.971296    0.761689
  C     -0.535587   -0.963151    0.717420
  H      3.551352    0.545457   -0.813171
  H      2.295236    1.807192   -0.680768
  H      2.176408    0.601601   -1.957894
  H      0.055482    1.652797   -1.360569
  H     -2.434616    1.657810   -1.280089
  H     -3.596774   -0.046973    0.095602
  H     -0.025152   -1.728847    1.295414

 Total Charge           Charge          ....    0
 Multiplicity           Mult            ....    1
 Number of Electrons    NEL             ....   64
 Basis Dimension        Dim             ....  321

ORBITAL ENERGIES
----------------

  NO   OCC          E(Eh)            E(eV)
   0   2.0000     -21.672779      -589.7463
   1   2.0000     -16.536901      -449.9919
   2   2.0000     -12.154984      -330.7539
   3   2.0000     -12.094762      -329.1152
   4   2.0000     -12.093421      -329.0787
   5   2.0000     -12.078726      -328.6788
   6   2.0000     -12.070337      -328.4506
   7   2.0000     -12.060436      -328.1811
   8   2.0000     -12.042947      -327.7052
   9   2.0000      -1.719322       -46.7851
  10   2.0000      -1.530232       -41.6397
  11   2.0000      -1.362311       -37.0704
  12   2.0000      -1.314309       -35.7642
  13   2.0000      -1.259671       -34.2774
  14   2.0000      -1.178114       -32.0581
  15   2.0000      -1.151886       -31.3444
  16   2.0000      -1.103329       -30.0231
  17   2.0000      -1.033509       -28.1232
  18   2.0000      -1.007568       -27.4173
  19   2.0000      -0.971547       -26.4371
  20   2.0000      -0.959969       -26.1221
  21   2.0000      -0.924496       -25.1568
  22   2.0000      -0.904104       -24.6019
  23   2.0000      -0.881685       -23.9919
  24   2.0000      -0.855948       -23.2915
  25   2.0000      -0.841256       -22.8918
  26   2.0000      -0.829584       -22.5741
  27   2.0000      -0.824909       -22.4469
  28   2.0000      -0.821491       -22.3539
  29   2.0000      -0.774073       -21.0636
  30   2.0000      -0.711547       -19.3622
  31   2.0000      -0.664109       -18.0713
  32   0.0000      -0.346120        -9.4184
  33   0.0000      -0.291044        -7.9197
  34   0.0000      -0.224338        -6.1045
  35   0.0000      -0.089777        -2.4430
  36   0.0000      -0.071671        -1.9503

MULLIKEN ATOMIC CHARGES
-----------------------
   0 C :   -0.390684
   1 C :    0.295769
   2 O :   -0.445057
   3 C :    0.077538
   4 C :   -0.185188
   5 C :   -0.143393
   6 C :   -0.031514
   7 N :   -0.287272
   8 C :   -0.073984
   9 H :    0.149397
  10 H :    0.168813
  11 H :    0.169180
  12 H :    0.189329
  13 H :    0.176015
  14 H :    0.168930
  15 H :    0.162122
Sum of atomic charges:   -0.0000000

LOEWDIN ATOMIC CHARGES
----------------------
   0 C :   -0.246397
   1 C :   -0.278949
   2 O :    0.039317
   3 C :   -0.138636
   4 C :   -0.052965
   5 C :   -0.138402
   6 C :   -0.179622
   7 N :    0.085726
   8 C :   -0.143958
   9 H :    0.134025
  10 H :    0.149735
  11 H :    0.148290
  12 H :    0.166741
  13 H :    0.158985
  14 H :    0.147344
  15 H :    0.148768

  Mayer bond orders larger than 0.100000
B(  0-C ,  1-C ) :   1.0302 B(  0-C ,  9-H ) :   0.9668 B(  0-C , 10-H ) :   0.9384
B(  0-C , 11-H ) :   0.9470 B(  1-C ,  2-O ) :   1.9703 B(  1-C ,  3-C ) :   0.9615
B(  3-C ,  4-C ) :   1.3324 B(  3-C ,  8-C ) :   1.3496 B(  4-C ,  5-C ) :   1.4594
B(  4-C , 12-H ) :   0.9554 B(  5-C ,  6-C ) :   1.4300 B(  5-C , 13-H ) :   0.9601
B(  6-C ,  7-N ) :   1.4571 B(  6-C , 14-H ) :   0.9625 B(  7-N ,  8-C ) :   1.5287
B(  8-C , 15-H ) :   0.9602

FINAL SINGLE POINT ENERGY      -400.963238721320

DIPOLE MOMENT
-------------

Method             : SCF
Type of density    : Electron Density
Multiplicity       :   1
Irrep              :   0
Energy             :  -400.9718356638202295 Eh
Relativity type    :
Basis              : AO
                                X                 Y                 Z
Electronic contribution:     -2.358978846      -2.566092612       2.523564030
Nuclear contribution   :      1.901746442       4.553963879      -4.287581903
                        -----------------------------------------
Total Dipole Moment    :     -0.457232405       1.987871268      -1.764017873
                        -----------------------------------------
Magnitude (a.u.)       :      2.696748543
Magnitude (Debye)      :      6.854590054

Rotational constants in cm-1:             0.125500             0.041287             0.031295
Rotational constants in MHz :          3762.403475          1237.767574           938.201364

                             ****ORCA TERMINATED NORMALLY****
TOTAL RUN TIME: 0 days 0 hours 2 minutes 34 seconds 257 msec
