                         Program Version 6.0.0  -   RELEASE  -
|  1> ! pbe def2-sv(p) def2/J RI DEFGRID1 loosescf d4 GCP(DFT/SV(P)) printgap
|  2> %output
|  3>     printlevel normal
|  4> end
|  5> * xyz 0 1
|  6> C -0.1784047771 -2.3303647229 -0.0138945423
|  7> C 0.5002731964 -1.0060606694 -0.004779656
|  8> C 1.8929319401 -0.9594533771 -0.0044409234
|  9> C 2.5893831977 0.2337318877 0.0024431772
| 10> C 1.9050395035 1.4435192917 0.0080413987
| 11> C 0.5297561014 1.4366633259 0.0070228442
| 12> C -0.1765843232 0.227665998 0.0013738885
| 13> N -1.5927231296 0.3218077074 0.0016105754
| 14> O -2.1018405887 1.4384092562 -0.0274145112
| 15> O -2.2730468943 -0.6933528024 0.0308469108
| 16> H -0.8072471386 -2.4456828581 0.8678010626
| 17> H -0.8405695621 -2.4193346216 -0.8738781193
| 18> H 0.5553081763 -3.1303819764 -0.0396556696
| 19> H 2.4372981076 -1.8907609337 -0.0095656472
| 20> H 3.6677934328 0.2246910498 0.0033704978
| 21> H 2.4410528839 2.3781775583 0.0135604552
| 22> H -0.0343031822 2.3563706895 0.0119532424
| 23> *
| 24>
| 25>                          ****END OF INPUT****

CARTESIAN COORDINATES (ANGSTROEM)
---------------------------------
  C     -0.178405   -2.330365   -0.013895
  C      0.500273   -1.006061   -0.004780
  C      1.892932   -0.959453   -0.004441
  C      2.589383    0.233732    0.002443
  C      1.905040    1.443519    0.008041
  C      0.529756    1.436663    0.007023
  C     -0.176584    0.227666    0.001374
  N     -1.592723    0.321808    0.001611
  O     -2.101841    1.438409   -0.027415
  O     -2.273047   -0.693353    0.030847
  H     -0.807247   -2.445683    0.867801
  H     -0.840570   -2.419335   -0.873878
  H      0.555308   -3.130382   -0.039656
  H      2.437298   -1.890761   -0.009566
  H      3.667793    0.224691    0.003370
  H      2.441053    2.378178    0.013560
  H     -0.034303    2.356371    0.011953

 Total Charge           Charge          ....    0
 Multiplicity           Mult            ....    1
 Number of Electrons    NEL             ....   72
 Basis Dimension        Dim             ....  154

ORBITAL ENERGIES
----------------

  NO   OCC          E(Eh)            E(eV)
   0   2.0000     -18.773194      -510.8446
   1   2.0000     -18.769573      -510.7460
   2   2.0000     -14.207507      -386.6059
   3   2.0000      -9.955075      -270.8914
   4   2.0000      -9.938962      -270.4529
   5   2.0000      -9.920437      -269.9488
   6   2.0000      -9.919402      -269.9207
   7   2.0000      -9.915887      -269.8250
   8   2.0000      -9.915541      -269.8156
   9   2.0000      -9.893302      -269.2104
  10   2.0000      -1.125522       -30.6270
  11   2.0000      -0.951147       -25.8820
  12   2.0000      -0.815727       -22.1970
  13   2.0000      -0.740765       -20.1572
  14   2.0000      -0.719462       -19.5776
  15   2.0000      -0.653137       -17.7728
  16   2.0000      -0.617895       -16.8138
  17   2.0000      -0.560272       -15.2458
  18   2.0000      -0.530266       -14.4293
  19   2.0000      -0.488336       -13.2883
  20   2.0000      -0.486495       -13.2382
  21   2.0000      -0.455828       -12.4037
  22   2.0000      -0.452053       -12.3010
  23   2.0000      -0.428642       -11.6639
  24   2.0000      -0.409260       -11.1365
  25   2.0000      -0.389299       -10.5934
  26   2.0000      -0.388793       -10.5796
  27   2.0000      -0.359088        -9.7713
  28   2.0000      -0.343450        -9.3457
  29   2.0000      -0.336366        -9.1530
  30   2.0000      -0.325868        -8.8673
  31   2.0000      -0.266644        -7.2558
  32   2.0000      -0.257293        -7.0013
  33   2.0000      -0.254594        -6.9279
  34   2.0000      -0.247743        -6.7414
  35   2.0000      -0.225506        -6.1363
  36   0.0000      -0.116690        -3.1753
  37   0.0000      -0.056907        -1.5485
  38   0.0000      -0.033691        -0.9168
  39   0.0000       0.032677         0.8892
  40   0.0000       0.057848         1.5741

MULLIKEN ATOMIC CHARGES
-----------------------
   0 C :   -0.169891
   1 C :   -0.039999
   2 C :   -0.150254
   3 C :   -0.003580
   4 C :   -0.041097
   5 C :   -0.117703
   6 C :    0.155904
   7 N :    0.204521
   8 O :   -0.223897
   9 O :   -0.222924
  10 H :    0.127146
  11 H :    0.126207
  12 H :    0.095576
  13 H :    0.051494
  14 H :    0.065889
  15 H :    0.067146
  16 H :    0.075464
Sum of atomic charges:    0.0000000

LOEWDIN ATOMIC CHARGES
----------------------
   0 C :   -0.326245
   1 C :   -0.017122
   2 C :   -0.117706
   3 C :   -0.095203
   4 C :   -0.120818
   5 C :   -0.100176
   6 C :   -0.042351
   7 N :    0.255913
   8 O :   -0.196523
   9 O :   -0.181337
  10 H :    0.142571
  11 H :    0.141815
  12 H :    0.120558
  13 H :    0.129534
  14 H :    0.131042
  15 H :    0.131847
  16 H :    0.144202

  Mayer bond orders larger than 0.100000
B(  0-C ,  1-C ) :   1.1676 B(  0-C , 10-H ) :   0.9115 B(  0-C , 11-H ) :   0.9119
B(  0-C , 12-H ) :   0.9187 B(  1-C ,  2-C ) :   1.3789 B(  1-C ,  6-C ) :   1.3479
B(  2-C ,  3-C ) :   1.3669 B(  2-C , 13-H ) :   0.9561 B(  3-C ,  4-C ) :   1.3299
B(  3-C , 14-H ) :   0.9646 B(  4-C ,  5-C ) :   1.3467 B(  4-C , 15-H ) :   0.9671
B(  5-C ,  6-C ) :   1.3572 B(  5-C , 16-H ) :   0.9424 B(  6-C ,  7-N ) :   0.9083
B(  7-N ,  8-O ) :   1.5240 B(  7-N ,  9-O ) :   1.4943 B(  8-O ,  9-O ) :   0.2935

Dispersion correction           -0.018553443
FINAL SINGLE POINT ENERGY      -475.103158501424

DIPOLE MOMENT
-------------

Method             : SCF
Type of density    : Electron Density
Multiplicity       :   1
Irrep              :   0
Energy             :  -475.1546121874138180 Eh
Relativity type    :
Basis              : AO
                                X                 Y                 Z
Electronic contribution:     -5.272097671       4.320353986       0.026383036
Nuclear contribution   :      6.887073928      -4.609496808      -0.024721357
                        -----------------------------------------
Total Dipole Moment    :      1.614976257      -0.289142823       0.001661678
                        -----------------------------------------
Magnitude (a.u.)       :      1.640656772
Magnitude (Debye)      :      4.170218101

Rotational constants in cm-1:             0.076589             0.043008             0.027683
Rotational constants in MHz :          2296.094792          1289.342682           829.925294

                             ****ORCA TERMINATED NORMALLY****
TOTAL RUN TIME: 0 days 0 hours 0 minutes 12 seconds 258 msec
