                         Program Version 6.0.0  -   RELEASE  -
|  1> ! wb97x-v def2-tzvp def2/J RIJCOSX DEFGRID2 scfconv7 GCP(DFT/TZ) printgap
|  2> %output
|  3>     printlevel normal
|  4> end
|  5> * xyz 0 1
|  6> C 2.146153164128797 -2.096034078285755 -0.013891808598851826
|  7> C 1.1837817279747411 -0.9671274006617292 0.10840232345254282
|  8> C 1.5746619681853715 0.3223322938502833 -0.010986910672635106
|  9> C 0.645125651139825 1.4251443085906899 0.13060119063771058
| 10> O 1.0119397180029701 2.603068505202759 -0.015593243227354427
| 11> C -0.7752450034808461 1.0967013859424997 0.5153441257739616
| 12> C -1.2622522680400872 -0.2556577429032806 -0.027189329681782306
| 13> C -0.2432389852555795 -1.3308753784376917 0.3819842172694188
| 14> C -1.3859709000066311 -0.19323280928660103 -1.5546327114758947
| 15> C -2.6275040259423386 -0.5888642161043952 0.5752569190263119
| 16> H 3.1785352617430145 -1.7527708259074855 -0.10851958407769628
| 17> H 1.8884357285758488 -2.7060186534948225 -0.8893336908821209
| 18> H 2.0619107686182723 -2.760412526289827 0.8550766705712722
| 19> H 2.612870172821426 0.5723194372713221 -0.21635209431553892
| 20> H -0.7949919693543 1.0703531155542352 1.6160572490945604
| 21> H -1.429571954223775 1.9147381912644927 0.1962188622120708
| 22> H -0.32757524246560693 -1.5220296322434617 1.4638374017616729
| 23> H -0.47643314416982274 -2.283681134137761 -0.11007011232179838
| 24> H -0.42855723357911163 0.03759351807991152 -2.033813594445742
| 25> H -2.1042525246546 0.580630843486757 -1.8462444497255692
| 26> H -1.7392728640405244 -1.152174177778985 -1.948749303780323
| 27> H -2.5758588595335365 -0.6221911809617087 1.6689832935276494
| 28> H -2.97951250256069 -1.5637574643932743 0.2191896447433719
| 29> H -3.3701327558878926 0.16432543696172758 0.2896804851163478
| 30> *
| 31>
| 32>                          ****END OF INPUT****

CARTESIAN COORDINATES (ANGSTROEM)
---------------------------------
  C      2.146153   -2.096034   -0.013892
  C      1.183782   -0.967127    0.108402
  C      1.574662    0.322332   -0.010987
  C      0.645126    1.425144    0.130601
  O      1.011940    2.603069   -0.015593
  C     -0.775245    1.096701    0.515344
  C     -1.262252   -0.255658   -0.027189
  C     -0.243239   -1.330875    0.381984
  C     -1.385971   -0.193233   -1.554633
  C     -2.627504   -0.588864    0.575257
  H      3.178535   -1.752771   -0.108520
  H      1.888436   -2.706019   -0.889334
  H      2.061911   -2.760413    0.855077
  H      2.612870    0.572319   -0.216352
  H     -0.794992    1.070353    1.616057
  H     -1.429572    1.914738    0.196219
  H     -0.327575   -1.522030    1.463837
  H     -0.476433   -2.283681   -0.110070
  H     -0.428557    0.037594   -2.033814
  H     -2.104253    0.580631   -1.846244
  H     -1.739273   -1.152174   -1.948749
  H     -2.575859   -0.622191    1.668983
  H     -2.979513   -1.563757    0.219190
  H     -3.370133    0.164325    0.289680

 Total Charge           Charge          ....    0
 Multiplicity           Mult            ....    1
 Number of Electrons    NEL             ....   76
 Basis Dimension        Dim             ....  394

ORBITAL ENERGIES
----------------

  NO   OCC          E(Eh)            E(eV)
   0   2.0000     -21.643806      -588.9579
   1   2.0000     -12.125675      -329.9564
   2   2.0000     -12.087385      -328.9145
   3   2.0000     -12.073192      -328.5283
   4   2.0000     -12.062877      -328.2476
   5   2.0000     -12.058928      -328.1401
   6   2.0000     -12.049600      -327.8863
   7   2.0000     -12.045606      -327.7776
   8   2.0000     -12.044411      -327.7451
   9   2.0000     -12.040912      -327.6499
  10   2.0000      -1.678226       -45.6668
  11   2.0000      -1.383472       -37.6462
  12   2.0000      -1.326222       -36.0883
  13   2.0000      -1.266862       -34.4731
  14   2.0000      -1.208916       -32.8963
  15   2.0000      -1.201874       -32.7046
  16   2.0000      -1.188344       -32.3365
  17   2.0000      -1.104180       -30.0463
  18   2.0000      -1.060463       -28.8567
  19   2.0000      -1.008122       -27.4324
  20   2.0000      -0.962312       -26.1859
  21   2.0000      -0.960318       -26.1316
  22   2.0000      -0.917709       -24.9721
  23   2.0000      -0.898013       -24.4362
  24   2.0000      -0.886238       -24.1158
  25   2.0000      -0.880257       -23.9530
  26   2.0000      -0.870503       -23.6876
  27   2.0000      -0.856996       -23.3200
  28   2.0000      -0.851054       -23.1584
  29   2.0000      -0.830010       -22.5857
  30   2.0000      -0.827997       -22.5309
  31   2.0000      -0.815448       -22.1895
  32   2.0000      -0.809179       -22.0189
  33   2.0000      -0.798855       -21.7379
  34   2.0000      -0.780134       -21.2285
  35   2.0000      -0.778192       -21.1757
  36   2.0000      -0.769571       -20.9411
  37   2.0000      -0.670895       -18.2560
  38   0.0000      -0.333688        -9.0801
  39   0.0000      -0.170714        -4.6454
  40   0.0000      -0.068511        -1.8643
  41   0.0000      -0.062609        -1.7037
  42   0.0000      -0.048408        -1.3172

MULLIKEN ATOMIC CHARGES
-----------------------
   0 C :   -0.362794
   1 C :    0.135827
   2 C :   -0.316256
   3 C :    0.205168
   4 O :   -0.332138
   5 C :   -0.176919
   6 C :    0.120250
   7 C :   -0.212656
   8 C :   -0.390202
   9 C :   -0.353449
  10 H :    0.128491
  11 H :    0.129618
  12 H :    0.126482
  13 H :    0.120256
  14 H :    0.111675
  15 H :    0.118043
  16 H :    0.117201
  17 H :    0.118662
  18 H :    0.135006
  19 H :    0.119573
  20 H :    0.110321
  21 H :    0.112511
  22 H :    0.114542
  23 H :    0.120789
Sum of atomic charges:   -0.0000000

LOEWDIN ATOMIC CHARGES
----------------------
   0 C :   -0.246712
   1 C :   -0.146355
   2 C :   -0.122854
   3 C :   -0.307821
   4 O :    0.081263
   5 C :   -0.165891
   6 C :   -0.325395
   7 C :   -0.169484
   8 C :   -0.245276
   9 C :   -0.253140
  10 H :    0.128469
  11 H :    0.133442
  12 H :    0.132651
  13 H :    0.150206
  14 H :    0.157885
  15 H :    0.151432
  16 H :    0.156492
  17 H :    0.149256
  18 H :    0.128071
  19 H :    0.125114
  20 H :    0.121320
  21 H :    0.120568
  22 H :    0.122416
  23 H :    0.124343

  Mayer bond orders larger than 0.100000
B(  0-C ,  1-C ) :   0.9490 B(  0-C , 10-H ) :   0.9917 B(  0-C , 11-H ) :   0.9691
B(  0-C , 12-H ) :   0.9668 B(  1-C ,  2-C ) :   1.7105 B(  1-C ,  7-C ) :   0.9645
B(  2-C ,  3-C ) :   1.1103 B(  2-C , 13-H ) :   0.9686 B(  3-C ,  4-O ) :   2.1125
B(  3-C ,  5-C ) :   0.9610 B(  5-C ,  6-C ) :   0.9227 B(  5-C , 14-H ) :   0.9397
B(  5-C , 15-H ) :   0.9562 B(  6-C ,  7-C ) :   0.9613 B(  6-C ,  8-C ) :   0.9898
B(  6-C ,  9-C ) :   0.9694 B(  7-C , 16-H ) :   0.9321 B(  7-C , 17-H ) :   0.9792
B(  8-C , 18-H ) :   0.9682 B(  8-C , 19-H ) :   0.9788 B(  8-C , 20-H ) :   0.9780
B(  9-C , 21-H ) :   0.9726 B(  9-C , 22-H ) :   0.9815 B(  9-C , 23-H ) :   0.9837

FINAL SINGLE POINT ENERGY      -426.639972958557

DIPOLE MOMENT
-------------

Method             : SCF
Type of density    : Electron Density
Multiplicity       :   1
Irrep              :   0
Energy             :  -426.6558829821568111 Eh
Relativity type    :
Basis              : AO
                                X                 Y                 Z
Electronic contribution:      5.679921597       7.656442685       0.971146902
Nuclear contribution   :     -6.136261719      -9.409003386      -0.807267097
                        -----------------------------------------
Total Dipole Moment    :     -0.456340122      -1.752560701       0.163879804
                        -----------------------------------------
Magnitude (a.u.)       :      1.818398171
Magnitude (Debye)      :      4.622000835

Rotational constants in cm-1:             0.050512             0.044567             0.028387
Rotational constants in MHz :          1514.299697          1336.079536           851.023786

                             ****ORCA TERMINATED NORMALLY****
TOTAL RUN TIME: 0 days 0 hours 5 minutes 56 seconds 540 msec
