                         Program Version 6.0.0  -   RELEASE  -
|  1> ! wb97x-v def2-tzvp def2/J RIJCOSX DEFGRID2 scfconv7 GCP(DFT/TZ) printgap
|  2> %output
|  3>     printlevel normal
|  4> end
|  5> %cpcm
|  6>     smd true
|  7>     smdsolvent "water"
|  8> end
|  9> * xyz 0 1
| 10> C 2.146153164128797 -2.096034078285755 -0.013891808598851826
| 11> C 1.1837817279747411 -0.9671274006617292 0.10840232345254282
| 12> C 1.5746619681853715 0.3223322938502833 -0.010986910672635106
| 13> C 0.645125651139825 1.4251443085906899 0.13060119063771058
| 14> O 1.0119397180029701 2.603068505202759 -0.015593243227354427
| 15> C -0.7752450034808461 1.0967013859424997 0.5153441257739616
| 16> C -1.2622522680400872 -0.2556577429032806 -0.027189329681782306
| 17> C -0.2432389852555795 -1.3308753784376917 0.3819842172694188
| 18> C -1.3859709000066311 -0.19323280928660103 -1.5546327114758947
| 19> C -2.6275040259423386 -0.5888642161043952 0.5752569190263119
| 20> H 3.1785352617430145 -1.7527708259074855 -0.10851958407769628
| 21> H 1.8884357285758488 -2.7060186534948225 -0.8893336908821209
| 22> H 2.0619107686182723 -2.760412526289827 0.8550766705712722
| 23> H 2.612870172821426 0.5723194372713221 -0.21635209431553892
| 24> H -0.7949919693543 1.0703531155542352 1.6160572490945604
| 25> H -1.429571954223775 1.9147381912644927 0.1962188622120708
| 26> H -0.32757524246560693 -1.5220296322434617 1.4638374017616729
| 27> H -0.47643314416982274 -2.283681134137761 -0.11007011232179838
| 28> H -0.42855723357911163 0.03759351807991152 -2.033813594445742
| 29> H -2.1042525246546 0.580630843486757 -1.8462444497255692
| 30> H -1.7392728640405244 -1.152174177778985 -1.948749303780323
| 31> H -2.5758588595335365 -0.6221911809617087 1.6689832935276494
| 32> H -2.97951250256069 -1.5637574643932743 0.2191896447433719
| 33> H -3.3701327558878926 0.16432543696172758 0.2896804851163478
| 34> *
| 35>
| 36>                          ****END OF INPUT****

CARTESIAN COORDINATES (ANGSTROEM)
---------------------------------
  C      2.146153   -2.096034   -0.013892
  C      1.183782   -0.967127    0.108402
  C      1.574662    0.322332   -0.010987
  C      0.645126    1.425144    0.130601
  O      1.011940    2.603069   -0.015593
  C     -0.775245    1.096701    0.515344
  C     -1.262252   -0.255658   -0.027189
  C     -0.243239   -1.330875    0.381984
  C     -1.385971   -0.193233   -1.554633
  C     -2.627504   -0.588864    0.575257
  H      3.178535   -1.752771   -0.108520
  H      1.888436   -2.706019   -0.889334
  H      2.061911   -2.760413    0.855077
  H      2.612870    0.572319   -0.216352
  H     -0.794992    1.070353    1.616057
  H     -1.429572    1.914738    0.196219
  H     -0.327575   -1.522030    1.463837
  H     -0.476433   -2.283681   -0.110070
  H     -0.428557    0.037594   -2.033814
  H     -2.104253    0.580631   -1.846244
  H     -1.739273   -1.152174   -1.948749
  H     -2.575859   -0.622191    1.668983
  H     -2.979513   -1.563757    0.219190
  H     -3.370133    0.164325    0.289680

 Total Charge           Charge          ....    0
 Multiplicity           Mult            ....    1
 Number of Electrons    NEL             ....   76
 Basis Dimension        Dim             ....  394

ORBITAL ENERGIES
----------------

  NO   OCC          E(Eh)            E(eV)
   0   2.0000     -21.658764      -589.3649
   1   2.0000     -12.137243      -330.2712
   2   2.0000     -12.083204      -328.8007
   3   2.0000     -12.059182      -328.1470
   4   2.0000     -12.043610      -327.7233
   5   2.0000     -12.041680      -327.6708
   6   2.0000     -12.039031      -327.5987
   7   2.0000     -12.037901      -327.5679
   8   2.0000     -12.025958      -327.2430
   9   2.0000     -12.025199      -327.2223
  10   2.0000      -1.697946       -46.2035
  11   2.0000      -1.372908       -37.3587
  12   2.0000      -1.313929       -35.7538
  13   2.0000      -1.261094       -34.3161
  14   2.0000      -1.195976       -32.5442
  15   2.0000      -1.187756       -32.3205
  16   2.0000      -1.171992       -31.8915
  17   2.0000      -1.108252       -30.1571
  18   2.0000      -1.052877       -28.6502
  19   2.0000      -1.014111       -27.5954
  20   2.0000      -0.961061       -26.1518
  21   2.0000      -0.949937       -25.8491
  22   2.0000      -0.913364       -24.8539
  23   2.0000      -0.901835       -24.5402
  24   2.0000      -0.878391       -23.9022
  25   2.0000      -0.868675       -23.6379
  26   2.0000      -0.865323       -23.5466
  27   2.0000      -0.847242       -23.0546
  28   2.0000      -0.833827       -22.6896
  29   2.0000      -0.815331       -22.1863
  30   2.0000      -0.810698       -22.0602
  31   2.0000      -0.802530       -21.8380
  32   2.0000      -0.793483       -21.5918
  33   2.0000      -0.787536       -21.4300
  34   2.0000      -0.768715       -20.9178
  35   2.0000      -0.764313       -20.7980
  36   2.0000      -0.758066       -20.6280
  37   2.0000      -0.665483       -18.1087
  38   0.0000      -0.330979        -9.0064
  39   0.0000      -0.166039        -4.5182
  40   0.0000      -0.064335        -1.7506
  41   0.0000      -0.045796        -1.2462
  42   0.0000      -0.035143        -0.9563

MULLIKEN ATOMIC CHARGES
-----------------------
   0 C :   -0.402827
   1 C :    0.129190
   2 C :   -0.385239
   3 C :    0.319874
   4 O :   -0.496433
   5 C :   -0.219193
   6 C :    0.177897
   7 C :   -0.221693
   8 C :   -0.445123
   9 C :   -0.428584
  10 H :    0.146026
  11 H :    0.155142
  12 H :    0.152829
  13 H :    0.148564
  14 H :    0.144982
  15 H :    0.131542
  16 H :    0.141980
  17 H :    0.144849
  18 H :    0.138085
  19 H :    0.133986
  20 H :    0.132999
  21 H :    0.132299
  22 H :    0.133908
  23 H :    0.134942
Sum of atomic charges:   -0.0000000

LOEWDIN ATOMIC CHARGES
----------------------
   0 C :   -0.241765
   1 C :   -0.121665
   2 C :   -0.142549
   3 C :   -0.299424
   4 O :   -0.017912
   5 C :   -0.164553
   6 C :   -0.319893
   7 C :   -0.159272
   8 C :   -0.250767
   9 C :   -0.256373
  10 H :    0.132174
  11 H :    0.142694
  12 H :    0.141677
  13 H :    0.153291
  14 H :    0.169265
  15 H :    0.152980
  16 H :    0.166743
  17 H :    0.158603
  18 H :    0.126881
  19 H :    0.126534
  20 H :    0.126185
  21 H :    0.124743
  22 H :    0.126344
  23 H :    0.126059

  Mayer bond orders larger than 0.100000
B(  0-C ,  1-C ) :   0.9548 B(  0-C , 10-H ) :   0.9858 B(  0-C , 11-H ) :   0.9583
B(  0-C , 12-H ) :   0.9594 B(  1-C ,  2-C ) :   1.7046 B(  1-C ,  7-C ) :   0.9806
B(  2-C ,  3-C ) :   1.1231 B(  2-C , 13-H ) :   0.9560 B(  3-C ,  4-O ) :   1.9279
B(  3-C ,  5-C ) :   0.9790 B(  5-C ,  6-C ) :   0.9189 B(  5-C , 14-H ) :   0.9227
B(  5-C , 15-H ) :   0.9607 B(  6-C ,  7-C ) :   0.9621 B(  6-C ,  8-C ) :   0.9790
B(  6-C ,  9-C ) :   0.9389 B(  7-C , 16-H ) :   0.9226 B(  7-C , 17-H ) :   0.9698
B(  8-C , 18-H ) :   0.9647 B(  8-C , 19-H ) :   0.9793 B(  8-C , 20-H ) :   0.9784
B(  9-C , 21-H ) :   0.9746 B(  9-C , 22-H ) :   0.9801 B(  9-C , 23-H ) :   0.9825

FINAL SINGLE POINT ENERGY      -426.650585731374

DIPOLE MOMENT
-------------

Method             : SCF
Type of density    : Electron Density
Multiplicity       :   1
Irrep              :   0
Energy             :  -426.6664957549741644 Eh
Relativity type    :
Basis              : AO
                                X                 Y                 Z
Electronic contribution:      5.450365499       6.692415770       1.122508861
Nuclear contribution   :     -6.136261719      -9.409003386      -0.807267097
                        -----------------------------------------
Total Dipole Moment    :     -0.685896220      -2.716587617       0.315241764
                        -----------------------------------------
Magnitude (a.u.)       :      2.819517560
Magnitude (Debye)      :      7.166644096

Rotational constants in cm-1:             0.050512             0.044567             0.028387
Rotational constants in MHz :          1514.299697          1336.079536           851.023786

                             ****ORCA TERMINATED NORMALLY****
TOTAL RUN TIME: 0 days 0 hours 6 minutes 2 seconds 465 msec
