                         Program Version 6.0.0  -   RELEASE  -
|  1> ! wb97x-v def2-tzvp def2/J RIJCOSX DEFGRID2 scfconv7 GCP(DFT/TZ) printgap
|  2> %output
|  3>     printlevel normal
|  4> end
|  5> * xyz 0 1
|  6> C 1.201767944964711 1.2665043265950977 0.050568906646759795
|  7> C 0.4317635967824208 -9.446273191399749e-05 -0.3489391054065709
|  8> C 1.207372271218138 -1.2633446804612416 0.04977792509999314
|  9> C -0.8800038326486592 -0.002924783802251213 0.3712549711751691
| 10> O -1.9774558176363335 -0.0012806570598655818 -0.16317015730540113
| 11> H 2.1750844047654976 1.2755407769094855 -0.4495022201709336
| 12> H 1.3744382969141804 1.2894231215047238 1.1322357659354636
| 13> H 0.6581074604553556 2.1725715302798734 -0.23393948330444228
| 14> H 0.23466229316987136 6.076445975587087e-06 -1.4261660071745164
| 15> H 2.1806750908829104 -1.2679132622571556 -0.4503765937438976
| 16> H 0.6677226396019094 -2.171704588120589 -0.23507038059910834
| 17> H 1.3802671288603976 -1.286027928136428 1.1314174859371884
| 18> H -0.8025730906254521 -0.0048687889290576075 1.4808137406909012
| 19> *
| 20>
| 21>                          ****END OF INPUT****

CARTESIAN COORDINATES (ANGSTROEM)
---------------------------------
  C      1.201768    1.266504    0.050569
  C      0.431764   -0.000094   -0.348939
  C      1.207372   -1.263345    0.049778
  C     -0.880004   -0.002925    0.371255
  O     -1.977456   -0.001281   -0.163170
  H      2.175084    1.275541   -0.449502
  H      1.374438    1.289423    1.132236
  H      0.658107    2.172572   -0.233939
  H      0.234662    0.000006   -1.426166
  H      2.180675   -1.267913   -0.450377
  H      0.667723   -2.171705   -0.235070
  H      1.380267   -1.286028    1.131417
  H     -0.802573   -0.004869    1.480814

 Total Charge           Charge          ....    0
 Multiplicity           Mult            ....    1
 Number of Electrons    NEL             ....   40
 Basis Dimension        Dim             ....  203

ORBITAL ENERGIES
----------------

  NO   OCC          E(Eh)            E(eV)
   0   2.0000     -21.672083      -589.7274
   1   2.0000     -12.137384      -330.2750
   2   2.0000     -12.067836      -328.3825
   3   2.0000     -12.055292      -328.0412
   4   2.0000     -12.054991      -328.0330
   5   2.0000      -1.713321       -46.6218
   6   2.0000      -1.333087       -36.2751
   7   2.0000      -1.195641       -32.5350
   8   2.0000      -1.163599       -31.6632
   9   2.0000      -1.074736       -29.2451
  10   2.0000      -1.007017       -27.4023
  11   2.0000      -0.959599       -26.1120
  12   2.0000      -0.907490       -24.6940
  13   2.0000      -0.889625       -24.2079
  14   2.0000      -0.855414       -23.2770
  15   2.0000      -0.844541       -22.9811
  16   2.0000      -0.829000       -22.5582
  17   2.0000      -0.802192       -21.8288
  18   2.0000      -0.793105       -21.5815
  19   2.0000      -0.764436       -20.8013
  20   0.0000      -0.319425        -8.6920
  21   0.0000      -0.044337        -1.2065
  22   0.0000      -0.036707        -0.9989
  23   0.0000      -0.022302        -0.6069
  24   0.0000      -0.004434        -0.1207

MULLIKEN ATOMIC CHARGES
-----------------------
   0 C :   -0.367667
   1 C :    0.058762
   2 C :   -0.367764
   3 C :    0.089694
   4 O :   -0.285358
   5 H :    0.120924
   6 H :    0.110656
   7 H :    0.130583
   8 H :    0.081266
   9 H :    0.120912
  10 H :    0.130503
  11 H :    0.110661
  12 H :    0.066826
Sum of atomic charges:    0.0000000

LOEWDIN ATOMIC CHARGES
----------------------
   0 C :   -0.270873
   1 C :   -0.302831
   2 C :   -0.270990
   3 C :   -0.256462
   4 O :    0.095804
   5 H :    0.123907
   6 H :    0.121489
   7 H :    0.123998
   8 H :    0.153461
   9 H :    0.123897
  10 H :    0.123971
  11 H :    0.121490
  12 H :    0.113138

  Mayer bond orders larger than 0.100000
B(  0-C ,  1-C ) :   0.9672 B(  0-C ,  5-H ) :   0.9756 B(  0-C ,  6-H ) :   0.9677
B(  0-C ,  7-H ) :   0.9777 B(  1-C ,  2-C ) :   0.9673 B(  1-C ,  3-C ) :   0.9180
B(  1-C ,  8-H ) :   0.9473 B(  2-C ,  9-H ) :   0.9756 B(  2-C , 10-H ) :   0.9777
B(  2-C , 11-H ) :   0.9677 B(  3-C ,  4-O ) :   2.1530 B(  3-C , 12-H ) :   0.9677

FINAL SINGLE POINT ENERGY      -232.467808408678

DIPOLE MOMENT
-------------

Method             : SCF
Type of density    : Electron Density
Multiplicity       :   1
Irrep              :   0
Energy             :  -232.4761748820783112 Eh
Relativity type    :
Basis              : AO
                                X                 Y                 Z
Electronic contribution:     -6.192284756      -0.007830372      -0.633133342
Nuclear contribution   :      7.368708148       0.007795845       0.907101749
                        -----------------------------------------
Total Dipole Moment    :      1.176423392      -0.000034527       0.273968407
                        -----------------------------------------
Magnitude (a.u.)       :      1.207903426
Magnitude (Debye)      :      3.070246512

Rotational constants in cm-1:             0.257301             0.124963             0.094448
Rotational constants in MHz :          7713.683697          3746.298333          2831.465240

                             ****ORCA TERMINATED NORMALLY****
TOTAL RUN TIME: 0 days 0 hours 0 minutes 58 seconds 985 msec
