                         Program Version 6.0.0  -   RELEASE  -
|  1> ! wb97x-v def2-tzvp def2/J RIJCOSX DEFGRID2 scfconv7 GCP(DFT/TZ) printgap
|  2> %output
|  3>     printlevel normal
|  4> end
|  5> %cpcm
|  6>     smd true
|  7>     smdsolvent "water"
|  8> end
|  9> * xyz 0 1
| 10> C 1.201767944964711 1.2665043265950977 0.050568906646759795
| 11> C 0.4317635967824208 -9.446273191399749e-05 -0.3489391054065709
| 12> C 1.207372271218138 -1.2633446804612416 0.04977792509999314
| 13> C -0.8800038326486592 -0.002924783802251213 0.3712549711751691
| 14> O -1.9774558176363335 -0.0012806570598655818 -0.16317015730540113
| 15> H 2.1750844047654976 1.2755407769094855 -0.4495022201709336
| 16> H 1.3744382969141804 1.2894231215047238 1.1322357659354636
| 17> H 0.6581074604553556 2.1725715302798734 -0.23393948330444228
| 18> H 0.23466229316987136 6.076445975587087e-06 -1.4261660071745164
| 19> H 2.1806750908829104 -1.2679132622571556 -0.4503765937438976
| 20> H 0.6677226396019094 -2.171704588120589 -0.23507038059910834
| 21> H 1.3802671288603976 -1.286027928136428 1.1314174859371884
| 22> H -0.8025730906254521 -0.0048687889290576075 1.4808137406909012
| 23> *
| 24>
| 25>                          ****END OF INPUT****

CARTESIAN COORDINATES (ANGSTROEM)
---------------------------------
  C      1.201768    1.266504    0.050569
  C      0.431764   -0.000094   -0.348939
  C      1.207372   -1.263345    0.049778
  C     -0.880004   -0.002925    0.371255
  O     -1.977456   -0.001281   -0.163170
  H      2.175084    1.275541   -0.449502
  H      1.374438    1.289423    1.132236
  H      0.658107    2.172572   -0.233939
  H      0.234662    0.000006   -1.426166
  H      2.180675   -1.267913   -0.450377
  H      0.667723   -2.171705   -0.235070
  H      1.380267   -1.286028    1.131417
  H     -0.802573   -0.004869    1.480814

 Total Charge           Charge          ....    0
 Multiplicity           Mult            ....    1
 Number of Electrons    NEL             ....   40
 Basis Dimension        Dim             ....  203

ORBITAL ENERGIES
----------------

  NO   OCC          E(Eh)            E(eV)
   0   2.0000     -21.679304      -589.9239
   1   2.0000     -12.140166      -330.3507
   2   2.0000     -12.054925      -328.0312
   3   2.0000     -12.036008      -327.5164
   4   2.0000     -12.035727      -327.5088
   5   2.0000      -1.724167       -46.9170
   6   2.0000      -1.319200       -35.8973
   7   2.0000      -1.176696       -32.0195
   8   2.0000      -1.160123       -31.5686
   9   2.0000      -1.073741       -29.2180
  10   2.0000      -1.007954       -27.4278
  11   2.0000      -0.956056       -26.0156
  12   2.0000      -0.919007       -25.0074
  13   2.0000      -0.873071       -23.7575
  14   2.0000      -0.841574       -22.9004
  15   2.0000      -0.832670       -22.6581
  16   2.0000      -0.808705       -22.0060
  17   2.0000      -0.783725       -21.3262
  18   2.0000      -0.779091       -21.2001
  19   2.0000      -0.755407       -20.5557
  20   0.0000      -0.314569        -8.5599
  21   0.0000      -0.035476        -0.9654
  22   0.0000      -0.018107        -0.4927
  23   0.0000      -0.003251        -0.0885
  24   0.0000       0.011618         0.3161

MULLIKEN ATOMIC CHARGES
-----------------------
   0 C :   -0.413630
   1 C :    0.055589
   2 C :   -0.413790
   3 C :    0.161632
   4 O :   -0.418221
   5 H :    0.140729
   6 H :    0.133659
   7 H :    0.138529
   8 H :    0.087754
   9 H :    0.140679
  10 H :    0.138529
  11 H :    0.133646
  12 H :    0.114895
Sum of atomic charges:    0.0000000

LOEWDIN ATOMIC CHARGES
----------------------
   0 C :   -0.270288
   1 C :   -0.298282
   2 C :   -0.270404
   3 C :   -0.227070
   4 O :    0.017299
   5 H :    0.128747
   6 H :    0.127364
   7 H :    0.125361
   8 H :    0.154857
   9 H :    0.128722
  10 H :    0.125358
  11 H :    0.127361
  12 H :    0.130975

  Mayer bond orders larger than 0.100000
B(  0-C ,  1-C ) :   0.9561 B(  0-C ,  5-H ) :   0.9713 B(  0-C ,  6-H ) :   0.9676
B(  0-C ,  7-H ) :   0.9733 B(  1-C ,  2-C ) :   0.9562 B(  1-C ,  3-C ) :   0.9374
B(  1-C ,  8-H ) :   0.9536 B(  2-C ,  9-H ) :   0.9713 B(  2-C , 10-H ) :   0.9733
B(  2-C , 11-H ) :   0.9676 B(  3-C ,  4-O ) :   2.0183 B(  3-C , 12-H ) :   0.9597

FINAL SINGLE POINT ENERGY      -232.473517568027

DIPOLE MOMENT
-------------

Method             : SCF
Type of density    : Electron Density
Multiplicity       :   1
Irrep              :   0
Energy             :  -232.4818840414270085 Eh
Relativity type    :
Basis              : AO
                                X                 Y                 Z
Electronic contribution:     -5.775540281      -0.008197167      -0.427214056
Nuclear contribution   :      7.368708148       0.007795845       0.907101749
                        -----------------------------------------
Total Dipole Moment    :      1.593167867      -0.000401322       0.479887693
                        -----------------------------------------
Magnitude (a.u.)       :      1.663873857
Magnitude (Debye)      :      4.229231241

Rotational constants in cm-1:             0.257301             0.124963             0.094448
Rotational constants in MHz :          7713.683697          3746.298333          2831.465240

                             ****ORCA TERMINATED NORMALLY****
TOTAL RUN TIME: 0 days 0 hours 1 minutes 1 seconds 356 msec
