                         Program Version 6.0.0  -   RELEASE  -
|  1> ! wb97x-v def2-tzvp def2/J RIJCOSX DEFGRID2 scfconv7 GCP(DFT/TZ) printgap
|  2> %output
|  3>     printlevel normal
|  4> end
|  5> * xyz 0 1
|  6> C -2.525241320096685 0.7382223074181721 -0.002825680862911457
|  7> C -1.223764537411005 -0.01230914543681007 -0.0010210956900976926
|  8> C -1.2006921313531025 -1.4066921436214872 -0.003759478465303434
|  9> C 4.1212160768075276e-05 -2.112329333035334 -0.0046991162645373345
| 10> C 1.2007480519347022 -1.4066458533882513 -0.0037356704027784477
| 11> C 1.223766803210124 -0.012262737195055592 -0.0009968206934344137
| 12> C -1.263053627637041e-05 0.6908459996022234 -0.0008190195332326422
| 13> N -3.806605970088511e-05 2.0832503108065934 -0.06491668194993035
| 14> C 2.525214236596182 0.7383199549484221 -0.0027668673928520995
| 15> H -3.3681418853783955 0.043665781274870495 -0.023289629089473136
| 16> H -2.6333353474972543 1.3688666425747722 0.8894538225660044
| 17> H -2.6104083356754306 1.4004769222942992 -0.8733935542796901
| 18> H -2.145996557870661 -1.9434087567904967 -0.00405527557668886
| 19> H 6.192935032405661e-05 -3.1976939692785353 -0.007130518689889757
| 20> H 2.146072500446025 -1.9433269350129667 -0.0040126840197136394
| 21> H -0.8349666726310823 2.52548359194531 0.29113673891474057
| 22> H 0.8348644276810089 2.525516224083359 0.29115648887724954
| 23> H 3.3681414529940255 0.043797607634782645 -0.023290542073591186
| 24> H 2.6103452218266185 1.4006394801803292 -0.8732882608629671
| 25> H 2.6332933796291957 1.368904783022591 0.8895572166179455
| 26> *
| 27>
| 28>                          ****END OF INPUT****

CARTESIAN COORDINATES (ANGSTROEM)
---------------------------------
  C     -2.525241    0.738222   -0.002826
  C     -1.223765   -0.012309   -0.001021
  C     -1.200692   -1.406692   -0.003759
  C      0.000041   -2.112329   -0.004699
  C      1.200748   -1.406646   -0.003736
  C      1.223767   -0.012263   -0.000997
  C     -0.000013    0.690846   -0.000819
  N     -0.000038    2.083250   -0.064917
  C      2.525214    0.738320   -0.002767
  H     -3.368142    0.043666   -0.023290
  H     -2.633335    1.368867    0.889454
  H     -2.610408    1.400477   -0.873394
  H     -2.145997   -1.943409   -0.004055
  H      0.000062   -3.197694   -0.007131
  H      2.146073   -1.943327   -0.004013
  H     -0.834967    2.525484    0.291137
  H      0.834864    2.525516    0.291156
  H      3.368141    0.043798   -0.023291
  H      2.610345    1.400639   -0.873288
  H      2.633293    1.368905    0.889557

 Total Charge           Charge          ....    0
 Multiplicity           Mult            ....    1
 Number of Electrons    NEL             ....   66
 Basis Dimension        Dim             ....  345

ORBITAL ENERGIES
----------------

  NO   OCC          E(Eh)            E(eV)
   0   2.0000     -16.529409      -449.7881
   1   2.0000     -12.081282      -328.7484
   2   2.0000     -12.047212      -327.8213
   3   2.0000     -12.046888      -327.8125
   4   2.0000     -12.044231      -327.7402
   5   2.0000     -12.044062      -327.7356
   6   2.0000     -12.038632      -327.5878
   7   2.0000     -12.038595      -327.5868
   8   2.0000     -12.031404      -327.3911
   9   2.0000      -1.488418       -40.5019
  10   2.0000      -1.365889       -37.1677
  11   2.0000      -1.298511       -35.3343
  12   2.0000      -1.264408       -34.4063
  13   2.0000      -1.193113       -32.4663
  14   2.0000      -1.184839       -32.2411
  15   2.0000      -1.095317       -29.8051
  16   2.0000      -1.076648       -29.2971
  17   2.0000      -1.000817       -27.2336
  18   2.0000      -1.000608       -27.2279
  19   2.0000      -0.930618       -25.3234
  20   2.0000      -0.921053       -25.0631
  21   2.0000      -0.881627       -23.9903
  22   2.0000      -0.861775       -23.4501
  23   2.0000      -0.849457       -23.1149
  24   2.0000      -0.839234       -22.8367
  25   2.0000      -0.833294       -22.6751
  26   2.0000      -0.817177       -22.2365
  27   2.0000      -0.807042       -21.9607
  28   2.0000      -0.799659       -21.7598
  29   2.0000      -0.799275       -21.7494
  30   2.0000      -0.732631       -19.9359
  31   2.0000      -0.624037       -16.9809
  32   2.0000      -0.605261       -16.4700
  33   0.0000      -0.229638        -6.2488
  34   0.0000      -0.229437        -6.2433
  35   0.0000      -0.085646        -2.3305
  36   0.0000      -0.065782        -1.7900
  37   0.0000      -0.041144        -1.1196

MULLIKEN ATOMIC CHARGES
-----------------------
   0 C :   -0.434160
   1 C :    0.062597
   2 C :   -0.165720
   3 C :   -0.153002
   4 C :   -0.165653
   5 C :    0.062615
   6 C :    0.140131
   7 N :   -0.428636
   8 C :   -0.434117
   9 H :    0.119256
  10 H :    0.117026
  11 H :    0.141161
  12 H :    0.102308
  13 H :    0.107586
  14 H :    0.102395
  15 H :    0.224390
  16 H :    0.224390
  17 H :    0.119243
  18 H :    0.141157
  19 H :    0.117034
Sum of atomic charges:    0.0000000

LOEWDIN ATOMIC CHARGES
----------------------
   0 C :   -0.261437
   1 C :   -0.161034
   2 C :   -0.125790
   3 C :   -0.165024
   4 C :   -0.125790
   5 C :   -0.161032
   6 C :   -0.182186
   7 N :   -0.043548
   8 C :   -0.261438
   9 H :    0.126645
  10 H :    0.120124
  11 H :    0.126232
  12 H :    0.141580
  13 H :    0.138135
  14 H :    0.141581
  15 H :    0.159990
  16 H :    0.159991
  17 H :    0.126644
  18 H :    0.126231
  19 H :    0.120126

  Mayer bond orders larger than 0.100000
B(  0-C ,  1-C ) :   0.8973 B(  0-C ,  9-H ) :   0.9860 B(  0-C , 10-H ) :   0.9810
B(  0-C , 11-H ) :   0.9829 B(  1-C ,  2-C ) :   1.4383 B(  1-C ,  6-C ) :   1.3601
B(  2-C ,  3-C ) :   1.4348 B(  2-C , 12-H ) :   0.9730 B(  3-C ,  4-C ) :   1.4349
B(  3-C , 13-H ) :   0.9854 B(  4-C ,  5-C ) :   1.4384 B(  4-C , 14-H ) :   0.9729
B(  5-C ,  6-C ) :   1.3601 B(  5-C ,  8-C ) :   0.8973 B(  6-C ,  7-N ) :   1.0640
B(  7-N , 15-H ) :   0.9255 B(  7-N , 16-H ) :   0.9255 B(  8-C , 17-H ) :   0.9860
B(  8-C , 18-H ) :   0.9828 B(  8-C , 19-H ) :   0.9809

FINAL SINGLE POINT ENERGY      -366.254367504306

DIPOLE MOMENT
-------------

Method             : SCF
Type of density    : Electron Density
Multiplicity       :   1
Irrep              :   0
Energy             :  -366.2665807127057178 Eh
Relativity type    :
Basis              : AO
                                X                 Y                 Z
Electronic contribution:      0.000062742      -2.871346187      -0.214596831
Nuclear contribution   :     -0.000075424       3.435354848       0.569408062
                        -----------------------------------------
Total Dipole Moment    :     -0.000012682       0.564008661       0.354811231
                        -----------------------------------------
Magnitude (a.u.)       :      0.666330833
Magnitude (Debye)      :      1.693678380

Rotational constants in cm-1:             0.075725             0.058446             0.033426
Rotational constants in MHz :          2270.171041          1752.173596          1002.092159

                             ****ORCA TERMINATED NORMALLY****
TOTAL RUN TIME: 0 days 0 hours 3 minutes 56 seconds 949 msec
