                         Program Version 6.0.0  -   RELEASE  -
|  1> ! wb97x-v def2-tzvp def2/J RIJCOSX DEFGRID2 scfconv7 GCP(DFT/TZ) printgap
|  2> %output
|  3>     printlevel normal
|  4> end
|  5> %cpcm
|  6>     smd true
|  7>     smdsolvent "water"
|  8> end
|  9> * xyz 0 1
| 10> C -2.525241320096685 0.7382223074181721 -0.002825680862911457
| 11> C -1.223764537411005 -0.01230914543681007 -0.0010210956900976926
| 12> C -1.2006921313531025 -1.4066921436214872 -0.003759478465303434
| 13> C 4.1212160768075276e-05 -2.112329333035334 -0.0046991162645373345
| 14> C 1.2007480519347022 -1.4066458533882513 -0.0037356704027784477
| 15> C 1.223766803210124 -0.012262737195055592 -0.0009968206934344137
| 16> C -1.263053627637041e-05 0.6908459996022234 -0.0008190195332326422
| 17> N -3.806605970088511e-05 2.0832503108065934 -0.06491668194993035
| 18> C 2.525214236596182 0.7383199549484221 -0.0027668673928520995
| 19> H -3.3681418853783955 0.043665781274870495 -0.023289629089473136
| 20> H -2.6333353474972543 1.3688666425747722 0.8894538225660044
| 21> H -2.6104083356754306 1.4004769222942992 -0.8733935542796901
| 22> H -2.145996557870661 -1.9434087567904967 -0.00405527557668886
| 23> H 6.192935032405661e-05 -3.1976939692785353 -0.007130518689889757
| 24> H 2.146072500446025 -1.9433269350129667 -0.0040126840197136394
| 25> H -0.8349666726310823 2.52548359194531 0.29113673891474057
| 26> H 0.8348644276810089 2.525516224083359 0.29115648887724954
| 27> H 3.3681414529940255 0.043797607634782645 -0.023290542073591186
| 28> H 2.6103452218266185 1.4006394801803292 -0.8732882608629671
| 29> H 2.6332933796291957 1.368904783022591 0.8895572166179455
| 30> *
| 31>
| 32>                          ****END OF INPUT****

CARTESIAN COORDINATES (ANGSTROEM)
---------------------------------
  C     -2.525241    0.738222   -0.002826
  C     -1.223765   -0.012309   -0.001021
  C     -1.200692   -1.406692   -0.003759
  C      0.000041   -2.112329   -0.004699
  C      1.200748   -1.406646   -0.003736
  C      1.223767   -0.012263   -0.000997
  C     -0.000013    0.690846   -0.000819
  N     -0.000038    2.083250   -0.064917
  C      2.525214    0.738320   -0.002767
  H     -3.368142    0.043666   -0.023290
  H     -2.633335    1.368867    0.889454
  H     -2.610408    1.400477   -0.873394
  H     -2.145997   -1.943409   -0.004055
  H      0.000062   -3.197694   -0.007131
  H      2.146073   -1.943327   -0.004013
  H     -0.834967    2.525484    0.291137
  H      0.834864    2.525516    0.291156
  H      3.368141    0.043798   -0.023291
  H      2.610345    1.400639   -0.873288
  H      2.633293    1.368905    0.889557

 Total Charge           Charge          ....    0
 Multiplicity           Mult            ....    1
 Number of Electrons    NEL             ....   66
 Basis Dimension        Dim             ....  345

ORBITAL ENERGIES
----------------

  NO   OCC          E(Eh)            E(eV)
   0   2.0000     -16.520252      -449.5389
   1   2.0000     -12.081543      -328.7555
   2   2.0000     -12.048136      -327.8464
   3   2.0000     -12.047735      -327.8355
   4   2.0000     -12.039792      -327.6194
   5   2.0000     -12.039711      -327.6172
   6   2.0000     -12.034007      -327.4620
   7   2.0000     -12.033982      -327.4613
   8   2.0000     -12.033509      -327.4484
   9   2.0000      -1.481629       -40.3172
  10   2.0000      -1.367556       -37.2131
  11   2.0000      -1.297399       -35.3040
  12   2.0000      -1.264374       -34.4054
  13   2.0000      -1.187196       -32.3053
  14   2.0000      -1.181685       -32.1553
  15   2.0000      -1.093768       -29.7629
  16   2.0000      -1.073867       -29.2214
  17   2.0000      -0.997255       -27.1367
  18   2.0000      -0.994758       -27.0688
  19   2.0000      -0.927661       -25.2429
  20   2.0000      -0.919661       -25.0253
  21   2.0000      -0.879201       -23.9243
  22   2.0000      -0.859114       -23.3777
  23   2.0000      -0.844176       -22.9712
  24   2.0000      -0.834213       -22.7001
  25   2.0000      -0.824088       -22.4246
  26   2.0000      -0.809997       -22.0411
  27   2.0000      -0.800606       -21.7856
  28   2.0000      -0.795721       -21.6527
  29   2.0000      -0.793626       -21.5957
  30   2.0000      -0.735188       -20.0055
  31   2.0000      -0.627037       -17.0625
  32   2.0000      -0.607259       -16.5244
  33   0.0000      -0.232998        -6.3402
  34   0.0000      -0.232396        -6.3238
  35   0.0000      -0.078394        -2.1332
  36   0.0000      -0.067425        -1.8347
  37   0.0000      -0.026498        -0.7211

MULLIKEN ATOMIC CHARGES
-----------------------
   0 C :   -0.442861
   1 C :    0.003337
   2 C :   -0.213280
   3 C :   -0.215245
   4 C :   -0.213201
   5 C :    0.003346
   6 C :    0.140451
   7 N :   -0.484481
   8 C :   -0.442806
   9 H :    0.143047
  10 H :    0.145428
  11 H :    0.146410
  12 H :    0.150831
  13 H :    0.152247
  14 H :    0.150918
  15 H :    0.270492
  16 H :    0.270493
  17 H :    0.143035
  18 H :    0.146406
  19 H :    0.145432
Sum of atomic charges:    0.0000000

LOEWDIN ATOMIC CHARGES
----------------------
   0 C :   -0.261018
   1 C :   -0.170254
   2 C :   -0.142162
   3 C :   -0.187685
   4 C :   -0.142162
   5 C :   -0.170252
   6 C :   -0.192573
   7 N :   -0.048678
   8 C :   -0.261019
   9 H :    0.130954
  10 H :    0.129981
  11 H :    0.129569
  12 H :    0.150887
  13 H :    0.145512
  14 H :    0.150887
  15 H :    0.173754
  16 H :    0.173754
  17 H :    0.130953
  18 H :    0.129569
  19 H :    0.129982

  Mayer bond orders larger than 0.100000
B(  0-C ,  1-C ) :   0.9358 B(  0-C ,  9-H ) :   0.9821 B(  0-C , 10-H ) :   0.9699
B(  0-C , 11-H ) :   0.9756 B(  1-C ,  2-C ) :   1.4138 B(  1-C ,  6-C ) :   1.3397
B(  2-C ,  3-C ) :   1.4066 B(  2-C , 12-H ) :   0.9773 B(  3-C ,  4-C ) :   1.4067
B(  3-C , 13-H ) :   0.9926 B(  4-C ,  5-C ) :   1.4138 B(  4-C , 14-H ) :   0.9771
B(  5-C ,  6-C ) :   1.3397 B(  5-C ,  8-C ) :   0.9358 B(  6-C ,  7-N ) :   1.1233
B(  7-N , 15-H ) :   0.9080 B(  7-N , 16-H ) :   0.9080 B(  8-C , 17-H ) :   0.9821
B(  8-C , 18-H ) :   0.9756 B(  8-C , 19-H ) :   0.9699

FINAL SINGLE POINT ENERGY      -366.261820491256

DIPOLE MOMENT
-------------

Method             : SCF
Type of density    : Electron Density
Multiplicity       :   1
Irrep              :   0
Energy             :  -366.2740336996556607 Eh
Relativity type    :
Basis              : AO
                                X                 Y                 Z
Electronic contribution:      0.000054753      -2.548736416      -0.041309781
Nuclear contribution   :     -0.000075424       3.435354848       0.569408062
                        -----------------------------------------
Total Dipole Moment    :     -0.000020671       0.886618432       0.528098281
                        -----------------------------------------
Magnitude (a.u.)       :      1.031978700
Magnitude (Debye)      :      2.623081397

Rotational constants in cm-1:             0.075725             0.058446             0.033426
Rotational constants in MHz :          2270.171041          1752.173596          1002.092159

                             ****ORCA TERMINATED NORMALLY****
TOTAL RUN TIME: 0 days 0 hours 4 minutes 21 seconds 861 msec
