                         Program Version 6.0.0  -   RELEASE  -
|  1> ! wb97x-v def2-tzvp def2/J RIJCOSX DEFGRID2 scfconv7 GCP(DFT/TZ) printgap
|  2> %output
|  3>     printlevel normal
|  4> end
|  5> * xyz 0 1
|  6> C -1.1755310279468136 0.2411589552584032 -8.383285544174764e-06
|  7> O 8.847609970968314e-06 -0.5685632437097337 -3.5293038378162785e-05
|  8> C 1.1755150393781777 0.24120763096677747 -5.516302103022723e-07
|  9> H -1.2147584378985232 0.8799450501305931 -0.8943550185045884
| 10> H -1.2147531698915321 0.8799020310997161 0.8943694479973772
| 11> H -2.0367555868809224 -0.4313993504222964 -2.2364921080699303e-05
| 12> H 2.0367684714850465 -0.4313141133954331 -9.823347227896632e-05
| 13> H 1.214746018389768 0.8798882477065095 0.8944215055326806
| 14> H 1.2146790617788468 0.8800602993244927 -0.8943023812824005
| 15> *
| 16>
| 17>                          ****END OF INPUT****

CARTESIAN COORDINATES (ANGSTROEM)
---------------------------------
  C     -1.175531    0.241159   -0.000008
  O      0.000009   -0.568563   -0.000035
  C      1.175515    0.241208   -0.000001
  H     -1.214758    0.879945   -0.894355
  H     -1.214753    0.879902    0.894369
  H     -2.036756   -0.431399   -0.000022
  H      2.036768   -0.431314   -0.000098
  H      1.214746    0.879888    0.894422
  H      1.214679    0.880060   -0.894302

 Total Charge           Charge          ....    0
 Multiplicity           Mult            ....    1
 Number of Electrons    NEL             ....   26
 Basis Dimension        Dim             ....  129

ORBITAL ENERGIES
----------------

  NO   OCC          E(Eh)            E(eV)
   0   2.0000     -21.673734      -589.7723
   1   2.0000     -12.086992      -328.9038
   2   2.0000     -12.086758      -328.8974
   3   2.0000      -1.676420       -45.6177
   4   2.0000      -1.246137       -33.9091
   5   2.0000      -1.145560       -31.1723
   6   2.0000      -0.983110       -26.7518
   7   2.0000      -0.964414       -26.2431
   8   2.0000      -0.962949       -26.2032
   9   2.0000      -0.826602       -22.4930
  10   2.0000      -0.816519       -22.2186
  11   2.0000      -0.815913       -22.2021
  12   2.0000      -0.773960       -21.0605
  13   0.0000      -0.154867        -4.2141
  14   0.0000      -0.096242        -2.6189
  15   0.0000      -0.008612        -0.2344
  16   0.0000       0.027177         0.7395
  17   0.0000       0.031712         0.8629

MULLIKEN ATOMIC CHARGES
-----------------------
   0 C :   -0.166030
   1 O :   -0.302275
   2 C :   -0.166035
   3 H :    0.097353
   4 H :    0.097350
   5 H :    0.122465
   6 H :    0.122466
   7 H :    0.097353
   8 H :    0.097352
Sum of atomic charges:   -0.0000000

LOEWDIN ATOMIC CHARGES
----------------------
   0 C :   -0.345107
   1 O :    0.086944
   2 C :   -0.345107
   3 H :    0.096733
   4 H :    0.096733
   5 H :    0.108169
   6 H :    0.108169
   7 H :    0.096733
   8 H :    0.096733

  Mayer bond orders larger than 0.100000
B(  0-C ,  1-O ) :   0.9981 B(  0-C ,  3-H ) :   0.9765 B(  0-C ,  4-H ) :   0.9765
B(  0-C ,  5-H ) :   0.9782 B(  1-O ,  2-C ) :   0.9981 B(  2-C ,  6-H ) :   0.9782
B(  2-C ,  7-H ) :   0.9765 B(  2-C ,  8-H ) :   0.9765

FINAL SINGLE POINT ENERGY      -155.028848013649

DIPOLE MOMENT
-------------

Method             : SCF
Type of density    : Electron Density
Multiplicity       :   1
Irrep              :   0
Energy             :  -155.0350929851485091 Eh
Relativity type    :
Basis              : AO
                                X                 Y                 Z
Electronic contribution:      0.000042164      -2.019948340      -0.000074256
Nuclear contribution   :     -0.000053680       2.560897462       0.000092355
                        -----------------------------------------
Total Dipole Moment    :     -0.000011517       0.540949122       0.000018099
                        -----------------------------------------
Magnitude (a.u.)       :      0.540949123
Magnitude (Debye)      :      1.374983398

Rotational constants in cm-1:             1.269110             0.332283             0.292843
Rotational constants in MHz :         38046.949948          9961.603207          8779.202654

                             ****ORCA TERMINATED NORMALLY****
TOTAL RUN TIME: 0 days 0 hours 0 minutes 21 seconds 653 msec
