                         Program Version 6.0.0  -   RELEASE  -
|  1> ! wb97x-v def2-tzvp def2/J RIJCOSX DEFGRID2 scfconv7 GCP(DFT/TZ) printgap
|  2> %output
|  3>     printlevel normal
|  4> end
|  5> %cpcm
|  6>     smd true
|  7>     smdsolvent "water"
|  8> end
|  9> * xyz 0 1
| 10> C -1.1755310279468136 0.2411589552584032 -8.383285544174764e-06
| 11> O 8.847609970968314e-06 -0.5685632437097337 -3.5293038378162785e-05
| 12> C 1.1755150393781777 0.24120763096677747 -5.516302103022723e-07
| 13> H -1.2147584378985232 0.8799450501305931 -0.8943550185045884
| 14> H -1.2147531698915321 0.8799020310997161 0.8943694479973772
| 15> H -2.0367555868809224 -0.4313993504222964 -2.2364921080699303e-05
| 16> H 2.0367684714850465 -0.4313141133954331 -9.823347227896632e-05
| 17> H 1.214746018389768 0.8798882477065095 0.8944215055326806
| 18> H 1.2146790617788468 0.8800602993244927 -0.8943023812824005
| 19> *
| 20>
| 21>                          ****END OF INPUT****

CARTESIAN COORDINATES (ANGSTROEM)
---------------------------------
  C     -1.175531    0.241159   -0.000008
  O      0.000009   -0.568563   -0.000035
  C      1.175515    0.241208   -0.000001
  H     -1.214758    0.879945   -0.894355
  H     -1.214753    0.879902    0.894369
  H     -2.036756   -0.431399   -0.000022
  H      2.036768   -0.431314   -0.000098
  H      1.214746    0.879888    0.894422
  H      1.214679    0.880060   -0.894302

 Total Charge           Charge          ....    0
 Multiplicity           Mult            ....    1
 Number of Electrons    NEL             ....   26
 Basis Dimension        Dim             ....  129

ORBITAL ENERGIES
----------------

  NO   OCC          E(Eh)            E(eV)
   0   2.0000     -21.679143      -589.9195
   1   2.0000     -12.078916      -328.6840
   2   2.0000     -12.078687      -328.6778
   3   2.0000      -1.681493       -45.7558
   4   2.0000      -1.243954       -33.8497
   5   2.0000      -1.140685       -31.0396
   6   2.0000      -0.980363       -26.6770
   7   2.0000      -0.967381       -26.3238
   8   2.0000      -0.966057       -26.2877
   9   2.0000      -0.818299       -22.2670
  10   2.0000      -0.811644       -22.0860
  11   2.0000      -0.808653       -22.0046
  12   2.0000      -0.771164       -20.9844
  13   0.0000      -0.150665        -4.0998
  14   0.0000      -0.092760        -2.5241
  15   0.0000       0.004678         0.1273
  16   0.0000       0.041786         1.1371
  17   0.0000       0.042333         1.1519

MULLIKEN ATOMIC CHARGES
-----------------------
   0 C :   -0.195356
   1 O :   -0.386220
   2 C :   -0.195360
   3 H :    0.123891
   4 H :    0.123889
   5 H :    0.140686
   6 H :    0.140687
   7 H :    0.123891
   8 H :    0.123892
Sum of atomic charges:   -0.0000000

LOEWDIN ATOMIC CHARGES
----------------------
   0 C :   -0.345707
   1 O :    0.047845
   2 C :   -0.345708
   3 H :    0.105017
   4 H :    0.105017
   5 H :    0.111750
   6 H :    0.111751
   7 H :    0.105017
   8 H :    0.105018

  Mayer bond orders larger than 0.100000
B(  0-C ,  1-O ) :   0.9596 B(  0-C ,  3-H ) :   0.9756 B(  0-C ,  4-H ) :   0.9756
B(  0-C ,  5-H ) :   0.9716 B(  1-O ,  2-C ) :   0.9596 B(  2-C ,  6-H ) :   0.9716
B(  2-C ,  7-H ) :   0.9756 B(  2-C ,  8-H ) :   0.9756

FINAL SINGLE POINT ENERGY      -155.031008467865

DIPOLE MOMENT
-------------

Method             : SCF
Type of density    : Electron Density
Multiplicity       :   1
Irrep              :   0
Energy             :  -155.0372534393648607 Eh
Relativity type    :
Basis              : AO
                                X                 Y                 Z
Electronic contribution:      0.000037049      -1.782731338      -0.000066601
Nuclear contribution   :     -0.000053680       2.560897462       0.000092355
                        -----------------------------------------
Total Dipole Moment    :     -0.000016631       0.778166124       0.000025754
                        -----------------------------------------
Magnitude (a.u.)       :      0.778166124
Magnitude (Debye)      :      1.977941099

Rotational constants in cm-1:             1.269110             0.332283             0.292843
Rotational constants in MHz :         38046.949948          9961.603207          8779.202654

                             ****ORCA TERMINATED NORMALLY****
TOTAL RUN TIME: 0 days 0 hours 0 minutes 22 seconds 271 msec
