                         Program Version 6.0.0  -   RELEASE  -
|  1> ! pbe def2-sv(p) def2/J RI DEFGRID1 loosescf d4 GCP(DFT/SV(P)) printgap
|  2> %output
|  3>     printlevel normal
|  4> end
|  5> * xyz 0 1
|  6> C -2.3171089976 -0.1981153344 0.5672335768
|  7> C -1.2803128005 -0.5839996911 -0.4895536614
|  8> C 0.0085150783 0.1555020444 -0.2410811243
|  9> O 0.1391548396 1.3610667558 -0.2818087354
| 10> O 1.0039868815 -0.6737462733 0.0508181657
| 11> C 2.287374531 -0.1058017055 0.3272646902
| 12> H -1.9917996644 -0.5180726757 1.5537166953
| 13> H -2.4505303887 0.8808644273 0.5785699646
| 14> H -3.2684423028 -0.6699089346 0.3422730034
| 15> H -1.6459699221 -0.2970111476 -1.4763820925
| 16> H -1.0796075779 -1.6539039279 -0.4677601531
| 17> H 2.1863077148 0.7172749617 1.0356690403
| 18> H 2.730738937 0.2706043372 -0.5950938136
| 19> H 2.8830094608 -0.9123953099 0.7429877259
| 20> *
| 21>
| 22>                          ****END OF INPUT****

CARTESIAN COORDINATES (ANGSTROEM)
---------------------------------
  C     -2.317109   -0.198115    0.567234
  C     -1.280313   -0.584000   -0.489554
  C      0.008515    0.155502   -0.241081
  O      0.139155    1.361067   -0.281809
  O      1.003987   -0.673746    0.050818
  C      2.287375   -0.105802    0.327265
  H     -1.991800   -0.518073    1.553717
  H     -2.450530    0.880864    0.578570
  H     -3.268442   -0.669909    0.342273
  H     -1.645970   -0.297011   -1.476382
  H     -1.079608   -1.653904   -0.467760
  H      2.186308    0.717275    1.035669
  H      2.730739    0.270604   -0.595094
  H      2.883009   -0.912395    0.742988

 Total Charge           Charge          ....    0
 Multiplicity           Mult            ....    1
 Number of Electrons    NEL             ....   48
 Basis Dimension        Dim             ....  100

ORBITAL ENERGIES
----------------

  NO   OCC          E(Eh)            E(eV)
   0   2.0000     -18.800088      -511.5764
   1   2.0000     -18.730894      -509.6936
   2   2.0000     -10.003894      -272.2198
   3   2.0000      -9.941619      -270.5252
   4   2.0000      -9.898834      -269.3610
   5   2.0000      -9.885271      -268.9919
   6   2.0000      -1.005309       -27.3558
   7   2.0000      -0.908021       -24.7085
   8   2.0000      -0.714241       -19.4355
   9   2.0000      -0.658533       -17.9196
  10   2.0000      -0.573599       -15.6084
  11   2.0000      -0.505277       -13.7493
  12   2.0000      -0.448882       -12.2147
  13   2.0000      -0.434030       -11.8106
  14   2.0000      -0.421689       -11.4747
  15   2.0000      -0.396157       -10.7800
  16   2.0000      -0.377238       -10.2652
  17   2.0000      -0.360032        -9.7970
  18   2.0000      -0.333445        -9.0735
  19   2.0000      -0.320272        -8.7151
  20   2.0000      -0.309722        -8.4280
  21   2.0000      -0.297958        -8.1078
  22   2.0000      -0.257400        -7.0042
  23   2.0000      -0.217188        -5.9100
  24   0.0000      -0.020205        -0.5498
  25   0.0000       0.046577         1.2674
  26   0.0000       0.064277         1.7491
  27   0.0000       0.084891         2.3100
  28   0.0000       0.093145         2.5346

MULLIKEN ATOMIC CHARGES
-----------------------
   0 C :   -0.299542
   1 C :   -0.147727
   2 C :    0.093066
   3 O :   -0.214675
   4 O :   -0.237015
   5 C :   -0.112948
   6 H :    0.109060
   7 H :    0.123633
   8 H :    0.112211
   9 H :    0.113623
  10 H :    0.098114
  11 H :    0.122289
  12 H :    0.118741
  13 H :    0.121171
Sum of atomic charges:   -0.0000000

LOEWDIN ATOMIC CHARGES
----------------------
   0 C :   -0.331369
   1 C :   -0.252475
   2 C :    0.034648
   3 O :   -0.172809
   4 O :   -0.074006
   5 C :   -0.204497
   6 H :    0.121692
   7 H :    0.127544
   8 H :    0.122685
   9 H :    0.140148
  10 H :    0.127809
  11 H :    0.120519
  12 H :    0.119688
  13 H :    0.120420

  Mayer bond orders larger than 0.100000
B(  0-C ,  1-C ) :   1.1414 B(  0-C ,  6-H ) :   0.9568 B(  0-C ,  7-H ) :   0.9498
B(  0-C ,  8-H ) :   0.9534 B(  1-C ,  2-C ) :   1.0240 B(  1-C ,  9-H ) :   0.9034
B(  1-C , 10-H ) :   0.9136 B(  2-C ,  3-O ) :   2.0517 B(  2-C ,  4-O ) :   1.2221
B(  4-O ,  5-C ) :   0.9390 B(  5-C , 11-H ) :   0.9465 B(  5-C , 12-H ) :   0.9559
B(  5-C , 13-H ) :   0.9596

Dispersion correction           -0.009095076
FINAL SINGLE POINT ENERGY      -307.026546706760

DIPOLE MOMENT
-------------

Method             : SCF
Type of density    : Electron Density
Multiplicity       :   1
Irrep              :   0
Energy             :  -307.0807608761699612 Eh
Relativity type    :
Basis              : AO
                                X                 Y                 Z
Electronic contribution:      2.662943789       1.391961561      -1.477958032
Nuclear contribution   :     -2.456320011      -2.037398923       1.604579388
                        -----------------------------------------
Total Dipole Moment    :      0.206623778      -0.645437362       0.126621356
                        -----------------------------------------
Magnitude (a.u.)       :      0.689431463
Magnitude (Debye)      :      1.752395514

Rotational constants in cm-1:             0.260457             0.074676             0.065503
Rotational constants in MHz :          7808.309925          2238.722147          1963.744069

                             ****ORCA TERMINATED NORMALLY****
TOTAL RUN TIME: 0 days 0 hours 0 minutes 6 seconds 247 msec
