                         Program Version 6.0.0  -   RELEASE  -
|  1> ! pbe def2-sv(p) def2/J RI DEFGRID1 loosescf d4 GCP(DFT/SV(P)) printgap
|  2> %output
|  3>     printlevel normal
|  4> end
|  5> * xyz 0 1
|  6> C -2.8834797001 0.9058798105 0.6905711683
|  7> O -1.7052931596 0.7588417155 -0.1066244678
|  8> C -1.0410409088 -0.3887228695 -0.0715358638
|  9> O -1.37859337 -1.3348404544 0.6116463368
| 10> C 0.137129382 -0.3925595701 -1.0284158742
| 11> C 1.1691046698 -1.4607779597 -0.6341990826
| 12> C 2.3085178867 -0.8589933669 0.1955882187
| 13> C 1.7713866224 0.2614650328 1.0788895414
| 14> C 1.3374585994 1.4510480203 0.2153644411
| 15> C 0.7920049958 0.9860422379 -1.1407602188
| 16> H -3.0589980527 -0.0038657542 1.2658710068
| 17> H -3.7175424181 1.0980664258 0.0180719355
| 18> H -2.7310607409 1.7542879468 1.3551529155
| 19> H -0.3038489305 -0.6568389026 -1.9966721286
| 20> H 0.654081378 -2.2291188042 -0.0534437425
| 21> H 1.5748122461 -1.9335359983 -1.5283129279
| 22> H 2.7636747759 -1.6388940505 0.8068262981
| 23> H 3.0822759571 -0.4557288101 -0.4593166415
| 24> H 0.9209892509 -0.1222605055 1.6483999833
| 25> H 2.5287037536 0.5796250476 1.7965272645
| 26> H 0.5766314785 2.0252819162 0.7460097597
| 27> H 2.1882996587 2.1124104789 0.0456978842
| 28> H 0.0753802367 1.711560833 -1.5238126876
| 29> H 1.6057974362 0.903688225 -1.8614844605
| 30> *
| 31>
| 32>                          ****END OF INPUT****

CARTESIAN COORDINATES (ANGSTROEM)
---------------------------------
  C     -2.883480    0.905880    0.690571
  O     -1.705293    0.758842   -0.106624
  C     -1.041041   -0.388723   -0.071536
  O     -1.378593   -1.334840    0.611646
  C      0.137129   -0.392560   -1.028416
  C      1.169105   -1.460778   -0.634199
  C      2.308518   -0.858993    0.195588
  C      1.771387    0.261465    1.078890
  C      1.337459    1.451048    0.215364
  C      0.792005    0.986042   -1.140760
  H     -3.058998   -0.003866    1.265871
  H     -3.717542    1.098066    0.018072
  H     -2.731061    1.754288    1.355153
  H     -0.303849   -0.656839   -1.996672
  H      0.654081   -2.229119   -0.053444
  H      1.574812   -1.933536   -1.528313
  H      2.763675   -1.638894    0.806826
  H      3.082276   -0.455729   -0.459317
  H      0.920989   -0.122261    1.648400
  H      2.528704    0.579625    1.796527
  H      0.576631    2.025282    0.746010
  H      2.188300    2.112410    0.045698
  H      0.075380    1.711561   -1.523813
  H      1.605797    0.903688   -1.861484

 Total Charge           Charge          ....    0
 Multiplicity           Mult            ....    1
 Number of Electrons    NEL             ....   78
 Basis Dimension        Dim             ....  168

ORBITAL ENERGIES
----------------

  NO   OCC          E(Eh)            E(eV)
   0   2.0000     -18.800125      -511.5774
   1   2.0000     -18.734986      -509.8049
   2   2.0000     -10.005690      -272.2687
   3   2.0000      -9.940707      -270.5004
   4   2.0000      -9.903928      -269.4996
   5   2.0000      -9.884840      -268.9802
   6   2.0000      -9.880955      -268.8744
   7   2.0000      -9.879330      -268.8302
   8   2.0000      -9.879073      -268.8232
   9   2.0000      -9.878941      -268.8197
  10   2.0000      -1.007094       -27.4044
  11   2.0000      -0.910839       -24.7852
  12   2.0000      -0.760461       -20.6932
  13   2.0000      -0.689604       -18.7651
  14   2.0000      -0.663274       -18.0486
  15   2.0000      -0.650439       -17.6993
  16   2.0000      -0.566471       -15.4145
  17   2.0000      -0.542418       -14.7600
  18   2.0000      -0.509114       -13.8537
  19   2.0000      -0.475765       -12.9462
  20   2.0000      -0.460182       -12.5222
  21   2.0000      -0.442125       -12.0308
  22   2.0000      -0.425591       -11.5809
  23   2.0000      -0.411291       -11.1918
  24   2.0000      -0.406589       -11.0639
  25   2.0000      -0.382687       -10.4134
  26   2.0000      -0.363604        -9.8942
  27   2.0000      -0.356071        -9.6892
  28   2.0000      -0.333381        -9.0718
  29   2.0000      -0.332186        -9.0392
  30   2.0000      -0.327318        -8.9068
  31   2.0000      -0.322189        -8.7672
  32   2.0000      -0.309829        -8.4309
  33   2.0000      -0.298392        -8.1197
  34   2.0000      -0.267563        -7.2808
  35   2.0000      -0.261671        -7.1204
  36   2.0000      -0.260059        -7.0766
  37   2.0000      -0.253896        -6.9089
  38   2.0000      -0.220163        -5.9909
  39   0.0000      -0.020979        -0.5709
  40   0.0000       0.029477         0.8021
  41   0.0000       0.045854         1.2478
  42   0.0000       0.070066         1.9066
  43   0.0000       0.073646         2.0040

MULLIKEN ATOMIC CHARGES
-----------------------
   0 C :   -0.132207
   1 O :   -0.237627
   2 C :    0.141824
   3 O :   -0.194474
   4 C :   -0.240483
   5 C :   -0.109897
   6 C :   -0.154574
   7 C :   -0.167185
   8 C :   -0.175200
   9 C :   -0.066848
  10 H :    0.135473
  11 H :    0.122702
  12 H :    0.122715
  13 H :    0.102721
  14 H :    0.105286
  15 H :    0.076004
  16 H :    0.087628
  17 H :    0.073485
  18 H :    0.095525
  19 H :    0.085224
  20 H :    0.083165
  21 H :    0.080429
  22 H :    0.090283
  23 H :    0.076032
Sum of atomic charges:    0.0000000

LOEWDIN ATOMIC CHARGES
----------------------
   0 C :   -0.209126
   1 O :   -0.065692
   2 C :    0.042395
   3 O :   -0.166950
   4 C :   -0.167766
   5 C :   -0.219761
   6 C :   -0.224653
   7 C :   -0.233836
   8 C :   -0.231923
   9 C :   -0.218872
  10 H :    0.125135
  11 H :    0.120715
  12 H :    0.120054
  13 H :    0.144456
  14 H :    0.127470
  15 H :    0.117041
  16 H :    0.119535
  17 H :    0.112060
  18 H :    0.119506
  19 H :    0.117612
  20 H :    0.115528
  21 H :    0.116944
  22 H :    0.121760
  23 H :    0.118370

  Mayer bond orders larger than 0.100000
B(  0-C ,  1-O ) :   0.9362 B(  0-C , 10-H ) :   0.9283 B(  0-C , 11-H ) :   0.9608
B(  0-C , 12-H ) :   0.9593 B(  1-O ,  2-C ) :   1.2165 B(  2-C ,  3-O ) :   2.0578
B(  2-C ,  4-C ) :   0.9360 B(  4-C ,  5-C ) :   1.0883 B(  4-C ,  9-C ) :   1.1460
B(  4-C , 13-H ) :   0.8594 B(  5-C ,  6-C ) :   1.1494 B(  5-C , 14-H ) :   0.8995
B(  5-C , 15-H ) :   0.9130 B(  6-C ,  7-C ) :   1.1827 B(  6-C , 16-H ) :   0.9205
B(  6-C , 17-H ) :   0.9087 B(  7-C ,  8-C ) :   1.1488 B(  7-C , 18-H ) :   0.9010
B(  7-C , 19-H ) :   0.9206 B(  8-C ,  9-C ) :   1.1484 B(  8-C , 20-H ) :   0.9149
B(  8-C , 21-H ) :   0.9181 B(  9-C , 22-H ) :   0.9042 B(  9-C , 23-H ) :   0.8979

Dispersion correction           -0.024066679
FINAL SINGLE POINT ENERGY      -462.696282588933

DIPOLE MOMENT
-------------

Method             : SCF
Type of density    : Electron Density
Multiplicity       :   1
Irrep              :   0
Energy             :  -462.7846397560673495 Eh
Relativity type    :
Basis              : AO
                                X                 Y                 Z
Electronic contribution:     -5.865839135      -2.278169207      -0.476889371
Nuclear contribution   :      5.732632726       2.941693723       0.250955562
                        -----------------------------------------
Total Dipole Moment    :     -0.133206409       0.663524516      -0.225933808
                        -----------------------------------------
Magnitude (a.u.)       :      0.713480775
Magnitude (Debye)      :      1.813524008

Rotational constants in cm-1:             0.073734             0.034305             0.030172
Rotational constants in MHz :          2210.484366          1028.429695           904.547405

                             ****ORCA TERMINATED NORMALLY****
TOTAL RUN TIME: 0 days 0 hours 0 minutes 11 seconds 383 msec
