                         Program Version 6.0.0  -   RELEASE  -
|  1> ! pbe def2-sv(p) def2/J RI DEFGRID1 loosescf d4 GCP(DFT/SV(P)) printgap
|  2> %output
|  3>     printlevel normal
|  4> end
|  5> * xyz 0 1
|  6> C 2.4834171404 -0.478848174 0.2033910637
|  7> C 1.2461543924 0.230824481 -0.3396016504
|  8> C -0.0237560485 -0.1960328386 0.3857920041
|  9> H 0.0665108122 -0.0064745589 1.4577557907
| 10> C -0.4310288989 -1.6325526494 0.1262116312
| 11> Cl -1.3758737434 0.890807697 -0.1567824936
| 12> H 2.4433450411 -1.5448855985 0.0016586249
| 13> H 2.5685538838 -0.3290469024 1.2766875773
| 14> H 3.372872488 -0.0753670768 -0.2720773933
| 15> H 1.1369474613 0.023753334 -1.4056276715
| 16> H 1.37084656 1.3088082084 -0.2196436766
| 17> H 0.3180891518 -2.3004810078 0.5417111581
| 18> H -1.386128676 -1.8481323868 0.5978432181
| 19> H -0.5192863128 -1.816006914 -0.9416902466
| 20> *
| 21>
| 22>                          ****END OF INPUT****

CARTESIAN COORDINATES (ANGSTROEM)
---------------------------------
  C      2.483417   -0.478848    0.203391
  C      1.246154    0.230824   -0.339602
  C     -0.023756   -0.196033    0.385792
  H      0.066511   -0.006475    1.457756
  C     -0.431029   -1.632553    0.126212
  Cl    -1.375874    0.890808   -0.156782
  H      2.443345   -1.544886    0.001659
  H      2.568554   -0.329047    1.276688
  H      3.372872   -0.075367   -0.272077
  H      1.136947    0.023753   -1.405628
  H      1.370847    1.308808   -0.219644
  H      0.318089   -2.300481    0.541711
  H     -1.386129   -1.848132    0.597843
  H     -0.519286   -1.816007   -0.941690

 Total Charge           Charge          ....    0
 Multiplicity           Mult            ....    1
 Number of Electrons    NEL             ....   50
 Basis Dimension        Dim             ....   92

ORBITAL ENERGIES
----------------

  NO   OCC          E(Eh)            E(eV)
   0   2.0000    -100.609599     -2737.7264
   1   2.0000      -9.948555      -270.7140
   2   2.0000      -9.894677      -269.2478
   3   2.0000      -9.886530      -269.0262
   4   2.0000      -9.884575      -268.9730
   5   2.0000      -9.145474      -248.8610
   6   2.0000      -6.976768      -189.8475
   7   2.0000      -6.965271      -189.5347
   8   2.0000      -6.965241      -189.5338
   9   2.0000      -0.779012       -21.1980
  10   2.0000      -0.697604       -18.9828
  11   2.0000      -0.651270       -17.7220
  12   2.0000      -0.577372       -15.7111
  13   2.0000      -0.513869       -13.9831
  14   2.0000      -0.429783       -11.6950
  15   2.0000      -0.415579       -11.3085
  16   2.0000      -0.393301       -10.7023
  17   2.0000      -0.364438        -9.9169
  18   2.0000      -0.353128        -9.6091
  19   2.0000      -0.338435        -9.2093
  20   2.0000      -0.309568        -8.4238
  21   2.0000      -0.308178        -8.3860
  22   2.0000      -0.300316        -8.1720
  23   2.0000      -0.240918        -6.5557
  24   2.0000      -0.239824        -6.5260
  25   0.0000       0.005720         0.1556
  26   0.0000       0.038782         1.0553
  27   0.0000       0.064851         1.7647
  28   0.0000       0.076595         2.0842
  29   0.0000       0.088961         2.4207

MULLIKEN ATOMIC CHARGES
-----------------------
   0 C :   -0.292259
   1 C :   -0.124059
   2 C :   -0.195478
   3 H :    0.119873
   4 C :   -0.221133
   5 Cl:   -0.143719
   6 H :    0.110208
   7 H :    0.102860
   8 H :    0.112689
   9 H :    0.094039
  10 H :    0.099631
  11 H :    0.110962
  12 H :    0.117258
  13 H :    0.109129
Sum of atomic charges:    0.0000000

LOEWDIN ATOMIC CHARGES
----------------------
   0 C :   -0.341904
   1 C :   -0.246566
   2 C :   -0.184735
   3 H :    0.121863
   4 C :   -0.349939
   5 Cl:    0.018935
   6 H :    0.118650
   7 H :    0.119566
   8 H :    0.126106
   9 H :    0.120246
  10 H :    0.120875
  11 H :    0.125323
  12 H :    0.126532
  13 H :    0.125049

  Mayer bond orders larger than 0.100000
B(  0-C ,  1-C ) :   1.1391 B(  0-C ,  6-H ) :   0.9496 B(  0-C ,  7-H ) :   0.9529
B(  0-C ,  8-H ) :   0.9486 B(  1-C ,  2-C ) :   1.0639 B(  1-C ,  9-H ) :   0.9184
B(  1-C , 10-H ) :   0.9208 B(  2-C ,  3-H ) :   0.9120 B(  2-C ,  4-C ) :   1.1006
B(  2-C ,  5-Cl) :   1.0186 B(  4-C , 11-H ) :   0.9315 B(  4-C , 12-H ) :   0.9437
B(  4-C , 13-H ) :   0.9447

Dispersion correction           -0.010490271
FINAL SINGLE POINT ENERGY      -617.303895145122

DIPOLE MOMENT
-------------

Method             : SCF
Type of density    : Electron Density
Multiplicity       :   1
Irrep              :   0
Energy             :  -617.3504780361249686 Eh
Relativity type    :
Basis              : AO
                                X                 Y                 Z
Electronic contribution:    -10.031673145       6.918974271      -0.995550030
Nuclear contribution   :     10.638960841      -7.376130438       1.182953035
                        -----------------------------------------
Total Dipole Moment    :      0.607287696      -0.457156167       0.187403005
                        -----------------------------------------
Magnitude (a.u.)       :      0.782885683
Magnitude (Debye)      :      1.989937264

Rotational constants in cm-1:             0.224027             0.076906             0.061508
Rotational constants in MHz :          6716.152545          2305.585391          1843.950667

                             ****ORCA TERMINATED NORMALLY****
TOTAL RUN TIME: 0 days 0 hours 0 minutes 5 seconds 296 msec
