                         Program Version 6.0.0  -   RELEASE  -
|  1> ! pbe def2-sv(p) def2/J RI DEFGRID1 loosescf d4 GCP(DFT/SV(P)) printgap
|  2> %output
|  3>     printlevel normal
|  4> end
|  5> * xyz 0 1
|  6> C -2.495098133 0.0678003966 0.0008638709
|  7> C -1.2280994074 -0.7762083234 -0.0004272446
|  8> C 0.0181615388 0.0694271414 2.49983e-05
|  9> O 0.0531718741 1.2807169042 -0.0007363793
| 10> O 1.1147985291 -0.6876667469 -0.0004993629
| 11> C 2.3782135943 -0.0177457251 0.000783691
| 12> H -2.5250402148 0.7023737087 0.8827631865
| 13> H -2.5199831733 0.7117530953 -0.8743980378
| 14> H -3.3715349207 -0.5725824371 -0.0049202919
| 15> H -1.1873641396 -1.4207088731 -0.8802490678
| 16> H -1.1869756083 -1.4230485211 0.8776184442
| 17> H 2.4448934781 0.6558500329 -0.8543856203
| 18> H 3.1250503801 -0.8027893694 -0.0598185092
| 19> H 2.4919069845 0.5610819054 0.9181659542
| 20> *
| 21>
| 22>                          ****END OF INPUT****

CARTESIAN COORDINATES (ANGSTROEM)
---------------------------------
  C     -2.495098    0.067800    0.000864
  C     -1.228099   -0.776208   -0.000427
  C      0.018162    0.069427    0.000025
  O      0.053172    1.280717   -0.000736
  O      1.114799   -0.687667   -0.000499
  C      2.378214   -0.017746    0.000784
  H     -2.525040    0.702374    0.882763
  H     -2.519983    0.711753   -0.874398
  H     -3.371535   -0.572582   -0.004920
  H     -1.187364   -1.420709   -0.880249
  H     -1.186976   -1.423049    0.877618
  H      2.444893    0.655850   -0.854386
  H      3.125050   -0.802789   -0.059819
  H      2.491907    0.561082    0.918166

 Total Charge           Charge          ....    0
 Multiplicity           Mult            ....    1
 Number of Electrons    NEL             ....   48
 Basis Dimension        Dim             ....  100

ORBITAL ENERGIES
----------------

  NO   OCC          E(Eh)            E(eV)
   0   2.0000     -18.797313      -511.5009
   1   2.0000     -18.733904      -509.7755
   2   2.0000     -10.005158      -272.2542
   3   2.0000      -9.941337      -270.5175
   4   2.0000      -9.900845      -269.4157
   5   2.0000      -9.878354      -268.8037
   6   2.0000      -1.003926       -27.3182
   7   2.0000      -0.909758       -24.7558
   8   2.0000      -0.712673       -19.3928
   9   2.0000      -0.657902       -17.9024
  10   2.0000      -0.571597       -15.5540
  11   2.0000      -0.500491       -13.6191
  12   2.0000      -0.448265       -12.1979
  13   2.0000      -0.442819       -12.0497
  14   2.0000      -0.413608       -11.2548
  15   2.0000      -0.403859       -10.9896
  16   2.0000      -0.377030       -10.2595
  17   2.0000      -0.342358        -9.3160
  18   2.0000      -0.334883        -9.1126
  19   2.0000      -0.326463        -8.8835
  20   2.0000      -0.305187        -8.3045
  21   2.0000      -0.299001        -8.1362
  22   2.0000      -0.257431        -7.0051
  23   2.0000      -0.219741        -5.9794
  24   0.0000      -0.018547        -0.5047
  25   0.0000       0.041702         1.1348
  26   0.0000       0.063294         1.7223
  27   0.0000       0.082877         2.2552
  28   0.0000       0.095466         2.5978

MULLIKEN ATOMIC CHARGES
-----------------------
   0 C :   -0.264934
   1 C :   -0.193986
   2 C :    0.105642
   3 O :   -0.207142
   4 O :   -0.245882
   5 C :   -0.107475
   6 H :    0.112483
   7 H :    0.112675
   8 H :    0.101207
   9 H :    0.115142
  10 H :    0.115189
  11 H :    0.118960
  12 H :    0.120411
  13 H :    0.117709
Sum of atomic charges:    0.0000000

LOEWDIN ATOMIC CHARGES
----------------------
   0 C :   -0.336622
   1 C :   -0.259504
   2 C :    0.035698
   3 O :   -0.164264
   4 O :   -0.082020
   5 C :   -0.202690
   6 H :    0.125610
   7 H :    0.125692
   8 H :    0.120433
   9 H :    0.140060
  10 H :    0.139974
  11 H :    0.119043
  12 H :    0.120005
  13 H :    0.118587

  Mayer bond orders larger than 0.100000
B(  0-C ,  1-C ) :   1.1558 B(  0-C ,  6-H ) :   0.9549 B(  0-C ,  7-H ) :   0.9547
B(  0-C ,  8-H ) :   0.9483 B(  1-C ,  2-C ) :   1.0203 B(  1-C ,  9-H ) :   0.9030
B(  1-C , 10-H ) :   0.9036 B(  2-C ,  3-O ) :   2.0641 B(  2-C ,  4-O ) :   1.2079
B(  4-O ,  5-C ) :   0.9419 B(  5-C , 11-H ) :   0.9512 B(  5-C , 12-H ) :   0.9598
B(  5-C , 13-H ) :   0.9539

Dispersion correction           -0.009054590
FINAL SINGLE POINT ENERGY      -307.028054318238

DIPOLE MOMENT
-------------

Method             : SCF
Type of density    : Electron Density
Multiplicity       :   1
Irrep              :   0
Energy             :  -307.0824483094207835 Eh
Relativity type    :
Basis              : AO
                                X                 Y                 Z
Electronic contribution:      2.833176978       0.855710535      -0.003850804
Nuclear contribution   :     -2.542970030      -1.481076039       0.004462414
                        -----------------------------------------
Total Dipole Moment    :      0.290206948      -0.625365504       0.000611610
                        -----------------------------------------
Magnitude (a.u.)       :      0.689421830
Magnitude (Debye)      :      1.752371030

Rotational constants in cm-1:             0.320007             0.071822             0.060642
Rotational constants in MHz :          9593.574317          2153.168485          1817.993121

                             ****ORCA TERMINATED NORMALLY****
TOTAL RUN TIME: 0 days 0 hours 0 minutes 6 seconds 846 msec
