                         Program Version 6.0.0  -   RELEASE  -
|  1> ! wb97x-v def2-tzvp def2/J RIJCOSX DEFGRID2 scfconv7 GCP(DFT/TZ) printgap
|  2> %output
|  3>     printlevel normal
|  4> end
|  5> * xyz 0 1
|  6> C 1.8242159680409258 0.005461027134982212 1.0310345902185658
|  7> C 1.0128382550105635 -0.3586302314380498 -0.19442132410964494
|  8> H 1.105389333454149 -1.4300173375795806 -0.4175168339843156
|  9> C -0.4748854498916101 -0.10109082405685521 0.030288473421270546
| 10> F -1.2034987795563308 -0.3825764699263105 -1.0800806225285469
| 11> F -0.9659391764649631 -0.8726206284141993 1.0306928328423357
| 12> F -0.7384304576697936 1.1874818912154994 0.3525032131799861
| 13> O 1.458124975300931 0.43505545177443605 -1.29167631310159
| 14> H 2.8717564895277823 -0.24421932403928084 0.8486515501672675
| 15> H 1.482750649167326 -0.5567624716737556 1.903396738775875
| 16> H 1.7473108219533093 1.0757228446787461 1.2419107283135424
| 17> H 1.1541461386022693 0.02354644304322129 -2.1122812109855116
| 18> *
| 19>
| 20>                          ****END OF INPUT****

CARTESIAN COORDINATES (ANGSTROEM)
---------------------------------
  C      1.824216    0.005461    1.031035
  C      1.012838   -0.358630   -0.194421
  H      1.105389   -1.430017   -0.417517
  C     -0.474885   -0.101091    0.030288
  F     -1.203499   -0.382576   -1.080081
  F     -0.965939   -0.872621    1.030693
  F     -0.738430    1.187482    0.352503
  O      1.458125    0.435055   -1.291676
  H      2.871756   -0.244219    0.848652
  H      1.482751   -0.556762    1.903397
  H      1.747311    1.075723    1.241911
  H      1.154146    0.023546   -2.112281

 Total Charge           Charge          ....    0
 Multiplicity           Mult            ....    1
 Number of Electrons    NEL             ....   58
 Basis Dimension        Dim             ....  247

ORBITAL ENERGIES
----------------

  NO   OCC          E(Eh)            E(eV)
   0   2.0000     -27.600431      -751.0459
   1   2.0000     -27.600099      -751.0369
   2   2.0000     -27.595458      -750.9106
   3   2.0000     -21.699385      -590.4703
   4   2.0000     -12.297164      -334.6228
   5   2.0000     -12.137762      -330.2853
   6   2.0000     -12.057254      -328.0946
   7   2.0000      -2.058607       -56.0175
   8   2.0000      -2.012115       -54.7524
   9   2.0000      -2.008664       -54.6585
  10   2.0000      -1.704128       -46.3717
  11   2.0000      -1.394633       -37.9499
  12   2.0000      -1.305003       -35.5109
  13   2.0000      -1.255358       -34.1600
  14   2.0000      -1.253606       -34.1124
  15   2.0000      -1.203234       -32.7417
  16   2.0000      -1.163545       -31.6617
  17   2.0000      -1.163110       -31.6498
  18   2.0000      -1.151225       -31.3264
  19   2.0000      -1.148089       -31.2411
  20   2.0000      -1.146013       -31.1846
  21   2.0000      -1.144561       -31.1451
  22   2.0000      -1.076767       -29.3003
  23   2.0000      -0.996669       -27.1207
  24   2.0000      -0.967915       -26.3383
  25   2.0000      -0.886934       -24.1347
  26   2.0000      -0.868774       -23.6405
  27   2.0000      -0.837982       -22.8027
  28   2.0000      -0.814989       -22.1770
  29   0.0000      -0.276839        -7.5332
  30   0.0000      -0.264254        -7.1907
  31   0.0000      -0.231003        -6.2859
  32   0.0000      -0.119721        -3.2578
  33   0.0000      -0.063066        -1.7161

MULLIKEN ATOMIC CHARGES
-----------------------
   0 C :   -0.350289
   1 C :    0.052258
   2 H :    0.100739
   3 C :    0.423855
   4 F :   -0.174288
   5 F :   -0.166766
   6 F :   -0.159569
   7 O :   -0.432608
   8 H :    0.127486
   9 H :    0.127939
  10 H :    0.135626
  11 H :    0.315614
Sum of atomic charges:    0.0000000

LOEWDIN ATOMIC CHARGES
----------------------
   0 C :   -0.267259
   1 C :   -0.354099
   2 H :    0.146458
   3 C :   -0.631555
   4 F :    0.170872
   5 F :    0.179620
   6 F :    0.186672
   7 O :    0.002681
   8 H :    0.128286
   9 H :    0.129560
  10 H :    0.131230
  11 H :    0.177535

  Mayer bond orders larger than 0.100000
B(  0-C ,  1-C ) :   0.9820 B(  0-C ,  8-H ) :   0.9726 B(  0-C ,  9-H ) :   0.9680
B(  0-C , 10-H ) :   0.9699 B(  1-C ,  2-H ) :   0.9503 B(  1-C ,  3-C ) :   0.9841
B(  1-C ,  7-O ) :   1.0573 B(  3-C ,  4-F ) :   1.1341 B(  3-C ,  5-F ) :   1.1402
B(  3-C ,  6-F ) :   1.1521 B(  7-O , 11-H ) :   0.8916

FINAL SINGLE POINT ENERGY      -492.139366978120

DIPOLE MOMENT
-------------

Method             : SCF
Type of density    : Electron Density
Multiplicity       :   1
Irrep              :   0
Energy             :  -492.1531844303196408 Eh
Relativity type    :
Basis              : AO
                                X                 Y                 Z
Electronic contribution:     -9.874688942       0.345982483      -1.268508763
Nuclear contribution   :     10.477739644      -0.977003924       1.124664310
                        -----------------------------------------
Total Dipole Moment    :      0.603050702      -0.631021441      -0.143844454
                        -----------------------------------------
Magnitude (a.u.)       :      0.884618243
Magnitude (Debye)      :      2.248520881

Rotational constants in cm-1:             0.115955             0.079551             0.065124
Rotational constants in MHz :          3476.254290          2384.870340          1952.369907

                             ****ORCA TERMINATED NORMALLY****
TOTAL RUN TIME: 0 days 0 hours 1 minutes 15 seconds 334 msec
