                         Program Version 6.0.0  -   RELEASE  -
|  1> ! wb97x-v def2-tzvp def2/J RIJCOSX DEFGRID2 scfconv7 GCP(DFT/TZ) printgap
|  2> %output
|  3>     printlevel normal
|  4> end
|  5> %cpcm
|  6>     smd true
|  7>     smdsolvent "water"
|  8> end
|  9> * xyz 0 1
| 10> C 1.8242159680409258 0.005461027134982212 1.0310345902185658
| 11> C 1.0128382550105635 -0.3586302314380498 -0.19442132410964494
| 12> H 1.105389333454149 -1.4300173375795806 -0.4175168339843156
| 13> C -0.4748854498916101 -0.10109082405685521 0.030288473421270546
| 14> F -1.2034987795563308 -0.3825764699263105 -1.0800806225285469
| 15> F -0.9659391764649631 -0.8726206284141993 1.0306928328423357
| 16> F -0.7384304576697936 1.1874818912154994 0.3525032131799861
| 17> O 1.458124975300931 0.43505545177443605 -1.29167631310159
| 18> H 2.8717564895277823 -0.24421932403928084 0.8486515501672675
| 19> H 1.482750649167326 -0.5567624716737556 1.903396738775875
| 20> H 1.7473108219533093 1.0757228446787461 1.2419107283135424
| 21> H 1.1541461386022693 0.02354644304322129 -2.1122812109855116
| 22> *
| 23>
| 24>                          ****END OF INPUT****

CARTESIAN COORDINATES (ANGSTROEM)
---------------------------------
  C      1.824216    0.005461    1.031035
  C      1.012838   -0.358630   -0.194421
  H      1.105389   -1.430017   -0.417517
  C     -0.474885   -0.101091    0.030288
  F     -1.203499   -0.382576   -1.080081
  F     -0.965939   -0.872621    1.030693
  F     -0.738430    1.187482    0.352503
  O      1.458125    0.435055   -1.291676
  H      2.871756   -0.244219    0.848652
  H      1.482751   -0.556762    1.903397
  H      1.747311    1.075723    1.241911
  H      1.154146    0.023546   -2.112281

 Total Charge           Charge          ....    0
 Multiplicity           Mult            ....    1
 Number of Electrons    NEL             ....   58
 Basis Dimension        Dim             ....  247

ORBITAL ENERGIES
----------------

  NO   OCC          E(Eh)            E(eV)
   0   2.0000     -27.601085      -751.0637
   1   2.0000     -27.599979      -751.0336
   2   2.0000     -27.599660      -751.0249
   3   2.0000     -21.690533      -590.2294
   4   2.0000     -12.295185      -334.5690
   5   2.0000     -12.123128      -329.8871
   6   2.0000     -12.040678      -327.6435
   7   2.0000      -2.060214       -56.0613
   8   2.0000      -2.012898       -54.7737
   9   2.0000      -2.011700       -54.7411
  10   2.0000      -1.695193       -46.1285
  11   2.0000      -1.393420       -37.9169
  12   2.0000      -1.295119       -35.2420
  13   2.0000      -1.257009       -34.2050
  14   2.0000      -1.256111       -34.1805
  15   2.0000      -1.199243       -32.6331
  16   2.0000      -1.165511       -31.7152
  17   2.0000      -1.165200       -31.7067
  18   2.0000      -1.151744       -31.3405
  19   2.0000      -1.151192       -31.3255
  20   2.0000      -1.148411       -31.2498
  21   2.0000      -1.135460       -30.8974
  22   2.0000      -1.068180       -29.0666
  23   2.0000      -0.989534       -26.9266
  24   2.0000      -0.959016       -26.0961
  25   2.0000      -0.877054       -23.8658
  26   2.0000      -0.853915       -23.2362
  27   2.0000      -0.821599       -22.3568
  28   2.0000      -0.798713       -21.7341
  29   0.0000      -0.277172        -7.5422
  30   0.0000      -0.259129        -7.0513
  31   0.0000      -0.226690        -6.1686
  32   0.0000      -0.108208        -2.9445
  33   0.0000      -0.051269        -1.3951

MULLIKEN ATOMIC CHARGES
-----------------------
   0 C :   -0.388993
   1 C :    0.083856
   2 H :    0.141138
   3 C :    0.419999
   4 F :   -0.180170
   5 F :   -0.176708
   6 F :   -0.176731
   7 O :   -0.526730
   8 H :    0.148189
   9 H :    0.145215
  10 H :    0.138977
  11 H :    0.371958
Sum of atomic charges:    0.0000000

LOEWDIN ATOMIC CHARGES
----------------------
   0 C :   -0.271576
   1 C :   -0.344966
   2 H :    0.162054
   3 C :   -0.628187
   4 F :    0.166941
   5 F :    0.174469
   6 F :    0.174902
   7 O :   -0.029679
   8 H :    0.132868
   9 H :    0.134733
  10 H :    0.129699
  11 H :    0.198742

  Mayer bond orders larger than 0.100000
B(  0-C ,  1-C ) :   0.9815 B(  0-C ,  8-H ) :   0.9695 B(  0-C ,  9-H ) :   0.9651
B(  0-C , 10-H ) :   0.9630 B(  1-C ,  2-H ) :   0.9457 B(  1-C ,  3-C ) :   0.9889
B(  1-C ,  7-O ) :   1.0168 B(  3-C ,  4-F ) :   1.1399 B(  3-C ,  5-F ) :   1.1378
B(  3-C ,  6-F ) :   1.1358 B(  7-O , 11-H ) :   0.8565

FINAL SINGLE POINT ENERGY      -492.146457092938

DIPOLE MOMENT
-------------

Method             : SCF
Type of density    : Electron Density
Multiplicity       :   1
Irrep              :   0
Energy             :  -492.1602745451384067 Eh
Relativity type    :
Basis              : AO
                                X                 Y                 Z
Electronic contribution:     -9.798778701       0.064064886      -1.316916197
Nuclear contribution   :     10.477739644      -0.977003924       1.124664310
                        -----------------------------------------
Total Dipole Moment    :      0.678960942      -0.912939038      -0.192251887
                        -----------------------------------------
Magnitude (a.u.)       :      1.153865866
Magnitude (Debye)      :      2.932893950

Rotational constants in cm-1:             0.115955             0.079551             0.065124
Rotational constants in MHz :          3476.254290          2384.870340          1952.369907

                             ****ORCA TERMINATED NORMALLY****
TOTAL RUN TIME: 0 days 0 hours 1 minutes 28 seconds 150 msec
