                         Program Version 6.0.0  -   RELEASE  -
|  1> ! pbe def2-sv(p) def2/J RI DEFGRID1 loosescf d4 GCP(DFT/SV(P)) printgap
|  2> %output
|  3>     printlevel normal
|  4> end
|  5> * xyz 0 1
|  6> C -2.3647649584 -0.9651184787 0.3985050375
|  7> C -1.0673872356 -0.2618778585 0.8225584191
|  8> H -1.239070173 0.1821319027 1.8118426913
|  9> C -0.6844342661 0.8575685953 -0.1607122516
| 10> H -0.7463044563 0.4801152339 -1.1878844807
| 11> C 0.7553507252 1.3007326334 0.1428598399
| 12> H 0.8371295649 1.576877127 1.2017798455
| 13> C 1.7313452858 0.1326501436 -0.0936402846
| 14> H 2.1029288362 0.1809637155 -1.1268656853
| 15> C 0.9992552469 -1.2270503289 0.0485945235
| 16> H 1.7068243771 -1.9733589602 0.4485320394
| 17> O -0.01473395 -1.2085648563 1.0070802074
| 18> O 0.5707515269 -1.6290493359 -1.2204569403
| 19> O 2.7825044476 0.2682112621 0.8283898986
| 20> O 1.1110542071 2.4584255249 -0.5632874753
| 21> O -1.5969047857 1.9210941406 -0.0948982401
| 22> O -2.1670716684 -1.6288272581 -0.8322003605
| 23> H -3.1395652504 -0.1963846242 0.3074697825
| 24> H -2.6385866427 -1.6843152484 1.1789585505
| 25> H -0.3475168567 -1.9607534817 -1.1645931082
| 26> H 3.5142376673 -0.3196290957 0.5925633224
| 27> H 0.9866342888 2.3168657261 -1.5132533797
| 28> H -1.4013146514 2.4774766989 0.6729751461
| 29> H -3.0034150259 -2.0141940625 -1.1275490149
| 30> *
| 31>
| 32>                          ****END OF INPUT****

CARTESIAN COORDINATES (ANGSTROEM)
---------------------------------
  C     -2.364765   -0.965118    0.398505
  C     -1.067387   -0.261878    0.822558
  H     -1.239070    0.182132    1.811843
  C     -0.684434    0.857569   -0.160712
  H     -0.746304    0.480115   -1.187884
  C      0.755351    1.300733    0.142860
  H      0.837130    1.576877    1.201780
  C      1.731345    0.132650   -0.093640
  H      2.102929    0.180964   -1.126866
  C      0.999255   -1.227050    0.048595
  H      1.706824   -1.973359    0.448532
  O     -0.014734   -1.208565    1.007080
  O      0.570752   -1.629049   -1.220457
  O      2.782504    0.268211    0.828390
  O      1.111054    2.458426   -0.563287
  O     -1.596905    1.921094   -0.094898
  O     -2.167072   -1.628827   -0.832200
  H     -3.139565   -0.196385    0.307470
  H     -2.638587   -1.684315    1.178959
  H     -0.347517   -1.960753   -1.164593
  H      3.514238   -0.319629    0.592563
  H      0.986634    2.316866   -1.513253
  H     -1.401315    2.477477    0.672975
  H     -3.003415   -2.014194   -1.127549

 Total Charge           Charge          ....    0
 Multiplicity           Mult            ....    1
 Number of Electrons    NEL             ....   96
 Basis Dimension        Dim             ....  192

ORBITAL ENERGIES
----------------

  NO   OCC          E(Eh)            E(eV)
   0   2.0000     -18.780921      -511.0548
   1   2.0000     -18.766575      -510.6645
   2   2.0000     -18.754218      -510.3282
   3   2.0000     -18.745859      -510.1007
   4   2.0000     -18.744262      -510.0573
   5   2.0000     -18.735868      -509.8289
   6   2.0000      -9.974308      -271.4147
   7   2.0000      -9.949739      -270.7462
   8   2.0000      -9.944053      -270.5914
   9   2.0000      -9.940373      -270.4913
  10   2.0000      -9.938848      -270.4498
  11   2.0000      -9.932090      -270.2659
  12   2.0000      -0.976112       -26.5614
  13   2.0000      -0.947527       -25.7835
  14   2.0000      -0.940368       -25.5887
  15   2.0000      -0.925065       -25.1723
  16   2.0000      -0.911796       -24.8112
  17   2.0000      -0.893941       -24.3254
  18   2.0000      -0.706328       -19.2202
  19   2.0000      -0.687164       -18.6987
  20   2.0000      -0.622134       -16.9291
  21   2.0000      -0.587449       -15.9853
  22   2.0000      -0.561765       -15.2864
  23   2.0000      -0.527156       -14.3447
  24   2.0000      -0.499073       -13.5805
  25   2.0000      -0.489499       -13.3199
  26   2.0000      -0.479089       -13.0367
  27   2.0000      -0.449935       -12.2434
  28   2.0000      -0.441018       -12.0007
  29   2.0000      -0.420516       -11.4428
  30   2.0000      -0.409993       -11.1565
  31   2.0000      -0.405949       -11.0464
  32   2.0000      -0.393159       -10.6984
  33   2.0000      -0.373681       -10.1684
  34   2.0000      -0.368443       -10.0258
  35   2.0000      -0.341870        -9.3028
  36   2.0000      -0.329693        -8.9714
  37   2.0000      -0.317469        -8.6388
  38   2.0000      -0.302345        -8.2272
  39   2.0000      -0.292067        -7.9475
  40   2.0000      -0.278230        -7.5710
  41   2.0000      -0.274735        -7.4759
  42   2.0000      -0.245247        -6.6735
  43   2.0000      -0.235028        -6.3954
  44   2.0000      -0.228668        -6.2224
  45   2.0000      -0.226859        -6.1732
  46   2.0000      -0.208833        -5.6826
  47   2.0000      -0.194197        -5.2844
  48   0.0000       0.008437         0.2296
  49   0.0000       0.029841         0.8120
  50   0.0000       0.033762         0.9187
  51   0.0000       0.038683         1.0526
  52   0.0000       0.062953         1.7130

MULLIKEN ATOMIC CHARGES
-----------------------
   0 C :    0.079122
   1 C :    0.033738
   2 H :    0.060012
   3 C :    0.021839
   4 H :    0.061619
   5 C :    0.044164
   6 H :    0.059399
   7 C :    0.090790
   8 H :    0.053533
   9 C :    0.174545
  10 H :    0.038853
  11 O :   -0.310485
  12 O :   -0.432885
  13 O :   -0.410977
  14 O :   -0.407050
  15 O :   -0.404593
  16 O :   -0.446714
  17 H :    0.084907
  18 H :    0.085237
  19 H :    0.305520
  20 H :    0.300465
  21 H :    0.299426
  22 H :    0.300058
  23 H :    0.319476
Sum of atomic charges:   -0.0000000

LOEWDIN ATOMIC CHARGES
----------------------
   0 C :   -0.129040
   1 C :   -0.066193
   2 H :    0.114874
   3 C :   -0.091980
   4 H :    0.114932
   5 C :   -0.070829
   6 H :    0.118678
   7 C :   -0.085407
   8 H :    0.104346
   9 C :   -0.003387
  10 H :    0.089407
  11 O :   -0.139465
  12 O :   -0.341161
  13 O :   -0.315426
  14 O :   -0.308566
  15 O :   -0.307113
  16 O :   -0.324725
  17 H :    0.111551
  18 H :    0.105040
  19 H :    0.269933
  20 H :    0.285930
  21 H :    0.284615
  22 H :    0.285712
  23 H :    0.298275

  Mayer bond orders larger than 0.100000
B(  0-C ,  1-C ) :   1.0705 B(  0-C , 16-O ) :   1.0349 B(  0-C , 17-H ) :   0.9050
B(  0-C , 18-H ) :   0.9128 B(  1-C ,  2-H ) :   0.8805 B(  1-C ,  3-C ) :   0.9562
B(  1-C , 11-O ) :   0.9798 B(  3-C ,  4-H ) :   0.8563 B(  3-C ,  5-C ) :   1.0425
B(  3-C , 15-O ) :   1.0505 B(  5-C ,  6-H ) :   0.8473 B(  5-C ,  7-C ) :   0.9959
B(  5-C , 14-O ) :   1.0662 B(  7-C ,  8-H ) :   0.8782 B(  7-C ,  9-C ) :   0.9629
B(  7-C , 13-O ) :   1.0863 B(  9-C , 10-H ) :   0.8928 B(  9-C , 11-O ) :   1.0808
B(  9-C , 12-O ) :   1.0737 B( 12-O , 19-H ) :   0.7815 B( 13-O , 20-H ) :   0.8477
B( 14-O , 21-H ) :   0.8494 B( 15-O , 22-H ) :   0.8458 B( 16-O , 19-H ) :   0.1183
B( 16-O , 23-H ) :   0.8395

Dispersion correction           -0.024974880
FINAL SINGLE POINT ENERGY      -685.690150714789

DIPOLE MOMENT
-------------

Method             : SCF
Type of density    : Electron Density
Multiplicity       :   1
Irrep              :   0
Energy             :  -685.8216786216994478 Eh
Relativity type    :
Basis              : AO
                                X                 Y                 Z
Electronic contribution:      2.201130924       0.299557281      -0.159103898
Nuclear contribution   :     -3.149617335      -0.873757568       0.075196998
                        -----------------------------------------
Total Dipole Moment    :     -0.948486410      -0.574200287      -0.083906901
                        -----------------------------------------
Magnitude (a.u.)       :      1.111923023
Magnitude (Debye)      :      2.826283715

Rotational constants in cm-1:             0.041858             0.028402             0.020727
Rotational constants in MHz :          1254.876451           851.460416           621.378209

                             ****ORCA TERMINATED NORMALLY****
TOTAL RUN TIME: 0 days 0 hours 0 minutes 12 seconds 109 msec
