                         Program Version 6.0.0  -   RELEASE  -
|  1> ! pbe def2-sv(p) def2/J RI DEFGRID1 loosescf d4 GCP(DFT/SV(P)) printgap
|  2> %output
|  3>     printlevel normal
|  4> end
|  5> * xyz 0 1
|  6> C -2.5309135546 -0.9604348606 0.3570135093
|  7> C -1.0981904129 -0.4743306584 0.621096427
|  8> H -0.9307470904 -0.408043833 1.7075000707
|  9> C -0.8220556219 0.9029340282 -0.0062304027
| 10> H -1.0177257356 0.8441310805 -1.0852982308
| 11> C 0.6524030678 1.2894075948 0.1927061323
| 12> H 0.8298740753 1.4662996123 1.2647300202
| 13> C 1.5850582119 0.1676047202 -0.267402468
| 14> H 1.5474390566 0.1105363296 -1.3642598859
| 15> C 1.130096236 -1.1858539542 0.3088931799
| 16> H 1.3002556616 -1.1639002609 1.4069577754
| 17> O -0.2295771308 -1.4432101088 0.0605242634
| 18> O 1.8776283997 -2.1748715068 -0.2980181598
| 19> O 2.8823489767 0.4633122159 0.1773051142
| 20> O 0.9620229569 2.4420534501 -0.5474569426
| 21> O -1.5908868007 1.9194451008 0.5912933762
| 22> O -2.8665636627 -0.9369036564 -1.005295864
| 23> H -3.2371649916 -0.3027006055 0.8651483223
| 24> H -2.6285958301 -1.9722571305 0.7670936883
| 25> H 1.5261182249 -3.0477743176 -0.061579354
| 26> H 3.4946721016 -0.1969731173 -0.1806639575
| 27> H 0.3816013149 3.1587154056 -0.2481826585
| 28> H -2.4953993518 1.8867120772 0.2501358088
| 29> H -2.2863491963 -1.5515495439 -1.4765820543
| 30> *
| 31>
| 32>                          ****END OF INPUT****

CARTESIAN COORDINATES (ANGSTROEM)
---------------------------------
  C     -2.530914   -0.960435    0.357014
  C     -1.098190   -0.474331    0.621096
  H     -0.930747   -0.408044    1.707500
  C     -0.822056    0.902934   -0.006230
  H     -1.017726    0.844131   -1.085298
  C      0.652403    1.289408    0.192706
  H      0.829874    1.466300    1.264730
  C      1.585058    0.167605   -0.267402
  H      1.547439    0.110536   -1.364260
  C      1.130096   -1.185854    0.308893
  H      1.300256   -1.163900    1.406958
  O     -0.229577   -1.443210    0.060524
  O      1.877628   -2.174872   -0.298018
  O      2.882349    0.463312    0.177305
  O      0.962023    2.442053   -0.547457
  O     -1.590887    1.919445    0.591293
  O     -2.866564   -0.936904   -1.005296
  H     -3.237165   -0.302701    0.865148
  H     -2.628596   -1.972257    0.767094
  H      1.526118   -3.047774   -0.061579
  H      3.494672   -0.196973   -0.180664
  H      0.381601    3.158715   -0.248183
  H     -2.495399    1.886712    0.250136
  H     -2.286349   -1.551550   -1.476582

 Total Charge           Charge          ....    0
 Multiplicity           Mult            ....    1
 Number of Electrons    NEL             ....   96
 Basis Dimension        Dim             ....  192

ORBITAL ENERGIES
----------------

  NO   OCC          E(Eh)            E(eV)
   0   2.0000     -18.779255      -511.0095
   1   2.0000     -18.769735      -510.7505
   2   2.0000     -18.764900      -510.6189
   3   2.0000     -18.758395      -510.4419
   4   2.0000     -18.744447      -510.0623
   5   2.0000     -18.738611      -509.9035
   6   2.0000      -9.988067      -271.7891
   7   2.0000      -9.946486      -270.6576
   8   2.0000      -9.942437      -270.5475
   9   2.0000      -9.940336      -270.4903
  10   2.0000      -9.937361      -270.4093
  11   2.0000      -9.937017      -270.4000
  12   2.0000      -0.990937       -26.9648
  13   2.0000      -0.946693       -25.7608
  14   2.0000      -0.937939       -25.5226
  15   2.0000      -0.926712       -25.2171
  16   2.0000      -0.919803       -25.0291
  17   2.0000      -0.907903       -24.7053
  18   2.0000      -0.702414       -19.1136
  19   2.0000      -0.692346       -18.8397
  20   2.0000      -0.624436       -16.9918
  21   2.0000      -0.584823       -15.9138
  22   2.0000      -0.560907       -15.2631
  23   2.0000      -0.521519       -14.1913
  24   2.0000      -0.501633       -13.6501
  25   2.0000      -0.490814       -13.3557
  26   2.0000      -0.476148       -12.9567
  27   2.0000      -0.468492       -12.7483
  28   2.0000      -0.458456       -12.4752
  29   2.0000      -0.444850       -12.1050
  30   2.0000      -0.411415       -11.1952
  31   2.0000      -0.392599       -10.6832
  32   2.0000      -0.388313       -10.5665
  33   2.0000      -0.369450       -10.0532
  34   2.0000      -0.360447        -9.8083
  35   2.0000      -0.358647        -9.7593
  36   2.0000      -0.331836        -9.0297
  37   2.0000      -0.320106        -8.7105
  38   2.0000      -0.301179        -8.1955
  39   2.0000      -0.291798        -7.9402
  40   2.0000      -0.283230        -7.7071
  41   2.0000      -0.269320        -7.3286
  42   2.0000      -0.261211        -7.1079
  43   2.0000      -0.246000        -6.6940
  44   2.0000      -0.231867        -6.3094
  45   2.0000      -0.225120        -6.1258
  46   2.0000      -0.217352        -5.9145
  47   2.0000      -0.199605        -5.4315
  48   0.0000       0.013410         0.3649
  49   0.0000       0.023875         0.6497
  50   0.0000       0.031695         0.8625
  51   0.0000       0.041645         1.1332
  52   0.0000       0.060969         1.6591

MULLIKEN ATOMIC CHARGES
-----------------------
   0 C :    0.073199
   1 C :   -0.013156
   2 H :    0.053286
   3 C :    0.037517
   4 H :    0.055735
   5 C :    0.093628
   6 H :    0.057832
   7 C :    0.054408
   8 H :    0.061005
   9 C :    0.175788
  10 H :    0.037530
  11 O :   -0.322675
  12 O :   -0.386307
  13 O :   -0.407897
  14 O :   -0.409247
  15 O :   -0.423257
  16 O :   -0.437650
  17 H :    0.079322
  18 H :    0.086129
  19 H :    0.308623
  20 H :    0.304724
  21 H :    0.301474
  22 H :    0.314687
  23 H :    0.305302
Sum of atomic charges:   -0.0000000

LOEWDIN ATOMIC CHARGES
----------------------
   0 C :   -0.127831
   1 C :   -0.082530
   2 H :    0.105557
   3 C :   -0.082071
   4 H :    0.105640
   5 C :   -0.061320
   6 H :    0.107183
   7 C :   -0.074580
   8 H :    0.110864
   9 C :   -0.006642
  10 H :    0.080603
  11 O :   -0.161415
  12 O :   -0.299458
  13 O :   -0.310553
  14 O :   -0.315017
  15 O :   -0.317803
  16 O :   -0.333437
  17 H :    0.111997
  18 H :    0.105113
  19 H :    0.291273
  20 H :    0.288569
  21 H :    0.284806
  22 H :    0.293582
  23 H :    0.287470

  Mayer bond orders larger than 0.100000
B(  0-C ,  1-C ) :   1.0344 B(  0-C , 16-O ) :   1.0709 B(  0-C , 17-H ) :   0.9156
B(  0-C , 18-H ) :   0.9202 B(  1-C ,  2-H ) :   0.8672 B(  1-C ,  3-C ) :   0.9766
B(  1-C , 11-O ) :   0.9761 B(  3-C ,  4-H ) :   0.8675 B(  3-C ,  5-C ) :   1.0108
B(  3-C , 15-O ) :   1.0705 B(  5-C ,  6-H ) :   0.8754 B(  5-C ,  7-C ) :   1.0121
B(  5-C , 14-O ) :   1.1022 B(  7-C ,  8-H ) :   0.8662 B(  7-C ,  9-C ) :   0.9957
B(  7-C , 13-O ) :   1.0864 B(  9-C , 10-H ) :   0.8828 B(  9-C , 11-O ) :   1.0022
B(  9-C , 12-O ) :   1.1689 B( 12-O , 19-H ) :   0.8388 B( 13-O , 20-H ) :   0.8430
B( 14-O , 21-H ) :   0.8403 B( 15-O , 22-H ) :   0.8416 B( 16-O , 23-H ) :   0.8425

Dispersion correction           -0.023868965
FINAL SINGLE POINT ENERGY      -685.701646546994

DIPOLE MOMENT
-------------

Method             : SCF
Type of density    : Electron Density
Multiplicity       :   1
Irrep              :   0
Energy             :  -685.8310021380460739 Eh
Relativity type    :
Basis              : AO
                                X                 Y                 Z
Electronic contribution:      2.650071662       0.155599855      -1.437799068
Nuclear contribution   :     -3.283293956      -1.100045305       1.715788242
                        -----------------------------------------
Total Dipole Moment    :     -0.633222294      -0.944445449       0.277989174
                        -----------------------------------------
Magnitude (a.u.)       :      1.170566385
Magnitude (Debye)      :      2.975343295

Rotational constants in cm-1:             0.039705             0.026791             0.017677
Rotational constants in MHz :          1190.339180           803.187997           529.955788

                             ****ORCA TERMINATED NORMALLY****
TOTAL RUN TIME: 0 days 0 hours 0 minutes 11 seconds 886 msec
