                         Program Version 6.0.0  -   RELEASE  -
|  1> ! pbe def2-sv(p) def2/J RI DEFGRID1 loosescf d4 GCP(DFT/SV(P)) printgap
|  2> %output
|  3>     printlevel normal
|  4> end
|  5> * xyz 0 1
|  6> C -3.1721173771 0.295480074 0.477528237
|  7> C -1.643849192 0.362915152 0.445437229
|  8> H -1.2816239085 0.3824836765 1.481527622
|  9> C -1.1284490127 1.6017961348 -0.2798940576
| 10> C 0.3941291599 1.6580750607 -0.218212896
| 11> C 1.0590387092 0.3739067076 -0.7739248474
| 12> H 1.6068569831 0.6279471775 -1.6866673253
| 13> C 0.0218437081 -0.6880110692 -1.1670351684
| 14> C -1.0711053305 -0.8989693871 -0.1607260423
| 15> O -1.4934282978 -2.0060919769 0.1225720096
| 16> C 2.0734420844 -0.135519111 0.2261438439
| 17> C 1.8249582443 -1.0893630167 1.1087318627
| 18> C 3.3976060803 0.5658201708 0.1674508933
| 19> H -3.5719500187 0.3390730066 -0.5331767203
| 20> H -3.4919076345 -0.6388390243 0.932763816
| 21> H -3.5758835055 1.125602005 1.0499045879
| 22> H -1.4696416721 1.591480249 -1.3161998892
| 23> H -1.5414570815 2.4933463142 0.1943743559
| 24> H 0.7464167221 2.5292107841 -0.7705343718
| 25> H 0.6894314488 1.7871542661 0.8254059451
| 26> H -0.4811497972 -0.3632385483 -2.0820531584
| 27> H 0.5113039583 -1.6405378885 -1.3765474047
| 28> H 2.569318691 -1.402833613 1.8214851325
| 29> H 0.8828697049 -1.6069557167 1.1639836575
| 30> H 4.0451454515 0.2452174414 0.9783187501
| 31> H 3.8909730147 0.3488427689 -0.7789595793
| 32> H 3.2579643295 1.6432951891 0.230169849
| 33> *
| 34>
| 35>                          ****END OF INPUT****

CARTESIAN COORDINATES (ANGSTROEM)
---------------------------------
  C     -3.172117    0.295480    0.477528
  C     -1.643849    0.362915    0.445437
  H     -1.281624    0.382484    1.481528
  C     -1.128449    1.601796   -0.279894
  C      0.394129    1.658075   -0.218213
  C      1.059039    0.373907   -0.773925
  H      1.606857    0.627947   -1.686667
  C      0.021844   -0.688011   -1.167035
  C     -1.071105   -0.898969   -0.160726
  O     -1.493428   -2.006092    0.122572
  C      2.073442   -0.135519    0.226144
  C      1.824958   -1.089363    1.108732
  C      3.397606    0.565820    0.167451
  H     -3.571950    0.339073   -0.533177
  H     -3.491908   -0.638839    0.932764
  H     -3.575884    1.125602    1.049905
  H     -1.469642    1.591480   -1.316200
  H     -1.541457    2.493346    0.194374
  H      0.746417    2.529211   -0.770534
  H      0.689431    1.787154    0.825406
  H     -0.481150   -0.363239   -2.082053
  H      0.511304   -1.640538   -1.376547
  H      2.569319   -1.402834    1.821485
  H      0.882870   -1.606956    1.163984
  H      4.045145    0.245217    0.978319
  H      3.890973    0.348843   -0.778960
  H      3.257964    1.643295    0.230170

 Total Charge           Charge          ....    0
 Multiplicity           Mult            ....    1
 Number of Electrons    NEL             ....   84
 Basis Dimension        Dim             ....  186

ORBITAL ENERGIES
----------------

  NO   OCC          E(Eh)            E(eV)
   0   2.0000     -18.733243      -509.7575
   1   2.0000      -9.968127      -271.2465
   2   2.0000      -9.910034      -269.6657
   3   2.0000      -9.902086      -269.4495
   4   2.0000      -9.901837      -269.4427
   5   2.0000      -9.895867      -269.2802
   6   2.0000      -9.895717      -269.2761
   7   2.0000      -9.892058      -269.1766
   8   2.0000      -9.883082      -268.9323
   9   2.0000      -9.877816      -268.7891
  10   2.0000      -9.868938      -268.5474
  11   2.0000      -0.930367       -25.3166
  12   2.0000      -0.773403       -21.0454
  13   2.0000      -0.728719       -19.8295
  14   2.0000      -0.682763       -18.5789
  15   2.0000      -0.661997       -18.0138
  16   2.0000      -0.614310       -16.7162
  17   2.0000      -0.608547       -16.5594
  18   2.0000      -0.556726       -15.1493
  19   2.0000      -0.532865       -14.5000
  20   2.0000      -0.473330       -12.8800
  21   2.0000      -0.467803       -12.7296
  22   2.0000      -0.439730       -11.9657
  23   2.0000      -0.424822       -11.5600
  24   2.0000      -0.412188       -11.2162
  25   2.0000      -0.396660       -10.7937
  26   2.0000      -0.380738       -10.3604
  27   2.0000      -0.377511       -10.2726
  28   2.0000      -0.374579       -10.1928
  29   2.0000      -0.362025        -9.8512
  30   2.0000      -0.350555        -9.5391
  31   2.0000      -0.347401        -9.4533
  32   2.0000      -0.335237        -9.1223
  33   2.0000      -0.330295        -8.9878
  34   2.0000      -0.321996        -8.7619
  35   2.0000      -0.313062        -8.5189
  36   2.0000      -0.301477        -8.2036
  37   2.0000      -0.292755        -7.9663
  38   2.0000      -0.278599        -7.5811
  39   2.0000      -0.271866        -7.3979
  40   2.0000      -0.219590        -5.9754
  41   2.0000      -0.189622        -5.1599
  42   0.0000      -0.052332        -1.4240
  43   0.0000      -0.013000        -0.3538
  44   0.0000       0.021806         0.5934
  45   0.0000       0.046437         1.2636
  46   0.0000       0.055508         1.5105

MULLIKEN ATOMIC CHARGES
-----------------------
   0 C :   -0.212014
   1 C :   -0.200254
   2 H :    0.096744
   3 C :   -0.106466
   4 C :   -0.089849
   5 C :   -0.147862
   6 H :    0.064502
   7 C :   -0.038427
   8 C :   -0.020157
   9 O :   -0.173063
  10 C :   -0.079697
  11 C :   -0.252221
  12 C :   -0.210182
  13 H :    0.093537
  14 H :    0.121077
  15 H :    0.098842
  16 H :    0.073714
  17 H :    0.086785
  18 H :    0.085550
  19 H :    0.088937
  20 H :    0.101288
  21 H :    0.096643
  22 H :    0.082016
  23 H :    0.122136
  24 H :    0.100530
  25 H :    0.110610
  26 H :    0.107281
Sum of atomic charges:   -0.0000000

LOEWDIN ATOMIC CHARGES
----------------------
   0 C :   -0.321487
   1 C :   -0.177003
   2 H :    0.142604
   3 C :   -0.217304
   4 C :   -0.212500
   5 C :   -0.129155
   6 H :    0.123600
   7 C :   -0.235170
   8 C :    0.050562
   9 O :   -0.133678
  10 C :   -0.053366
  11 C :   -0.272438
  12 C :   -0.322494
  13 H :    0.119028
  14 H :    0.128393
  15 H :    0.119397
  16 H :    0.115840
  17 H :    0.122333
  18 H :    0.120830
  19 H :    0.123290
  20 H :    0.145584
  21 H :    0.135616
  22 H :    0.119914
  23 H :    0.126247
  24 H :    0.124768
  25 H :    0.130003
  26 H :    0.126585

  Mayer bond orders larger than 0.100000
B(  0-C ,  1-C ) :   1.1183 B(  0-C , 13-H ) :   0.9498 B(  0-C , 14-H ) :   0.9383
B(  0-C , 15-H ) :   0.9490 B(  1-C ,  2-H ) :   0.8536 B(  1-C ,  3-C ) :   1.1072
B(  1-C ,  8-C ) :   0.9256 B(  3-C ,  4-C ) :   1.1847 B(  3-C , 16-H ) :   0.8876
B(  3-C , 17-H ) :   0.9095 B(  4-C ,  5-C ) :   1.0432 B(  4-C , 18-H ) :   0.9075
B(  4-C , 19-H ) :   0.9070 B(  5-C ,  6-H ) :   0.8730 B(  5-C ,  7-C ) :   1.1152
B(  5-C , 10-C ) :   0.9978 B(  7-C ,  8-C ) :   1.0769 B(  7-C , 20-H ) :   0.8529
B(  7-C , 21-H ) :   0.8909 B(  8-C ,  9-O ) :   2.1380 B( 10-C , 11-C ) :   2.0466
B( 10-C , 12-C ) :   1.1210 B( 11-C , 22-H ) :   0.9020 B( 11-C , 23-H ) :   0.8884
B( 12-C , 24-H ) :   0.9418 B( 12-C , 25-H ) :   0.9281 B( 12-C , 26-H ) :   0.9316

Dispersion correction           -0.029169033
FINAL SINGLE POINT ENERGY      -464.824272793832

DIPOLE MOMENT
-------------

Method             : SCF
Type of density    : Electron Density
Multiplicity       :   1
Irrep              :   0
Energy             :  -464.9101445458894659 Eh
Relativity type    :
Basis              : AO
                                X                 Y                 Z
Electronic contribution:     -2.187408665      -5.844061432      -0.442177979
Nuclear contribution   :      2.592211745       6.970145459       0.127339837
                        -----------------------------------------
Total Dipole Moment    :      0.404803080       1.126084027      -0.314838142
                        -----------------------------------------
Magnitude (a.u.)       :      1.237357598
Magnitude (Debye)      :      3.145113068

Rotational constants in cm-1:             0.063533             0.026748             0.022115
Rotational constants in MHz :          1904.670762           801.872579           662.992022

                             ****ORCA TERMINATED NORMALLY****
TOTAL RUN TIME: 0 days 0 hours 0 minutes 14 seconds 998 msec
