                         Program Version 6.0.0  -   RELEASE  -
|  1> ! wb97x-v def2-tzvp def2/J RIJCOSX DEFGRID2 scfconv7 GCP(DFT/TZ) printgap
|  2> %output
|  3>     printlevel normal
|  4> end
|  5> * xyz 0 1
|  6> C 0.6643243069600754 -1.1038531202475836e-06 -0.00017228538892170045
|  7> C -0.6643241892444302 3.497094055573229e-07 -0.00013085228350224144
|  8> H 1.2335529060619432 0.9263704890185405 2.7062799561820042e-05
|  9> H 1.233550869056814 -0.9263739852626846 3.743064874697819e-05
| 10> H -1.2335524035111145 -0.9263713323914338 3.574893954732891e-05
| 11> H -1.2335504435523725 0.9263733102004504 4.6114413959794055e-05
| 12> *
| 13>
| 14>                          ****END OF INPUT****

CARTESIAN COORDINATES (ANGSTROEM)
---------------------------------
  C      0.664324   -0.000001   -0.000172
  C     -0.664324    0.000000   -0.000131
  H      1.233553    0.926370    0.000027
  H      1.233551   -0.926374    0.000037
  H     -1.233552   -0.926371    0.000036
  H     -1.233550    0.926373    0.000046

 Total Charge           Charge          ....    0
 Multiplicity           Mult            ....    1
 Number of Electrons    NEL             ....   16
 Basis Dimension        Dim             ....   86

ORBITAL ENERGIES
----------------

  NO   OCC          E(Eh)            E(eV)
   0   2.0000     -12.049312      -327.8784
   1   2.0000     -12.046799      -327.8101
   2   2.0000      -1.283964       -34.9384
   3   2.0000      -1.044933       -28.4341
   4   2.0000      -0.902527       -24.5590
   5   2.0000      -0.885007       -24.0823
   6   2.0000      -0.779414       -21.2089
   7   2.0000      -0.659640       -17.9497
   8   0.0000      -0.190805        -5.1921
   9   0.0000       0.013862         0.3772
  10   0.0000       0.016393         0.4461
  11   0.0000       0.034244         0.9318
  12   0.0000       0.127087         3.4582

MULLIKEN ATOMIC CHARGES
-----------------------
   0 C :   -0.240927
   1 C :   -0.240929
   2 H :    0.120465
   3 H :    0.120462
   4 H :    0.120465
   5 H :    0.120463
Sum of atomic charges:    0.0000000

LOEWDIN ATOMIC CHARGES
----------------------
   0 C :   -0.235544
   1 C :   -0.235544
   2 H :    0.117772
   3 H :    0.117772
   4 H :    0.117772
   5 H :    0.117772

  Mayer bond orders larger than 0.100000
B(  0-C ,  1-C ) :   1.9812 B(  0-C ,  2-H ) :   0.9668 B(  0-C ,  3-H ) :   0.9668
B(  1-C ,  4-H ) :   0.9668 B(  1-C ,  5-H ) :   0.9668

FINAL SINGLE POINT ENERGY       -78.585742020897

DIPOLE MOMENT
-------------

Method             : SCF
Type of density    : Electron Density
Multiplicity       :   1
Irrep              :   0
Energy             :   -78.5887796897974908 Eh
Relativity type    :
Basis              : AO
                                X                 Y                 Z
Electronic contribution:     -0.000000352       0.000000043      -0.000389014
Nuclear contribution   :      0.000000556      -0.000000008       0.000604619
                        -----------------------------------------
Total Dipole Moment    :      0.000000205       0.000000035       0.000215605
                        -----------------------------------------
Magnitude (a.u.)       :      0.000215605
Magnitude (Debye)      :      0.000548025

Rotational constants in cm-1:             4.871977             1.007218             0.834662
Rotational constants in MHz :        146058.206438         30195.629810         25022.545216

                             ****ORCA TERMINATED NORMALLY****
TOTAL RUN TIME: 0 days 0 hours 0 minutes 12 seconds 150 msec
