                         Program Version 6.0.0  -   RELEASE  -
|  1> ! wb97x-v def2-tzvp def2/J RIJCOSX DEFGRID2 scfconv7 GCP(DFT/TZ) printgap
|  2> %output
|  3>     printlevel normal
|  4> end
|  5> %cpcm
|  6>     smd true
|  7>     smdsolvent "water"
|  8> end
|  9> * xyz 0 1
| 10> C 0.6643243069600754 -1.1038531202475836e-06 -0.00017228538892170045
| 11> C -0.6643241892444302 3.497094055573229e-07 -0.00013085228350224144
| 12> H 1.2335529060619432 0.9263704890185405 2.7062799561820042e-05
| 13> H 1.233550869056814 -0.9263739852626846 3.743064874697819e-05
| 14> H -1.2335524035111145 -0.9263713323914338 3.574893954732891e-05
| 15> H -1.2335504435523725 0.9263733102004504 4.6114413959794055e-05
| 16> *
| 17>
| 18>                          ****END OF INPUT****

CARTESIAN COORDINATES (ANGSTROEM)
---------------------------------
  C      0.664324   -0.000001   -0.000172
  C     -0.664324    0.000000   -0.000131
  H      1.233553    0.926370    0.000027
  H      1.233551   -0.926374    0.000037
  H     -1.233552   -0.926371    0.000036
  H     -1.233550    0.926373    0.000046

 Total Charge           Charge          ....    0
 Multiplicity           Mult            ....    1
 Number of Electrons    NEL             ....   16
 Basis Dimension        Dim             ....   86

ORBITAL ENERGIES
----------------

  NO   OCC          E(Eh)            E(eV)
   0   2.0000     -12.044016      -327.7343
   1   2.0000     -12.041524      -327.6665
   2   2.0000      -1.280363       -34.8404
   3   2.0000      -1.039141       -28.2765
   4   2.0000      -0.896933       -24.4068
   5   2.0000      -0.879414       -23.9301
   6   2.0000      -0.772610       -21.0238
   7   2.0000      -0.657640       -17.8953
   8   0.0000      -0.188200        -5.1212
   9   0.0000       0.024974         0.6796
  10   0.0000       0.027464         0.7473
  11   0.0000       0.045912         1.2493
  12   0.0000       0.139929         3.8077

MULLIKEN ATOMIC CHARGES
-----------------------
   0 C :   -0.314379
   1 C :   -0.314380
   2 H :    0.157191
   3 H :    0.157188
   4 H :    0.157191
   5 H :    0.157189
Sum of atomic charges:    0.0000000

LOEWDIN ATOMIC CHARGES
----------------------
   0 C :   -0.249149
   1 C :   -0.249149
   2 H :    0.124575
   3 H :    0.124575
   4 H :    0.124575
   5 H :    0.124575

  Mayer bond orders larger than 0.100000
B(  0-C ,  1-C ) :   1.9578 B(  0-C ,  2-H ) :   0.9618 B(  0-C ,  3-H ) :   0.9618
B(  1-C ,  4-H ) :   0.9618 B(  1-C ,  5-H ) :   0.9618

FINAL SINGLE POINT ENERGY       -78.583902859586

DIPOLE MOMENT
-------------

Method             : SCF
Type of density    : Electron Density
Multiplicity       :   1
Irrep              :   0
Energy             :   -78.5869405284860534 Eh
Relativity type    :
Basis              : AO
                                X                 Y                 Z
Electronic contribution:     -0.000000727       0.000000057      -0.000320009
Nuclear contribution   :      0.000000556      -0.000000008       0.000604619
                        -----------------------------------------
Total Dipole Moment    :     -0.000000171       0.000000049       0.000284609
                        -----------------------------------------
Magnitude (a.u.)       :      0.000284609
Magnitude (Debye)      :      0.000723420

Rotational constants in cm-1:             4.871977             1.007218             0.834662
Rotational constants in MHz :        146058.206438         30195.629810         25022.545216

                             ****ORCA TERMINATED NORMALLY****
TOTAL RUN TIME: 0 days 0 hours 0 minutes 11 seconds 524 msec
