                         Program Version 6.0.0  -   RELEASE  -
|  1> ! pbe def2-sv(p) def2/J RI DEFGRID1 loosescf d4 GCP(DFT/SV(P)) printgap
|  2> %output
|  3>     printlevel normal
|  4> end
|  5> * xyz 0 1
|  6> C -0.732283552 -1.2043162522 0.0001080238
|  7> C 0.6510970526 -1.209107027 -2.58057e-05
|  8> C 1.3185145304 -0.0013727335 4.04048e-05
|  9> C 0.6521388306 1.2092269097 9.75488e-05
| 10> C -0.7283801708 1.2053516105 0.0001314481
| 11> C -1.4301773484 0.0002539906 0.0001920462
| 12> O -2.7824972344 0.0568140752 -0.0001837095
| 13> F 2.6886140891 -0.0029075241 -0.0001058016
| 14> H -1.2653774695 -2.1425075498 9.05309e-05
| 15> H 1.2070349783 -2.1322751795 -1.23846e-05
| 16> H 1.2092908335 2.1314412258 -0.0006686107
| 17> H -1.2844051417 2.1283220842 -0.000397322
| 18> H -3.1694135769 -0.8324425454 -0.0005802847
| 19> *
| 20>
| 21>                          ****END OF INPUT****

CARTESIAN COORDINATES (ANGSTROEM)
---------------------------------
  C     -0.732284   -1.204316    0.000108
  C      0.651097   -1.209107   -0.000026
  C      1.318515   -0.001373    0.000040
  C      0.652139    1.209227    0.000098
  C     -0.728380    1.205352    0.000131
  C     -1.430177    0.000254    0.000192
  O     -2.782497    0.056814   -0.000184
  F      2.688614   -0.002908   -0.000106
  H     -1.265377   -2.142508    0.000091
  H      1.207035   -2.132275   -0.000012
  H      1.209291    2.131441   -0.000669
  H     -1.284405    2.128322   -0.000397
  H     -3.169414   -0.832443   -0.000580

 Total Charge           Charge          ....    0
 Multiplicity           Mult            ....    1
 Number of Electrons    NEL             ....   58
 Basis Dimension        Dim             ....  122

ORBITAL ENERGIES
----------------

  NO   OCC          E(Eh)            E(eV)
   0   2.0000     -24.256536      -660.0539
   1   2.0000     -18.788232      -511.2538
   2   2.0000      -9.966719      -271.2082
   3   2.0000      -9.959193      -271.0034
   4   2.0000      -9.903599      -269.4906
   5   2.0000      -9.902333      -269.4562
   6   2.0000      -9.901079      -269.4221
   7   2.0000      -9.898213      -269.3441
   8   2.0000      -1.081553       -29.4306
   9   2.0000      -0.971339       -26.4315
  10   2.0000      -0.782481       -21.2924
  11   2.0000      -0.687214       -18.7000
  12   2.0000      -0.666260       -18.1299
  13   2.0000      -0.578057       -15.7297
  14   2.0000      -0.552200       -15.0261
  15   2.0000      -0.507260       -13.8033
  16   2.0000      -0.477792       -13.0014
  17   2.0000      -0.444518       -12.0959
  18   2.0000      -0.405429       -11.0323
  19   2.0000      -0.394590       -10.7373
  20   2.0000      -0.391788       -10.6611
  21   2.0000      -0.375948       -10.2301
  22   2.0000      -0.363759        -9.8984
  23   2.0000      -0.353577        -9.6213
  24   2.0000      -0.315817        -8.5938
  25   2.0000      -0.297676        -8.1002
  26   2.0000      -0.289139        -7.8679
  27   2.0000      -0.241095        -6.5605
  28   2.0000      -0.193167        -5.2563
  29   0.0000      -0.045383        -1.2349
  30   0.0000      -0.017439        -0.4746
  31   0.0000       0.015918         0.4331
  32   0.0000       0.040991         1.1154
  33   0.0000       0.078177         2.1273

MULLIKEN ATOMIC CHARGES
-----------------------
   0 C :   -0.165029
   1 C :   -0.157605
   2 C :    0.337300
   3 C :   -0.150120
   4 C :   -0.125107
   5 C :    0.252048
   6 O :   -0.331974
   7 F :   -0.191633
   8 H :    0.036605
   9 H :    0.059776
  10 H :    0.061836
  11 H :    0.055403
  12 H :    0.318500
Sum of atomic charges:    0.0000000

LOEWDIN ATOMIC CHARGES
----------------------
   0 C :   -0.167742
   1 C :   -0.143763
   2 C :    0.053004
   3 C :   -0.140660
   4 C :   -0.138099
   5 C :    0.012443
   6 O :   -0.232475
   7 F :   -0.073935
   8 H :    0.123486
   9 H :    0.136504
  10 H :    0.137503
  11 H :    0.134298
  12 H :    0.299435

  Mayer bond orders larger than 0.100000
B(  0-C ,  1-C ) :   1.3289 B(  0-C ,  5-C ) :   1.3108 B(  0-C ,  8-H ) :   0.9591
B(  1-C ,  2-C ) :   1.3640 B(  1-C ,  9-H ) :   0.9640 B(  2-C ,  3-C ) :   1.3421
B(  2-C ,  7-F ) :   1.0729 B(  3-C ,  4-C ) :   1.3411 B(  3-C , 10-H ) :   0.9687
B(  4-C ,  5-C ) :   1.3562 B(  4-C , 11-H ) :   0.9650 B(  5-C ,  6-O ) :   1.1917
B(  6-O , 12-H ) :   0.8413

Dispersion correction           -0.012480587
FINAL SINGLE POINT ENERGY      -405.879348654472

DIPOLE MOMENT
-------------

Method             : SCF
Type of density    : Electron Density
Multiplicity       :   1
Irrep              :   0
Energy             :  -405.9228892132707074 Eh
Relativity type    :
Basis              : AO
                                X                 Y                 Z
Electronic contribution:      4.928792857       0.260668258       0.000864561
Nuclear contribution   :     -5.630910490      -0.791532241      -0.001375821
                        -----------------------------------------
Total Dipole Moment    :     -0.702117634      -0.530863983      -0.000511260
                        -----------------------------------------
Magnitude (a.u.)       :      0.880219291
Magnitude (Debye)      :      2.237339634

Rotational constants in cm-1:             0.189202             0.048721             0.038744
Rotational constants in MHz :          5672.119256          1460.613019          1161.514411

                             ****ORCA TERMINATED NORMALLY****
TOTAL RUN TIME: 0 days 0 hours 0 minutes 7 seconds 243 msec
