                         Program Version 6.0.0  -   RELEASE  -
|  1> ! pbe def2-sv(p) def2/J RI DEFGRID1 loosescf d4 GCP(DFT/SV(P)) printgap
|  2> %output
|  3>     printlevel normal
|  4> end
|  5> * xyz 0 1
|  6> C 1.2760557387 1.078870101 0.8000154581
|  7> C 0.706017468 0.2738195725 -0.376009241
|  8> C 1.5055871951 -1.0075207747 -0.5958955448
|  9> C -0.7660025322 0.0342895219 -0.1027574917
| 10> O -1.6134057555 0.7731755829 -0.5707261908
| 11> C -1.1214090642 -1.1191685683 0.783979985
| 12> H 2.3008208825 1.3665621423 0.5816268666
| 13> H 0.6891956448 1.9800898474 0.9635592213
| 14> H 1.2687942521 0.4868826229 1.711418893
| 15> H 0.7607970048 0.8989725066 -1.2741145396
| 16> H 1.5408024776 -1.6081783162 0.3078387197
| 17> H 2.5246924324 -0.7515227287 -0.8743037991
| 18> H 1.0714595944 -1.5984942385 -1.398573339
| 19> H -0.9603820546 -2.0444534506 0.235207497
| 20> H -2.1671614976 -1.0554196869 1.0720279607
| 21> H -0.4877590451 -1.1328044468 1.6653670532
| 22> *
| 23>
| 24>                          ****END OF INPUT****

CARTESIAN COORDINATES (ANGSTROEM)
---------------------------------
  C      1.276056    1.078870    0.800015
  C      0.706017    0.273820   -0.376009
  C      1.505587   -1.007521   -0.595896
  C     -0.766003    0.034290   -0.102757
  O     -1.613406    0.773176   -0.570726
  C     -1.121409   -1.119169    0.783980
  H      2.300821    1.366562    0.581627
  H      0.689196    1.980090    0.963559
  H      1.268794    0.486883    1.711419
  H      0.760797    0.898973   -1.274115
  H      1.540802   -1.608178    0.307839
  H      2.524692   -0.751523   -0.874304
  H      1.071460   -1.598494   -1.398573
  H     -0.960382   -2.044453    0.235207
  H     -2.167161   -1.055420    1.072028
  H     -0.487759   -1.132804    1.665367

 Total Charge           Charge          ....    0
 Multiplicity           Mult            ....    1
 Number of Electrons    NEL             ....   48
 Basis Dimension        Dim             ....  104

ORBITAL ENERGIES
----------------

  NO   OCC          E(Eh)            E(eV)
   0   2.0000     -18.732967      -509.7499
   1   2.0000      -9.968563      -271.2584
   2   2.0000      -9.902511      -269.4610
   3   2.0000      -9.888562      -269.0815
   4   2.0000      -9.887352      -269.0485
   5   2.0000      -9.886055      -269.0132
   6   2.0000      -0.929684       -25.2980
   7   2.0000      -0.734752       -19.9936
   8   2.0000      -0.663385       -18.0516
   9   2.0000      -0.624336       -16.9890
  10   2.0000      -0.557473       -15.1696
  11   2.0000      -0.467429       -12.7194
  12   2.0000      -0.421602       -11.4724
  13   2.0000      -0.414163       -11.2700
  14   2.0000      -0.404150       -10.9975
  15   2.0000      -0.371836       -10.1182
  16   2.0000      -0.362625        -9.8675
  17   2.0000      -0.361577        -9.8390
  18   2.0000      -0.347901        -9.4669
  19   2.0000      -0.322257        -8.7691
  20   2.0000      -0.318977        -8.6798
  21   2.0000      -0.302758        -8.2385
  22   2.0000      -0.293333        -7.9820
  23   2.0000      -0.189749        -5.1633
  24   0.0000      -0.046574        -1.2673
  25   0.0000       0.026391         0.7181
  26   0.0000       0.062061         1.6888
  27   0.0000       0.069216         1.8835
  28   0.0000       0.090399         2.4599

MULLIKEN ATOMIC CHARGES
-----------------------
   0 C :   -0.262372
   1 C :   -0.158626
   2 C :   -0.254505
   3 C :    0.000826
   4 O :   -0.170273
   5 C :   -0.261970
   6 H :    0.112141
   7 H :    0.119817
   8 H :    0.100680
   9 H :    0.082089
  10 H :    0.101171
  11 H :    0.107864
  12 H :    0.113440
  13 H :    0.128753
  14 H :    0.118616
  15 H :    0.122347
Sum of atomic charges:   -0.0000000

LOEWDIN ATOMIC CHARGES
----------------------
   0 C :   -0.320183
   1 C :   -0.179491
   2 C :   -0.330060
   3 C :    0.047941
   4 O :   -0.135091
   5 C :   -0.361538
   6 H :    0.124521
   7 H :    0.126837
   8 H :    0.116849
   9 H :    0.128558
  10 H :    0.118052
  11 H :    0.124779
  12 H :    0.121957
  13 H :    0.146104
  14 H :    0.135774
  15 H :    0.134990

  Mayer bond orders larger than 0.100000
B(  0-C ,  1-C ) :   1.0873 B(  0-C ,  6-H ) :   0.9479 B(  0-C ,  7-H ) :   0.9476
B(  0-C ,  8-H ) :   0.9461 B(  1-C ,  2-C ) :   1.0904 B(  1-C ,  3-C ) :   0.9549
B(  1-C ,  9-H ) :   0.8828 B(  2-C , 10-H ) :   0.9360 B(  2-C , 11-H ) :   0.9462
B(  2-C , 12-H ) :   0.9534 B(  3-C ,  4-O ) :   2.1899 B(  3-C ,  5-C ) :   1.0733
B(  5-C , 13-H ) :   0.9115 B(  5-C , 14-H ) :   0.9296 B(  5-C , 15-H ) :   0.9282

Dispersion correction           -0.012032271
FINAL SINGLE POINT ENERGY      -271.141793957885

DIPOLE MOMENT
-------------

Method             : SCF
Type of density    : Electron Density
Multiplicity       :   1
Irrep              :   0
Energy             :  -271.1956181410765794 Eh
Relativity type    :
Basis              : AO
                                X                 Y                 Z
Electronic contribution:     -5.322672723       2.645295202      -2.410765557
Nuclear contribution   :      6.112852673      -3.233050993       2.796700484
                        -----------------------------------------
Total Dipole Moment    :      0.790179950      -0.587755791       0.385934927
                        -----------------------------------------
Magnitude (a.u.)       :      1.057727277
Magnitude (Debye)      :      2.688529076

Rotational constants in cm-1:             0.153183             0.093886             0.079730
Rotational constants in MHz :          4592.297038          2814.636302          2390.231354

                             ****ORCA TERMINATED NORMALLY****
TOTAL RUN TIME: 0 days 0 hours 0 minutes 6 seconds 317 msec
