                         Program Version 6.0.0  -   RELEASE  -
|  1> ! pbe def2-sv(p) def2/J RI DEFGRID1 loosescf d4 GCP(DFT/SV(P)) printgap
|  2> %output
|  3>     printlevel normal
|  4> end
|  5> * xyz 0 1
|  6> C -2.3577638006 -1.022634159 0.3594417774
|  7> C -1.0863905499 -0.2678349524 0.8060880481
|  8> H -1.3048837788 0.1655984605 1.7921314944
|  9> C -0.6854838329 0.8649277883 -0.146793016
| 10> H -0.6957199485 0.5234012007 -1.1873000923
| 11> C 0.7472773339 1.3022102408 0.1954801228
| 12> H 0.8083841104 1.5208488338 1.2758419509
| 13> C 1.716266132 0.1502753666 -0.1147024553
| 14> H 1.9999795667 0.2180756168 -1.1746180345
| 15> C 1.008820062 -1.2064774143 0.0745351433
| 16> H 1.740142004 -1.9163177392 0.4923878052
| 17> O -0.004560109 -1.1728756851 1.0392628072
| 18> O 0.5524899897 -1.6172915565 -1.174888249
| 19> O 2.8500459416 0.1714854689 0.7112361757
| 20> O 1.1284841179 2.4378115093 -0.5414457261
| 21> O -1.5759894623 1.9487988439 -0.0936437801
| 22> O -2.2354838335 -1.7091030609 -0.8603885687
| 23> H -3.1844444581 -0.3048360012 0.3273556529
| 24> H -2.5718557146 -1.7879135924 1.1085351531
| 25> H -0.0749743811 -2.3541708961 -1.0679488158
| 26> H 3.344949511 0.9876904901 0.5438475377
| 27> H 0.333570443 2.9664005234 -0.7227005106
| 28> H -1.6561402199 2.2675194104 0.8182878551
| 29> H -2.2560538978 -1.0806217311 -1.59483126
| 30> *
| 31>
| 32>                          ****END OF INPUT****

CARTESIAN COORDINATES (ANGSTROEM)
---------------------------------
  C     -2.357764   -1.022634    0.359442
  C     -1.086391   -0.267835    0.806088
  H     -1.304884    0.165598    1.792131
  C     -0.685484    0.864928   -0.146793
  H     -0.695720    0.523401   -1.187300
  C      0.747277    1.302210    0.195480
  H      0.808384    1.520849    1.275842
  C      1.716266    0.150275   -0.114702
  H      1.999980    0.218076   -1.174618
  C      1.008820   -1.206477    0.074535
  H      1.740142   -1.916318    0.492388
  O     -0.004560   -1.172876    1.039263
  O      0.552490   -1.617292   -1.174888
  O      2.850046    0.171485    0.711236
  O      1.128484    2.437812   -0.541446
  O     -1.575989    1.948799   -0.093644
  O     -2.235484   -1.709103   -0.860389
  H     -3.184444   -0.304836    0.327356
  H     -2.571856   -1.787914    1.108535
  H     -0.074974   -2.354171   -1.067949
  H      3.344950    0.987690    0.543848
  H      0.333570    2.966401   -0.722701
  H     -1.656140    2.267519    0.818288
  H     -2.256054   -1.080622   -1.594831

 Total Charge           Charge          ....    0
 Multiplicity           Mult            ....    1
 Number of Electrons    NEL             ....   96
 Basis Dimension        Dim             ....  192

ORBITAL ENERGIES
----------------

  NO   OCC          E(Eh)            E(eV)
   0   2.0000     -18.779844      -511.0255
   1   2.0000     -18.767426      -510.6876
   2   2.0000     -18.766601      -510.6652
   3   2.0000     -18.752682      -510.2864
   4   2.0000     -18.749450      -510.1985
   5   2.0000     -18.747339      -510.1410
   6   2.0000      -9.979425      -271.5540
   7   2.0000      -9.953486      -270.8481
   8   2.0000      -9.952774      -270.8288
   9   2.0000      -9.941475      -270.5213
  10   2.0000      -9.940775      -270.5022
  11   2.0000      -9.935072      -270.3471
  12   2.0000      -0.980406       -26.6782
  13   2.0000      -0.959725       -26.1155
  14   2.0000      -0.939020       -25.5520
  15   2.0000      -0.930395       -25.3173
  16   2.0000      -0.915745       -24.9187
  17   2.0000      -0.904981       -24.6258
  18   2.0000      -0.709263       -19.3000
  19   2.0000      -0.692161       -18.8347
  20   2.0000      -0.628355       -17.0984
  21   2.0000      -0.591661       -16.0999
  22   2.0000      -0.567619       -15.4457
  23   2.0000      -0.523508       -14.2454
  24   2.0000      -0.507361       -13.8060
  25   2.0000      -0.496317       -13.5055
  26   2.0000      -0.482082       -13.1181
  27   2.0000      -0.456072       -12.4103
  28   2.0000      -0.437236       -11.8978
  29   2.0000      -0.431944       -11.7538
  30   2.0000      -0.413141       -11.2422
  31   2.0000      -0.402666       -10.9571
  32   2.0000      -0.392867       -10.6905
  33   2.0000      -0.381477       -10.3805
  34   2.0000      -0.365821        -9.9545
  35   2.0000      -0.354990        -9.6598
  36   2.0000      -0.345071        -9.3899
  37   2.0000      -0.309671        -8.4266
  38   2.0000      -0.307693        -8.3727
  39   2.0000      -0.301899        -8.2151
  40   2.0000      -0.290433        -7.9031
  41   2.0000      -0.267204        -7.2710
  42   2.0000      -0.251761        -6.8508
  43   2.0000      -0.250685        -6.8215
  44   2.0000      -0.239802        -6.5253
  45   2.0000      -0.223313        -6.0767
  46   2.0000      -0.215581        -5.8663
  47   2.0000      -0.203163        -5.5284
  48   0.0000       0.004434         0.1207
  49   0.0000       0.017973         0.4891
  50   0.0000       0.034654         0.9430
  51   0.0000       0.046627         1.2688
  52   0.0000       0.064077         1.7436

MULLIKEN ATOMIC CHARGES
-----------------------
   0 C :    0.075175
   1 C :    0.052853
   2 H :    0.050182
   3 C :   -0.018476
   4 H :    0.066675
   5 C :    0.034262
   6 H :    0.038843
   7 C :    0.105776
   8 H :    0.075826
   9 C :    0.157267
  10 H :    0.072269
  11 O :   -0.311243
  12 O :   -0.414177
  13 O :   -0.414178
  14 O :   -0.420318
  15 O :   -0.411333
  16 O :   -0.433451
  17 H :    0.075456
  18 H :    0.096353
  19 H :    0.302097
  20 H :    0.308825
  21 H :    0.298773
  22 H :    0.302208
  23 H :    0.310333
Sum of atomic charges:   -0.0000000

LOEWDIN ATOMIC CHARGES
----------------------
   0 C :   -0.130788
   1 C :   -0.075606
   2 H :    0.110885
   3 C :   -0.095880
   4 H :    0.114342
   5 C :   -0.080781
   6 H :    0.098008
   7 C :   -0.073314
   8 H :    0.114531
   9 C :    0.002471
  10 H :    0.103375
  11 O :   -0.142518
  12 O :   -0.317985
  13 O :   -0.316383
  14 O :   -0.329252
  15 O :   -0.305187
  16 O :   -0.319336
  17 H :    0.104593
  18 H :    0.119911
  19 H :    0.275259
  20 H :    0.291676
  21 H :    0.277805
  22 H :    0.286174
  23 H :    0.287997

  Mayer bond orders larger than 0.100000
B(  0-C ,  1-C ) :   1.0231 B(  0-C , 16-O ) :   1.0849 B(  0-C , 17-H ) :   0.9132
B(  0-C , 18-H ) :   0.9183 B(  1-C ,  2-H ) :   0.8704 B(  1-C ,  3-C ) :   0.9763
B(  1-C , 11-O ) :   0.9808 B(  3-C ,  4-H ) :   0.8517 B(  3-C ,  5-C ) :   1.0582
B(  3-C , 15-O ) :   1.0129 B(  5-C ,  6-H ) :   0.8475 B(  5-C ,  7-C ) :   1.0254
B(  5-C , 14-O ) :   1.1017 B(  7-C ,  8-H ) :   0.8793 B(  7-C ,  9-C ) :   0.9909
B(  7-C , 13-O ) :   1.0907 B(  9-C , 10-H ) :   0.8910 B(  9-C , 11-O ) :   1.0688
B(  9-C , 12-O ) :   1.0922 B( 12-O , 19-H ) :   0.8074 B( 13-O , 20-H ) :   0.8475
B( 14-O , 21-H ) :   0.8242 B( 15-O , 22-H ) :   0.8425 B( 16-O , 23-H ) :   0.8387

Dispersion correction           -0.025031884
FINAL SINGLE POINT ENERGY      -685.695750889667

DIPOLE MOMENT
-------------

Method             : SCF
Type of density    : Electron Density
Multiplicity       :   1
Irrep              :   0
Energy             :  -685.8273810521283167 Eh
Relativity type    :
Basis              : AO
                                X                 Y                 Z
Electronic contribution:      2.454338297      -0.358653167      -0.332174959
Nuclear contribution   :     -3.288996014       1.131999329       0.559584008
                        -----------------------------------------
Total Dipole Moment    :     -0.834657717       0.773346162       0.227409049
                        -----------------------------------------
Magnitude (a.u.)       :      1.160358852
Magnitude (Debye)      :      2.949397810

Rotational constants in cm-1:             0.042006             0.028294             0.020497
Rotational constants in MHz :          1259.299494           848.236292           614.472036

                             ****ORCA TERMINATED NORMALLY****
TOTAL RUN TIME: 0 days 0 hours 0 minutes 12 seconds 172 msec
