                         Program Version 6.0.0  -   RELEASE  -
|  1> ! pbe def2-sv(p) def2/J RI DEFGRID1 loosescf d4 GCP(DFT/SV(P)) printgap
|  2> %output
|  3>     printlevel normal
|  4> end
|  5> * xyz 0 1
|  6> C -1.0393413597 0.7707783377 -0.0899285707
|  7> C -1.0369778235 -0.7698785592 -0.1090474241
|  8> C 0.4132793185 -1.1515262105 0.2101441574
|  9> N 1.1687003617 -0.0034936837 -0.2614049042
| 10> C 0.4186624412 1.1534408473 0.1980682645
| 11> H -1.7069185546 1.169796594 0.6711601324
| 12> H -1.3478220198 1.1629930173 -1.0566209894
| 13> H -1.7266462252 -1.1920150869 0.6189472694
| 14> H -1.3103684261 -1.1372988319 -1.0959801058
| 15> H 0.5289376913 -1.3136949373 1.2961473532
| 16> H 0.7388414055 -2.0525240831 -0.3109348204
| 17> H 2.1217111399 -0.0032077645 0.0837970323
| 18> H 0.5518731418 1.3375169249 1.2783525661
| 19> H 0.7378579122 2.0434467471 -0.3455778153
| 20> *
| 21>
| 22>                          ****END OF INPUT****

CARTESIAN COORDINATES (ANGSTROEM)
---------------------------------
  C     -1.039341    0.770778   -0.089929
  C     -1.036978   -0.769879   -0.109047
  C      0.413279   -1.151526    0.210144
  N      1.168700   -0.003494   -0.261405
  C      0.418662    1.153441    0.198068
  H     -1.706919    1.169797    0.671160
  H     -1.347822    1.162993   -1.056621
  H     -1.726646   -1.192015    0.618947
  H     -1.310368   -1.137299   -1.095980
  H      0.528938   -1.313695    1.296147
  H      0.738841   -2.052524   -0.310935
  H      2.121711   -0.003208    0.083797
  H      0.551873    1.337517    1.278353
  H      0.737858    2.043447   -0.345578

 Total Charge           Charge          ....    0
 Multiplicity           Mult            ....    1
 Number of Electrons    NEL             ....   40
 Basis Dimension        Dim             ....   88

ORBITAL ENERGIES
----------------

  NO   OCC          E(Eh)            E(eV)
   0   2.0000     -13.961685      -379.9168
   1   2.0000      -9.901527      -269.4343
   2   2.0000      -9.901495      -269.4334
   3   2.0000      -9.879953      -268.8472
   4   2.0000      -9.879799      -268.8430
   5   2.0000      -0.828448       -22.5432
   6   2.0000      -0.679595       -18.4927
   7   2.0000      -0.642283       -17.4774
   8   2.0000      -0.521087       -14.1795
   9   2.0000      -0.506708       -13.7882
  10   2.0000      -0.460340       -12.5265
  11   2.0000      -0.432713       -11.7747
  12   2.0000      -0.381095       -10.3701
  13   2.0000      -0.348760        -9.4902
  14   2.0000      -0.326055        -8.8724
  15   2.0000      -0.324776        -8.8376
  16   2.0000      -0.299463        -8.1488
  17   2.0000      -0.296920        -8.0796
  18   2.0000      -0.274412        -7.4671
  19   2.0000      -0.170479        -4.6390
  20   0.0000       0.029589         0.8052
  21   0.0000       0.056057         1.5254
  22   0.0000       0.078613         2.1392
  23   0.0000       0.084015         2.2862
  24   0.0000       0.107632         2.9288

MULLIKEN ATOMIC CHARGES
-----------------------
   0 C :   -0.169292
   1 C :   -0.165409
   2 C :   -0.047916
   3 N :   -0.387564
   4 C :   -0.044336
   5 H :    0.083406
   6 H :    0.087875
   7 H :    0.083578
   8 H :    0.087802
   9 H :    0.052812
  10 H :    0.083617
  11 H :    0.199479
  12 H :    0.052761
  13 H :    0.083187
Sum of atomic charges:    0.0000000

LOEWDIN ATOMIC CHARGES
----------------------
   0 C :   -0.234564
   1 C :   -0.234117
   2 C :   -0.167351
   3 N :   -0.273617
   4 C :   -0.167289
   5 H :    0.118018
   6 H :    0.122191
   7 H :    0.117915
   8 H :    0.122187
   9 H :    0.085676
  10 H :    0.109422
  11 H :    0.206207
  12 H :    0.086021
  13 H :    0.109301

  Mayer bond orders larger than 0.100000
B(  0-C ,  1-C ) :   1.1786 B(  0-C ,  4-C ) :   1.1760 B(  0-C ,  5-H ) :   0.9239
B(  0-C ,  6-H ) :   0.9170 B(  1-C ,  2-C ) :   1.1772 B(  1-C ,  7-H ) :   0.9242
B(  1-C ,  8-H ) :   0.9159 B(  2-C ,  3-N ) :   1.0623 B(  2-C ,  9-H ) :   0.9035
B(  2-C , 10-H ) :   0.9310 B(  3-N ,  4-C ) :   1.0677 B(  3-N , 11-H ) :   0.8828
B(  4-C , 12-H ) :   0.9046 B(  4-C , 13-H ) :   0.9308

Dispersion correction           -0.009961041
FINAL SINGLE POINT ENERGY      -212.061507700617

DIPOLE MOMENT
-------------

Method             : SCF
Type of density    : Electron Density
Multiplicity       :   1
Irrep              :   0
Energy             :  -212.1141246228931152 Eh
Relativity type    :
Basis              : AO
                                X                 Y                 Z
Electronic contribution:      1.373254497      -0.012177190      -0.740589266
Nuclear contribution   :     -1.318762619       0.014065139       1.067410760
                        -----------------------------------------
Total Dipole Moment    :      0.054491878       0.001887949       0.326821494
                        -----------------------------------------
Magnitude (a.u.)       :      0.331338525
Magnitude (Debye)      :      0.842195600

Rotational constants in cm-1:             0.232490             0.228271             0.131068
Rotational constants in MHz :          6969.872012          6843.402758          3929.320890

                             ****ORCA TERMINATED NORMALLY****
TOTAL RUN TIME: 0 days 0 hours 0 minutes 4 seconds 676 msec
