                         Program Version 6.0.0  -   RELEASE  -
|  1> ! pbe def2-sv(p) def2/J RI DEFGRID1 loosescf d4 GCP(DFT/SV(P)) printgap
|  2> %output
|  3>     printlevel normal
|  4> end
|  5> * xyz 0 1
|  6> C -2.2661431447 -1.1158555014 -0.1162115485
|  7> C -0.88865572 -0.5664733522 0.2564874396
|  8> H -0.7635238977 -0.6011288302 1.3481737696
|  9> C -0.7245300563 0.8943543995 -0.2024448026
| 10> H -1.152687241 1.001424795 -1.2120478071
| 11> C 0.7671413173 1.2671610975 -0.3075471988
| 12> H 0.8593042621 2.2781946178 0.1099796648
| 13> C 1.6365805031 0.289313444 0.5061101642
| 14> H 2.6998938328 0.510597723 0.3226946252
| 15> C 1.4093953466 -1.1489070786 -0.0123158901
| 16> H 1.713147609 -1.8497758133 0.7820481114
| 17> O 0.0673197028 -1.3981716079 -0.3738753613
| 18> O 2.2044135233 -1.4267002905 -1.1091412893
| 19> O 1.3609014648 0.3134241176 1.8818217242
| 20> O 1.1486921009 1.2363864879 -1.6642532938
| 21> O -1.3323226482 1.7911671903 0.6912421535
| 22> O -3.2466659466 -0.2958343189 0.4763522161
| 23> H -2.3342166772 -2.148699951 0.2424513759
| 24> H -2.3537050693 -1.1147358005 -1.2097525712
| 25> H 1.8737795583 -0.9038947087 -1.8620228096
| 26> H 1.4980305367 1.2072640848 2.2297971665
| 27> H 1.9030988537 1.8246702818 -1.8090858901
| 28> H -2.2414582445 1.4863575345 0.849791163
| 29> H -4.1245431445 -0.6536083147 0.2826830641
| 30> *
| 31>
| 32>                          ****END OF INPUT****

CARTESIAN COORDINATES (ANGSTROEM)
---------------------------------
  C     -2.266143   -1.115856   -0.116212
  C     -0.888656   -0.566473    0.256487
  H     -0.763524   -0.601129    1.348174
  C     -0.724530    0.894354   -0.202445
  H     -1.152687    1.001425   -1.212048
  C      0.767141    1.267161   -0.307547
  H      0.859304    2.278195    0.109980
  C      1.636581    0.289313    0.506110
  H      2.699894    0.510598    0.322695
  C      1.409395   -1.148907   -0.012316
  H      1.713148   -1.849776    0.782048
  O      0.067320   -1.398172   -0.373875
  O      2.204414   -1.426700   -1.109141
  O      1.360901    0.313424    1.881822
  O      1.148692    1.236386   -1.664253
  O     -1.332323    1.791167    0.691242
  O     -3.246666   -0.295834    0.476352
  H     -2.334217   -2.148700    0.242451
  H     -2.353705   -1.114736   -1.209753
  H      1.873780   -0.903895   -1.862023
  H      1.498031    1.207264    2.229797
  H      1.903099    1.824670   -1.809086
  H     -2.241458    1.486358    0.849791
  H     -4.124543   -0.653608    0.282683

 Total Charge           Charge          ....    0
 Multiplicity           Mult            ....    1
 Number of Electrons    NEL             ....   96
 Basis Dimension        Dim             ....  192

ORBITAL ENERGIES
----------------

  NO   OCC          E(Eh)            E(eV)
   0   2.0000     -18.771066      -510.7867
   1   2.0000     -18.769107      -510.7334
   2   2.0000     -18.758002      -510.4312
   3   2.0000     -18.756850      -510.3998
   4   2.0000     -18.738990      -509.9138
   5   2.0000     -18.735965      -509.8315
   6   2.0000      -9.975206      -271.4392
   7   2.0000      -9.945090      -270.6197
   8   2.0000      -9.937992      -270.4265
   9   2.0000      -9.937136      -270.4032
  10   2.0000      -9.932683      -270.2820
  11   2.0000      -9.932013      -270.2638
  12   2.0000      -0.972151       -26.4536
  13   2.0000      -0.944069       -25.6894
  14   2.0000      -0.942777       -25.6543
  15   2.0000      -0.930400       -25.3175
  16   2.0000      -0.914108       -24.8742
  17   2.0000      -0.898140       -24.4396
  18   2.0000      -0.695093       -18.9145
  19   2.0000      -0.684808       -18.6346
  20   2.0000      -0.623404       -16.9637
  21   2.0000      -0.568148       -15.4601
  22   2.0000      -0.564139       -15.3510
  23   2.0000      -0.508066       -13.8252
  24   2.0000      -0.500454       -13.6180
  25   2.0000      -0.496950       -13.5227
  26   2.0000      -0.479116       -13.0374
  27   2.0000      -0.462044       -12.5729
  28   2.0000      -0.443055       -12.0561
  29   2.0000      -0.425348       -11.5743
  30   2.0000      -0.410751       -11.1771
  31   2.0000      -0.397590       -10.8190
  32   2.0000      -0.382039       -10.3958
  33   2.0000      -0.371542       -10.1102
  34   2.0000      -0.358305        -9.7500
  35   2.0000      -0.344209        -9.3664
  36   2.0000      -0.319840        -8.7033
  37   2.0000      -0.318577        -8.6689
  38   2.0000      -0.307656        -8.3718
  39   2.0000      -0.287894        -7.8340
  40   2.0000      -0.286409        -7.7936
  41   2.0000      -0.263661        -7.1746
  42   2.0000      -0.250001        -6.8029
  43   2.0000      -0.237541        -6.4638
  44   2.0000      -0.234262        -6.3746
  45   2.0000      -0.216056        -5.8792
  46   2.0000      -0.210519        -5.7285
  47   2.0000      -0.191221        -5.2034
  48   0.0000       0.006208         0.1689
  49   0.0000       0.013333         0.3628
  50   0.0000       0.022526         0.6130
  51   0.0000       0.069305         1.8859
  52   0.0000       0.070785         1.9262

MULLIKEN ATOMIC CHARGES
-----------------------
   0 C :    0.073732
   1 C :   -0.019315
   2 H :    0.082106
   3 C :    0.098369
   4 H :    0.051356
   5 C :    0.030819
   6 H :    0.063972
   7 C :   -0.022517
   8 H :    0.060552
   9 C :    0.230751
  10 H :    0.069847
  11 O :   -0.311729
  12 O :   -0.400238
  13 O :   -0.400130
  14 O :   -0.414472
  15 O :   -0.432465
  16 O :   -0.447974
  17 H :    0.085931
  18 H :    0.075224
  19 H :    0.291628
  20 H :    0.305815
  21 H :    0.309267
  22 H :    0.304844
  23 H :    0.314627
Sum of atomic charges:    0.0000000

LOEWDIN ATOMIC CHARGES
----------------------
   0 C :   -0.121437
   1 C :   -0.075778
   2 H :    0.112236
   3 C :   -0.061751
   4 H :    0.103397
   5 C :   -0.071248
   6 H :    0.105445
   7 C :   -0.103321
   8 H :    0.100199
   9 C :    0.016783
  10 H :    0.102413
  11 O :   -0.149654
  12 O :   -0.302522
  13 O :   -0.306895
  14 O :   -0.309592
  15 O :   -0.328491
  16 O :   -0.336328
  17 H :    0.104376
  18 H :    0.099454
  19 H :    0.270843
  20 H :    0.288770
  21 H :    0.292594
  22 H :    0.275546
  23 H :    0.294961

  Mayer bond orders larger than 0.100000
B(  0-C ,  1-C ) :   1.0582 B(  0-C , 16-O ) :   1.0548 B(  0-C , 17-H ) :   0.9187
B(  0-C , 18-H ) :   0.9069 B(  1-C ,  2-H ) :   0.8607 B(  1-C ,  3-C ) :   1.0314
B(  1-C , 11-O ) :   1.0163 B(  3-C ,  4-H ) :   0.8780 B(  3-C ,  5-C ) :   0.9868
B(  3-C , 15-O ) :   1.0944 B(  5-C ,  6-H ) :   0.8880 B(  5-C ,  7-C ) :   1.0072
B(  5-C , 14-O ) :   1.0439 B(  7-C ,  8-H ) :   0.8985 B(  7-C ,  9-C ) :   0.9480
B(  7-C , 13-O ) :   1.0589 B(  9-C , 10-H ) :   0.9033 B(  9-C , 11-O ) :   1.0304
B(  9-C , 12-O ) :   1.1431 B( 12-O , 19-H ) :   0.8235 B( 13-O , 20-H ) :   0.8421
B( 14-O , 21-H ) :   0.8426 B( 15-O , 22-H ) :   0.8149 B( 16-O , 23-H ) :   0.8435

Dispersion correction           -0.024869803
FINAL SINGLE POINT ENERGY      -685.692203066536

DIPOLE MOMENT
-------------

Method             : SCF
Type of density    : Electron Density
Multiplicity       :   1
Irrep              :   0
Energy             :  -685.8234600117477839 Eh
Relativity type    :
Basis              : AO
                                X                 Y                 Z
Electronic contribution:      1.722765595      -0.230971828      -0.190973892
Nuclear contribution   :     -2.270075723       0.975831917       0.068640906
                        -----------------------------------------
Total Dipole Moment    :     -0.547310128       0.744860089      -0.122332987
                        -----------------------------------------
Magnitude (a.u.)       :      0.932378833
Magnitude (Debye)      :      2.369918653

Rotational constants in cm-1:             0.044455             0.024958             0.021934
Rotational constants in MHz :          1332.732369           748.231660           657.563933

                             ****ORCA TERMINATED NORMALLY****
TOTAL RUN TIME: 0 days 0 hours 0 minutes 12 seconds 78 msec
