                         Program Version 6.0.0  -   RELEASE  -
|  1> ! r2scan-3c def2/J RI DEFGRID2 scfconv6 printgap
|  2> %output
|  3>     printlevel normal
|  4> end
|  5> * xyz 0 1
|  6> C -3.4223921522 0.5637920575 0.0793009537
|  7> C -1.9264429346 0.4843861949 0.1023545554
|  8> C -1.1395937987 1.5238774648 -0.1411895546
|  9> C 0.3568001326 1.4833602931 -0.1220923739
| 10> C 0.8704177008 0.0504275802 -0.2801584099
| 11> H 0.6147724449 -0.2899946595 -1.2901789861
| 12> C 0.129022652 -0.8395452649 0.7245801876
| 13> C -1.3684336031 -0.8907973993 0.4022818988
| 14> H -1.9074622749 -1.3151179695 1.2591778041
| 15> O -1.6586448164 -1.8011591077 -0.6525419423
| 16> C 2.3673461228 -0.065425614 -0.1279592184
| 17> C 3.1016504399 -0.649167692 -1.0632760305
| 18> C 2.9867744095 0.492277539 1.1175912429
| 19> H -3.7595545357 1.5121306011 -0.3292117686
| 20> H -3.8163377096 0.4560373366 1.0895502275
| 21> H -3.8245725025 -0.2518307726 -0.5196227326
| 22> H -1.5812000731 2.4903434286 -0.3458139462
| 23> H 0.7537047761 2.113398852 -0.9214581945
| 24> H 0.700617309 1.9022563348 0.8275852124
| 25> H 0.5290992355 -1.8552623627 0.7023440292
| 26> H 0.249762445 -0.4405574107 1.7319228031
| 27> H -1.2029205092 -1.5033752162 -1.4515339041
| 28> H 4.1688700966 -0.7558682809 -0.9647664775
| 29> H 2.6703155611 -1.0461635897 -1.9670189445
| 30> H 2.4455008624 0.1623164778 2.0010952582
| 31> H 4.0219559987 0.1732038793 1.2015793869
| 32> H 2.9675387742 1.580875531 1.0950869843
| 33> *
| 34>
| 35>                          ****END OF INPUT****

CARTESIAN COORDINATES (ANGSTROEM)
---------------------------------
  C     -3.422392    0.563792    0.079301
  C     -1.926443    0.484386    0.102355
  C     -1.139594    1.523877   -0.141190
  C      0.356800    1.483360   -0.122092
  C      0.870418    0.050428   -0.280158
  H      0.614772   -0.289995   -1.290179
  C      0.129023   -0.839545    0.724580
  C     -1.368434   -0.890797    0.402282
  H     -1.907462   -1.315118    1.259178
  O     -1.658645   -1.801159   -0.652542
  C      2.367346   -0.065426   -0.127959
  C      3.101650   -0.649168   -1.063276
  C      2.986774    0.492278    1.117591
  H     -3.759555    1.512131   -0.329212
  H     -3.816338    0.456037    1.089550
  H     -3.824573   -0.251831   -0.519623
  H     -1.581200    2.490343   -0.345814
  H      0.753705    2.113399   -0.921458
  H      0.700617    1.902256    0.827585
  H      0.529099   -1.855262    0.702344
  H      0.249762   -0.440557    1.731923
  H     -1.202921   -1.503375   -1.451534
  H      4.168870   -0.755868   -0.964766
  H      2.670316   -1.046164   -1.967019
  H      2.445501    0.162316    2.001095
  H      4.021956    0.173204    1.201579
  H      2.967539    1.580876    1.095087

 Total Charge           Charge          ....    0
 Multiplicity           Mult            ....    1
 Number of Electrons    NEL             ....   84
 Basis Dimension        Dim             ....  294

ORBITAL ENERGIES
----------------

  NO   OCC          E(Eh)            E(eV)
   0   2.0000     -18.947400      -515.5850
   1   2.0000     -10.083314      -274.3809
   2   2.0000     -10.043656      -273.3018
   3   2.0000     -10.041538      -273.2442
   4   2.0000     -10.035573      -273.0818
   5   2.0000     -10.033018      -273.0123
   6   2.0000     -10.028590      -272.8918
   7   2.0000     -10.027495      -272.8620
   8   2.0000     -10.027364      -272.8584
   9   2.0000     -10.020094      -272.6606
  10   2.0000     -10.013340      -272.4768
  11   2.0000      -0.985109       -26.8062
  12   2.0000      -0.816220       -22.2105
  13   2.0000      -0.773308       -21.0428
  14   2.0000      -0.723715       -19.6933
  15   2.0000      -0.705921       -19.2091
  16   2.0000      -0.659194       -17.9376
  17   2.0000      -0.645243       -17.5579
  18   2.0000      -0.595454       -16.2031
  19   2.0000      -0.570425       -15.5220
  20   2.0000      -0.514210       -13.9924
  21   2.0000      -0.491293       -13.3688
  22   2.0000      -0.455723       -12.4009
  23   2.0000      -0.439988       -11.9727
  24   2.0000      -0.422496       -11.4967
  25   2.0000      -0.420216       -11.4347
  26   2.0000      -0.409761       -11.1502
  27   2.0000      -0.395702       -10.7676
  28   2.0000      -0.389032       -10.5861
  29   2.0000      -0.384768       -10.4701
  30   2.0000      -0.374888       -10.2012
  31   2.0000      -0.360364        -9.8060
  32   2.0000      -0.341418        -9.2905
  33   2.0000      -0.339456        -9.2371
  34   2.0000      -0.329928        -8.9778
  35   2.0000      -0.321579        -8.7506
  36   2.0000      -0.306274        -8.3341
  37   2.0000      -0.290137        -7.8950
  38   2.0000      -0.283347        -7.7103
  39   2.0000      -0.236791        -6.4434
  40   2.0000      -0.227917        -6.2019
  41   2.0000      -0.219451        -5.9716
  42   0.0000      -0.015664        -0.4262
  43   0.0000      -0.005167        -0.1406
  44   0.0000       0.055462         1.5092
  45   0.0000       0.076883         2.0921
  46   0.0000       0.092767         2.5243

MULLIKEN ATOMIC CHARGES
-----------------------
   0 C :   -0.553671
   1 C :    0.094303
   2 C :   -0.194720
   3 C :   -0.330070
   4 C :   -0.047653
   5 H :    0.160650
   6 C :   -0.375630
   7 C :   -0.021612
   8 H :    0.150161
   9 O :   -0.409914
  10 C :    0.093081
  11 C :   -0.378839
  12 C :   -0.552947
  13 H :    0.148718
  14 H :    0.157740
  15 H :    0.176192
  16 H :    0.153321
  17 H :    0.161571
  18 H :    0.167298
  19 H :    0.182786
  20 H :    0.157996
  21 H :    0.298432
  22 H :    0.137828
  23 H :    0.141118
  24 H :    0.163695
  25 H :    0.152574
  26 H :    0.167594
Sum of atomic charges:    0.0000000

LOEWDIN ATOMIC CHARGES
----------------------
   0 C :   -0.388316
   1 C :   -0.108630
   2 C :   -0.184804
   3 C :   -0.269142
   4 C :   -0.196627
   5 H :    0.165018
   6 C :   -0.252910
   7 C :    0.076810
   8 H :    0.190877
   9 O :   -0.596793
  10 C :   -0.118843
  11 C :   -0.321633
  12 C :   -0.395009
  13 H :    0.157318
  14 H :    0.161532
  15 H :    0.170538
  16 H :    0.164227
  17 H :    0.167536
  18 H :    0.170900
  19 H :    0.176234
  20 H :    0.166501
  21 H :    0.266725
  22 H :    0.155759
  23 H :    0.156781
  24 H :    0.160991
  25 H :    0.161335
  26 H :    0.163625

  Mayer bond orders larger than 0.100000
B(  0-C ,  1-C ) :   0.8322 B(  0-C , 13-H ) :   0.9976 B(  0-C , 14-H ) :   0.9697
B(  0-C , 15-H ) :   0.9710 B(  1-C ,  2-C ) :   1.8449 B(  1-C ,  7-C ) :   0.9412
B(  2-C ,  3-C ) :   0.9284 B(  2-C , 16-H ) :   0.9242 B(  3-C ,  4-C ) :   0.8955
B(  3-C , 17-H ) :   0.9688 B(  3-C , 18-H ) :   0.9687 B(  4-C ,  5-H ) :   1.0043
B(  4-C ,  6-C ) :   0.8503 B(  4-C , 10-C ) :   0.8800 B(  6-C ,  7-C ) :   0.9214
B(  6-C , 19-H ) :   0.9770 B(  6-C , 20-H ) :   0.9929 B(  7-C ,  8-H ) :   0.9778
B(  7-C ,  9-O ) :   0.9531 B(  9-O , 21-H ) :   0.8882 B( 10-C , 11-C ) :   1.8628
B( 10-C , 12-C ) :   0.8707 B( 11-C , 22-H ) :   0.9671 B( 11-C , 23-H ) :   0.9935
B( 12-C , 24-H ) :   0.9781 B( 12-C , 25-H ) :   0.9800 B( 12-C , 26-H ) :   0.9697

Dispersion correction           -0.009627571
FINAL SINGLE POINT ENERGY      -465.759396451442

DIPOLE MOMENT
-------------

Method             : SCF
Type of density    : Electron Density
Multiplicity       :   1
Irrep              :   0
Energy             :  -465.7614943500385607 Eh
Relativity type    :
Basis              : AO
                                X                 Y                 Z
Electronic contribution:     -2.563923435      -2.146783079      -1.806820719
Nuclear contribution   :      2.818133301       2.724363257       1.978051542
                        -----------------------------------------
Total Dipole Moment    :      0.254209866       0.577580178       0.171230823
                        -----------------------------------------
Magnitude (a.u.)       :      0.653866586
Magnitude (Debye)      :      1.661996781

Rotational constants in cm-1:             0.071130             0.022720             0.019843
Rotational constants in MHz :          2132.434578           681.120988           594.892494

                             ****ORCA TERMINATED NORMALLY****
TOTAL RUN TIME: 0 days 0 hours 0 minutes 43 seconds 137 msec
