                         Program Version 6.0.0  -   RELEASE  -
|  1> ! r2scan-3c def2/J RI DEFGRID2 scfconv6 printgap
|  2> %output
|  3>     printlevel normal
|  4> end
|  5> %cpcm
|  6>     smd true
|  7>     smdsolvent "water"
|  8> end
|  9> * xyz 0 1
| 10> C -3.4223921522 0.5637920575 0.0793009537
| 11> C -1.9264429346 0.4843861949 0.1023545554
| 12> C -1.1395937987 1.5238774648 -0.1411895546
| 13> C 0.3568001326 1.4833602931 -0.1220923739
| 14> C 0.8704177008 0.0504275802 -0.2801584099
| 15> H 0.6147724449 -0.2899946595 -1.2901789861
| 16> C 0.129022652 -0.8395452649 0.7245801876
| 17> C -1.3684336031 -0.8907973993 0.4022818988
| 18> H -1.9074622749 -1.3151179695 1.2591778041
| 19> O -1.6586448164 -1.8011591077 -0.6525419423
| 20> C 2.3673461228 -0.065425614 -0.1279592184
| 21> C 3.1016504399 -0.649167692 -1.0632760305
| 22> C 2.9867744095 0.492277539 1.1175912429
| 23> H -3.7595545357 1.5121306011 -0.3292117686
| 24> H -3.8163377096 0.4560373366 1.0895502275
| 25> H -3.8245725025 -0.2518307726 -0.5196227326
| 26> H -1.5812000731 2.4903434286 -0.3458139462
| 27> H 0.7537047761 2.113398852 -0.9214581945
| 28> H 0.700617309 1.9022563348 0.8275852124
| 29> H 0.5290992355 -1.8552623627 0.7023440292
| 30> H 0.249762445 -0.4405574107 1.7319228031
| 31> H -1.2029205092 -1.5033752162 -1.4515339041
| 32> H 4.1688700966 -0.7558682809 -0.9647664775
| 33> H 2.6703155611 -1.0461635897 -1.9670189445
| 34> H 2.4455008624 0.1623164778 2.0010952582
| 35> H 4.0219559987 0.1732038793 1.2015793869
| 36> H 2.9675387742 1.580875531 1.0950869843
| 37> *
| 38>
| 39>                          ****END OF INPUT****

CARTESIAN COORDINATES (ANGSTROEM)
---------------------------------
  C     -3.422392    0.563792    0.079301
  C     -1.926443    0.484386    0.102355
  C     -1.139594    1.523877   -0.141190
  C      0.356800    1.483360   -0.122092
  C      0.870418    0.050428   -0.280158
  H      0.614772   -0.289995   -1.290179
  C      0.129023   -0.839545    0.724580
  C     -1.368434   -0.890797    0.402282
  H     -1.907462   -1.315118    1.259178
  O     -1.658645   -1.801159   -0.652542
  C      2.367346   -0.065426   -0.127959
  C      3.101650   -0.649168   -1.063276
  C      2.986774    0.492278    1.117591
  H     -3.759555    1.512131   -0.329212
  H     -3.816338    0.456037    1.089550
  H     -3.824573   -0.251831   -0.519623
  H     -1.581200    2.490343   -0.345814
  H      0.753705    2.113399   -0.921458
  H      0.700617    1.902256    0.827585
  H      0.529099   -1.855262    0.702344
  H      0.249762   -0.440557    1.731923
  H     -1.202921   -1.503375   -1.451534
  H      4.168870   -0.755868   -0.964766
  H      2.670316   -1.046164   -1.967019
  H      2.445501    0.162316    2.001095
  H      4.021956    0.173204    1.201579
  H      2.967539    1.580876    1.095087

 Total Charge           Charge          ....    0
 Multiplicity           Mult            ....    1
 Number of Electrons    NEL             ....   84
 Basis Dimension        Dim             ....  294

ORBITAL ENERGIES
----------------

  NO   OCC          E(Eh)            E(eV)
   0   2.0000     -18.950703      -515.6748
   1   2.0000     -10.078833      -274.2590
   2   2.0000     -10.038051      -273.1493
   3   2.0000     -10.032906      -273.0092
   4   2.0000     -10.028050      -272.8771
   5   2.0000     -10.024485      -272.7801
   6   2.0000     -10.021167      -272.6898
   7   2.0000     -10.020497      -272.6716
   8   2.0000     -10.015174      -272.5267
   9   2.0000     -10.013822      -272.4900
  10   2.0000     -10.006017      -272.2776
  11   2.0000      -0.987728       -26.8774
  12   2.0000      -0.808654       -22.0046
  13   2.0000      -0.767687       -20.8898
  14   2.0000      -0.716800       -19.5051
  15   2.0000      -0.698740       -19.0137
  16   2.0000      -0.650087       -17.6898
  17   2.0000      -0.639355       -17.3977
  18   2.0000      -0.589309       -16.0359
  19   2.0000      -0.562958       -15.3189
  20   2.0000      -0.508830       -13.8460
  21   2.0000      -0.482814       -13.1380
  22   2.0000      -0.449151       -12.2220
  23   2.0000      -0.432672       -11.7736
  24   2.0000      -0.416701       -11.3390
  25   2.0000      -0.413902       -11.2628
  26   2.0000      -0.403892       -10.9904
  27   2.0000      -0.389550       -10.6002
  28   2.0000      -0.381412       -10.3788
  29   2.0000      -0.375124       -10.2076
  30   2.0000      -0.366943        -9.9850
  31   2.0000      -0.354187        -9.6379
  32   2.0000      -0.333459        -9.0739
  33   2.0000      -0.331255        -9.0139
  34   2.0000      -0.323160        -8.7936
  35   2.0000      -0.318664        -8.6713
  36   2.0000      -0.295272        -8.0348
  37   2.0000      -0.284786        -7.7494
  38   2.0000      -0.279037        -7.5930
  39   2.0000      -0.238635        -6.4936
  40   2.0000      -0.224922        -6.1204
  41   2.0000      -0.215997        -5.8776
  42   0.0000      -0.011701        -0.3184
  43   0.0000      -0.001352        -0.0368
  44   0.0000       0.070262         1.9119
  45   0.0000       0.090519         2.4632
  46   0.0000       0.101062         2.7500

MULLIKEN ATOMIC CHARGES
-----------------------
   0 C :   -0.578504
   1 C :    0.051171
   2 C :   -0.228917
   3 C :   -0.336869
   4 C :   -0.007239
   5 H :    0.189150
   6 C :   -0.415288
   7 C :    0.009606
   8 H :    0.168289
   9 O :   -0.496276
  10 C :    0.042643
  11 C :   -0.456605
  12 C :   -0.574014
  13 H :    0.167229
  14 H :    0.176341
  15 H :    0.171727
  16 H :    0.176164
  17 H :    0.173143
  18 H :    0.187054
  19 H :    0.180927
  20 H :    0.184159
  21 H :    0.354435
  22 H :    0.162428
  23 H :    0.165526
  24 H :    0.181895
  25 H :    0.166827
  26 H :    0.184999
Sum of atomic charges:    0.0000000

LOEWDIN ATOMIC CHARGES
----------------------
   0 C :   -0.395848
   1 C :   -0.117236
   2 C :   -0.187606
   3 C :   -0.269467
   4 C :   -0.197326
   5 H :    0.174758
   6 C :   -0.252588
   7 C :    0.075707
   8 H :    0.196542
   9 O :   -0.633127
  10 C :   -0.120128
  11 C :   -0.351662
  12 C :   -0.401499
  13 H :    0.162926
  14 H :    0.167273
  15 H :    0.167505
  16 H :    0.171757
  17 H :    0.171653
  18 H :    0.177701
  19 H :    0.174064
  20 H :    0.175120
  21 H :    0.283894
  22 H :    0.161172
  23 H :    0.162937
  24 H :    0.168203
  25 H :    0.164480
  26 H :    0.170795

  Mayer bond orders larger than 0.100000
B(  0-C ,  1-C ) :   0.8315 B(  0-C , 13-H ) :   0.9913 B(  0-C , 14-H ) :   0.9648
B(  0-C , 15-H ) :   0.9708 B(  1-C ,  2-C ) :   1.8483 B(  1-C ,  7-C ) :   0.9252
B(  2-C ,  3-C ) :   0.9173 B(  2-C , 16-H ) :   0.9301 B(  3-C ,  4-C ) :   0.8838
B(  3-C , 17-H ) :   0.9652 B(  3-C , 18-H ) :   0.9657 B(  4-C ,  5-H ) :   1.0010
B(  4-C ,  6-C ) :   0.8326 B(  4-C , 10-C ) :   0.8555 B(  6-C ,  7-C ) :   0.9177
B(  6-C , 19-H ) :   0.9796 B(  6-C , 20-H ) :   0.9906 B(  7-C ,  8-H ) :   0.9747
B(  7-C ,  9-O ) :   0.9240 B(  9-O , 21-H ) :   0.8616 B( 10-C , 11-C ) :   1.8532
B( 10-C , 12-C ) :   0.8806 B( 11-C , 22-H ) :   0.9697 B( 11-C , 23-H ) :   0.9872
B( 12-C , 24-H ) :   0.9699 B( 12-C , 25-H ) :   0.9768 B( 12-C , 26-H ) :   0.9611

Dispersion correction           -0.009627571
FINAL SINGLE POINT ENERGY      -465.766383533685

DIPOLE MOMENT
-------------

Method             : SCF
Type of density    : Electron Density
Multiplicity       :   1
Irrep              :   0
Energy             :  -465.7684814322809075 Eh
Relativity type    :
Basis              : AO
                                X                 Y                 Z
Electronic contribution:     -2.475596209      -1.847794678      -1.716764688
Nuclear contribution   :      2.818133301       2.724363257       1.978051542
                        -----------------------------------------
Total Dipole Moment    :      0.342537092       0.876568578       0.261286854
                        -----------------------------------------
Magnitude (a.u.)       :      0.976716413
Magnitude (Debye)      :      2.482615825

Rotational constants in cm-1:             0.071130             0.022720             0.019843
Rotational constants in MHz :          2132.434578           681.120988           594.892494

                             ****ORCA TERMINATED NORMALLY****
TOTAL RUN TIME: 0 days 0 hours 0 minutes 56 seconds 573 msec
