                         Program Version 6.0.0  -   RELEASE  -
|  1> ! pbe def2-sv(p) def2/J RI DEFGRID1 loosescf d4 GCP(DFT/SV(P)) printgap
|  2> %output
|  3>     printlevel normal
|  4> end
|  5> * xyz 0 1
|  6> C -2.5438462012 -0.9279852278 0.2786331102
|  7> C -1.1241332421 -0.469470561 0.6179848367
|  8> H -1.0337010457 -0.3817098565 1.7129734553
|  9> C -0.8296732736 0.9044716086 0.0025785255
| 10> H -1.0462729386 0.8507052542 -1.0751413497
| 11> C 0.6502764514 1.2691890067 0.2109706612
| 12> H 0.8211362456 1.4049755547 1.2874561368
| 13> C 1.5488334214 0.1398621365 -0.3112208016
| 14> H 1.3979661596 0.0052153331 -1.3883598311
| 15> C 1.1285978773 -1.1755119683 0.3766814559
| 16> H 1.2936897855 -1.0758891295 1.474805692
| 17> O -0.2297751414 -1.4550424814 0.1433558751
| 18> O 1.87274515 -2.217328961 -0.137402088
| 19> O 2.9105448921 0.4227269633 -0.1595508519
| 20> O 0.9457853834 2.5180957469 -0.3640010414
| 21> O -1.6656981771 1.8457268594 0.6285987961
| 22> O -2.7145827715 -0.919274526 -1.1186110573
| 23> H -3.2384814855 -0.232085186 0.7634442374
| 24> H -2.6787106997 -1.9379277433 0.6818564579
| 25> H 1.397642163 -3.0508152414 0.008902777
| 26> H 3.1345907911 0.5150399535 0.7779004179
| 27> H 1.0827925901 2.4203277591 -1.3171529973
| 28> H -1.3539033366 2.7327861961 0.3876809687
| 29> H -3.5979893842 -1.2527527843 -1.3293516252
| 30> *
| 31>
| 32>                          ****END OF INPUT****

CARTESIAN COORDINATES (ANGSTROEM)
---------------------------------
  C     -2.543846   -0.927985    0.278633
  C     -1.124133   -0.469471    0.617985
  H     -1.033701   -0.381710    1.712973
  C     -0.829673    0.904472    0.002579
  H     -1.046273    0.850705   -1.075141
  C      0.650276    1.269189    0.210971
  H      0.821136    1.404976    1.287456
  C      1.548833    0.139862   -0.311221
  H      1.397966    0.005215   -1.388360
  C      1.128598   -1.175512    0.376681
  H      1.293690   -1.075889    1.474806
  O     -0.229775   -1.455042    0.143356
  O      1.872745   -2.217329   -0.137402
  O      2.910545    0.422727   -0.159551
  O      0.945785    2.518096   -0.364001
  O     -1.665698    1.845727    0.628599
  O     -2.714583   -0.919275   -1.118611
  H     -3.238481   -0.232085    0.763444
  H     -2.678711   -1.937928    0.681856
  H      1.397642   -3.050815    0.008903
  H      3.134591    0.515040    0.777900
  H      1.082793    2.420328   -1.317153
  H     -1.353903    2.732786    0.387681
  H     -3.597989   -1.252753   -1.329352

 Total Charge           Charge          ....    0
 Multiplicity           Mult            ....    1
 Number of Electrons    NEL             ....   96
 Basis Dimension        Dim             ....  192

ORBITAL ENERGIES
----------------

  NO   OCC          E(Eh)            E(eV)
   0   2.0000     -18.772231      -510.8184
   1   2.0000     -18.758209      -510.4368
   2   2.0000     -18.755378      -510.3598
   3   2.0000     -18.750948      -510.2392
   4   2.0000     -18.749560      -510.2015
   5   2.0000     -18.748319      -510.1677
   6   2.0000      -9.987968      -271.7864
   7   2.0000      -9.947240      -270.6782
   8   2.0000      -9.941673      -270.5267
   9   2.0000      -9.940993      -270.5082
  10   2.0000      -9.936029      -270.3731
  11   2.0000      -9.933266      -270.2979
  12   2.0000      -0.984488       -26.7893
  13   2.0000      -0.946122       -25.7453
  14   2.0000      -0.933109       -25.3912
  15   2.0000      -0.923616       -25.1329
  16   2.0000      -0.914749       -24.8916
  17   2.0000      -0.910476       -24.7753
  18   2.0000      -0.702359       -19.1122
  19   2.0000      -0.693213       -18.8633
  20   2.0000      -0.617152       -16.7936
  21   2.0000      -0.579714       -15.7748
  22   2.0000      -0.564412       -15.3584
  23   2.0000      -0.533611       -14.5203
  24   2.0000      -0.501290       -13.6408
  25   2.0000      -0.495010       -13.4699
  26   2.0000      -0.468823       -12.7573
  27   2.0000      -0.452678       -12.3180
  28   2.0000      -0.443651       -12.0724
  29   2.0000      -0.429425       -11.6853
  30   2.0000      -0.424498       -11.5512
  31   2.0000      -0.407577       -11.0907
  32   2.0000      -0.388560       -10.5733
  33   2.0000      -0.373474       -10.1627
  34   2.0000      -0.357676        -9.7329
  35   2.0000      -0.345746        -9.4082
  36   2.0000      -0.323747        -8.8096
  37   2.0000      -0.308875        -8.4049
  38   2.0000      -0.297835        -8.1045
  39   2.0000      -0.296464        -8.0672
  40   2.0000      -0.282728        -7.6934
  41   2.0000      -0.272462        -7.4141
  42   2.0000      -0.249054        -6.7771
  43   2.0000      -0.243558        -6.6276
  44   2.0000      -0.234156        -6.3717
  45   2.0000      -0.220248        -5.9932
  46   2.0000      -0.209001        -5.6872
  47   2.0000      -0.199434        -5.4269
  48   0.0000       0.018369         0.4998
  49   0.0000       0.023599         0.6422
  50   0.0000       0.027224         0.7408
  51   0.0000       0.045669         1.2427
  52   0.0000       0.054621         1.4863

MULLIKEN ATOMIC CHARGES
-----------------------
   0 C :    0.075765
   1 C :    0.019967
   2 H :    0.056720
   3 C :    0.053879
   4 H :    0.060232
   5 C :    0.052157
   6 H :    0.045046
   7 C :    0.052366
   8 H :    0.062736
   9 C :    0.183818
  10 H :    0.015089
  11 O :   -0.312491
  12 O :   -0.370929
  13 O :   -0.398503
  14 O :   -0.411352
  15 O :   -0.422759
  16 O :   -0.435516
  17 H :    0.083863
  18 H :    0.074371
  19 H :    0.305601
  20 H :    0.298467
  21 H :    0.303877
  22 H :    0.304368
  23 H :    0.303227
Sum of atomic charges:   -0.0000000

LOEWDIN ATOMIC CHARGES
----------------------
   0 C :   -0.122798
   1 C :   -0.057456
   2 H :    0.106241
   3 C :   -0.079290
   4 H :    0.105854
   5 C :   -0.090197
   6 H :    0.107607
   7 C :   -0.092986
   8 H :    0.119530
   9 C :    0.000847
  10 H :    0.068888
  11 O :   -0.146265
  12 O :   -0.294776
  13 O :   -0.302079
  14 O :   -0.311078
  15 O :   -0.322402
  16 O :   -0.337572
  17 H :    0.108017
  18 H :    0.100715
  19 H :    0.289779
  20 H :    0.286382
  21 H :    0.289098
  22 H :    0.284694
  23 H :    0.289246

  Mayer bond orders larger than 0.100000
B(  0-C ,  1-C ) :   1.0641 B(  0-C , 16-O ) :   1.0888 B(  0-C , 17-H ) :   0.9065
B(  0-C , 18-H ) :   0.9119 B(  1-C ,  2-H ) :   0.8762 B(  1-C ,  3-C ) :   1.0126
B(  1-C , 11-O ) :   0.9912 B(  3-C ,  4-H ) :   0.8617 B(  3-C ,  5-C ) :   1.0032
B(  3-C , 15-O ) :   1.0586 B(  5-C ,  6-H ) :   0.8643 B(  5-C ,  7-C ) :   0.9917
B(  5-C , 14-O ) :   1.0618 B(  7-C ,  8-H ) :   0.8564 B(  7-C ,  9-C ) :   0.9647
B(  7-C , 13-O ) :   1.0627 B(  9-C , 10-H ) :   0.8782 B(  9-C , 11-O ) :   1.0151
B(  9-C , 12-O ) :   1.1900 B( 12-O , 19-H ) :   0.8385 B( 13-O , 20-H ) :   0.8485
B( 14-O , 21-H ) :   0.8463 B( 15-O , 22-H ) :   0.8316 B( 16-O , 23-H ) :   0.8498

Dispersion correction           -0.023862992
FINAL SINGLE POINT ENERGY      -685.692390835977

DIPOLE MOMENT
-------------

Method             : SCF
Type of density    : Electron Density
Multiplicity       :   1
Irrep              :   0
Energy             :  -685.8211152859526010 Eh
Relativity type    :
Basis              : AO
                                X                 Y                 Z
Electronic contribution:      2.778206061      -0.288202667      -1.476182667
Nuclear contribution   :     -3.568396563       0.000889198       1.847353902
                        -----------------------------------------
Total Dipole Moment    :     -0.790190502      -0.287313469       0.371171236
                        -----------------------------------------
Magnitude (a.u.)       :      0.919085494
Magnitude (Debye)      :      2.336129670

Rotational constants in cm-1:             0.039311             0.026910             0.017776
Rotational constants in MHz :          1178.501571           806.740777           532.904900

                             ****ORCA TERMINATED NORMALLY****
TOTAL RUN TIME: 0 days 0 hours 0 minutes 11 seconds 639 msec
