                         Program Version 6.0.0  -   RELEASE  -
|  1> ! pbe def2-sv(p) def2/J RI DEFGRID1 loosescf d4 GCP(DFT/SV(P)) printgap
|  2> %output
|  3>     printlevel normal
|  4> end
|  5> * xyz 0 1
|  6> C -1.8885696994 -1.2389699352 -0.0090572522
|  7> C -1.5166287349 0.2370457401 0.0079038514
|  8> C -0.0341062157 0.5055460749 0.0055762077
|  9> O 0.4468120104 1.6230064597 0.0026686543
| 10> O 0.6959146954 -0.5994440918 -0.0005980786
| 11> C 2.1194879596 -0.4742469536 -0.0052563795
| 12> H -2.9697257703 -1.3424672256 -0.0046215171
| 13> H -1.4938217879 -1.7225721909 -0.8979742139
| 14> H -1.4842747907 -1.7452971632 0.8627533673
| 15> H -1.9249312359 0.7308075597 0.8926695947
| 16> H -1.932479113 0.7538362042 -0.859958757
| 17> H 2.4798995122 -0.4120488526 1.0217334366
| 18> H 2.4141693802 0.4252926696 -0.5472833606
| 19> H 2.4993379377 -1.3688453781 -0.4902525945
| 20> *
| 21>
| 22>                          ****END OF INPUT****

CARTESIAN COORDINATES (ANGSTROEM)
---------------------------------
  C     -1.888570   -1.238970   -0.009057
  C     -1.516629    0.237046    0.007904
  C     -0.034106    0.505546    0.005576
  O      0.446812    1.623006    0.002669
  O      0.695915   -0.599444   -0.000598
  C      2.119488   -0.474247   -0.005256
  H     -2.969726   -1.342467   -0.004622
  H     -1.493822   -1.722572   -0.897974
  H     -1.484275   -1.745297    0.862753
  H     -1.924931    0.730808    0.892670
  H     -1.932479    0.753836   -0.859959
  H      2.479900   -0.412049    1.021733
  H      2.414169    0.425293   -0.547283
  H      2.499338   -1.368845   -0.490253

 Total Charge           Charge          ....    0
 Multiplicity           Mult            ....    1
 Number of Electrons    NEL             ....   48
 Basis Dimension        Dim             ....  100

ORBITAL ENERGIES
----------------

  NO   OCC          E(Eh)            E(eV)
   0   2.0000     -18.801846      -511.6242
   1   2.0000     -18.728910      -509.6395
   2   2.0000     -10.002676      -272.1867
   3   2.0000      -9.940794      -270.5028
   4   2.0000      -9.899340      -269.3747
   5   2.0000      -9.880470      -268.8613
   6   2.0000      -1.006345       -27.3840
   7   2.0000      -0.905538       -24.6409
   8   2.0000      -0.715734       -19.4761
   9   2.0000      -0.654048       -17.7976
  10   2.0000      -0.576732       -15.6937
  11   2.0000      -0.509221       -13.8566
  12   2.0000      -0.447643       -12.1810
  13   2.0000      -0.443487       -12.0679
  14   2.0000      -0.405048       -11.0219
  15   2.0000      -0.401400       -10.9227
  16   2.0000      -0.375610       -10.2209
  17   2.0000      -0.346730        -9.4350
  18   2.0000      -0.344442        -9.3727
  19   2.0000      -0.322844        -8.7850
  20   2.0000      -0.306037        -8.3277
  21   2.0000      -0.299501        -8.1498
  22   2.0000      -0.255086        -6.9413
  23   2.0000      -0.214493        -5.8366
  24   0.0000      -0.017505        -0.4763
  25   0.0000       0.039043         1.0624
  26   0.0000       0.059964         1.6317
  27   0.0000       0.090204         2.4546
  28   0.0000       0.094557         2.5730

MULLIKEN ATOMIC CHARGES
-----------------------
   0 C :   -0.252884
   1 C :   -0.214014
   2 C :    0.113443
   3 O :   -0.216670
   4 O :   -0.236119
   5 C :   -0.122216
   6 H :    0.100954
   7 H :    0.106420
   8 H :    0.106553
   9 H :    0.121497
  10 H :    0.121029
  11 H :    0.120915
  12 H :    0.129431
  13 H :    0.121661
Sum of atomic charges:   -0.0000000

LOEWDIN ATOMIC CHARGES
----------------------
   0 C :   -0.342880
   1 C :   -0.256017
   2 C :    0.032684
   3 O :   -0.177889
   4 O :   -0.066164
   5 C :   -0.205593
   6 H :    0.120753
   7 H :    0.121881
   8 H :    0.121947
   9 H :    0.143663
  10 H :    0.143721
  11 H :    0.120037
  12 H :    0.123201
  13 H :    0.120655

  Mayer bond orders larger than 0.100000
B(  0-C ,  1-C ) :   1.1526 B(  0-C ,  6-H ) :   0.9442 B(  0-C ,  7-H ) :   0.9552
B(  0-C ,  8-H ) :   0.9545 B(  1-C ,  2-C ) :   1.0321 B(  1-C ,  9-H ) :   0.9058
B(  1-C , 10-H ) :   0.9048 B(  2-C ,  3-O ) :   2.0531 B(  2-C ,  4-O ) :   1.2308
B(  4-O ,  5-C ) :   0.9360 B(  5-C , 11-H ) :   0.9592 B(  5-C , 12-H ) :   0.9381
B(  5-C , 13-H ) :   0.9604

Dispersion correction           -0.009184927
FINAL SINGLE POINT ENERGY      -307.025168091590

DIPOLE MOMENT
-------------

Method             : SCF
Type of density    : Electron Density
Multiplicity       :   1
Irrep              :   0
Energy             :  -307.0797980123552406 Eh
Relativity type    :
Basis              : AO
                                X                 Y                 Z
Electronic contribution:      2.289833981       3.629831341       0.022989097
Nuclear contribution   :     -2.245736421      -4.376661124      -0.021485351
                        -----------------------------------------
Total Dipole Moment    :      0.044097560      -0.746829784       0.001503746
                        -----------------------------------------
Magnitude (a.u.)       :      0.748132062
Magnitude (Debye)      :      1.901600578

Rotational constants in cm-1:             0.198869             0.091983             0.065183
Rotational constants in MHz :          5961.938309          2757.583019          1954.149920

                             ****ORCA TERMINATED NORMALLY****
TOTAL RUN TIME: 0 days 0 hours 0 minutes 6 seconds 703 msec
