                         Program Version 6.0.0  -   RELEASE  -
|  1> ! r2scan-3c def2/J RI DEFGRID2 scfconv6 printgap
|  2> %output
|  3>     printlevel normal
|  4> end
|  5> * xyz 0 1
|  6> C 2.1478386735 -0.0026024427 0.029141812
|  7> C 0.8702676992 -0.7024388581 0.4791298013
|  8> C -0.4182665381 0.0002556585 0.0163164876
|  9> C -0.4835840351 1.4483501677 0.5153549174
| 10> C -1.6333749854 -0.7784445684 0.5395035705
| 11> O -0.4011159883 -0.0308947845 -1.4089030296
| 12> H 2.2754363754 0.9482666217 0.5389966415
| 13> H 2.111968862 0.1734621547 -1.0429792366
| 14> H 3.0092785317 -0.6276689297 0.2503291438
| 15> H 0.8536767806 -0.7832235128 1.5666031352
| 16> H 0.8568285597 -1.7109682023 0.0609784749
| 17> H -1.4588100468 1.8787944438 0.2969711963
| 18> H -0.3230278025 1.4814225325 1.5888717946
| 19> H 0.2764300998 2.0492318049 0.0238213404
| 20> H -1.6238681716 -0.8040344736 1.6250724894
| 21> H -2.5578045693 -0.3076682862 0.2113709001
| 22> H -1.61083064 -1.7982746933 0.1626605981
| 23> H -1.1963861398 0.4067446891 -1.7398150876
| 24> *
| 25>
| 26>                          ****END OF INPUT****

CARTESIAN COORDINATES (ANGSTROEM)
---------------------------------
  C      2.147839   -0.002602    0.029142
  C      0.870268   -0.702439    0.479130
  C     -0.418267    0.000256    0.016316
  C     -0.483584    1.448350    0.515355
  C     -1.633375   -0.778445    0.539504
  O     -0.401116   -0.030895   -1.408903
  H      2.275436    0.948267    0.538997
  H      2.111969    0.173462   -1.042979
  H      3.009279   -0.627669    0.250329
  H      0.853677   -0.783224    1.566603
  H      0.856829   -1.710968    0.060978
  H     -1.458810    1.878794    0.296971
  H     -0.323028    1.481423    1.588872
  H      0.276430    2.049232    0.023821
  H     -1.623868   -0.804034    1.625072
  H     -2.557805   -0.307668    0.211371
  H     -1.610831   -1.798275    0.162661
  H     -1.196386    0.406745   -1.739815

 Total Charge           Charge          ....    0
 Multiplicity           Mult            ....    1
 Number of Electrons    NEL             ....   50
 Basis Dimension        Dim             ....  179

ORBITAL ENERGIES
----------------

  NO   OCC          E(Eh)            E(eV)
   0   2.0000     -18.942322      -515.4468
   1   2.0000     -10.086774      -274.4751
   2   2.0000     -10.021733      -272.7052
   3   2.0000     -10.017455      -272.5888
   4   2.0000     -10.016707      -272.5684
   5   2.0000     -10.009202      -272.3642
   6   2.0000      -0.982191       -26.7268
   7   2.0000      -0.761994       -20.7349
   8   2.0000      -0.698725       -19.0133
   9   2.0000      -0.657481       -17.8910
  10   2.0000      -0.596054       -16.2195
  11   2.0000      -0.529893       -14.4191
  12   2.0000      -0.456309       -12.4168
  13   2.0000      -0.429866       -11.6972
  14   2.0000      -0.406017       -11.0483
  15   2.0000      -0.391267       -10.6469
  16   2.0000      -0.381060       -10.3692
  17   2.0000      -0.366942        -9.9850
  18   2.0000      -0.352740        -9.5986
  19   2.0000      -0.330193        -8.9850
  20   2.0000      -0.316468        -8.6115
  21   2.0000      -0.310068        -8.4374
  22   2.0000      -0.300355        -8.1731
  23   2.0000      -0.277002        -7.5376
  24   2.0000      -0.232773        -6.3341
  25   0.0000       0.060777         1.6538
  26   0.0000       0.110410         3.0044
  27   0.0000       0.115567         3.1447
  28   0.0000       0.124418         3.3856
  29   0.0000       0.134145         3.6503

MULLIKEN ATOMIC CHARGES
-----------------------
   0 C :   -0.532468
   1 C :   -0.220793
   2 C :    0.178566
   3 C :   -0.505874
   4 C :   -0.458513
   5 O :   -0.420518
   6 H :    0.148072
   7 H :    0.179377
   8 H :    0.145167
   9 H :    0.137019
  10 H :    0.150250
  11 H :    0.140015
  12 H :    0.154931
  13 H :    0.171984
  14 H :    0.149335
  15 H :    0.139431
  16 H :    0.160301
  17 H :    0.283718
Sum of atomic charges:    0.0000000

LOEWDIN ATOMIC CHARGES
----------------------
   0 C :   -0.416863
   1 C :   -0.272320
   2 C :    0.054615
   3 C :   -0.391282
   4 C :   -0.389774
   5 O :   -0.607108
   6 H :    0.149390
   7 H :    0.166375
   8 H :    0.150344
   9 H :    0.158892
  10 H :    0.167169
  11 H :    0.155210
  12 H :    0.161608
  13 H :    0.165983
  14 H :    0.159402
  15 H :    0.153593
  16 H :    0.164281
  17 H :    0.270486

  Mayer bond orders larger than 0.100000
B(  0-C ,  1-C ) :   0.8816 B(  0-C ,  6-H ) :   0.9808 B(  0-C ,  7-H ) :   0.9802
B(  0-C ,  8-H ) :   0.9720 B(  1-C ,  2-C ) :   0.9362 B(  1-C ,  9-H ) :   0.9743
B(  1-C , 10-H ) :   0.9705 B(  2-C ,  3-C ) :   0.9217 B(  2-C ,  4-C ) :   0.9531
B(  2-C ,  5-O ) :   0.8198 B(  3-C , 11-H ) :   0.9612 B(  3-C , 12-H ) :   0.9737
B(  3-C , 13-H ) :   0.9754 B(  4-C , 14-H ) :   0.9783 B(  4-C , 15-H ) :   0.9682
B(  4-C , 16-H ) :   0.9776 B(  5-O , 17-H ) :   0.9041

Dispersion correction           -0.004520224
FINAL SINGLE POINT ENERGY      -272.908713368355

DIPOLE MOMENT
-------------

Method             : SCF
Type of density    : Electron Density
Multiplicity       :   1
Irrep              :   0
Energy             :  -272.9137903282606885 Eh
Relativity type    :
Basis              : AO
                                X                 Y                 Z
Electronic contribution:     -0.966445990      -0.632484071      -2.968901174
Nuclear contribution   :      0.569040089       0.849596700       3.302893702
                        -----------------------------------------
Total Dipole Moment    :     -0.397405901       0.217112629       0.333992528
                        -----------------------------------------
Magnitude (a.u.)       :      0.562690281
Magnitude (Debye)      :      1.430245031

Rotational constants in cm-1:             0.151789             0.087095             0.085361
Rotational constants in MHz :          4550.522852          2611.038726          2559.057380

                             ****ORCA TERMINATED NORMALLY****
TOTAL RUN TIME: 0 days 0 hours 0 minutes 19 seconds 735 msec
