                         Program Version 6.0.0  -   RELEASE  -
|  1> ! r2scan-3c def2/J RI DEFGRID2 scfconv6 printgap
|  2> %output
|  3>     printlevel normal
|  4> end
|  5> %cpcm
|  6>     smd true
|  7>     smdsolvent "water"
|  8> end
|  9> * xyz 0 1
| 10> C 2.1478386735 -0.0026024427 0.029141812
| 11> C 0.8702676992 -0.7024388581 0.4791298013
| 12> C -0.4182665381 0.0002556585 0.0163164876
| 13> C -0.4835840351 1.4483501677 0.5153549174
| 14> C -1.6333749854 -0.7784445684 0.5395035705
| 15> O -0.4011159883 -0.0308947845 -1.4089030296
| 16> H 2.2754363754 0.9482666217 0.5389966415
| 17> H 2.111968862 0.1734621547 -1.0429792366
| 18> H 3.0092785317 -0.6276689297 0.2503291438
| 19> H 0.8536767806 -0.7832235128 1.5666031352
| 20> H 0.8568285597 -1.7109682023 0.0609784749
| 21> H -1.4588100468 1.8787944438 0.2969711963
| 22> H -0.3230278025 1.4814225325 1.5888717946
| 23> H 0.2764300998 2.0492318049 0.0238213404
| 24> H -1.6238681716 -0.8040344736 1.6250724894
| 25> H -2.5578045693 -0.3076682862 0.2113709001
| 26> H -1.61083064 -1.7982746933 0.1626605981
| 27> H -1.1963861398 0.4067446891 -1.7398150876
| 28> *
| 29>
| 30>                          ****END OF INPUT****

CARTESIAN COORDINATES (ANGSTROEM)
---------------------------------
  C      2.147839   -0.002602    0.029142
  C      0.870268   -0.702439    0.479130
  C     -0.418267    0.000256    0.016316
  C     -0.483584    1.448350    0.515355
  C     -1.633375   -0.778445    0.539504
  O     -0.401116   -0.030895   -1.408903
  H      2.275436    0.948267    0.538997
  H      2.111969    0.173462   -1.042979
  H      3.009279   -0.627669    0.250329
  H      0.853677   -0.783224    1.566603
  H      0.856829   -1.710968    0.060978
  H     -1.458810    1.878794    0.296971
  H     -0.323028    1.481423    1.588872
  H      0.276430    2.049232    0.023821
  H     -1.623868   -0.804034    1.625072
  H     -2.557805   -0.307668    0.211371
  H     -1.610831   -1.798275    0.162661
  H     -1.196386    0.406745   -1.739815

 Total Charge           Charge          ....    0
 Multiplicity           Mult            ....    1
 Number of Electrons    NEL             ....   50
 Basis Dimension        Dim             ....  179

ORBITAL ENERGIES
----------------

  NO   OCC          E(Eh)            E(eV)
   0   2.0000     -18.945889      -515.5438
   1   2.0000     -10.082552      -274.3602
   2   2.0000     -10.016850      -272.5724
   3   2.0000     -10.007478      -272.3173
   4   2.0000     -10.007441      -272.3163
   5   2.0000     -10.007333      -272.3134
   6   2.0000      -0.984570       -26.7915
   7   2.0000      -0.757098       -20.6017
   8   2.0000      -0.693988       -18.8844
   9   2.0000      -0.648946       -17.6587
  10   2.0000      -0.592119       -16.1124
  11   2.0000      -0.527146       -14.3444
  12   2.0000      -0.451790       -12.2938
  13   2.0000      -0.424727       -11.5574
  14   2.0000      -0.401056       -10.9133
  15   2.0000      -0.388454       -10.5704
  16   2.0000      -0.376097       -10.2341
  17   2.0000      -0.359373        -9.7790
  18   2.0000      -0.344964        -9.3870
  19   2.0000      -0.323084        -8.7916
  20   2.0000      -0.315400        -8.5825
  21   2.0000      -0.308475        -8.3940
  22   2.0000      -0.296841        -8.0774
  23   2.0000      -0.273913        -7.4535
  24   2.0000      -0.236800        -6.4437
  25   0.0000       0.076352         2.0776
  26   0.0000       0.119197         3.2435
  27   0.0000       0.121151         3.2967
  28   0.0000       0.136766         3.7216
  29   0.0000       0.141746         3.8571

MULLIKEN ATOMIC CHARGES
-----------------------
   0 C :   -0.560101
   1 C :   -0.246168
   2 C :    0.223050
   3 C :   -0.542037
   4 C :   -0.513436
   5 O :   -0.510783
   6 H :    0.164787
   7 H :    0.166658
   8 H :    0.159320
   9 H :    0.158438
  10 H :    0.158545
  11 H :    0.162388
  12 H :    0.172955
  13 H :    0.171385
  14 H :    0.168431
  15 H :    0.164498
  16 H :    0.162498
  17 H :    0.339573
Sum of atomic charges:    0.0000000

LOEWDIN ATOMIC CHARGES
----------------------
   0 C :   -0.425008
   1 C :   -0.276491
   2 C :    0.057464
   3 C :   -0.394188
   4 C :   -0.395145
   5 O :   -0.643266
   6 H :    0.154773
   7 H :    0.159725
   8 H :    0.154197
   9 H :    0.166791
  10 H :    0.166553
  11 H :    0.162819
  12 H :    0.167549
  13 H :    0.165142
  14 H :    0.165669
  15 H :    0.161722
  16 H :    0.163358
  17 H :    0.288337

  Mayer bond orders larger than 0.100000
B(  0-C ,  1-C ) :   0.8725 B(  0-C ,  6-H ) :   0.9764 B(  0-C ,  7-H ) :   0.9825
B(  0-C ,  8-H ) :   0.9696 B(  1-C ,  2-C ) :   0.9336 B(  1-C ,  9-H ) :   0.9684
B(  1-C , 10-H ) :   0.9747 B(  2-C ,  3-C ) :   0.9211 B(  2-C ,  4-C ) :   0.9425
B(  2-C ,  5-O ) :   0.8036 B(  3-C , 11-H ) :   0.9610 B(  3-C , 12-H ) :   0.9701
B(  3-C , 13-H ) :   0.9687 B(  4-C , 14-H ) :   0.9747 B(  4-C , 15-H ) :   0.9683
B(  4-C , 16-H ) :   0.9735 B(  5-O , 17-H ) :   0.8787

Dispersion correction           -0.004520224
FINAL SINGLE POINT ENERGY      -272.914271147442

DIPOLE MOMENT
-------------

Method             : SCF
Type of density    : Electron Density
Multiplicity       :   1
Irrep              :   0
Energy             :  -272.9193481073482985 Eh
Relativity type    :
Basis              : AO
                                X                 Y                 Z
Electronic contribution:     -1.172011375      -0.509793677      -2.750299807
Nuclear contribution   :      0.569040089       0.849596700       3.302893702
                        -----------------------------------------
Total Dipole Moment    :     -0.602971285       0.339803022       0.552593895
                        -----------------------------------------
Magnitude (a.u.)       :      0.885663863
Magnitude (Debye)      :      2.251178635

Rotational constants in cm-1:             0.151789             0.087095             0.085361
Rotational constants in MHz :          4550.522852          2611.038726          2559.057380

                             ****ORCA TERMINATED NORMALLY****
TOTAL RUN TIME: 0 days 0 hours 0 minutes 23 seconds 766 msec
