                         Program Version 6.0.0  -   RELEASE  -
|  1> ! pbe def2-sv(p) def2/J RI DEFGRID1 loosescf d4 GCP(DFT/SV(P)) printgap
|  2> %output
|  3>     printlevel normal
|  4> end
|  5> * xyz 0 1
|  6> C -2.5551293365 -0.6627444561 -0.3393161332
|  7> C -1.1755727366 -0.3017762327 0.2208367453
|  8> H -1.2270704259 -0.2816672075 1.3213834319
|  9> C -0.7104199267 1.0777164011 -0.2906691122
| 10> H -0.724923705 1.0806788267 -1.3859834693
| 11> C 0.729004609 1.3383112144 0.1779604731
| 12> H 0.7416574411 1.424219176 1.2783735143
| 13> C 1.6303185026 0.1593177014 -0.2103671373
| 14> H 1.6951567266 0.1135054785 -1.3088300528
| 15> C 1.0235944281 -1.1592422017 0.3085005877
| 16> H 1.0254798375 -1.1384565574 1.4124644776
| 17> O -0.2808336537 -1.3246753161 -0.1841543802
| 18> O 1.7805015221 -2.2534189112 -0.0684389268
| 19> O 2.8998497244 0.3852957176 0.3504704407
| 20> O 1.1806128088 2.5352086629 -0.4004872147
| 21> O -1.5965290589 2.0902141565 0.0940456732
| 22> O -3.1201841882 -1.7729633593 0.3057911821
| 23> H -2.4562331445 -0.841839123 -1.4164425483
| 24> H -3.233038506 0.1761212238 -0.1752035694
| 25> H 1.5409928159 -2.5115853498 -0.9728396194
| 26> H 3.4372714652 -0.4155225748 0.25406044
| 27> H 2.1174298391 2.6485759472 -0.1786649738
| 28> H -1.4781358839 2.300697791 1.0319882119
| 29> H -2.5339953799 -2.5336302326 0.1819091275
| 30> *
| 31>
| 32>                          ****END OF INPUT****

CARTESIAN COORDINATES (ANGSTROEM)
---------------------------------
  C     -2.555129   -0.662744   -0.339316
  C     -1.175573   -0.301776    0.220837
  H     -1.227070   -0.281667    1.321383
  C     -0.710420    1.077716   -0.290669
  H     -0.724924    1.080679   -1.385983
  C      0.729005    1.338311    0.177960
  H      0.741657    1.424219    1.278374
  C      1.630319    0.159318   -0.210367
  H      1.695157    0.113505   -1.308830
  C      1.023594   -1.159242    0.308501
  H      1.025480   -1.138457    1.412464
  O     -0.280834   -1.324675   -0.184154
  O      1.780502   -2.253419   -0.068439
  O      2.899850    0.385296    0.350470
  O      1.180613    2.535209   -0.400487
  O     -1.596529    2.090214    0.094046
  O     -3.120184   -1.772963    0.305791
  H     -2.456233   -0.841839   -1.416443
  H     -3.233039    0.176121   -0.175204
  H      1.540993   -2.511585   -0.972840
  H      3.437271   -0.415523    0.254060
  H      2.117430    2.648576   -0.178665
  H     -1.478136    2.300698    1.031988
  H     -2.533995   -2.533630    0.181909

 Total Charge           Charge          ....    0
 Multiplicity           Mult            ....    1
 Number of Electrons    NEL             ....   96
 Basis Dimension        Dim             ....  192

ORBITAL ENERGIES
----------------

  NO   OCC          E(Eh)            E(eV)
   0   2.0000     -18.786877      -511.2169
   1   2.0000     -18.777062      -510.9498
   2   2.0000     -18.765895      -510.6460
   3   2.0000     -18.757230      -510.4102
   4   2.0000     -18.750438      -510.2254
   5   2.0000     -18.745378      -510.0877
   6   2.0000      -9.997032      -272.0331
   7   2.0000      -9.949488      -270.7393
   8   2.0000      -9.948105      -270.7017
   9   2.0000      -9.947894      -270.6960
  10   2.0000      -9.946697      -270.6634
  11   2.0000      -9.930696      -270.2280
  12   2.0000      -0.999011       -27.1845
  13   2.0000      -0.949082       -25.8258
  14   2.0000      -0.944233       -25.6939
  15   2.0000      -0.930392       -25.3173
  16   2.0000      -0.919431       -25.0190
  17   2.0000      -0.917152       -24.9570
  18   2.0000      -0.709098       -19.2955
  19   2.0000      -0.696245       -18.9458
  20   2.0000      -0.619820       -16.8662
  21   2.0000      -0.592765       -16.1299
  22   2.0000      -0.562842       -15.3157
  23   2.0000      -0.550878       -14.9902
  24   2.0000      -0.511199       -13.9104
  25   2.0000      -0.501392       -13.6436
  26   2.0000      -0.471386       -12.8271
  27   2.0000      -0.464776       -12.6472
  28   2.0000      -0.452617       -12.3163
  29   2.0000      -0.441256       -12.0072
  30   2.0000      -0.424463       -11.5502
  31   2.0000      -0.403630       -10.9833
  32   2.0000      -0.391825       -10.6621
  33   2.0000      -0.371504       -10.1091
  34   2.0000      -0.361198        -9.8287
  35   2.0000      -0.355626        -9.6771
  36   2.0000      -0.332924        -9.0593
  37   2.0000      -0.329442        -8.9646
  38   2.0000      -0.312066        -8.4917
  39   2.0000      -0.303997        -8.2722
  40   2.0000      -0.284695        -7.7469
  41   2.0000      -0.277456        -7.5500
  42   2.0000      -0.267284        -7.2732
  43   2.0000      -0.250221        -6.8089
  44   2.0000      -0.232891        -6.3373
  45   2.0000      -0.228023        -6.2048
  46   2.0000      -0.218168        -5.9366
  47   2.0000      -0.206067        -5.6074
  48   0.0000       0.009815         0.2671
  49   0.0000       0.019635         0.5343
  50   0.0000       0.032878         0.8947
  51   0.0000       0.043323         1.1789
  52   0.0000       0.048790         1.3277

MULLIKEN ATOMIC CHARGES
-----------------------
   0 C :    0.103131
   1 C :   -0.027245
   2 H :    0.045466
   3 C :    0.075741
   4 H :    0.067163
   5 C :    0.068876
   6 H :    0.037955
   7 C :    0.028025
   8 H :    0.045259
   9 C :    0.182261
  10 H :    0.055686
  11 O :   -0.317742
  12 O :   -0.387924
  13 O :   -0.423333
  14 O :   -0.403614
  15 O :   -0.402105
  16 O :   -0.432398
  17 H :    0.067879
  18 H :    0.094926
  19 H :    0.306321
  20 H :    0.307453
  21 H :    0.308830
  22 H :    0.301642
  23 H :    0.297748
Sum of atomic charges:    0.0000000

LOEWDIN ATOMIC CHARGES
----------------------
   0 C :   -0.125404
   1 C :   -0.080600
   2 H :    0.100690
   3 C :   -0.066582
   4 H :    0.121368
   5 C :   -0.074985
   6 H :    0.096300
   7 C :   -0.100460
   8 H :    0.101407
   9 C :   -0.005800
  10 H :    0.097782
  11 O :   -0.156183
  12 O :   -0.295811
  13 O :   -0.324411
  14 O :   -0.316351
  15 O :   -0.297450
  16 O :   -0.334595
  17 H :    0.101194
  18 H :    0.122285
  19 H :    0.290814
  20 H :    0.288109
  21 H :    0.288911
  22 H :    0.287678
  23 H :    0.282094

  Mayer bond orders larger than 0.100000
B(  0-C ,  1-C ) :   1.0528 B(  0-C , 16-O ) :   1.0814 B(  0-C , 17-H ) :   0.9071
B(  0-C , 18-H ) :   0.9093 B(  1-C ,  2-H ) :   0.8674 B(  1-C ,  3-C ) :   0.9679
B(  1-C , 11-O ) :   0.9600 B(  3-C ,  4-H ) :   0.8667 B(  3-C ,  5-C ) :   1.0129
B(  3-C , 15-O ) :   1.0467 B(  5-C ,  6-H ) :   0.8678 B(  5-C ,  7-C ) :   1.0064
B(  5-C , 14-O ) :   1.1119 B(  7-C ,  8-H ) :   0.8621 B(  7-C ,  9-C ) :   0.9775
B(  7-C , 13-O ) :   1.0681 B(  9-C , 10-H ) :   0.8784 B(  9-C , 11-O ) :   1.0194
B(  9-C , 12-O ) :   1.1186 B( 12-O , 19-H ) :   0.8400 B( 13-O , 20-H ) :   0.8320
B( 14-O , 21-H ) :   0.8383 B( 15-O , 22-H ) :   0.8457 B( 16-O , 23-H ) :   0.8488

Dispersion correction           -0.023600209
FINAL SINGLE POINT ENERGY      -685.699732939351

DIPOLE MOMENT
-------------

Method             : SCF
Type of density    : Electron Density
Multiplicity       :   1
Irrep              :   0
Energy             :  -685.8294230844460344 Eh
Relativity type    :
Basis              : AO
                                X                 Y                 Z
Electronic contribution:      1.947236445      -0.534321723      -0.048504490
Nuclear contribution   :     -1.014888830       0.014750999       0.041045189
                        -----------------------------------------
Total Dipole Moment    :      0.932347615      -0.519570724      -0.007459302
                        -----------------------------------------
Magnitude (a.u.)       :      1.067371282
Magnitude (Debye)      :      2.713042190

Rotational constants in cm-1:             0.039267             0.025848             0.016331
Rotational constants in MHz :          1177.180671           774.897188           489.581972

                             ****ORCA TERMINATED NORMALLY****
TOTAL RUN TIME: 0 days 0 hours 0 minutes 12 seconds 124 msec
