                         Program Version 6.0.0  -   RELEASE  -
|  1> ! r2scan-3c def2/J RI DEFGRID2 scfconv6 printgap
|  2> %output
|  3>     printlevel normal
|  4> end
|  5> * xyz 0 1
|  6> C -2.8956685068 1.4731843957 0.0016655783
|  7> C -1.8089979825 0.4475521888 -0.0079004845
|  8> C -2.1009672626 -0.9151972101 -0.0012098515
|  9> C -1.0951414561 -1.8710580032 0.0056163952
| 10> C 0.2304086255 -1.4859130242 0.0060200047
| 11> C 0.5286456482 -0.1240608921 0.0001779132
| 12> C -0.4776377312 0.8377628513 -0.0068125455
| 13> N 1.8868060999 0.2920494756 -0.0005712749
| 14> O 2.1345747246 1.4896086125 -0.0115110104
| 15> O 2.7619116153 -0.5625265762 0.0109687739
| 16> H -3.8471690201 1.0345364729 -0.2825113357
| 17> H -2.9947298511 1.893290698 1.0013908306
| 18> H -2.6585183085 2.2873533375 -0.6779941759
| 19> H -3.1324725825 -1.2323157785 -0.0020869339
| 20> H -1.347647462 -2.9190051749 0.0092605272
| 21> H 1.0346975507 -2.2039901005 0.0094538811
| 22> H -0.2029385935 1.881638264 -0.0118536117
| 23> *
| 24>
| 25>                          ****END OF INPUT****

CARTESIAN COORDINATES (ANGSTROEM)
---------------------------------
  C     -2.895669    1.473184    0.001666
  C     -1.808998    0.447552   -0.007900
  C     -2.100967   -0.915197   -0.001210
  C     -1.095141   -1.871058    0.005616
  C      0.230409   -1.485913    0.006020
  C      0.528646   -0.124061    0.000178
  C     -0.477638    0.837763   -0.006813
  N      1.886806    0.292049   -0.000571
  O      2.134575    1.489609   -0.011511
  O      2.761912   -0.562527    0.010969
  H     -3.847169    1.034536   -0.282511
  H     -2.994730    1.893291    1.001391
  H     -2.658518    2.287353   -0.677994
  H     -3.132473   -1.232316   -0.002087
  H     -1.347647   -2.919005    0.009261
  H      1.034698   -2.203990    0.009454
  H     -0.202939    1.881638   -0.011854

 Total Charge           Charge          ....    0
 Multiplicity           Mult            ....    1
 Number of Electrons    NEL             ....   72
 Basis Dimension        Dim             ....  240

ORBITAL ENERGIES
----------------

  NO   OCC          E(Eh)            E(eV)
   0   2.0000     -18.977733      -516.4104
   1   2.0000     -18.977342      -516.3997
   2   2.0000     -14.389676      -391.5630
   3   2.0000     -10.101854      -274.8854
   4   2.0000     -10.073706      -274.1195
   5   2.0000     -10.065359      -273.8924
   6   2.0000     -10.064630      -273.8725
   7   2.0000     -10.064375      -273.8656
   8   2.0000     -10.063320      -273.8369
   9   2.0000     -10.047292      -273.4007
  10   2.0000      -1.197542       -32.5868
  11   2.0000      -1.016901       -27.6713
  12   2.0000      -0.868230       -23.6257
  13   2.0000      -0.795354       -21.6427
  14   2.0000      -0.763273       -20.7697
  15   2.0000      -0.687894       -18.7185
  16   2.0000      -0.675611       -18.3843
  17   2.0000      -0.594996       -16.1907
  18   2.0000      -0.557561       -15.1720
  19   2.0000      -0.524974       -14.2853
  20   2.0000      -0.507785       -13.8175
  21   2.0000      -0.486161       -13.2291
  22   2.0000      -0.482412       -13.1271
  23   2.0000      -0.452739       -12.3196
  24   2.0000      -0.430293       -11.7089
  25   2.0000      -0.415916       -11.3176
  26   2.0000      -0.406597       -11.0641
  27   2.0000      -0.378666       -10.3040
  28   2.0000      -0.359287        -9.7767
  29   2.0000      -0.355712        -9.6794
  30   2.0000      -0.337687        -9.1889
  31   2.0000      -0.286936        -7.8079
  32   2.0000      -0.278109        -7.5677
  33   2.0000      -0.268652        -7.3104
  34   2.0000      -0.255155        -6.9431
  35   2.0000      -0.251702        -6.8492
  36   0.0000      -0.123062        -3.3487
  37   0.0000      -0.057314        -1.5596
  38   0.0000      -0.027635        -0.7520
  39   0.0000       0.059515         1.6195
  40   0.0000       0.084762         2.3065

MULLIKEN ATOMIC CHARGES
-----------------------
   0 C :   -0.516127
   1 C :    0.203955
   2 C :   -0.172381
   3 C :   -0.134367
   4 C :   -0.207062
   5 C :    0.009818
   6 C :   -0.251973
   7 N :    0.361216
   8 O :   -0.230246
   9 O :   -0.231281
  10 H :    0.153427
  11 H :    0.178184
  12 H :    0.161791
  13 H :    0.151419
  14 H :    0.152597
  15 H :    0.185129
  16 H :    0.185899
Sum of atomic charges:   -0.0000000

LOEWDIN ATOMIC CHARGES
----------------------
   0 C :   -0.382720
   1 C :   -0.090324
   2 C :   -0.132050
   3 C :   -0.146994
   4 C :   -0.080656
   5 C :    0.194116
   6 C :   -0.070113
   7 N :   -0.493266
   8 O :   -0.022369
   9 O :   -0.021263
  10 H :    0.162054
  11 H :    0.171105
  12 H :    0.167659
  13 H :    0.172018
  14 H :    0.173356
  15 H :    0.198660
  16 H :    0.200784

  Mayer bond orders larger than 0.100000
B(  0-C ,  1-C ) :   0.8078 B(  0-C , 10-H ) :   0.9881 B(  0-C , 11-H ) :   0.9674
B(  0-C , 12-H ) :   0.9804 B(  1-C ,  2-C ) :   1.3755 B(  1-C ,  6-C ) :   1.3267
B(  2-C ,  3-C ) :   1.4201 B(  2-C , 13-H ) :   0.9388 B(  3-C ,  4-C ) :   1.3539
B(  3-C , 14-H ) :   0.9569 B(  4-C ,  5-C ) :   1.4189 B(  4-C ,  9-O ) :   0.1043
B(  4-C , 15-H ) :   0.9332 B(  5-C ,  6-C ) :   1.4828 B(  5-C ,  7-N ) :   0.9605
B(  6-C ,  8-O ) :   0.1011 B(  6-C , 16-H ) :   0.9243 B(  7-N ,  8-O ) :   1.8457
B(  7-N ,  9-O ) :   1.8399 B(  8-O ,  9-O ) :   0.2472

Dispersion correction           -0.005827866
FINAL SINGLE POINT ENERGY      -475.975057254978

DIPOLE MOMENT
-------------

Method             : SCF
Type of density    : Electron Density
Multiplicity       :   1
Irrep              :   0
Energy             :  -475.9799884366046854 Eh
Relativity type    :
Basis              : AO
                                X                 Y                 Z
Electronic contribution:     10.279651853      -1.089772565      -0.025657478
Nuclear contribution   :    -12.252937746       0.710994227       0.042824980
                        -----------------------------------------
Total Dipole Moment    :     -1.973285893      -0.378778338       0.017167502
                        -----------------------------------------
Magnitude (a.u.)       :      2.009384226
Magnitude (Debye)      :      5.107448806

Rotational constants in cm-1:             0.089866             0.033417             0.024469
Rotational constants in MHz :          2694.118305          1001.814120           733.567898

                             ****ORCA TERMINATED NORMALLY****
TOTAL RUN TIME: 0 days 0 hours 0 minutes 31 seconds 301 msec
