                         Program Version 6.0.0  -   RELEASE  -
|  1> ! r2scan-3c def2/J RI DEFGRID2 scfconv6 printgap
|  2> %output
|  3>     printlevel normal
|  4> end
|  5> %cpcm
|  6>     smd true
|  7>     smdsolvent "water"
|  8> end
|  9> * xyz 0 1
| 10> C -2.8956685068 1.4731843957 0.0016655783
| 11> C -1.8089979825 0.4475521888 -0.0079004845
| 12> C -2.1009672626 -0.9151972101 -0.0012098515
| 13> C -1.0951414561 -1.8710580032 0.0056163952
| 14> C 0.2304086255 -1.4859130242 0.0060200047
| 15> C 0.5286456482 -0.1240608921 0.0001779132
| 16> C -0.4776377312 0.8377628513 -0.0068125455
| 17> N 1.8868060999 0.2920494756 -0.0005712749
| 18> O 2.1345747246 1.4896086125 -0.0115110104
| 19> O 2.7619116153 -0.5625265762 0.0109687739
| 20> H -3.8471690201 1.0345364729 -0.2825113357
| 21> H -2.9947298511 1.893290698 1.0013908306
| 22> H -2.6585183085 2.2873533375 -0.6779941759
| 23> H -3.1324725825 -1.2323157785 -0.0020869339
| 24> H -1.347647462 -2.9190051749 0.0092605272
| 25> H 1.0346975507 -2.2039901005 0.0094538811
| 26> H -0.2029385935 1.881638264 -0.0118536117
| 27> *
| 28>
| 29>                          ****END OF INPUT****

CARTESIAN COORDINATES (ANGSTROEM)
---------------------------------
  C     -2.895669    1.473184    0.001666
  C     -1.808998    0.447552   -0.007900
  C     -2.100967   -0.915197   -0.001210
  C     -1.095141   -1.871058    0.005616
  C      0.230409   -1.485913    0.006020
  C      0.528646   -0.124061    0.000178
  C     -0.477638    0.837763   -0.006813
  N      1.886806    0.292049   -0.000571
  O      2.134575    1.489609   -0.011511
  O      2.761912   -0.562527    0.010969
  H     -3.847169    1.034536   -0.282511
  H     -2.994730    1.893291    1.001391
  H     -2.658518    2.287353   -0.677994
  H     -3.132473   -1.232316   -0.002087
  H     -1.347647   -2.919005    0.009261
  H      1.034698   -2.203990    0.009454
  H     -0.202939    1.881638   -0.011854

 Total Charge           Charge          ....    0
 Multiplicity           Mult            ....    1
 Number of Electrons    NEL             ....   72
 Basis Dimension        Dim             ....  240

ORBITAL ENERGIES
----------------

  NO   OCC          E(Eh)            E(eV)
   0   2.0000     -18.991943      -516.7970
   1   2.0000     -18.991785      -516.7927
   2   2.0000     -14.403206      -391.9312
   3   2.0000     -10.097075      -274.7554
   4   2.0000     -10.060330      -273.7555
   5   2.0000     -10.056190      -273.6428
   6   2.0000     -10.054972      -273.6097
   7   2.0000     -10.050086      -273.4767
   8   2.0000     -10.049099      -273.4499
   9   2.0000     -10.023344      -272.7490
  10   2.0000      -1.211712       -32.9724
  11   2.0000      -1.031901       -28.0795
  12   2.0000      -0.860875       -23.4256
  13   2.0000      -0.789784       -21.4911
  14   2.0000      -0.750487       -20.4218
  15   2.0000      -0.679279       -18.4841
  16   2.0000      -0.662390       -18.0245
  17   2.0000      -0.583026       -15.8649
  18   2.0000      -0.559304       -15.2194
  19   2.0000      -0.523970       -14.2580
  20   2.0000      -0.519210       -14.1284
  21   2.0000      -0.498131       -13.5548
  22   2.0000      -0.472655       -12.8616
  23   2.0000      -0.446054       -12.1377
  24   2.0000      -0.415198       -11.2981
  25   2.0000      -0.396397       -10.7865
  26   2.0000      -0.392202       -10.6724
  27   2.0000      -0.357292        -9.7224
  28   2.0000      -0.348003        -9.4697
  29   2.0000      -0.339841        -9.2476
  30   2.0000      -0.322439        -8.7740
  31   2.0000      -0.303817        -8.2673
  32   2.0000      -0.294663        -8.0182
  33   2.0000      -0.269041        -7.3210
  34   2.0000      -0.261228        -7.1084
  35   2.0000      -0.244187        -6.6447
  36   0.0000      -0.130187        -3.5426
  37   0.0000      -0.046075        -1.2538
  38   0.0000      -0.022598        -0.6149
  39   0.0000       0.077178         2.1001
  40   0.0000       0.095064         2.5868

MULLIKEN ATOMIC CHARGES
-----------------------
   0 C :   -0.548732
   1 C :    0.167401
   2 C :   -0.171290
   3 C :   -0.177566
   4 C :   -0.224886
   5 C :    0.045882
   6 C :   -0.253311
   7 N :    0.413356
   8 O :   -0.292784
   9 O :   -0.294143
  10 H :    0.175137
  11 H :    0.193319
  12 H :    0.177730
  13 H :    0.190006
  14 H :    0.189509
  15 H :    0.204956
  16 H :    0.205415
Sum of atomic charges:   -0.0000000

LOEWDIN ATOMIC CHARGES
----------------------
   0 C :   -0.385561
   1 C :   -0.085837
   2 C :   -0.117826
   3 C :   -0.145358
   4 C :   -0.081741
   5 C :    0.189458
   6 C :   -0.066751
   7 N :   -0.493243
   8 O :   -0.058975
   9 O :   -0.058571
  10 H :    0.169450
  11 H :    0.177479
  12 H :    0.173246
  13 H :    0.186654
  14 H :    0.186550
  15 H :    0.203948
  16 H :    0.207079

  Mayer bond orders larger than 0.100000
B(  0-C ,  1-C ) :   0.8179 B(  0-C , 10-H ) :   0.9812 B(  0-C , 11-H ) :   0.9602
B(  0-C , 12-H ) :   0.9750 B(  1-C ,  2-C ) :   1.3597 B(  1-C ,  6-C ) :   1.3401
B(  2-C ,  3-C ) :   1.3929 B(  2-C , 13-H ) :   0.9404 B(  3-C ,  4-C ) :   1.3545
B(  3-C , 14-H ) :   0.9607 B(  4-C ,  5-C ) :   1.3341 B(  4-C , 15-H ) :   0.9421
B(  5-C ,  6-C ) :   1.4037 B(  5-C ,  7-N ) :   0.9963 B(  6-C , 16-H ) :   0.9303
B(  7-N ,  8-O ) :   1.7882 B(  7-N ,  9-O ) :   1.7812 B(  8-O ,  9-O ) :   0.2288

Dispersion correction           -0.005827866
FINAL SINGLE POINT ENERGY      -475.979496600287

DIPOLE MOMENT
-------------

Method             : SCF
Type of density    : Electron Density
Multiplicity       :   1
Irrep              :   0
Energy             :  -475.9844277819138938 Eh
Relativity type    :
Basis              : AO
                                X                 Y                 Z
Electronic contribution:      9.468963873      -1.272637719      -0.019402934
Nuclear contribution   :    -12.252937746       0.710994227       0.042824980
                        -----------------------------------------
Total Dipole Moment    :     -2.783973873      -0.561643492       0.023422046
                        -----------------------------------------
Magnitude (a.u.)       :      2.840158892
Magnitude (Debye)      :      7.219110190

Rotational constants in cm-1:             0.089866             0.033417             0.024469
Rotational constants in MHz :          2694.118305          1001.814120           733.567898

                             ****ORCA TERMINATED NORMALLY****
TOTAL RUN TIME: 0 days 0 hours 0 minutes 39 seconds 758 msec
