                         Program Version 6.0.0  -   RELEASE  -
|  1> ! pbe def2-sv(p) def2/J RI DEFGRID1 loosescf d4 GCP(DFT/SV(P)) printgap
|  2> %output
|  3>     printlevel normal
|  4> end
|  5> * xyz 0 1
|  6> C -2.2342221644 -1.1759764095 0.0174332369
|  7> C -0.8719505061 -0.5725229113 0.3751445353
|  8> H -0.8242436153 -0.401724995 1.4607877001
|  9> C -0.6467325364 0.7740966362 -0.3241560379
| 10> H -0.8219253162 0.6457555555 -1.4062223488
| 11> C 0.8044587691 1.2670532819 -0.1512723457
| 12> H 0.7607826972 2.1464203185 0.5018294514
| 13> C 1.7027379711 0.2121363455 0.5268852762
| 14> H 2.7507644084 0.4650230276 0.3051428026
| 15> C 1.4321835598 -1.1600802832 -0.1142295133
| 16> H 2.0098659333 -1.9512454459 0.3853209983
| 17> O 0.0802920774 -1.5555385361 -0.0088349044
| 18> O 1.861324511 -1.1808850125 -1.4377318249
| 19> O 1.4644210553 0.2367988383 1.9087563681
| 20> O 1.3023215236 1.5870223145 -1.4313892018
| 21> O -1.494091604 1.7710391107 0.1870621486
| 22> O -3.257847754 -0.3423234957 0.5094661051
| 23> H -2.2789161715 -2.1747205805 0.4648747844
| 24> H -2.2953085932 -1.2767135272 -1.0736421709
| 25> H 1.5512239054 -0.3814716654 -1.9027941296
| 26> H 2.1020867562 -0.3301398728 2.3668699486
| 27> H 2.0113494774 2.2420110424 -1.3660492514
| 28> H -2.3786198631 1.3863835958 0.3221427757
| 29> H -4.1174648571 -0.7533194206 0.3398817855
| 30> *
| 31>
| 32>                          ****END OF INPUT****

CARTESIAN COORDINATES (ANGSTROEM)
---------------------------------
  C     -2.234222   -1.175976    0.017433
  C     -0.871951   -0.572523    0.375145
  H     -0.824244   -0.401725    1.460788
  C     -0.646733    0.774097   -0.324156
  H     -0.821925    0.645756   -1.406222
  C      0.804459    1.267053   -0.151272
  H      0.760783    2.146420    0.501829
  C      1.702738    0.212136    0.526885
  H      2.750764    0.465023    0.305143
  C      1.432184   -1.160080   -0.114230
  H      2.009866   -1.951245    0.385321
  O      0.080292   -1.555539   -0.008835
  O      1.861325   -1.180885   -1.437732
  O      1.464421    0.236799    1.908756
  O      1.302322    1.587022   -1.431389
  O     -1.494092    1.771039    0.187062
  O     -3.257848   -0.342323    0.509466
  H     -2.278916   -2.174721    0.464875
  H     -2.295309   -1.276714   -1.073642
  H      1.551224   -0.381472   -1.902794
  H      2.102087   -0.330140    2.366870
  H      2.011349    2.242011   -1.366049
  H     -2.378620    1.386384    0.322143
  H     -4.117465   -0.753319    0.339882

 Total Charge           Charge          ....    0
 Multiplicity           Mult            ....    1
 Number of Electrons    NEL             ....   96
 Basis Dimension        Dim             ....  192

ORBITAL ENERGIES
----------------

  NO   OCC          E(Eh)            E(eV)
   0   2.0000     -18.773707      -510.8585
   1   2.0000     -18.770719      -510.7772
   2   2.0000     -18.762358      -510.5497
   3   2.0000     -18.757053      -510.4054
   4   2.0000     -18.738059      -509.8885
   5   2.0000     -18.729931      -509.6673
   6   2.0000      -9.976966      -271.4870
   7   2.0000      -9.945003      -270.6173
   8   2.0000      -9.944773      -270.6110
   9   2.0000      -9.938078      -270.4288
  10   2.0000      -9.934822      -270.3403
  11   2.0000      -9.933954      -270.3166
  12   2.0000      -0.969465       -26.3805
  13   2.0000      -0.946653       -25.7598
  14   2.0000      -0.943234       -25.6667
  15   2.0000      -0.934370       -25.4255
  16   2.0000      -0.910055       -24.7639
  17   2.0000      -0.895811       -24.3763
  18   2.0000      -0.699767       -19.0416
  19   2.0000      -0.688874       -18.7452
  20   2.0000      -0.620808       -16.8930
  21   2.0000      -0.580249       -15.7894
  22   2.0000      -0.560470       -15.2512
  23   2.0000      -0.513851       -13.9826
  24   2.0000      -0.501206       -13.6385
  25   2.0000      -0.499784       -13.5998
  26   2.0000      -0.468085       -12.7372
  27   2.0000      -0.463192       -12.6041
  28   2.0000      -0.456504       -12.4221
  29   2.0000      -0.428732       -11.6664
  30   2.0000      -0.416001       -11.3200
  31   2.0000      -0.394879       -10.7452
  32   2.0000      -0.380414       -10.3516
  33   2.0000      -0.370061       -10.0699
  34   2.0000      -0.363149        -9.8818
  35   2.0000      -0.341556        -9.2942
  36   2.0000      -0.322620        -8.7789
  37   2.0000      -0.315468        -8.5843
  38   2.0000      -0.305430        -8.3112
  39   2.0000      -0.297292        -8.0897
  40   2.0000      -0.284970        -7.7544
  41   2.0000      -0.262154        -7.1336
  42   2.0000      -0.249752        -6.7961
  43   2.0000      -0.238592        -6.4924
  44   2.0000      -0.231297        -6.2939
  45   2.0000      -0.217509        -5.9187
  46   2.0000      -0.210963        -5.7406
  47   2.0000      -0.195833        -5.3289
  48   0.0000       0.009478         0.2579
  49   0.0000       0.012253         0.3334
  50   0.0000       0.017828         0.4851
  51   0.0000       0.062359         1.6969
  52   0.0000       0.075313         2.0494

MULLIKEN ATOMIC CHARGES
-----------------------
   0 C :    0.071195
   1 C :    0.023735
   2 H :    0.074879
   3 C :    0.044615
   4 H :    0.047907
   5 C :    0.066942
   6 H :    0.081978
   7 C :   -0.016436
   8 H :    0.059886
   9 C :    0.205100
  10 H :    0.047902
  11 O :   -0.312565
  12 O :   -0.402123
  13 O :   -0.402887
  14 O :   -0.414245
  15 O :   -0.430518
  16 O :   -0.444515
  17 H :    0.089042
  18 H :    0.072164
  19 H :    0.298998
  20 H :    0.308121
  21 H :    0.311884
  22 H :    0.302780
  23 H :    0.316161
Sum of atomic charges:    0.0000000

LOEWDIN ATOMIC CHARGES
----------------------
   0 C :   -0.124083
   1 C :   -0.072939
   2 H :    0.111558
   3 C :   -0.063689
   4 H :    0.101261
   5 C :   -0.061014
   6 H :    0.121578
   7 C :   -0.102220
   8 H :    0.101882
   9 C :   -0.002693
  10 H :    0.096745
  11 O :   -0.148551
  12 O :   -0.313733
  13 O :   -0.307917
  14 O :   -0.306208
  15 O :   -0.327472
  16 O :   -0.331864
  17 H :    0.106743
  18 H :    0.099602
  19 H :    0.269206
  20 H :    0.291471
  21 H :    0.293795
  22 H :    0.272481
  23 H :    0.296058

  Mayer bond orders larger than 0.100000
B(  0-C ,  1-C ) :   1.0481 B(  0-C , 16-O ) :   1.0457 B(  0-C , 17-H ) :   0.9181
B(  0-C , 18-H ) :   0.9070 B(  1-C ,  2-H ) :   0.8582 B(  1-C ,  3-C ) :   1.0794
B(  1-C , 11-O ) :   0.9896 B(  3-C ,  4-H ) :   0.8661 B(  3-C ,  5-C ) :   1.0065
B(  3-C , 15-O ) :   1.0972 B(  5-C ,  6-H ) :   0.8586 B(  5-C ,  7-C ) :   1.0132
B(  5-C , 14-O ) :   1.0476 B(  7-C ,  8-H ) :   0.8932 B(  7-C ,  9-C ) :   0.9813
B(  7-C , 13-O ) :   1.0399 B(  9-C , 10-H ) :   0.9010 B(  9-C , 11-O ) :   1.0485
B(  9-C , 12-O ) :   1.1507 B( 12-O , 19-H ) :   0.8071 B( 13-O , 20-H ) :   0.8444
B( 14-O , 21-H ) :   0.8413 B( 15-O , 22-H ) :   0.8050 B( 16-O , 22-H ) :   0.1050
B( 16-O , 23-H ) :   0.8417

Dispersion correction           -0.024799000
FINAL SINGLE POINT ENERGY      -685.691489488509

DIPOLE MOMENT
-------------

Method             : SCF
Type of density    : Electron Density
Multiplicity       :   1
Irrep              :   0
Energy             :  -685.8236154496977406 Eh
Relativity type    :
Basis              : AO
                                X                 Y                 Z
Electronic contribution:      1.363777958       0.317442983      -0.058266348
Nuclear contribution   :     -1.436426082      -0.352369292       0.369485765
                        -----------------------------------------
Total Dipole Moment    :     -0.072648124      -0.034926310       0.311219417
                        -----------------------------------------
Magnitude (a.u.)       :      0.321488915
Magnitude (Debye)      :      0.817159881

Rotational constants in cm-1:             0.043652             0.024963             0.021860
Rotational constants in MHz :          1308.655497           748.382778           655.356749

                             ****ORCA TERMINATED NORMALLY****
TOTAL RUN TIME: 0 days 0 hours 0 minutes 12 seconds 2 msec
