                         Program Version 6.0.0  -   RELEASE  -
|  1> ! wb97x-v def2-tzvp def2/J RIJCOSX DEFGRID2 scfconv7 GCP(DFT/TZ) printgap
|  2> %output
|  3>     printlevel normal
|  4> end
|  5> * xyz 0 1
|  6> C -4.4150541698939865 0.0004986545400496603 0.0005327886073629185
|  7> C -3.7173616196722357 -0.45543392619765444 1.1170983920798738
|  8> C -2.3256814299096478 -0.45890614057966195 1.1181031043128384
|  9> C -1.624402374600088 -0.0005254971339984055 0.0002820410392753996
| 10> C -2.325574206579579 0.45824750307472806 -1.1174556398510485
| 11> C -3.717245355346146 0.45580584643218036 -1.1162098654688164
| 12> C -0.1416200166304376 -0.0004938733647522023 0.00020200078733499985
| 13> C 0.6041250685744393 1.1736226837903945 0.16225513781097514
| 14> C 1.992842829662145 1.2032204290611699 0.16514275851488955
| 15> C 2.6630245733259903 -1.8913505411447313e-06 -0.0004791661338124456
| 16> C 1.9931787938371475 -1.2034698906757706 -0.16566846049830758
| 17> C 0.6044406321327066 -1.1743600507238396 -0.16208396712416376
| 18> Cl -0.23490319397167392 -2.695009088057567 -0.4004247516140384
| 19> Cl 4.414925648168548 0.0003491205980073767 -0.0010529362845994078
| 20> Cl -0.23559707811983974 2.6939810696133546 0.4011833681640862
| 21> H -5.500493485906207 0.0009966444702529092 0.0006713272110913149
| 22> H -4.256782423669226 -0.8098942983556137 1.989988152693289
| 23> H -1.7788714051690122 -0.8149926873956634 1.9861016666954936
| 24> H -1.7786457585684041 0.8139835938693526 -1.9855221864642962
| 25> H -4.256558697754823 0.8107055848842838 -1.9889907525881265
| 26> H 2.530186849883138 2.1337359126507796 0.2982116016344169
| 27> H 2.5307962423217916 -2.133792302020871 -0.29898700258055927
| 28> *
| 29>
| 30>                          ****END OF INPUT****

CARTESIAN COORDINATES (ANGSTROEM)
---------------------------------
  C     -4.415054    0.000499    0.000533
  C     -3.717362   -0.455434    1.117098
  C     -2.325681   -0.458906    1.118103
  C     -1.624402   -0.000525    0.000282
  C     -2.325574    0.458248   -1.117456
  C     -3.717245    0.455806   -1.116210
  C     -0.141620   -0.000494    0.000202
  C      0.604125    1.173623    0.162255
  C      1.992843    1.203220    0.165143
  C      2.663025   -0.000002   -0.000479
  C      1.993179   -1.203470   -0.165668
  C      0.604441   -1.174360   -0.162084
  Cl    -0.234903   -2.695009   -0.400425
  Cl     4.414926    0.000349   -0.001053
  Cl    -0.235597    2.693981    0.401183
  H     -5.500493    0.000997    0.000671
  H     -4.256782   -0.809894    1.989988
  H     -1.778871   -0.814993    1.986102
  H     -1.778646    0.813984   -1.985522
  H     -4.256559    0.810706   -1.988991
  H      2.530187    2.133736    0.298212
  H      2.530796   -2.133792   -0.298987

 Total Charge           Charge          ....    0
 Multiplicity           Mult            ....    1
 Number of Electrons    NEL             ....  130
 Basis Dimension        Dim             ....  525

ORBITAL ENERGIES
----------------

  NO   OCC          E(Eh)            E(eV)
   0   2.0000    -107.158407     -2915.9285
   1   2.0000    -107.155583     -2915.8517
   2   2.0000    -107.155578     -2915.8515
   3   2.0000     -12.141656      -330.3913
   4   2.0000     -12.141315      -330.3820
   5   2.0000     -12.140084      -330.3485
   6   2.0000     -12.097538      -329.1907
   7   2.0000     -12.086259      -328.8838
   8   2.0000     -12.085884      -328.8736
   9   2.0000     -12.075593      -328.5936
  10   2.0000     -12.062479      -328.2367
  11   2.0000     -12.061947      -328.2223
  12   2.0000     -12.060860      -328.1927
  13   2.0000     -12.059433      -328.1538
  14   2.0000     -12.058084      -328.1171
  15   2.0000     -11.311524      -307.8022
  16   2.0000     -11.308712      -307.7257
  17   2.0000     -11.308686      -307.7250
  18   2.0000      -9.103095      -247.7078
  19   2.0000      -9.100604      -247.6400
  20   2.0000      -9.100369      -247.6336
  21   2.0000      -9.100343      -247.6329
  22   2.0000      -9.100007      -247.6238
  23   2.0000      -9.097607      -247.5585
  24   2.0000      -9.097584      -247.5579
  25   2.0000      -9.097546      -247.5568
  26   2.0000      -9.097440      -247.5539
  27   2.0000      -1.469835       -39.9962
  28   2.0000      -1.437467       -39.1155
  29   2.0000      -1.435302       -39.0566
  30   2.0000      -1.396906       -38.0117
  31   2.0000      -1.374591       -37.4045
  32   2.0000      -1.323002       -36.0007
  33   2.0000      -1.296692       -35.2848
  34   2.0000      -1.282812       -34.9071
  35   2.0000      -1.268363       -34.5139
  36   2.0000      -1.154981       -31.4286
  37   2.0000      -1.140406       -31.0320
  38   2.0000      -1.116705       -30.3871
  39   2.0000      -1.104504       -30.0551
  40   2.0000      -1.019361       -27.7382
  41   2.0000      -1.011388       -27.5213
  42   2.0000      -0.982309       -26.7300
  43   2.0000      -0.962916       -26.2023
  44   2.0000      -0.955226       -25.9930
  45   2.0000      -0.939544       -25.5663
  46   2.0000      -0.932361       -25.3708
  47   2.0000      -0.910123       -24.7657
  48   2.0000      -0.889578       -24.2066
  49   2.0000      -0.884036       -24.0558
  50   2.0000      -0.877271       -23.8718
  51   2.0000      -0.860250       -23.4086
  52   2.0000      -0.831025       -22.6133
  53   2.0000      -0.827909       -22.5285
  54   2.0000      -0.826065       -22.4784
  55   2.0000      -0.817182       -22.2366
  56   2.0000      -0.807726       -21.9793
  57   2.0000      -0.806096       -21.9350
  58   2.0000      -0.800223       -21.7752
  59   2.0000      -0.781261       -21.2592
  60   2.0000      -0.772470       -21.0200
  61   2.0000      -0.681973       -18.5574
  62   2.0000      -0.677218       -18.4280
  63   2.0000      -0.651606       -17.7311
  64   2.0000      -0.647298       -17.6139
  65   0.0000      -0.319721        -8.7000
  66   0.0000      -0.298276        -8.1165
  67   0.0000      -0.288782        -7.8582
  68   0.0000      -0.257125        -6.9967
  69   0.0000      -0.255695        -6.9578

MULLIKEN ATOMIC CHARGES
-----------------------
   0 C :   -0.101759
   1 C :   -0.132789
   2 C :   -0.171886
   3 C :    0.174424
   4 C :   -0.171887
   5 C :   -0.132906
   6 C :   -0.016318
   7 C :    0.138083
   8 C :   -0.322831
   9 C :    0.216165
  10 C :   -0.322874
  11 C :    0.138261
  12 Cl:   -0.065503
  13 Cl:   -0.080674
  14 Cl:   -0.065513
  15 H :    0.121721
  16 H :    0.120447
  17 H :    0.127935
  18 H :    0.127978
  19 H :    0.120456
  20 H :    0.149760
  21 H :    0.149708
Sum of atomic charges:    0.0000000

LOEWDIN ATOMIC CHARGES
----------------------
   0 C :   -0.133256
   1 C :   -0.132441
   2 C :   -0.097150
   3 C :   -0.131115
   4 C :   -0.097156
   5 C :   -0.132447
   6 C :   -0.115566
   7 C :   -0.360525
   8 C :   -0.144740
   9 C :   -0.407081
  10 C :   -0.144734
  11 C :   -0.360544
  12 Cl:    0.415088
  13 Cl:    0.389692
  14 Cl:    0.415104
  15 H :    0.142696
  16 H :    0.143453
  17 H :    0.149558
  18 H :    0.149561
  19 H :    0.143455
  20 H :    0.154075
  21 H :    0.154075

  Mayer bond orders larger than 0.100000
B(  0-C ,  1-C ) :   1.4169 B(  0-C ,  5-C ) :   1.4168 B(  0-C , 15-H ) :   0.9704
B(  1-C ,  2-C ) :   1.4553 B(  1-C , 16-H ) :   0.9736 B(  2-C ,  3-C ) :   1.3684
B(  2-C , 17-H ) :   0.9694 B(  3-C ,  4-C ) :   1.3683 B(  3-C ,  6-C ) :   0.8455
B(  4-C ,  5-C ) :   1.4553 B(  4-C , 18-H ) :   0.9694 B(  5-C , 19-H ) :   0.9736
B(  6-C ,  7-C ) :   1.3227 B(  6-C , 11-C ) :   1.3226 B(  7-C ,  8-C ) :   1.4012
B(  7-C , 14-Cl) :   1.0674 B(  8-C ,  9-C ) :   1.3762 B(  8-C , 20-H ) :   0.9606
B(  9-C , 10-C ) :   1.3762 B(  9-C , 13-Cl) :   0.9750 B( 10-C , 11-C ) :   1.4011
B( 10-C , 21-H ) :   0.9606 B( 11-C , 12-Cl) :   1.0675

FINAL SINGLE POINT ENERGY     -1841.958613034853

DIPOLE MOMENT
-------------

Method             : SCF
Type of density    : Electron Density
Multiplicity       :   1
Irrep              :   0
Energy             : -1841.9692103408533512 Eh
Relativity type    :
Basis              : AO
                                X                 Y                 Z
Electronic contribution:     16.704346713      -0.001848475      -0.001620842
Nuclear contribution   :    -17.052919872       0.002050635       0.001661389
                        -----------------------------------------
Total Dipole Moment    :     -0.348573159       0.000202160       0.000040547
                        -----------------------------------------
Magnitude (a.u.)       :      0.348573220
Magnitude (Debye)      :      0.886002713

Rotational constants in cm-1:             0.024314             0.009464             0.007300
Rotational constants in MHz :           728.919758           283.720046           218.857916

                             ****ORCA TERMINATED NORMALLY****
TOTAL RUN TIME: 0 days 0 hours 7 minutes 26 seconds 739 msec
