                         Program Version 6.0.0  -   RELEASE  -
|  1> ! wb97x-v def2-tzvp def2/J RIJCOSX DEFGRID2 scfconv7 GCP(DFT/TZ) printgap
|  2> %output
|  3>     printlevel normal
|  4> end
|  5> %cpcm
|  6>     smd true
|  7>     smdsolvent "water"
|  8> end
|  9> * xyz 0 1
| 10> C -4.4150541698939865 0.0004986545400496603 0.0005327886073629185
| 11> C -3.7173616196722357 -0.45543392619765444 1.1170983920798738
| 12> C -2.3256814299096478 -0.45890614057966195 1.1181031043128384
| 13> C -1.624402374600088 -0.0005254971339984055 0.0002820410392753996
| 14> C -2.325574206579579 0.45824750307472806 -1.1174556398510485
| 15> C -3.717245355346146 0.45580584643218036 -1.1162098654688164
| 16> C -0.1416200166304376 -0.0004938733647522023 0.00020200078733499985
| 17> C 0.6041250685744393 1.1736226837903945 0.16225513781097514
| 18> C 1.992842829662145 1.2032204290611699 0.16514275851488955
| 19> C 2.6630245733259903 -1.8913505411447313e-06 -0.0004791661338124456
| 20> C 1.9931787938371475 -1.2034698906757706 -0.16566846049830758
| 21> C 0.6044406321327066 -1.1743600507238396 -0.16208396712416376
| 22> Cl -0.23490319397167392 -2.695009088057567 -0.4004247516140384
| 23> Cl 4.414925648168548 0.0003491205980073767 -0.0010529362845994078
| 24> Cl -0.23559707811983974 2.6939810696133546 0.4011833681640862
| 25> H -5.500493485906207 0.0009966444702529092 0.0006713272110913149
| 26> H -4.256782423669226 -0.8098942983556137 1.989988152693289
| 27> H -1.7788714051690122 -0.8149926873956634 1.9861016666954936
| 28> H -1.7786457585684041 0.8139835938693526 -1.9855221864642962
| 29> H -4.256558697754823 0.8107055848842838 -1.9889907525881265
| 30> H 2.530186849883138 2.1337359126507796 0.2982116016344169
| 31> H 2.5307962423217916 -2.133792302020871 -0.29898700258055927
| 32> *
| 33>
| 34>                          ****END OF INPUT****

CARTESIAN COORDINATES (ANGSTROEM)
---------------------------------
  C     -4.415054    0.000499    0.000533
  C     -3.717362   -0.455434    1.117098
  C     -2.325681   -0.458906    1.118103
  C     -1.624402   -0.000525    0.000282
  C     -2.325574    0.458248   -1.117456
  C     -3.717245    0.455806   -1.116210
  C     -0.141620   -0.000494    0.000202
  C      0.604125    1.173623    0.162255
  C      1.992843    1.203220    0.165143
  C      2.663025   -0.000002   -0.000479
  C      1.993179   -1.203470   -0.165668
  C      0.604441   -1.174360   -0.162084
  Cl    -0.234903   -2.695009   -0.400425
  Cl     4.414926    0.000349   -0.001053
  Cl    -0.235597    2.693981    0.401183
  H     -5.500493    0.000997    0.000671
  H     -4.256782   -0.809894    1.989988
  H     -1.778871   -0.814993    1.986102
  H     -1.778646    0.813984   -1.985522
  H     -4.256559    0.810706   -1.988991
  H      2.530187    2.133736    0.298212
  H      2.530796   -2.133792   -0.298987

 Total Charge           Charge          ....    0
 Multiplicity           Mult            ....    1
 Number of Electrons    NEL             ....  130
 Basis Dimension        Dim             ....  525

ORBITAL ENERGIES
----------------

  NO   OCC          E(Eh)            E(eV)
   0   2.0000    -107.156049     -2915.8643
   1   2.0000    -107.155075     -2915.8378
   2   2.0000    -107.155070     -2915.8377
   3   2.0000     -12.136118      -330.2406
   4   2.0000     -12.135753      -330.2306
   5   2.0000     -12.133855      -330.1790
   6   2.0000     -12.093210      -329.0730
   7   2.0000     -12.079100      -328.6890
   8   2.0000     -12.078735      -328.6791
   9   2.0000     -12.071267      -328.4759
  10   2.0000     -12.056123      -328.0638
  11   2.0000     -12.055580      -328.0490
  12   2.0000     -12.054088      -328.0084
  13   2.0000     -12.052717      -327.9711
  14   2.0000     -12.051286      -327.9322
  15   2.0000     -11.309210      -307.7392
  16   2.0000     -11.308260      -307.7134
  17   2.0000     -11.308231      -307.7126
  18   2.0000      -9.100826      -247.6461
  19   2.0000      -9.100090      -247.6260
  20   2.0000      -9.099491      -247.6097
  21   2.0000      -9.098109      -247.5721
  22   2.0000      -9.098092      -247.5717
  23   2.0000      -9.097184      -247.5470
  24   2.0000      -9.097173      -247.5467
  25   2.0000      -9.097134      -247.5456
  26   2.0000      -9.097029      -247.5427
  27   2.0000      -1.465756       -39.8852
  28   2.0000      -1.434771       -39.0421
  29   2.0000      -1.433812       -39.0160
  30   2.0000      -1.392955       -37.9042
  31   2.0000      -1.371264       -37.3140
  32   2.0000      -1.317929       -35.8627
  33   2.0000      -1.291069       -35.1318
  34   2.0000      -1.277411       -34.7601
  35   2.0000      -1.263300       -34.3761
  36   2.0000      -1.149612       -31.2825
  37   2.0000      -1.135008       -30.8851
  38   2.0000      -1.110411       -30.2158
  39   2.0000      -1.098459       -29.8906
  40   2.0000      -1.013728       -27.5849
  41   2.0000      -1.005245       -27.3541
  42   2.0000      -0.978510       -26.6266
  43   2.0000      -0.957276       -26.0488
  44   2.0000      -0.947541       -25.7839
  45   2.0000      -0.933630       -25.4054
  46   2.0000      -0.928391       -25.2628
  47   2.0000      -0.903094       -24.5744
  48   2.0000      -0.882965       -24.0267
  49   2.0000      -0.876143       -23.8411
  50   2.0000      -0.869504       -23.6604
  51   2.0000      -0.856366       -23.3029
  52   2.0000      -0.825925       -22.4746
  53   2.0000      -0.825778       -22.4706
  54   2.0000      -0.822982       -22.3945
  55   2.0000      -0.809555       -22.0291
  56   2.0000      -0.806072       -21.9343
  57   2.0000      -0.805643       -21.9226
  58   2.0000      -0.799088       -21.7443
  59   2.0000      -0.778275       -21.1779
  60   2.0000      -0.769585       -20.9415
  61   2.0000      -0.676873       -18.4187
  62   2.0000      -0.671827       -18.2813
  63   2.0000      -0.647867       -17.6294
  64   2.0000      -0.643368       -17.5069
  65   0.0000      -0.316657        -8.6167
  66   0.0000      -0.292708        -7.9650
  67   0.0000      -0.282216        -7.6795
  68   0.0000      -0.253515        -6.8985
  69   0.0000      -0.252166        -6.8618

MULLIKEN ATOMIC CHARGES
-----------------------
   0 C :   -0.143403
   1 C :   -0.171881
   2 C :   -0.219944
   3 C :    0.130895
   4 C :   -0.219954
   5 C :   -0.171977
   6 C :    0.080536
   7 C :    0.121820
   8 C :   -0.327402
   9 C :    0.208356
  10 C :   -0.327454
  11 C :    0.121991
  12 Cl:   -0.085446
  13 Cl:   -0.094873
  14 Cl:   -0.085458
  15 H :    0.164157
  16 H :    0.162148
  17 H :    0.167178
  18 H :    0.167214
  19 H :    0.162160
  20 H :    0.180696
  21 H :    0.180640
Sum of atomic charges:    0.0000000

LOEWDIN ATOMIC CHARGES
----------------------
   0 C :   -0.141164
   1 C :   -0.140881
   2 C :   -0.104818
   3 C :   -0.139684
   4 C :   -0.104821
   5 C :   -0.140886
   6 C :   -0.109435
   7 C :   -0.360767
   8 C :   -0.136641
   9 C :   -0.408989
  10 C :   -0.136635
  11 C :   -0.360787
  12 Cl:    0.401211
  13 Cl:    0.378685
  14 Cl:    0.401226
  15 H :    0.152276
  16 H :    0.153050
  17 H :    0.158841
  18 H :    0.158845
  19 H :    0.153052
  20 H :    0.164161
  21 H :    0.164161

  Mayer bond orders larger than 0.100000
B(  0-C ,  1-C ) :   1.3942 B(  0-C ,  5-C ) :   1.3942 B(  0-C , 15-H ) :   0.9730
B(  1-C ,  2-C ) :   1.4348 B(  1-C , 16-H ) :   0.9780 B(  2-C ,  3-C ) :   1.3485
B(  2-C , 17-H ) :   0.9784 B(  3-C ,  4-C ) :   1.3485 B(  3-C ,  6-C ) :   0.8249
B(  4-C ,  5-C ) :   1.4348 B(  4-C , 18-H ) :   0.9784 B(  5-C , 19-H ) :   0.9780
B(  6-C ,  7-C ) :   1.3190 B(  6-C , 11-C ) :   1.3189 B(  7-C ,  8-C ) :   1.3967
B(  7-C , 14-Cl) :   1.0513 B(  8-C ,  9-C ) :   1.3661 B(  8-C , 20-H ) :   0.9565
B(  9-C , 10-C ) :   1.3661 B(  9-C , 13-Cl) :   0.9745 B( 10-C , 11-C ) :   1.3966
B( 10-C , 21-H ) :   0.9566 B( 11-C , 12-Cl) :   1.0513

FINAL SINGLE POINT ENERGY     -1841.961630068174

DIPOLE MOMENT
-------------

Method             : SCF
Type of density    : Electron Density
Multiplicity       :   1
Irrep              :   0
Energy             : -1841.9722273741735989 Eh
Relativity type    :
Basis              : AO
                                X                 Y                 Z
Electronic contribution:     16.768992072      -0.001761359      -0.001653804
Nuclear contribution   :    -17.052919872       0.002050635       0.001661389
                        -----------------------------------------
Total Dipole Moment    :     -0.283927800       0.000289276       0.000007586
                        -----------------------------------------
Magnitude (a.u.)       :      0.283927947
Magnitude (Debye)      :      0.721687488

Rotational constants in cm-1:             0.024314             0.009464             0.007300
Rotational constants in MHz :           728.919758           283.720046           218.857916

                             ****ORCA TERMINATED NORMALLY****
TOTAL RUN TIME: 0 days 0 hours 7 minutes 5 seconds 259 msec
