                         Program Version 6.0.0  -   RELEASE  -
|  1> ! pbe def2-sv(p) def2/J RI DEFGRID1 loosescf d4 GCP(DFT/SV(P)) printgap
|  2> %output
|  3>     printlevel normal
|  4> end
|  5> * xyz 0 1
|  6> C -1.812653772 -1.0546403999 -0.6731321626
|  7> C -1.0385764106 -0.4907265529 0.5281183277
|  8> H -1.6948067659 -0.5619072834 1.403963802
|  9> C -0.7062164063 0.997238972 0.342540965
| 10> H -1.5492239221 1.444287392 -0.1987577917
| 11> C 0.5907537765 1.2357544382 -0.4698212452
| 12> H 0.8756246332 2.2893548712 -0.3425054201
| 13> C 1.7160566624 0.3621934154 0.1045711614
| 14> H 2.5963460958 0.4250966217 -0.5447410529
| 15> C 1.263237376 -1.1119777124 0.1424231149
| 16> H 2.0096762275 -1.6851373078 0.7108180017
| 17> O 0.0803379348 -1.2974393232 0.8758950014
| 18> O 1.1609284861 -1.5710817928 -1.1748175704
| 19> O 2.1267081663 0.7921494674 1.3732551226
| 20> O 0.4100209962 1.0428280202 -1.8499355244
| 21> O -0.5762514526 1.5624150497 1.6334465029
| 22> O -3.07555664 -0.4280262389 -0.6947414087
| 23> H -1.9155868265 -2.1372620495 -0.5254861969
| 24> H -1.2698983093 -0.8617589351 -1.6038562021
| 25> H 1.082196717 -2.5367169357 -1.1928446958
| 26> H 1.3395907578 0.8752949882 1.9419420358
| 27> H 0.6370291021 0.1247237732 -2.0713813238
| 28> H -0.682880314 2.522589131 1.5856479125
| 29> H -3.5813340546 -0.7586541562 -1.4503868756
| 30> *
| 31>
| 32>                          ****END OF INPUT****

CARTESIAN COORDINATES (ANGSTROEM)
---------------------------------
  C     -1.812654   -1.054640   -0.673132
  C     -1.038576   -0.490727    0.528118
  H     -1.694807   -0.561907    1.403964
  C     -0.706216    0.997239    0.342541
  H     -1.549224    1.444287   -0.198758
  C      0.590754    1.235754   -0.469821
  H      0.875625    2.289355   -0.342505
  C      1.716057    0.362193    0.104571
  H      2.596346    0.425097   -0.544741
  C      1.263237   -1.111978    0.142423
  H      2.009676   -1.685137    0.710818
  O      0.080338   -1.297439    0.875895
  O      1.160928   -1.571082   -1.174818
  O      2.126708    0.792149    1.373255
  O      0.410021    1.042828   -1.849936
  O     -0.576251    1.562415    1.633447
  O     -3.075557   -0.428026   -0.694741
  H     -1.915587   -2.137262   -0.525486
  H     -1.269898   -0.861759   -1.603856
  H      1.082197   -2.536717   -1.192845
  H      1.339591    0.875295    1.941942
  H      0.637029    0.124724   -2.071381
  H     -0.682880    2.522589    1.585648
  H     -3.581334   -0.758654   -1.450387

 Total Charge           Charge          ....    0
 Multiplicity           Mult            ....    1
 Number of Electrons    NEL             ....   96
 Basis Dimension        Dim             ....  192

ORBITAL ENERGIES
----------------

  NO   OCC          E(Eh)            E(eV)
   0   2.0000     -18.785775      -511.1869
   1   2.0000     -18.769553      -510.7455
   2   2.0000     -18.766617      -510.6656
   3   2.0000     -18.753844      -510.3180
   4   2.0000     -18.742833      -510.0184
   5   2.0000     -18.738195      -509.8922
   6   2.0000      -9.988212      -271.7931
   7   2.0000      -9.943573      -270.5784
   8   2.0000      -9.940713      -270.5006
   9   2.0000      -9.938115      -270.4299
  10   2.0000      -9.937450      -270.4118
  11   2.0000      -9.933375      -270.3009
  12   2.0000      -0.989347       -26.9215
  13   2.0000      -0.945332       -25.7238
  14   2.0000      -0.929530       -25.2938
  15   2.0000      -0.923103       -25.1189
  16   2.0000      -0.920973       -25.0609
  17   2.0000      -0.911735       -24.8096
  18   2.0000      -0.703848       -19.1527
  19   2.0000      -0.683892       -18.6096
  20   2.0000      -0.623031       -16.9535
  21   2.0000      -0.585425       -15.9302
  22   2.0000      -0.574512       -15.6333
  23   2.0000      -0.525902       -14.3105
  24   2.0000      -0.505126       -13.7452
  25   2.0000      -0.482530       -13.1303
  26   2.0000      -0.474750       -12.9186
  27   2.0000      -0.463592       -12.6150
  28   2.0000      -0.437114       -11.8945
  29   2.0000      -0.432552       -11.7703
  30   2.0000      -0.413290       -11.2462
  31   2.0000      -0.403604       -10.9826
  32   2.0000      -0.384100       -10.4519
  33   2.0000      -0.376620       -10.2483
  34   2.0000      -0.360056        -9.7976
  35   2.0000      -0.354001        -9.6328
  36   2.0000      -0.327861        -8.9216
  37   2.0000      -0.326399        -8.8818
  38   2.0000      -0.303865        -8.2686
  39   2.0000      -0.294857        -8.0235
  40   2.0000      -0.276065        -7.5121
  41   2.0000      -0.267179        -7.2703
  42   2.0000      -0.265902        -7.2355
  43   2.0000      -0.248600        -6.7647
  44   2.0000      -0.235539        -6.4094
  45   2.0000      -0.219625        -5.9763
  46   2.0000      -0.212837        -5.7916
  47   2.0000      -0.196774        -5.3545
  48   0.0000       0.006945         0.1890
  49   0.0000       0.015479         0.4212
  50   0.0000       0.023644         0.6434
  51   0.0000       0.058644         1.5958
  52   0.0000       0.067755         1.8437

MULLIKEN ATOMIC CHARGES
-----------------------
   0 C :    0.019769
   1 C :    0.067323
   2 H :    0.086811
   3 C :    0.009512
   4 H :    0.091356
   5 C :    0.054724
   6 H :    0.061340
   7 C :    0.028122
   8 H :    0.083616
   9 C :    0.174121
  10 H :    0.075635
  11 O :   -0.310185
  12 O :   -0.411700
  13 O :   -0.429207
  14 O :   -0.423217
  15 O :   -0.421693
  16 O :   -0.433348
  17 H :    0.068249
  18 H :    0.058882
  19 H :    0.314467
  20 H :    0.301528
  21 H :    0.317596
  22 H :    0.311250
  23 H :    0.305049
Sum of atomic charges:   -0.0000000

LOEWDIN ATOMIC CHARGES
----------------------
   0 C :   -0.142270
   1 C :   -0.055370
   2 H :    0.126727
   3 C :   -0.079509
   4 H :    0.117301
   5 C :   -0.076270
   6 H :    0.107238
   7 C :   -0.082979
   8 H :    0.119826
   9 C :   -0.012152
  10 H :    0.104853
  11 O :   -0.139961
  12 O :   -0.309499
  13 O :   -0.317263
  14 O :   -0.321513
  15 O :   -0.310861
  16 O :   -0.339689
  17 H :    0.095727
  18 H :    0.093331
  19 H :    0.293604
  20 H :    0.271960
  21 H :    0.273349
  22 H :    0.293616
  23 H :    0.289804

  Mayer bond orders larger than 0.100000
B(  0-C ,  1-C ) :   1.0671 B(  0-C , 16-O ) :   1.0723 B(  0-C , 17-H ) :   0.9093
B(  0-C , 18-H ) :   0.8954 B(  1-C ,  2-H ) :   0.8874 B(  1-C ,  3-C ) :   1.0144
B(  1-C , 11-O ) :   0.9995 B(  3-C ,  4-H ) :   0.8859 B(  3-C ,  5-C ) :   0.9473
B(  3-C , 15-O ) :   1.0137 B(  5-C ,  6-H ) :   0.9038 B(  5-C ,  7-C ) :   0.9949
B(  5-C , 14-O ) :   1.0865 B(  7-C ,  8-H ) :   0.8930 B(  7-C ,  9-C ) :   0.9856
B(  7-C , 13-O ) :   1.0702 B(  9-C , 10-H ) :   0.9050 B(  9-C , 11-O ) :   1.0700
B(  9-C , 12-O ) :   1.0696 B( 12-O , 19-H ) :   0.8314 B( 13-O , 20-H ) :   0.8086
B( 14-O , 21-H ) :   0.8006 B( 15-O , 22-H ) :   0.8422 B( 16-O , 23-H ) :   0.8487

Dispersion correction           -0.025904932
FINAL SINGLE POINT ENERGY      -685.698480798858

DIPOLE MOMENT
-------------

Method             : SCF
Type of density    : Electron Density
Multiplicity       :   1
Irrep              :   0
Energy             :  -685.8311829310316625 Eh
Relativity type    :
Basis              : AO
                                X                 Y                 Z
Electronic contribution:      1.461775710       0.104666421       1.554983196
Nuclear contribution   :     -2.018261032      -0.805416664      -2.143730248
                        -----------------------------------------
Total Dipole Moment    :     -0.556485322      -0.700750243      -0.588747051
                        -----------------------------------------
Magnitude (a.u.)       :      1.071144204
Magnitude (Debye)      :      2.722632196

Rotational constants in cm-1:             0.040764             0.028654             0.024733
Rotational constants in MHz :          1222.071049           859.036287           741.472084

                             ****ORCA TERMINATED NORMALLY****
TOTAL RUN TIME: 0 days 0 hours 0 minutes 12 seconds 535 msec
