                         Program Version 6.0.0  -   RELEASE  -
|  1> ! r2scan-3c def2/J RI DEFGRID2 scfconv6 printgap
|  2> %output
|  3>     printlevel normal
|  4> end
|  5> * xyz 0 1
|  6> C -1.887996747 -0.0126086231 0.3151802494
|  7> C -1.181808946 -1.2601394644 -0.207775737
|  8> C 0.2909825903 -1.2464317296 0.1869076321
|  9> C 0.9825491598 0.0106887742 -0.3390530701
| 10> C 0.2713672517 1.2595351015 0.1882434987
| 11> C -1.2016385463 1.2446851106 -0.2102067288
| 12> O 2.339350446 -0.043086094 0.0710899832
| 13> H -1.8588853847 -0.0116907123 1.4066972532
| 14> H -2.9343784977 -0.0208296163 0.0055878123
| 15> H -1.6576072158 -2.1561144552 0.1933685026
| 16> H -1.2633406059 -1.2941551849 -1.2965578123
| 17> H 0.3922820107 -1.2608915716 1.2737853225
| 18> H 0.8065787082 -2.1238860948 -0.2066519376
| 19> H 0.936585374 0.007681192 -1.4414845314
| 20> H 0.3630802372 1.2759302847 1.2765197407
| 21> H 0.7551433719 2.1559674999 -0.2070192231
| 22> H -1.6961196029 2.1336911995 0.1846388575
| 23> H -1.2800089272 1.2712930411 -1.2995490595
| 24> H 2.7936814683 0.7578477565 -0.2229131196
| 25> *
| 26>
| 27>                          ****END OF INPUT****

CARTESIAN COORDINATES (ANGSTROEM)
---------------------------------
  C     -1.887997   -0.012609    0.315180
  C     -1.181809   -1.260139   -0.207776
  C      0.290983   -1.246432    0.186908
  C      0.982549    0.010689   -0.339053
  C      0.271367    1.259535    0.188243
  C     -1.201639    1.244685   -0.210207
  O      2.339350   -0.043086    0.071090
  H     -1.858885   -0.011691    1.406697
  H     -2.934378   -0.020830    0.005588
  H     -1.657607   -2.156114    0.193369
  H     -1.263341   -1.294155   -1.296558
  H      0.392282   -1.260892    1.273785
  H      0.806579   -2.123886   -0.206652
  H      0.936585    0.007681   -1.441485
  H      0.363080    1.275930    1.276520
  H      0.755143    2.155967   -0.207019
  H     -1.696120    2.133691    0.184639
  H     -1.280009    1.271293   -1.299549
  H      2.793681    0.757848   -0.222913

 Total Charge           Charge          ....    0
 Multiplicity           Mult            ....    1
 Number of Electrons    NEL             ....   56
 Basis Dimension        Dim             ....  198

ORBITAL ENERGIES
----------------

  NO   OCC          E(Eh)            E(eV)
   0   2.0000     -18.942592      -515.4541
   1   2.0000     -10.075972      -274.1811
   2   2.0000     -10.026706      -272.8405
   3   2.0000     -10.024842      -272.7898
   4   2.0000     -10.023825      -272.7622
   5   2.0000     -10.023795      -272.7613
   6   2.0000     -10.019506      -272.6446
   7   2.0000      -0.980053       -26.6686
   8   2.0000      -0.795313       -21.6416
   9   2.0000      -0.710778       -19.3413
  10   2.0000      -0.696923       -18.9643
  11   2.0000      -0.581250       -15.8166
  12   2.0000      -0.568405       -15.4671
  13   2.0000      -0.524191       -14.2640
  14   2.0000      -0.475249       -12.9322
  15   2.0000      -0.443726       -12.0744
  16   2.0000      -0.415162       -11.2971
  17   2.0000      -0.410202       -11.1622
  18   2.0000      -0.384841       -10.4721
  19   2.0000      -0.359482        -9.7820
  20   2.0000      -0.349080        -9.4990
  21   2.0000      -0.335974        -9.1423
  22   2.0000      -0.314416        -8.5557
  23   2.0000      -0.304680        -8.2908
  24   2.0000      -0.293810        -7.9950
  25   2.0000      -0.286396        -7.7932
  26   2.0000      -0.264458        -7.1963
  27   2.0000      -0.230168        -6.2632
  28   0.0000       0.065419         1.7801
  29   0.0000       0.084970         2.3122
  30   0.0000       0.113913         3.0997
  31   0.0000       0.118685         3.2296
  32   0.0000       0.125331         3.4104

MULLIKEN ATOMIC CHARGES
-----------------------
   0 C :   -0.268930
   1 C :   -0.307003
   2 C :   -0.287821
   3 C :   -0.020982
   4 C :   -0.270906
   5 C :   -0.306395
   6 O :   -0.414637
   7 H :    0.139819
   8 H :    0.147002
   9 H :    0.146010
  10 H :    0.144099
  11 H :    0.150936
  12 H :    0.152637
  13 H :    0.134372
  14 H :    0.156956
  15 H :    0.130980
  16 H :    0.146024
  17 H :    0.143806
  18 H :    0.284032
Sum of atomic charges:    0.0000000

LOEWDIN ATOMIC CHARGES
----------------------
   0 C :   -0.304146
   1 C :   -0.301401
   2 C :   -0.265642
   3 C :    0.055377
   4 C :   -0.284214
   5 C :   -0.302379
   6 O :   -0.609943
   7 H :    0.155418
   8 H :    0.155569
   9 H :    0.156485
  10 H :    0.155338
  11 H :    0.164914
  12 H :    0.165265
  13 H :    0.161393
  14 H :    0.164545
  15 H :    0.154807
  16 H :    0.156009
  17 H :    0.155339
  18 H :    0.267265

  Mayer bond orders larger than 0.100000
B(  0-C ,  1-C ) :   0.9233 B(  0-C ,  5-C ) :   0.9299 B(  0-C ,  7-H ) :   0.9883
B(  0-C ,  8-H ) :   0.9434 B(  1-C ,  2-C ) :   0.8971 B(  1-C ,  9-H ) :   0.9399
B(  1-C , 10-H ) :   0.9894 B(  2-C ,  3-C ) :   0.9494 B(  2-C , 11-H ) :   0.9946
B(  2-C , 12-H ) :   0.9357 B(  3-C ,  4-C ) :   0.9127 B(  3-C ,  6-O ) :   0.8881
B(  3-C , 13-H ) :   0.9627 B(  4-C ,  5-C ) :   0.9017 B(  4-C , 14-H ) :   0.9954
B(  4-C , 15-H ) :   0.9310 B(  5-C , 16-H ) :   0.9376 B(  5-C , 17-H ) :   0.9889
B(  6-O , 18-H ) :   0.9010

Dispersion correction           -0.005304845
FINAL SINGLE POINT ENERGY      -311.008562245833

DIPOLE MOMENT
-------------

Method             : SCF
Type of density    : Electron Density
Multiplicity       :   1
Irrep              :   0
Energy             :  -311.0122686763963884 Eh
Relativity type    :
Basis              : AO
                                X                 Y                 Z
Electronic contribution:      3.984971555      -0.253512600       0.043136632
Nuclear contribution   :     -4.321187919       0.688765267      -0.311896870
                        -----------------------------------------
Total Dipole Moment    :     -0.336216364       0.435252667      -0.268760238
                        -----------------------------------------
Magnitude (a.u.)       :      0.612142461
Magnitude (Debye)      :      1.555942483

Rotational constants in cm-1:             0.144624             0.074966             0.054299
Rotational constants in MHz :          4335.711326          2247.425394          1627.853862

                             ****ORCA TERMINATED NORMALLY****
TOTAL RUN TIME: 0 days 0 hours 0 minutes 54 seconds 225 msec
