                         Program Version 6.0.0  -   RELEASE  -
|  1> ! r2scan-3c def2/J RI DEFGRID2 scfconv6 printgap
|  2> %output
|  3>     printlevel normal
|  4> end
|  5> %cpcm
|  6>     smd true
|  7>     smdsolvent "water"
|  8> end
|  9> * xyz 0 1
| 10> C -1.887996747 -0.0126086231 0.3151802494
| 11> C -1.181808946 -1.2601394644 -0.207775737
| 12> C 0.2909825903 -1.2464317296 0.1869076321
| 13> C 0.9825491598 0.0106887742 -0.3390530701
| 14> C 0.2713672517 1.2595351015 0.1882434987
| 15> C -1.2016385463 1.2446851106 -0.2102067288
| 16> O 2.339350446 -0.043086094 0.0710899832
| 17> H -1.8588853847 -0.0116907123 1.4066972532
| 18> H -2.9343784977 -0.0208296163 0.0055878123
| 19> H -1.6576072158 -2.1561144552 0.1933685026
| 20> H -1.2633406059 -1.2941551849 -1.2965578123
| 21> H 0.3922820107 -1.2608915716 1.2737853225
| 22> H 0.8065787082 -2.1238860948 -0.2066519376
| 23> H 0.936585374 0.007681192 -1.4414845314
| 24> H 0.3630802372 1.2759302847 1.2765197407
| 25> H 0.7551433719 2.1559674999 -0.2070192231
| 26> H -1.6961196029 2.1336911995 0.1846388575
| 27> H -1.2800089272 1.2712930411 -1.2995490595
| 28> H 2.7936814683 0.7578477565 -0.2229131196
| 29> *
| 30>
| 31>                          ****END OF INPUT****

CARTESIAN COORDINATES (ANGSTROEM)
---------------------------------
  C     -1.887997   -0.012609    0.315180
  C     -1.181809   -1.260139   -0.207776
  C      0.290983   -1.246432    0.186908
  C      0.982549    0.010689   -0.339053
  C      0.271367    1.259535    0.188243
  C     -1.201639    1.244685   -0.210207
  O      2.339350   -0.043086    0.071090
  H     -1.858885   -0.011691    1.406697
  H     -2.934378   -0.020830    0.005588
  H     -1.657607   -2.156114    0.193369
  H     -1.263341   -1.294155   -1.296558
  H      0.392282   -1.260892    1.273785
  H      0.806579   -2.123886   -0.206652
  H      0.936585    0.007681   -1.441485
  H      0.363080    1.275930    1.276520
  H      0.755143    2.155967   -0.207019
  H     -1.696120    2.133691    0.184639
  H     -1.280009    1.271293   -1.299549
  H      2.793681    0.757848   -0.222913

 Total Charge           Charge          ....    0
 Multiplicity           Mult            ....    1
 Number of Electrons    NEL             ....   56
 Basis Dimension        Dim             ....  198

ORBITAL ENERGIES
----------------

  NO   OCC          E(Eh)            E(eV)
   0   2.0000     -18.948146      -515.6053
   1   2.0000     -10.071589      -274.0619
   2   2.0000     -10.016680      -272.5677
   3   2.0000     -10.016362      -272.5591
   4   2.0000     -10.015366      -272.5320
   5   2.0000     -10.014574      -272.5104
   6   2.0000     -10.014054      -272.4963
   7   2.0000      -0.984335       -26.7851
   8   2.0000      -0.787643       -21.4328
   9   2.0000      -0.703125       -19.1330
  10   2.0000      -0.690506       -18.7896
  11   2.0000      -0.574471       -15.6321
  12   2.0000      -0.562403       -15.3038
  13   2.0000      -0.516848       -14.0641
  14   2.0000      -0.472684       -12.8624
  15   2.0000      -0.437050       -11.8927
  16   2.0000      -0.406880       -11.0718
  17   2.0000      -0.403715       -10.9856
  18   2.0000      -0.380635       -10.3576
  19   2.0000      -0.356004        -9.6874
  20   2.0000      -0.341048        -9.2804
  21   2.0000      -0.331952        -9.0329
  22   2.0000      -0.307291        -8.3618
  23   2.0000      -0.301886        -8.2147
  24   2.0000      -0.285657        -7.7731
  25   2.0000      -0.280288        -7.6270
  26   2.0000      -0.259116        -7.0509
  27   2.0000      -0.234516        -6.3815
  28   0.0000       0.079746         2.1700
  29   0.0000       0.095168         2.5896
  30   0.0000       0.122732         3.3397
  31   0.0000       0.127222         3.4619
  32   0.0000       0.133323         3.6279

MULLIKEN ATOMIC CHARGES
-----------------------
   0 C :   -0.284608
   1 C :   -0.322742
   2 C :   -0.300272
   3 C :   -0.004834
   4 C :   -0.289897
   5 C :   -0.321686
   6 O :   -0.506844
   7 H :    0.148145
   8 H :    0.154691
   9 H :    0.154171
  10 H :    0.155635
  11 H :    0.156815
  12 H :    0.154268
  13 H :    0.146489
  14 H :    0.157454
  15 H :    0.153334
  16 H :    0.154523
  17 H :    0.154956
  18 H :    0.340402
Sum of atomic charges:    0.0000000

LOEWDIN ATOMIC CHARGES
----------------------
   0 C :   -0.306706
   1 C :   -0.302162
   2 C :   -0.273136
   3 C :    0.056085
   4 C :   -0.283833
   5 C :   -0.303486
   6 O :   -0.648418
   7 H :    0.157605
   8 H :    0.157603
   9 H :    0.158670
  10 H :    0.159252
  11 H :    0.165134
  12 H :    0.164071
  13 H :    0.169184
  14 H :    0.164364
  15 H :    0.162356
  16 H :    0.158490
  17 H :    0.159050
  18 H :    0.285876

  Mayer bond orders larger than 0.100000
B(  0-C ,  1-C ) :   0.9254 B(  0-C ,  5-C ) :   0.9258 B(  0-C ,  7-H ) :   0.9874
B(  0-C ,  8-H ) :   0.9428 B(  1-C ,  2-C ) :   0.9039 B(  1-C ,  9-H ) :   0.9387
B(  1-C , 10-H ) :   0.9876 B(  2-C ,  3-C ) :   0.9466 B(  2-C , 11-H ) :   0.9902
B(  2-C , 12-H ) :   0.9328 B(  3-C ,  4-C ) :   0.9298 B(  3-C ,  6-O ) :   0.8695
B(  3-C , 13-H ) :   0.9562 B(  4-C ,  5-C ) :   0.8987 B(  4-C , 14-H ) :   0.9924
B(  4-C , 15-H ) :   0.9307 B(  5-C , 16-H ) :   0.9373 B(  5-C , 17-H ) :   0.9867
B(  6-O , 18-H ) :   0.8750

Dispersion correction           -0.005304845
FINAL SINGLE POINT ENERGY      -311.016126891090

DIPOLE MOMENT
-------------

Method             : SCF
Type of density    : Electron Density
Multiplicity       :   1
Irrep              :   0
Energy             :  -311.0198333216530386 Eh
Relativity type    :
Basis              : AO
                                X                 Y                 Z
Electronic contribution:      3.847602908      -0.035125873      -0.116914260
Nuclear contribution   :     -4.321187919       0.688765267      -0.311896870
                        -----------------------------------------
Total Dipole Moment    :     -0.473585011       0.653639393      -0.428811130
                        -----------------------------------------
Magnitude (a.u.)       :      0.914005582
Magnitude (Debye)      :      2.323217561

Rotational constants in cm-1:             0.144624             0.074966             0.054299
Rotational constants in MHz :          4335.711326          2247.425394          1627.853862

                             ****ORCA TERMINATED NORMALLY****
TOTAL RUN TIME: 0 days 0 hours 0 minutes 57 seconds 283 msec
