                         Program Version 6.0.0  -   RELEASE  -
|  1> ! wb97x-v def2-tzvp def2/J RIJCOSX DEFGRID2 scfconv7 GCP(DFT/TZ) printgap
|  2> %output
|  3>     printlevel normal
|  4> end
|  5> * xyz 0 1
|  6> C -0.7635595046039546 -1.7324983990028362 0.00029967497681326725
|  7> C 0.5589595919255826 -1.316823802567333 0.00031468345487149844
|  8> C 0.8401134875625336 0.05644616290613401 -2.5263280830408036e-05
|  9> C -0.19213266856457112 0.9986972227438081 -2.3207424858655106e-05
| 10> C -1.5147912028213908 0.5644281726323485 1.9812517658308433e-05
| 11> C -1.802137621147959 -0.8016254450240791 0.000151000567699125
| 12> O -2.4973580367764874 1.5207562755699877 -0.0001229564048725352
| 13> C 2.2212376326159826 0.5496677675739264 -0.001303609517169146
| 14> O 3.215052044612369 -0.16743741505012133 -0.00035020190960193643
| 15> H -1.0030767163481604 -2.79083705210209 0.00030716014420310427
| 16> H 1.3720407237034895 -2.034102241253817 0.0002642980864589555
| 17> H 0.031894442020849886 2.0616228543708264 -0.0001530341571956289
| 18> H -2.8373687780247216 -1.1316012534473752 0.00014291853821122777
| 19> H -3.3640802127464364 1.0897435413273893 -8.308122065675685e-05
| 20> H 2.3262657702084 1.6525634643300386 0.0012487281765648961
| 21> *
| 22>
| 23>                          ****END OF INPUT****

CARTESIAN COORDINATES (ANGSTROEM)
---------------------------------
  C     -0.763560   -1.732498    0.000300
  C      0.558960   -1.316824    0.000315
  C      0.840113    0.056446   -0.000025
  C     -0.192133    0.998697   -0.000023
  C     -1.514791    0.564428    0.000020
  C     -1.802138   -0.801625    0.000151
  O     -2.497358    1.520756   -0.000123
  C      2.221238    0.549668   -0.001304
  O      3.215052   -0.167437   -0.000350
  H     -1.003077   -2.790837    0.000307
  H      1.372041   -2.034102    0.000264
  H      0.031894    2.061623   -0.000153
  H     -2.837369   -1.131601    0.000143
  H     -3.364080    1.089744   -0.000083
  H      2.326266    1.652563    0.001249

 Total Charge           Charge          ....    0
 Multiplicity           Mult            ....    1
 Number of Electrons    NEL             ....   64
 Basis Dimension        Dim             ....  315

ORBITAL ENERGIES
----------------

  NO   OCC          E(Eh)            E(eV)
   0   2.0000     -21.719204      -591.0096
   1   2.0000     -21.671935      -589.7233
   2   2.0000     -12.141355      -330.3831
   3   2.0000     -12.133208      -330.1614
   4   2.0000     -12.075133      -328.5811
   5   2.0000     -12.074720      -328.5698
   6   2.0000     -12.072547      -328.5107
   7   2.0000     -12.071183      -328.4736
   8   2.0000     -12.063267      -328.2582
   9   2.0000      -1.734452       -47.1968
  10   2.0000      -1.711022       -46.5593
  11   2.0000      -1.407866       -38.3100
  12   2.0000      -1.314424       -35.7673
  13   2.0000      -1.301333       -35.4111
  14   2.0000      -1.194893       -32.5147
  15   2.0000      -1.162237       -31.6261
  16   2.0000      -1.126983       -30.6668
  17   2.0000      -1.075554       -29.2673
  18   2.0000      -1.029905       -28.0251
  19   2.0000      -0.993786       -27.0423
  20   2.0000      -0.993638       -27.0383
  21   2.0000      -0.965197       -26.2643
  22   2.0000      -0.964823       -26.2542
  23   2.0000      -0.950967       -25.8771
  24   2.0000      -0.905052       -24.6277
  25   2.0000      -0.901762       -24.5382
  26   2.0000      -0.859592       -23.3907
  27   2.0000      -0.844149       -22.9705
  28   2.0000      -0.800109       -21.7721
  29   2.0000      -0.789371       -21.4799
  30   2.0000      -0.671107       -18.2617
  31   2.0000      -0.655596       -17.8397
  32   0.0000      -0.353758        -9.6262
  33   0.0000      -0.259223        -7.0538
  34   0.0000      -0.220208        -5.9922
  35   0.0000      -0.161936        -4.4065
  36   0.0000      -0.081302        -2.2123

MULLIKEN ATOMIC CHARGES
-----------------------
   0 C :   -0.077496
   1 C :   -0.230296
   2 C :    0.196288
   3 C :   -0.261563
   4 C :    0.256004
   5 C :   -0.206702
   6 O :   -0.384477
   7 C :    0.084369
   8 O :   -0.299562
   9 H :    0.129731
  10 H :    0.148724
  11 H :    0.133344
  12 H :    0.117325
  13 H :    0.315854
  14 H :    0.078458
Sum of atomic charges:    0.0000000

LOEWDIN ATOMIC CHARGES
----------------------
   0 C :   -0.127288
   1 C :   -0.090097
   2 C :   -0.158706
   3 C :   -0.072777
   4 C :   -0.261453
   5 C :   -0.126345
   6 O :    0.073499
   7 C :   -0.234741
   8 O :    0.094908
   9 H :    0.146318
  10 H :    0.154023
  11 H :    0.153809
  12 H :    0.142591
  13 H :    0.187914
  14 H :    0.118346

  Mayer bond orders larger than 0.100000
B(  0-C ,  1-C ) :   1.4481 B(  0-C ,  5-C ) :   1.3955 B(  0-C ,  9-H ) :   0.9641
B(  1-C ,  2-C ) :   1.3632 B(  1-C , 10-H ) :   0.9572 B(  2-C ,  3-C ) :   1.3690
B(  2-C ,  7-C ) :   0.8989 B(  2-C ,  8-O ) :  -0.1255 B(  3-C ,  4-C ) :   1.4163
B(  3-C , 11-H ) :   0.9546 B(  4-C ,  5-C ) :   1.3784 B(  4-C ,  6-O ) :   1.1574
B(  5-C , 12-H ) :   0.9565 B(  6-O , 13-H ) :   0.8869 B(  7-C ,  8-O ) :   2.1259
B(  7-C , 14-H ) :   1.0173

FINAL SINGLE POINT ENERGY      -420.819371461420

DIPOLE MOMENT
-------------

Method             : SCF
Type of density    : Electron Density
Multiplicity       :   1
Irrep              :   0
Energy             :  -420.8268997740195800 Eh
Relativity type    :
Basis              : AO
                                X                 Y                 Z
Electronic contribution:      1.599018471       0.997640007      -0.002266703
Nuclear contribution   :     -3.255651090      -1.074817386       0.002198830
                        -----------------------------------------
Total Dipole Moment    :     -1.656632619      -0.077177379      -0.000067873
                        -----------------------------------------
Magnitude (a.u.)       :      1.658429374
Magnitude (Debye)      :      4.215392466

Rotational constants in cm-1:             0.122112             0.038005             0.028984
Rotational constants in MHz :          3660.838516          1139.349011           868.918751

                             ****ORCA TERMINATED NORMALLY****
TOTAL RUN TIME: 0 days 0 hours 2 minutes 31 seconds 481 msec
