                         Program Version 6.0.0  -   RELEASE  -
|  1> ! wb97x-v def2-tzvp def2/J RIJCOSX DEFGRID2 scfconv7 GCP(DFT/TZ) printgap
|  2> %output
|  3>     printlevel normal
|  4> end
|  5> %cpcm
|  6>     smd true
|  7>     smdsolvent "water"
|  8> end
|  9> * xyz 0 1
| 10> C -0.7635595046039546 -1.7324983990028362 0.00029967497681326725
| 11> C 0.5589595919255826 -1.316823802567333 0.00031468345487149844
| 12> C 0.8401134875625336 0.05644616290613401 -2.5263280830408036e-05
| 13> C -0.19213266856457112 0.9986972227438081 -2.3207424858655106e-05
| 14> C -1.5147912028213908 0.5644281726323485 1.9812517658308433e-05
| 15> C -1.802137621147959 -0.8016254450240791 0.000151000567699125
| 16> O -2.4973580367764874 1.5207562755699877 -0.0001229564048725352
| 17> C 2.2212376326159826 0.5496677675739264 -0.001303609517169146
| 18> O 3.215052044612369 -0.16743741505012133 -0.00035020190960193643
| 19> H -1.0030767163481604 -2.79083705210209 0.00030716014420310427
| 20> H 1.3720407237034895 -2.034102241253817 0.0002642980864589555
| 21> H 0.031894442020849886 2.0616228543708264 -0.0001530341571956289
| 22> H -2.8373687780247216 -1.1316012534473752 0.00014291853821122777
| 23> H -3.3640802127464364 1.0897435413273893 -8.308122065675685e-05
| 24> H 2.3262657702084 1.6525634643300386 0.0012487281765648961
| 25> *
| 26>
| 27>                          ****END OF INPUT****

CARTESIAN COORDINATES (ANGSTROEM)
---------------------------------
  C     -0.763560   -1.732498    0.000300
  C      0.558960   -1.316824    0.000315
  C      0.840113    0.056446   -0.000025
  C     -0.192133    0.998697   -0.000023
  C     -1.514791    0.564428    0.000020
  C     -1.802138   -0.801625    0.000151
  O     -2.497358    1.520756   -0.000123
  C      2.221238    0.549668   -0.001304
  O      3.215052   -0.167437   -0.000350
  H     -1.003077   -2.790837    0.000307
  H      1.372041   -2.034102    0.000264
  H      0.031894    2.061623   -0.000153
  H     -2.837369   -1.131601    0.000143
  H     -3.364080    1.089744   -0.000083
  H      2.326266    1.652563    0.001249

 Total Charge           Charge          ....    0
 Multiplicity           Mult            ....    1
 Number of Electrons    NEL             ....   64
 Basis Dimension        Dim             ....  315

ORBITAL ENERGIES
----------------

  NO   OCC          E(Eh)            E(eV)
   0   2.0000     -21.705766      -590.6439
   1   2.0000     -21.680233      -589.9491
   2   2.0000     -12.146255      -330.5164
   3   2.0000     -12.122202      -329.8619
   4   2.0000     -12.068255      -328.3939
   5   2.0000     -12.062275      -328.2312
   6   2.0000     -12.061803      -328.2184
   7   2.0000     -12.060064      -328.1710
   8   2.0000     -12.056657      -328.0783
   9   2.0000      -1.722996       -46.8851
  10   2.0000      -1.721072       -46.8327
  11   2.0000      -1.399595       -38.0849
  12   2.0000      -1.306180       -35.5430
  13   2.0000      -1.291988       -35.1568
  14   2.0000      -1.189087       -32.3567
  15   2.0000      -1.154432       -31.4137
  16   2.0000      -1.119774       -30.4706
  17   2.0000      -1.075958       -29.2783
  18   2.0000      -1.023486       -27.8505
  19   2.0000      -0.995618       -27.0921
  20   2.0000      -0.990258       -26.9463
  21   2.0000      -0.953778       -25.9536
  22   2.0000      -0.953281       -25.9401
  23   2.0000      -0.943640       -25.6778
  24   2.0000      -0.918009       -24.9803
  25   2.0000      -0.892382       -24.2829
  26   2.0000      -0.847826       -23.0705
  27   2.0000      -0.836172       -22.7534
  28   2.0000      -0.801315       -21.8049
  29   2.0000      -0.782348       -21.2888
  30   2.0000      -0.662995       -18.0410
  31   2.0000      -0.647757       -17.6264
  32   0.0000      -0.349566        -9.5122
  33   0.0000      -0.250620        -6.8197
  34   0.0000      -0.212980        -5.7955
  35   0.0000      -0.149225        -4.0606
  36   0.0000      -0.069973        -1.9041

MULLIKEN ATOMIC CHARGES
-----------------------
   0 C :   -0.114210
   1 C :   -0.265822
   2 C :    0.169305
   3 C :   -0.291548
   4 C :    0.285119
   5 C :   -0.243270
   6 O :   -0.461614
   7 C :    0.151148
   8 O :   -0.425113
   9 H :    0.171497
  10 H :    0.162992
  11 H :    0.169573
  12 H :    0.177066
  13 H :    0.381372
  14 H :    0.133506
Sum of atomic charges:    0.0000000

LOEWDIN ATOMIC CHARGES
----------------------
   0 C :   -0.130329
   1 C :   -0.102652
   2 C :   -0.169046
   3 C :   -0.070307
   4 C :   -0.265372
   5 C :   -0.108518
   6 O :    0.050728
   7 C :   -0.211504
   8 O :    0.018423
   9 H :    0.156633
  10 H :    0.155350
  11 H :    0.164630
  12 H :    0.160833
  13 H :    0.213630
  14 H :    0.137501

  Mayer bond orders larger than 0.100000
B(  0-C ,  1-C ) :   1.4449 B(  0-C ,  5-C ) :   1.3605 B(  0-C ,  9-H ) :   0.9651
B(  1-C ,  2-C ) :   1.2990 B(  1-C , 10-H ) :   0.9664 B(  2-C ,  3-C ) :   1.3806
B(  2-C ,  7-C ) :   0.9447 B(  2-C ,  8-O ) :  -0.1180 B(  3-C ,  4-C ) :   1.3838
B(  3-C , 11-H ) :   0.9636 B(  4-C ,  5-C ) :   1.3706 B(  4-C ,  6-O ) :   1.1193
B(  5-C , 12-H ) :   0.9633 B(  6-O , 13-H ) :   0.8457 B(  7-C ,  8-O ) :   2.0032
B(  7-C , 14-H ) :   0.9970

FINAL SINGLE POINT ENERGY      -420.834299417758

DIPOLE MOMENT
-------------

Method             : SCF
Type of density    : Electron Density
Multiplicity       :   1
Irrep              :   0
Energy             :  -420.8418277303579771 Eh
Relativity type    :
Basis              : AO
                                X                 Y                 Z
Electronic contribution:      0.876940835       1.068703644      -0.002327728
Nuclear contribution   :     -3.255651090      -1.074817386       0.002198830
                        -----------------------------------------
Total Dipole Moment    :     -2.378710255      -0.006113742      -0.000128898
                        -----------------------------------------
Magnitude (a.u.)       :      2.378718115
Magnitude (Debye)      :      6.046220948

Rotational constants in cm-1:             0.122112             0.038005             0.028984
Rotational constants in MHz :          3660.838516          1139.349011           868.918751

                             ****ORCA TERMINATED NORMALLY****
TOTAL RUN TIME: 0 days 0 hours 2 minutes 36 seconds 629 msec
