                         Program Version 6.0.0  -   RELEASE  -
|  1> ! wb97x-v def2-tzvp def2/J RIJCOSX DEFGRID2 scfconv7 GCP(DFT/TZ) printgap
|  2> %output
|  3>     printlevel normal
|  4> end
|  5> %cpcm
|  6>     smd true
|  7>     smdsolvent "water"
|  8> end
|  9> * xyz 0 1
| 10> C 1.338020681838336 1.3292863599376419 1.2521060216737759e-05
| 11> C -0.028954424450867898 1.119098693102973 4.4885940114443815e-06
| 12> C -0.49419791732947665 -0.1998630376785774 0.00014960405858891696
| 13> C 0.4373628340245669 -1.2402273140181566 6.732491319564986e-05
| 14> N 1.7609721112404038 -1.0503515503168215 -3.610371581938663e-05
| 15> C 2.185814275320305 0.22263372975637513 -2.7002398269557467e-05
| 16> C -1.9232291861172324 -0.5258202298202099 0.0006650047525196499
| 17> O -2.81849334870644 0.3093911116984224 -8.893833627308375e-05
| 18> H 1.7549523786626877 2.3300151344770894 5.84422176590502e-05
| 19> H -0.731216089365256 1.9464067283294664 0.0001250224465266157
| 20> H 0.09001988373491232 -2.2720623672193376 3.287845050824353e-05
| 21> H 3.2633250318014086 0.3682983389485408 -6.866001422749316e-05
| 22> H -2.161576604703615 -1.6067048485372637 -0.000586023060972236
| 23> *
| 24>
| 25>                          ****END OF INPUT****

CARTESIAN COORDINATES (ANGSTROEM)
---------------------------------
  C      1.338021    1.329286    0.000013
  C     -0.028954    1.119099    0.000004
  C     -0.494198   -0.199863    0.000150
  C      0.437363   -1.240227    0.000067
  N      1.760972   -1.050352   -0.000036
  C      2.185814    0.222634   -0.000027
  C     -1.923229   -0.525820    0.000665
  O     -2.818493    0.309391   -0.000089
  H      1.754952    2.330015    0.000058
  H     -0.731216    1.946407    0.000125
  H      0.090020   -2.272062    0.000033
  H      3.263325    0.368298   -0.000069
  H     -2.161577   -1.606705   -0.000586

 Total Charge           Charge          ....    0
 Multiplicity           Mult            ....    1
 Number of Electrons    NEL             ....   56
 Basis Dimension        Dim             ....  278

ORBITAL ENERGIES
----------------

  NO   OCC          E(Eh)            E(eV)
   0   2.0000     -21.682141      -590.0010
   1   2.0000     -16.539522      -450.0633
   2   2.0000     -12.149978      -330.6177
   3   2.0000     -12.099893      -329.2548
   4   2.0000     -12.097748      -329.1965
   5   2.0000     -12.080913      -328.7384
   6   2.0000     -12.070605      -328.4579
   7   2.0000     -12.063044      -328.2521
   8   2.0000      -1.726118       -46.9701
   9   2.0000      -1.533452       -41.7273
  10   2.0000      -1.364565       -37.1317
  11   2.0000      -1.317138       -35.8412
  12   2.0000      -1.207332       -32.8532
  13   2.0000      -1.155861       -31.4526
  14   2.0000      -1.128036       -30.6954
  15   2.0000      -1.033768       -28.1303
  16   2.0000      -1.024073       -27.8664
  17   2.0000      -0.984687       -26.7947
  18   2.0000      -0.973511       -26.4906
  19   2.0000      -0.920872       -25.0582
  20   2.0000      -0.906072       -24.6555
  21   2.0000      -0.883656       -24.0455
  22   2.0000      -0.860999       -23.4290
  23   2.0000      -0.843584       -22.9551
  24   2.0000      -0.810757       -22.0618
  25   2.0000      -0.779529       -21.2121
  26   2.0000      -0.715585       -19.4720
  27   2.0000      -0.667333       -18.1590
  28   0.0000      -0.352943        -9.6041
  29   0.0000      -0.293247        -7.9796
  30   0.0000      -0.222931        -6.0663
  31   0.0000      -0.089738        -2.4419
  32   0.0000      -0.070027        -1.9055

MULLIKEN ATOMIC CHARGES
-----------------------
   0 C :   -0.112351
   1 C :   -0.205533
   2 C :    0.122572
   3 C :   -0.068641
   4 N :   -0.286200
   5 C :   -0.027824
   6 C :    0.160142
   7 O :   -0.420165
   8 H :    0.178040
   9 H :    0.176367
  10 H :    0.175852
  11 H :    0.170766
  12 H :    0.136973
Sum of atomic charges:    0.0000000

LOEWDIN ATOMIC CHARGES
----------------------
   0 C :   -0.134007
   1 C :   -0.043702
   2 C :   -0.174836
   3 C :   -0.143106
   4 N :    0.087222
   5 C :   -0.169670
   6 C :   -0.211263
   7 O :    0.024022
   8 H :    0.159631
   9 H :    0.163219
  10 H :    0.154611
  11 H :    0.148661
  12 H :    0.139217

  Mayer bond orders larger than 0.100000
B(  0-C ,  1-C ) :   1.4821 B(  0-C ,  5-C ) :   1.4028 B(  0-C ,  8-H ) :   0.9581
B(  1-C ,  2-C ) :   1.3137 B(  1-C ,  9-H ) :   0.9569 B(  2-C ,  3-C ) :   1.3662
B(  2-C ,  6-C ) :   0.9469 B(  2-C ,  7-O ) :  -0.1134 B(  3-C ,  4-N ) :   1.5066
B(  3-C , 10-H ) :   0.9627 B(  4-N ,  5-C ) :   1.4736 B(  5-C , 11-H ) :   0.9604
B(  6-C ,  7-O ) :   2.0075 B(  6-C , 12-H ) :   0.9944

FINAL SINGLE POINT ENERGY      -361.637451102721

DIPOLE MOMENT
-------------

Method             : SCF
Type of density    : Electron Density
Multiplicity       :   1
Irrep              :   0
Energy             :  -361.6436588563210535 Eh
Relativity type    :
Basis              : AO
                                X                 Y                 Z
Electronic contribution:     -1.119442264      -0.559142243       0.001176469
Nuclear contribution   :      2.046523586       0.740314652      -0.000769128
                        -----------------------------------------
Total Dipole Moment    :      0.927081323       0.181172410       0.000407341
                        -----------------------------------------
Magnitude (a.u.)       :      0.944618117
Magnitude (Debye)      :      2.401028440

Rotational constants in cm-1:             0.180589             0.052980             0.040963
Rotational constants in MHz :          5413.919131          1588.307720          1228.033587

                             ****ORCA TERMINATED NORMALLY****
TOTAL RUN TIME: 0 days 0 hours 1 minutes 51 seconds 535 msec
