                         Program Version 6.0.0  -   RELEASE  -
|  1> ! pbe def2-sv(p) def2/J RI DEFGRID1 loosescf d4 GCP(DFT/SV(P)) printgap
|  2> %output
|  3>     printlevel normal
|  4> end
|  5> * xyz 0 1
|  6> C -1.8265474579 -0.0589262019 -0.3814010636
|  7> C -1.1585414179 -1.1643779066 0.4292886066
|  8> C 0.309856328 -1.3067664925 0.0183605235
|  9> C 0.937399945 0.0432615031 -0.3597792536
| 10> C 0.2478951955 1.1742811772 0.4055200316
| 11> C -1.2165252254 1.3042743373 -0.0292812182
| 12> O 2.3217904645 -0.0414284586 -0.0619745566
| 13> H -2.8997381476 -0.0448537697 -0.1878459128
| 14> H -1.68539941 -0.2700316644 -1.4430085578
| 15> H -1.2326516551 -0.9219407025 1.4902347497
| 16> H -1.6721466522 -2.1131988291 0.2709766864
| 17> H 0.8972191416 -1.7206545427 0.8397125047
| 18> H 0.402814739 -1.9891038314 -0.827410549
| 19> H 0.8155060623 0.2223467351 -1.4401010914
| 20> H 0.3166595385 0.9528585059 1.471761013
| 21> H 0.7710144146 2.1164640184 0.2299173885
| 22> H -1.7821602598 1.7663186058 0.7809737031
| 23> H -1.2856978247 1.9641351979 -0.8955972108
| 24> H 2.7510165308 0.7936522112 -0.2914438354
| 25> *
| 26>
| 27>                          ****END OF INPUT****

CARTESIAN COORDINATES (ANGSTROEM)
---------------------------------
  C     -1.826547   -0.058926   -0.381401
  C     -1.158541   -1.164378    0.429289
  C      0.309856   -1.306766    0.018361
  C      0.937400    0.043262   -0.359779
  C      0.247895    1.174281    0.405520
  C     -1.216525    1.304274   -0.029281
  O      2.321790   -0.041428   -0.061975
  H     -2.899738   -0.044854   -0.187846
  H     -1.685399   -0.270032   -1.443009
  H     -1.232652   -0.921941    1.490235
  H     -1.672147   -2.113199    0.270977
  H      0.897219   -1.720655    0.839713
  H      0.402815   -1.989104   -0.827411
  H      0.815506    0.222347   -1.440101
  H      0.316660    0.952859    1.471761
  H      0.771014    2.116464    0.229917
  H     -1.782160    1.766319    0.780974
  H     -1.285698    1.964135   -0.895597
  H      2.751017    0.793652   -0.291444

 Total Charge           Charge          ....    0
 Multiplicity           Mult            ....    1
 Number of Electrons    NEL             ....   56
 Basis Dimension        Dim             ....  122

ORBITAL ENERGIES
----------------

  NO   OCC          E(Eh)            E(eV)
   0   2.0000     -18.736873      -509.8562
   1   2.0000      -9.931688      -270.2550
   2   2.0000      -9.883837      -268.9529
   3   2.0000      -9.881559      -268.8909
   4   2.0000      -9.880986      -268.8753
   5   2.0000      -9.879938      -268.8468
   6   2.0000      -9.875491      -268.7258
   7   2.0000      -0.913020       -24.8445
   8   2.0000      -0.747586       -20.3428
   9   2.0000      -0.663862       -18.0646
  10   2.0000      -0.650780       -17.7086
  11   2.0000      -0.554997       -15.1022
  12   2.0000      -0.537361       -14.6223
  13   2.0000      -0.472532       -12.8582
  14   2.0000      -0.464473       -12.6390
  15   2.0000      -0.436891       -11.8884
  16   2.0000      -0.398512       -10.8441
  17   2.0000      -0.390913       -10.6373
  18   2.0000      -0.354751        -9.6533
  19   2.0000      -0.338964        -9.2237
  20   2.0000      -0.330291        -8.9877
  21   2.0000      -0.329127        -8.9560
  22   2.0000      -0.311096        -8.4654
  23   2.0000      -0.288695        -7.8558
  24   2.0000      -0.275520        -7.4973
  25   2.0000      -0.268535        -7.3072
  26   2.0000      -0.252248        -6.8640
  27   2.0000      -0.206582        -5.6214
  28   0.0000       0.024553         0.6681
  29   0.0000       0.038727         1.0538
  30   0.0000       0.053013         1.4426
  31   0.0000       0.072254         1.9661
  32   0.0000       0.091464         2.4889

MULLIKEN ATOMIC CHARGES
-----------------------
   0 C :   -0.164336
   1 C :   -0.151965
   2 C :   -0.129311
   3 C :    0.007392
   4 C :   -0.133865
   5 C :   -0.161797
   6 O :   -0.418524
   7 H :    0.085448
   8 H :    0.078844
   9 H :    0.076830
  10 H :    0.085853
  11 H :    0.089923
  12 H :    0.083180
  13 H :    0.050846
  14 H :    0.074767
  15 H :    0.069942
  16 H :    0.084219
  17 H :    0.081258
  18 H :    0.291296
Sum of atomic charges:    0.0000000

LOEWDIN ATOMIC CHARGES
----------------------
   0 C :   -0.231122
   1 C :   -0.228339
   2 C :   -0.229137
   3 C :   -0.053410
   4 C :   -0.244120
   5 C :   -0.229184
   6 O :   -0.331285
   7 H :    0.117680
   8 H :    0.113892
   9 H :    0.115602
  10 H :    0.118749
  11 H :    0.125523
  12 H :    0.118798
  13 H :    0.093140
  14 H :    0.118326
  15 H :    0.110860
  16 H :    0.118526
  17 H :    0.116246
  18 H :    0.279254

  Mayer bond orders larger than 0.100000
B(  0-C ,  1-C ) :   1.1844 B(  0-C ,  5-C ) :   1.1399 B(  0-C ,  7-H ) :   0.9217
B(  0-C ,  8-H ) :   0.9128 B(  1-C ,  2-C ) :   1.1391 B(  1-C ,  9-H ) :   0.9058
B(  1-C , 10-H ) :   0.9201 B(  2-C ,  3-C ) :   1.0909 B(  2-C , 11-H ) :   0.9035
B(  2-C , 12-H ) :   0.9163 B(  3-C ,  4-C ) :   1.1442 B(  3-C ,  6-O ) :   1.0773
B(  3-C , 13-H ) :   0.8980 B(  4-C ,  5-C ) :   1.1194 B(  4-C , 14-H ) :   0.8886
B(  4-C , 15-H ) :   0.9167 B(  5-C , 16-H ) :   0.9191 B(  5-C , 17-H ) :   0.9205
B(  6-O , 18-H ) :   0.8529

Dispersion correction           -0.016251792
FINAL SINGLE POINT ENERGY      -310.336476147611

DIPOLE MOMENT
-------------

Method             : SCF
Type of density    : Electron Density
Multiplicity       :   1
Irrep              :   0
Energy             :  -310.4094109571678928 Eh
Relativity type    :
Basis              : AO
                                X                 Y                 Z
Electronic contribution:      4.045069548      -0.230633954      -0.196431939
Nuclear contribution   :     -4.284460740       0.708630732      -0.002637236
                        -----------------------------------------
Total Dipole Moment    :     -0.239391192       0.477996778      -0.199069174
                        -----------------------------------------
Magnitude (a.u.)       :      0.570453853
Magnitude (Debye)      :      1.449978464

Rotational constants in cm-1:             0.142151             0.075773             0.055693
Rotational constants in MHz :          4261.575571          2271.615082          1669.626757

                             ****ORCA TERMINATED NORMALLY****
TOTAL RUN TIME: 0 days 0 hours 0 minutes 28 seconds 996 msec
