                         Program Version 6.0.0  -   RELEASE  -
|  1> ! pbe def2-sv(p) def2/J RI DEFGRID1 loosescf d4 GCP(DFT/SV(P)) printgap
|  2> %output
|  3>     printlevel normal
|  4> end
|  5> * xyz 0 1
|  6> C -2.5200659773 -1.0097703755 0.2995357598
|  7> C -1.0822936683 -0.5282250212 0.5740250909
|  8> H -0.9407156968 -0.4788280099 1.6650491101
|  9> C -0.8071078464 0.861592121 -0.0171628047
| 10> H -0.9427557299 0.8132753417 -1.1089630894
| 11> C 0.6521888375 1.2461291948 0.2518515895
| 12> H 0.8022336562 1.3358026325 1.3416580282
| 13> C 1.577894633 0.1503073084 -0.2996832102
| 14> H 1.4534548248 0.1008392668 -1.3875901757
| 15> C 1.1694395144 -1.2038071679 0.3174404929
| 16> H 1.3173303771 -1.156222425 1.4124561714
| 17> O -0.1831811183 -1.4760939562 0.0293671442
| 18> O 1.9385086025 -2.257378469 -0.1254974431
| 19> O 2.9285654079 0.4670310549 -0.0822803076
| 20> O 0.8965331877 2.4889917085 -0.3620905429
| 21> O -1.7053177579 1.7764909224 0.5546069169
| 22> O -2.9958825212 -0.7105263003 -0.9852199634
| 23> H -3.173635592 -0.5823028868 1.0655227738
| 24> H -2.5212931032 -2.0984738209 0.380885132
| 25> H 1.6936657475 -2.4811634331 -1.0370422332
| 26> H 3.1939239737 0.2228164345 0.8160131719
| 27> H 1.8549054348 2.6127956706 -0.4402159931
| 28> H -1.4213239808 2.6707570238 0.3097100462
| 29> H -3.2372521611 0.2258838318 -1.0204838653
| 30> *
| 31>
| 32>                          ****END OF INPUT****

CARTESIAN COORDINATES (ANGSTROEM)
---------------------------------
  C     -2.520066   -1.009770    0.299536
  C     -1.082294   -0.528225    0.574025
  H     -0.940716   -0.478828    1.665049
  C     -0.807108    0.861592   -0.017163
  H     -0.942756    0.813275   -1.108963
  C      0.652189    1.246129    0.251852
  H      0.802234    1.335803    1.341658
  C      1.577895    0.150307   -0.299683
  H      1.453455    0.100839   -1.387590
  C      1.169440   -1.203807    0.317440
  H      1.317330   -1.156222    1.412456
  O     -0.183181   -1.476094    0.029367
  O      1.938509   -2.257378   -0.125497
  O      2.928565    0.467031   -0.082280
  O      0.896533    2.488992   -0.362091
  O     -1.705318    1.776491    0.554607
  O     -2.995883   -0.710526   -0.985220
  H     -3.173636   -0.582303    1.065523
  H     -2.521293   -2.098474    0.380885
  H      1.693666   -2.481163   -1.037042
  H      3.193924    0.222816    0.816013
  H      1.854905    2.612796   -0.440216
  H     -1.421324    2.670757    0.309710
  H     -3.237252    0.225884   -1.020484

 Total Charge           Charge          ....    0
 Multiplicity           Mult            ....    1
 Number of Electrons    NEL             ....   96
 Basis Dimension        Dim             ....  192

ORBITAL ENERGIES
----------------

  NO   OCC          E(Eh)            E(eV)
   0   2.0000     -18.774238      -510.8730
   1   2.0000     -18.767878      -510.6999
   2   2.0000     -18.764168      -510.5990
   3   2.0000     -18.761335      -510.5219
   4   2.0000     -18.759202      -510.4638
   5   2.0000     -18.747325      -510.1406
   6   2.0000      -9.994991      -271.9775
   7   2.0000      -9.947189      -270.6768
   8   2.0000      -9.946693      -270.6633
   9   2.0000      -9.945944      -270.6429
  10   2.0000      -9.945520      -270.6314
  11   2.0000      -9.930987      -270.2359
  12   2.0000      -0.988811       -26.9069
  13   2.0000      -0.952845       -25.9282
  14   2.0000      -0.943813       -25.6825
  15   2.0000      -0.925507       -25.1843
  16   2.0000      -0.922194       -25.0942
  17   2.0000      -0.916206       -24.9312
  18   2.0000      -0.707981       -19.2651
  19   2.0000      -0.693116       -18.8606
  20   2.0000      -0.619996       -16.8709
  21   2.0000      -0.590873       -16.0785
  22   2.0000      -0.570208       -15.5162
  23   2.0000      -0.539045       -14.6682
  24   2.0000      -0.507325       -13.8050
  25   2.0000      -0.498131       -13.5548
  26   2.0000      -0.475369       -12.9354
  27   2.0000      -0.453491       -12.3401
  28   2.0000      -0.450168       -12.2497
  29   2.0000      -0.439181       -11.9507
  30   2.0000      -0.423452       -11.5227
  31   2.0000      -0.420515       -11.4428
  32   2.0000      -0.391378       -10.6499
  33   2.0000      -0.366001        -9.9594
  34   2.0000      -0.358933        -9.7671
  35   2.0000      -0.355455        -9.6724
  36   2.0000      -0.327370        -8.9082
  37   2.0000      -0.318120        -8.6565
  38   2.0000      -0.312376        -8.5002
  39   2.0000      -0.302601        -8.2342
  40   2.0000      -0.292803        -7.9676
  41   2.0000      -0.273800        -7.4505
  42   2.0000      -0.256851        -6.9893
  43   2.0000      -0.249577        -6.7913
  44   2.0000      -0.237737        -6.4692
  45   2.0000      -0.225976        -6.1491
  46   2.0000      -0.218985        -5.9589
  47   2.0000      -0.207190        -5.6379
  48   0.0000       0.011408         0.3104
  49   0.0000       0.019909         0.5417
  50   0.0000       0.026159         0.7118
  51   0.0000       0.042879         1.1668
  52   0.0000       0.055987         1.5235

MULLIKEN ATOMIC CHARGES
-----------------------
   0 C :    0.078391
   1 C :    0.024358
   2 H :    0.053450
   3 C :    0.035341
   4 H :    0.056623
   5 C :    0.059180
   6 H :    0.037584
   7 C :    0.026652
   8 H :    0.060437
   9 C :    0.175647
  10 H :    0.036912
  11 O :   -0.301960
  12 O :   -0.369068
  13 O :   -0.409612
  14 O :   -0.425811
  15 O :   -0.425807
  16 O :   -0.433686
  17 H :    0.084222
  18 H :    0.094186
  19 H :    0.308403
  20 H :    0.303109
  21 H :    0.308641
  22 H :    0.315503
  23 H :    0.307304
Sum of atomic charges:    0.0000000

LOEWDIN ATOMIC CHARGES
----------------------
   0 C :   -0.121975
   1 C :   -0.064926
   2 H :    0.105439
   3 C :   -0.078510
   4 H :    0.103072
   5 C :   -0.086475
   6 H :    0.094836
   7 C :   -0.103515
   8 H :    0.117300
   9 C :   -0.005066
  10 H :    0.089750
  11 O :   -0.147497
  12 O :   -0.286628
  13 O :   -0.308875
  14 O :   -0.329613
  15 O :   -0.322643
  16 O :   -0.330037
  17 H :    0.107278
  18 H :    0.121320
  19 H :    0.293162
  20 H :    0.288171
  21 H :    0.287395
  22 H :    0.292326
  23 H :    0.285712

  Mayer bond orders larger than 0.100000
B(  0-C ,  1-C ) :   1.0052 B(  0-C , 16-O ) :   1.1081 B(  0-C , 17-H ) :   0.9199
B(  0-C , 18-H ) :   0.9202 B(  1-C ,  2-H ) :   0.8691 B(  1-C ,  3-C ) :   1.0231
B(  1-C , 11-O ) :   0.9838 B(  3-C ,  4-H ) :   0.8548 B(  3-C ,  5-C ) :   1.0296
B(  3-C , 15-O ) :   1.0599 B(  5-C ,  6-H ) :   0.8720 B(  5-C ,  7-C ) :   0.9902
B(  5-C , 14-O ) :   1.0876 B(  7-C ,  8-H ) :   0.8569 B(  7-C ,  9-C ) :   0.9775
B(  7-C , 13-O ) :   1.0443 B(  9-C , 10-H ) :   0.8720 B(  9-C , 11-O ) :   1.0199
B(  9-C , 12-O ) :   1.1628 B( 12-O , 19-H ) :   0.8414 B( 13-O , 20-H ) :   0.8438
B( 14-O , 21-H ) :   0.8291 B( 15-O , 22-H ) :   0.8353 B( 16-O , 23-H ) :   0.8402

Dispersion correction           -0.023955627
FINAL SINGLE POINT ENERGY      -685.699354930672

DIPOLE MOMENT
-------------

Method             : SCF
Type of density    : Electron Density
Multiplicity       :   1
Irrep              :   0
Energy             :  -685.8293059165714567 Eh
Relativity type    :
Basis              : AO
                                X                 Y                 Z
Electronic contribution:      2.177313966      -0.475643110      -1.457639123
Nuclear contribution   :     -1.789633183       1.116174312       1.859138297
                        -----------------------------------------
Total Dipole Moment    :      0.387680783       0.640531202       0.401499174
                        -----------------------------------------
Magnitude (a.u.)       :      0.849575304
Magnitude (Debye)      :      2.159448808

Rotational constants in cm-1:             0.040850             0.026023             0.017373
Rotational constants in MHz :          1224.660513           780.135770           520.835854

                             ****ORCA TERMINATED NORMALLY****
TOTAL RUN TIME: 0 days 0 hours 0 minutes 11 seconds 978 msec
