                         Program Version 6.0.0  -   RELEASE  -
|  1> ! pbe def2-sv(p) def2/J RI DEFGRID1 loosescf d4 GCP(DFT/SV(P)) printgap
|  2> %output
|  3>     printlevel normal
|  4> end
|  5> * xyz 0 1
|  6> C 0.7396756335 -1.1046582058 -0.3464232745
|  7> C -0.7710364662 -1.2187230722 -0.0604337531
|  8> O -1.2976924078 0.024501765 0.3771061198
|  9> C -0.7359057046 1.1124503703 -0.32917841
| 10> C 0.7715395015 1.2196739889 -0.0237673969
| 11> O 1.2933724237 -0.0333293795 0.39099571
| 12> H 0.9227761916 -0.9469902344 -1.4185410699
| 13> H 1.2686728795 -1.9985191748 -0.0187662135
| 14> H -1.3044348151 -1.5501927848 -0.9629277628
| 15> H -0.9696448342 -1.9127707751 0.7565460183
| 16> H -0.9070134311 0.9795273965 -1.406593063
| 17> H -1.2686214991 1.9985625816 0.0131025767
| 18> H 1.3149610765 1.5716190977 -0.9123959233
| 19> H 0.9609599643 1.8947042392 0.8111161438
| 20> *
| 21>
| 22>                          ****END OF INPUT****

CARTESIAN COORDINATES (ANGSTROEM)
---------------------------------
  C      0.739676   -1.104658   -0.346423
  C     -0.771036   -1.218723   -0.060434
  O     -1.297692    0.024502    0.377106
  C     -0.735906    1.112450   -0.329178
  C      0.771540    1.219674   -0.023767
  O      1.293372   -0.033329    0.390996
  H      0.922776   -0.946990   -1.418541
  H      1.268673   -1.998519   -0.018766
  H     -1.304435   -1.550193   -0.962928
  H     -0.969645   -1.912771    0.756546
  H     -0.907013    0.979527   -1.406593
  H     -1.268621    1.998563    0.013103
  H      1.314961    1.571619   -0.912396
  H      0.960960    1.894704    0.811116

 Total Charge           Charge          ....    0
 Multiplicity           Mult            ....    1
 Number of Electrons    NEL             ....   48
 Basis Dimension        Dim             ....  100

ORBITAL ENERGIES
----------------

  NO   OCC          E(Eh)            E(eV)
   0   2.0000     -18.757230      -510.4102
   1   2.0000     -18.757101      -510.4067
   2   2.0000      -9.935608      -270.3616
   3   2.0000      -9.935595      -270.3613
   4   2.0000      -9.933126      -270.2941
   5   2.0000      -9.933083      -270.2929
   6   2.0000      -0.960812       -26.1450
   7   2.0000      -0.917041       -24.9539
   8   2.0000      -0.702375       -19.1126
   9   2.0000      -0.622530       -16.9399
  10   2.0000      -0.602389       -16.3919
  11   2.0000      -0.491266       -13.3680
  12   2.0000      -0.467200       -12.7131
  13   2.0000      -0.458198       -12.4682
  14   2.0000      -0.445515       -12.1231
  15   2.0000      -0.386516       -10.5176
  16   2.0000      -0.383254       -10.4289
  17   2.0000      -0.376787       -10.2529
  18   2.0000      -0.350170        -9.5286
  19   2.0000      -0.309965        -8.4346
  20   2.0000      -0.288731        -7.8568
  21   2.0000      -0.272759        -7.4221
  22   2.0000      -0.211529        -5.7560
  23   2.0000      -0.197528        -5.3750
  24   0.0000       0.024837         0.6759
  25   0.0000       0.055394         1.5074
  26   0.0000       0.063597         1.7306
  27   0.0000       0.065756         1.7893
  28   0.0000       0.088538         2.4092

MULLIKEN ATOMIC CHARGES
-----------------------
   0 C :   -0.034590
   1 C :    0.030377
   2 O :   -0.335519
   3 C :   -0.034555
   4 C :    0.030422
   5 O :   -0.335532
   6 H :    0.071774
   7 H :    0.102842
   8 H :    0.070415
   9 H :    0.094695
  10 H :    0.071758
  11 H :    0.102832
  12 H :    0.070395
  13 H :    0.094686
Sum of atomic charges:   -0.0000000

LOEWDIN ATOMIC CHARGES
----------------------
   0 C :   -0.133167
   1 C :   -0.128009
   2 O :   -0.166655
   3 C :   -0.133173
   4 C :   -0.128010
   5 O :   -0.166654
   6 H :    0.094823
   7 H :    0.120627
   8 H :    0.096606
   9 H :    0.115780
  10 H :    0.094824
  11 H :    0.120626
  12 H :    0.096603
  13 H :    0.115779

  Mayer bond orders larger than 0.100000
B(  0-C ,  1-C ) :   1.0711 B(  0-C ,  5-O ) :   1.0395 B(  0-C ,  6-H ) :   0.9140
B(  0-C ,  7-H ) :   0.9335 B(  1-C ,  2-O ) :   1.0381 B(  1-C ,  8-H ) :   0.9174
B(  1-C ,  9-H ) :   0.9303 B(  2-O ,  3-C ) :   1.0395 B(  3-C ,  4-C ) :   1.0711
B(  3-C , 10-H ) :   0.9140 B(  3-C , 11-H ) :   0.9335 B(  4-C ,  5-O ) :   1.0382
B(  4-C , 12-H ) :   0.9174 B(  4-C , 13-H ) :   0.9303

Dispersion correction           -0.010428157
FINAL SINGLE POINT ENERGY      -306.966242307299

DIPOLE MOMENT
-------------

Method             : SCF
Type of density    : Electron Density
Multiplicity       :   1
Irrep              :   0
Energy             :  -307.0281936149808644 Eh
Relativity type    :
Basis              : AO
                                X                 Y                 Z
Electronic contribution:     -0.013186928      -0.026914256       2.348609418
Nuclear contribution   :      0.016499779       0.033587145      -2.933009143
                        -----------------------------------------
Total Dipole Moment    :      0.003312851       0.006672889      -0.584399725
                        -----------------------------------------
Magnitude (a.u.)       :      0.584447210
Magnitude (Debye)      :      1.485546749

Rotational constants in cm-1:             0.167598             0.157187             0.094308
Rotational constants in MHz :          5024.453712          4712.343825          2827.280339

                             ****ORCA TERMINATED NORMALLY****
TOTAL RUN TIME: 0 days 0 hours 0 minutes 5 seconds 34 msec
