                         Program Version 6.0.0  -   RELEASE  -
|  1> ! pbe def2-sv(p) def2/J RI DEFGRID1 loosescf d4 GCP(DFT/SV(P)) printgap
|  2> %output
|  3>     printlevel normal
|  4> end
|  5> * xyz 0 1
|  6> C -1.9770857292 -0.2375251165 -1.0264301243
|  7> C -1.3538359136 -0.1890422271 0.378523582
|  8> H -2.154045613 -0.3880680447 1.1047270208
|  9> C -0.7182675752 1.1718926658 0.6845883983
| 10> H -1.4329911831 1.957213872 0.4049832546
| 11> C 0.5488382873 1.4153422196 -0.1526532341
| 12> H 1.2061701527 2.0618834666 0.4464573209
| 13> C 1.3233173699 0.1129892507 -0.4169983481
| 14> H 1.0564683086 -0.2776942629 -1.4115354366
| 15> C 0.9325125638 -0.9521378621 0.6143229698
| 16> H 1.1756056422 -0.5752954072 1.6258004997
| 17> O -0.4379057218 -1.2736286318 0.5400112417
| 18> O 1.6531560496 -2.0999215472 0.3252890422
| 19> O 2.6971885039 0.3954168778 -0.3571135923
| 20> O 0.163433997 2.0512026461 -1.3442306949
| 21> O -0.3578615318 1.2826097209 2.0416068405
| 22> O -2.670946286 -1.4412647068 -1.2352233795
| 23> H -1.2017210243 -0.0979459976 -1.7878883423
| 24> H -2.7109914139 0.5632323493 -1.1274797529
| 25> H 1.355797114 -2.8258975242 0.8943658889
| 26> H 3.1889834076 -0.4390604732 -0.40011281
| 27> H 0.9537493252 2.3584238881 -1.8118990496
| 28> H -1.1540374463 1.3227026355 2.5920312265
| 29> H -2.0733139311 -2.1752648849 -1.0280934611
| 30> *
| 31>
| 32>                          ****END OF INPUT****

CARTESIAN COORDINATES (ANGSTROEM)
---------------------------------
  C     -1.977086   -0.237525   -1.026430
  C     -1.353836   -0.189042    0.378524
  H     -2.154046   -0.388068    1.104727
  C     -0.718268    1.171893    0.684588
  H     -1.432991    1.957214    0.404983
  C      0.548838    1.415342   -0.152653
  H      1.206170    2.061883    0.446457
  C      1.323317    0.112989   -0.416998
  H      1.056468   -0.277694   -1.411535
  C      0.932513   -0.952138    0.614323
  H      1.175606   -0.575295    1.625800
  O     -0.437906   -1.273629    0.540011
  O      1.653156   -2.099922    0.325289
  O      2.697189    0.395417   -0.357114
  O      0.163434    2.051203   -1.344231
  O     -0.357862    1.282610    2.041607
  O     -2.670946   -1.441265   -1.235223
  H     -1.201721   -0.097946   -1.787888
  H     -2.710991    0.563232   -1.127480
  H      1.355797   -2.825898    0.894366
  H      3.188983   -0.439060   -0.400113
  H      0.953749    2.358424   -1.811899
  H     -1.154037    1.322703    2.592031
  H     -2.073314   -2.175265   -1.028093

 Total Charge           Charge          ....    0
 Multiplicity           Mult            ....    1
 Number of Electrons    NEL             ....   96
 Basis Dimension        Dim             ....  192

ORBITAL ENERGIES
----------------

  NO   OCC          E(Eh)            E(eV)
   0   2.0000     -18.768001      -510.7033
   1   2.0000     -18.767330      -510.6850
   2   2.0000     -18.762357      -510.5497
   3   2.0000     -18.758186      -510.4362
   4   2.0000     -18.751178      -510.2455
   5   2.0000     -18.735865      -509.8288
   6   2.0000      -9.982000      -271.6240
   7   2.0000      -9.950999      -270.7804
   8   2.0000      -9.945028      -270.6180
   9   2.0000      -9.944325      -270.5988
  10   2.0000      -9.937239      -270.4060
  11   2.0000      -9.924241      -270.0523
  12   2.0000      -0.983207       -26.7544
  13   2.0000      -0.945382       -25.7251
  14   2.0000      -0.937128       -25.5005
  15   2.0000      -0.924726       -25.1631
  16   2.0000      -0.918303       -24.9883
  17   2.0000      -0.904882       -24.6231
  18   2.0000      -0.708611       -19.2823
  19   2.0000      -0.687127       -18.6977
  20   2.0000      -0.616927       -16.7874
  21   2.0000      -0.586178       -15.9507
  22   2.0000      -0.565784       -15.3958
  23   2.0000      -0.519218       -14.1286
  24   2.0000      -0.504615       -13.7313
  25   2.0000      -0.493008       -13.4154
  26   2.0000      -0.482517       -13.1299
  27   2.0000      -0.454115       -12.3571
  28   2.0000      -0.442151       -12.0315
  29   2.0000      -0.432059       -11.7569
  30   2.0000      -0.417036       -11.3481
  31   2.0000      -0.394375       -10.7315
  32   2.0000      -0.384262       -10.4563
  33   2.0000      -0.375667       -10.2224
  34   2.0000      -0.363278        -9.8853
  35   2.0000      -0.352548        -9.5933
  36   2.0000      -0.325326        -8.8526
  37   2.0000      -0.323593        -8.8054
  38   2.0000      -0.305233        -8.3058
  39   2.0000      -0.288104        -7.8397
  40   2.0000      -0.283983        -7.7276
  41   2.0000      -0.271840        -7.3971
  42   2.0000      -0.250890        -6.8271
  43   2.0000      -0.238174        -6.4810
  44   2.0000      -0.229649        -6.2491
  45   2.0000      -0.227835        -6.1997
  46   2.0000      -0.210864        -5.7379
  47   2.0000      -0.197303        -5.3689
  48   0.0000       0.012509         0.3404
  49   0.0000       0.024013         0.6534
  50   0.0000       0.034110         0.9282
  51   0.0000       0.047702         1.2980
  52   0.0000       0.051744         1.4080

MULLIKEN ATOMIC CHARGES
-----------------------
   0 C :    0.058592
   1 C :    0.013020
   2 H :    0.053421
   3 C :    0.000519
   4 H :    0.080513
   5 C :    0.119969
   6 H :    0.077589
   7 C :    0.004464
   8 H :    0.054963
   9 C :    0.198158
  10 H :    0.055497
  11 O :   -0.338917
  12 O :   -0.393633
  13 O :   -0.425332
  14 O :   -0.414366
  15 O :   -0.408639
  16 O :   -0.437155
  17 H :    0.089785
  18 H :    0.081540
  19 H :    0.310048
  20 H :    0.307262
  21 H :    0.311264
  22 H :    0.305805
  23 H :    0.295633
Sum of atomic charges:   -0.0000000

LOEWDIN ATOMIC CHARGES
----------------------
   0 C :   -0.135799
   1 C :   -0.070897
   2 H :    0.107400
   3 C :   -0.069422
   4 H :    0.115007
   5 C :   -0.056378
   6 H :    0.119068
   7 C :   -0.091536
   8 H :    0.104936
   9 C :   -0.010727
  10 H :    0.090265
  11 O :   -0.166245
  12 O :   -0.305865
  13 O :   -0.321090
  14 O :   -0.314205
  15 O :   -0.312809
  16 O :   -0.340348
  17 H :    0.101734
  18 H :    0.115699
  19 H :    0.292156
  20 H :    0.286705
  21 H :    0.294171
  22 H :    0.289458
  23 H :    0.278720

  Mayer bond orders larger than 0.100000
B(  0-C ,  1-C ) :   1.0511 B(  0-C , 16-O ) :   1.0626 B(  0-C , 17-H ) :   0.8979
B(  0-C , 18-H ) :   0.9132 B(  1-C ,  2-H ) :   0.8761 B(  1-C ,  3-C ) :   1.0231
B(  1-C , 11-O ) :   0.9784 B(  3-C ,  4-H ) :   0.8904 B(  3-C ,  5-C ) :   1.0175
B(  3-C , 15-O ) :   1.0302 B(  5-C ,  6-H ) :   0.8570 B(  5-C ,  7-C ) :   1.0128
B(  5-C , 14-O ) :   1.0715 B(  7-C ,  8-H ) :   0.8440 B(  7-C ,  9-C ) :   1.0703
B(  7-C , 13-O ) :   1.0671 B(  9-C , 10-H ) :   0.8763 B(  9-C , 11-O ) :   1.0157
B(  9-C , 12-O ) :   1.1522 B( 12-O , 19-H ) :   0.8396 B( 13-O , 20-H ) :   0.8355
B( 14-O , 21-H ) :   0.8455 B( 15-O , 22-H ) :   0.8461 B( 16-O , 23-H ) :   0.8424

Dispersion correction           -0.024723785
FINAL SINGLE POINT ENERGY      -685.690019210262

DIPOLE MOMENT
-------------

Method             : SCF
Type of density    : Electron Density
Multiplicity       :   1
Irrep              :   0
Energy             :  -685.8197087558802423 Eh
Relativity type    :
Basis              : AO
                                X                 Y                 Z
Electronic contribution:      1.928421671      -1.475954138       1.038032837
Nuclear contribution   :     -1.664119240       1.376377476      -0.468251970
                        -----------------------------------------
Total Dipole Moment    :      0.264302432      -0.099576662       0.569780867
                        -----------------------------------------
Magnitude (a.u.)       :      0.635941447
Magnitude (Debye)      :      1.616434698

Rotational constants in cm-1:             0.035523             0.027536             0.022709
Rotational constants in MHz :          1064.964970           825.504877           680.805807

                             ****ORCA TERMINATED NORMALLY****
TOTAL RUN TIME: 0 days 0 hours 0 minutes 12 seconds 36 msec
