                         Program Version 6.0.0  -   RELEASE  -
|  1> ! wb97x-v def2-tzvp def2/J RIJCOSX DEFGRID2 scfconv7 GCP(DFT/TZ) printgap
|  2> %output
|  3>     printlevel normal
|  4> end
|  5> * xyz 0 1
|  6> C -2.536798026307528 -0.9785721096086778 0.3662936700029061
|  7> C -1.1246993400015841 -0.4794102131819723 0.6050830429361536
|  8> H -0.957664668736669 -0.42810281332838773 1.693941668243924
|  9> C -0.8415116354439944 0.8954465978566969 -0.010727558674264833
| 10> H -1.0396009690042844 0.8609840874578676 -1.0903138287371423
| 11> C 0.6170208707017639 1.258458551382615 0.22103486859597396
| 12> H 0.78382714200075 1.3729669136546478 1.3045455848780534
| 13> C 1.5333812816234176 0.16155898654136652 -0.3023644352697558
| 14> H 1.4193474332284013 0.08593453262134837 -1.3968667026466415
| 15> C 1.1427058758175432 -1.1813762462819963 0.3100205173394551
| 16> H 1.2964224221578569 -1.1711350820891369 1.3993487776852789
| 17> O -0.2326153572279169 -1.4483170782018953 0.019705850635656587
| 18> O 1.9029654113922825 -2.2469552014294933 -0.19253928849044202
| 19> O 2.895740030978229 0.4127344095591199 0.04579268314395813
| 20> O 0.9809672379672136 2.4656956842092423 -0.45866253909511434
| 21> O -1.6317655054297469 1.9142279699212776 0.6144377790567102
| 22> O -2.887360722729271 -1.0329148144413902 -1.021457887969548
| 23> H -3.244097626534316 -0.2943807802489444 0.8439121315841432
| 24> H -2.6470629436862128 -1.9661204218140471 0.8343228625298512
| 25> H 1.9197876306874613 -2.1799967847732358 -1.1590107690152203
| 26> H 3.1216051054801133 1.2862841810209735 -0.3016778704701896
| 27> H 0.46997681933072255 3.183572624162261 -0.060894054053415275
| 28> H -2.50585585405919 1.9098337294629582 0.20415747794766342
| 29> H -2.2915358483073787 -1.6644928365708382 -1.4456672700384945
| 30> *
| 31>
| 32>                          ****END OF INPUT****

CARTESIAN COORDINATES (ANGSTROEM)
---------------------------------
  C     -2.536798   -0.978572    0.366294
  C     -1.124699   -0.479410    0.605083
  H     -0.957665   -0.428103    1.693942
  C     -0.841512    0.895447   -0.010728
  H     -1.039601    0.860984   -1.090314
  C      0.617021    1.258459    0.221035
  H      0.783827    1.372967    1.304546
  C      1.533381    0.161559   -0.302364
  H      1.419347    0.085935   -1.396867
  C      1.142706   -1.181376    0.310021
  H      1.296422   -1.171135    1.399349
  O     -0.232615   -1.448317    0.019706
  O      1.902965   -2.246955   -0.192539
  O      2.895740    0.412734    0.045793
  O      0.980967    2.465696   -0.458663
  O     -1.631766    1.914228    0.614438
  O     -2.887361   -1.032915   -1.021458
  H     -3.244098   -0.294381    0.843912
  H     -2.647063   -1.966120    0.834323
  H      1.919788   -2.179997   -1.159011
  H      3.121605    1.286284   -0.301678
  H      0.469977    3.183573   -0.060894
  H     -2.505856    1.909834    0.204157
  H     -2.291536   -1.664493   -1.445667

 Total Charge           Charge          ....    0
 Multiplicity           Mult            ....    1
 Number of Electrons    NEL             ....   96
 Basis Dimension        Dim             ....  444

ORBITAL ENERGIES
----------------

  NO   OCC          E(Eh)            E(eV)
   0   2.0000     -21.696906      -590.4028
   1   2.0000     -21.695266      -590.3582
   2   2.0000     -21.688861      -590.1839
   3   2.0000     -21.687516      -590.1473
   4   2.0000     -21.683909      -590.0492
   5   2.0000     -21.679796      -589.9372
   6   2.0000     -12.158972      -330.8624
   7   2.0000     -12.115888      -329.6901
   8   2.0000     -12.113999      -329.6387
   9   2.0000     -12.112969      -329.6106
  10   2.0000     -12.112048      -329.5856
  11   2.0000     -12.107566      -329.4636
  12   2.0000      -1.723629       -46.9023
  13   2.0000      -1.700408       -46.2705
  14   2.0000      -1.691256       -46.0214
  15   2.0000      -1.685429       -45.8629
  16   2.0000      -1.681091       -45.7448
  17   2.0000      -1.677990       -45.6604
  18   2.0000      -1.344081       -36.5743
  19   2.0000      -1.326392       -36.0930
  20   2.0000      -1.243912       -33.8486
  21   2.0000      -1.204831       -32.7851
  22   2.0000      -1.174651       -31.9639
  23   2.0000      -1.132212       -30.8091
  24   2.0000      -1.092581       -29.7306
  25   2.0000      -1.064435       -28.9647
  26   2.0000      -1.061919       -28.8963
  27   2.0000      -1.042850       -28.3774
  28   2.0000      -1.041180       -28.3319
  29   2.0000      -1.019116       -27.7316
  30   2.0000      -1.005820       -27.3698
  31   2.0000      -0.985930       -26.8285
  32   2.0000      -0.984928       -26.8012
  33   2.0000      -0.970323       -26.4038
  34   2.0000      -0.962369       -26.1874
  35   2.0000      -0.954928       -25.9849
  36   2.0000      -0.945192       -25.7200
  37   2.0000      -0.934848       -25.4385
  38   2.0000      -0.925647       -25.1881
  39   2.0000      -0.908548       -24.7228
  40   2.0000      -0.907262       -24.6879
  41   2.0000      -0.892718       -24.2921
  42   2.0000      -0.850521       -23.1438
  43   2.0000      -0.846596       -23.0370
  44   2.0000      -0.824097       -22.4248
  45   2.0000      -0.810050       -22.0426
  46   2.0000      -0.805435       -21.9170
  47   2.0000      -0.781259       -21.2591
  48   0.0000      -0.244900        -6.6641
  49   0.0000      -0.199940        -5.4407
  50   0.0000      -0.177553        -4.8315
  51   0.0000      -0.161131        -4.3846
  52   0.0000      -0.134570        -3.6618

MULLIKEN ATOMIC CHARGES
-----------------------
   0 C :   -0.048780
   1 C :   -0.010359
   2 H :    0.078887
   3 C :    0.050840
   4 H :    0.091958
   5 C :    0.058704
   6 H :    0.093311
   7 C :    0.064375
   8 H :    0.072697
   9 C :    0.112130
  10 H :    0.082333
  11 O :   -0.260697
  12 O :   -0.388765
  13 O :   -0.420907
  14 O :   -0.461022
  15 O :   -0.457709
  16 O :   -0.458344
  17 H :    0.108814
  18 H :    0.116362
  19 H :    0.304833
  20 H :    0.316229
  21 H :    0.319413
  22 H :    0.320448
  23 H :    0.315248
Sum of atomic charges:   -0.0000000

LOEWDIN ATOMIC CHARGES
----------------------
   0 C :   -0.314500
   1 C :   -0.306560
   2 H :    0.146836
   3 C :   -0.308925
   4 H :    0.144263
   5 C :   -0.314075
   6 H :    0.146166
   7 C :   -0.318293
   8 H :    0.139779
   9 C :   -0.397878
  10 H :    0.135981
  11 O :    0.177671
  12 O :    0.020569
  13 O :   -0.005792
  14 O :   -0.019271
  15 O :   -0.013533
  16 O :   -0.048307
  17 H :    0.129272
  18 H :    0.125693
  19 H :    0.177264
  20 H :    0.176681
  21 H :    0.177535
  22 H :    0.176009
  23 H :    0.173414

  Mayer bond orders larger than 0.100000
B(  0-C ,  1-C ) :   0.9580 B(  0-C , 16-O ) :   0.9957 B(  0-C , 17-H ) :   0.9758
B(  0-C , 18-H ) :   0.9834 B(  1-C ,  2-H ) :   0.9585 B(  1-C ,  3-C ) :   0.9345
B(  1-C , 11-O ) :   0.9850 B(  3-C ,  4-H ) :   0.9615 B(  3-C ,  5-C ) :   0.9327
B(  3-C , 15-O ) :   1.0698 B(  5-C ,  6-H ) :   0.9782 B(  5-C ,  7-C ) :   0.9629
B(  5-C , 14-O ) :   1.0652 B(  7-C ,  8-H ) :   0.9486 B(  7-C ,  9-C ) :   0.9668
B(  7-C , 13-O ) :   1.1121 B(  9-C , 10-H ) :   0.9762 B(  9-C , 11-O ) :   1.0250
B(  9-C , 12-O ) :   1.1675 B( 12-O , 19-H ) :   0.8890 B( 13-O , 20-H ) :   0.8845
B( 14-O , 21-H ) :   0.8864 B( 15-O , 22-H ) :   0.8944 B( 16-O , 23-H ) :   0.8894

FINAL SINGLE POINT ENERGY      -687.249179931681

DIPOLE MOMENT
-------------

Method             : SCF
Type of density    : Electron Density
Multiplicity       :   1
Irrep              :   0
Energy             :  -687.2680468858814038 Eh
Relativity type    :
Basis              : AO
                                X                 Y                 Z
Electronic contribution:      2.651260172      -0.487040327      -0.943605742
Nuclear contribution   :     -3.319684493       1.051631683       0.808245739
                        -----------------------------------------
Total Dipole Moment    :     -0.668424321       0.564591356      -0.135360003
                        -----------------------------------------
Magnitude (a.u.)       :      0.885368174
Magnitude (Debye)      :      2.250427053

Rotational constants in cm-1:             0.039259             0.026546             0.017462
Rotational constants in MHz :          1176.959722           795.823683           523.499218

                             ****ORCA TERMINATED NORMALLY****
TOTAL RUN TIME: 0 days 0 hours 4 minutes 39 seconds 137 msec
