                         Program Version 6.0.0  -   RELEASE  -
|  1> ! wb97x-v def2-tzvp def2/J RIJCOSX DEFGRID2 scfconv7 GCP(DFT/TZ) printgap
|  2> %output
|  3>     printlevel normal
|  4> end
|  5> %cpcm
|  6>     smd true
|  7>     smdsolvent "water"
|  8> end
|  9> * xyz 0 1
| 10> C -2.536798026307528 -0.9785721096086778 0.3662936700029061
| 11> C -1.1246993400015841 -0.4794102131819723 0.6050830429361536
| 12> H -0.957664668736669 -0.42810281332838773 1.693941668243924
| 13> C -0.8415116354439944 0.8954465978566969 -0.010727558674264833
| 14> H -1.0396009690042844 0.8609840874578676 -1.0903138287371423
| 15> C 0.6170208707017639 1.258458551382615 0.22103486859597396
| 16> H 0.78382714200075 1.3729669136546478 1.3045455848780534
| 17> C 1.5333812816234176 0.16155898654136652 -0.3023644352697558
| 18> H 1.4193474332284013 0.08593453262134837 -1.3968667026466415
| 19> C 1.1427058758175432 -1.1813762462819963 0.3100205173394551
| 20> H 1.2964224221578569 -1.1711350820891369 1.3993487776852789
| 21> O -0.2326153572279169 -1.4483170782018953 0.019705850635656587
| 22> O 1.9029654113922825 -2.2469552014294933 -0.19253928849044202
| 23> O 2.895740030978229 0.4127344095591199 0.04579268314395813
| 24> O 0.9809672379672136 2.4656956842092423 -0.45866253909511434
| 25> O -1.6317655054297469 1.9142279699212776 0.6144377790567102
| 26> O -2.887360722729271 -1.0329148144413902 -1.021457887969548
| 27> H -3.244097626534316 -0.2943807802489444 0.8439121315841432
| 28> H -2.6470629436862128 -1.9661204218140471 0.8343228625298512
| 29> H 1.9197876306874613 -2.1799967847732358 -1.1590107690152203
| 30> H 3.1216051054801133 1.2862841810209735 -0.3016778704701896
| 31> H 0.46997681933072255 3.183572624162261 -0.060894054053415275
| 32> H -2.50585585405919 1.9098337294629582 0.20415747794766342
| 33> H -2.2915358483073787 -1.6644928365708382 -1.4456672700384945
| 34> *
| 35>
| 36>                          ****END OF INPUT****

CARTESIAN COORDINATES (ANGSTROEM)
---------------------------------
  C     -2.536798   -0.978572    0.366294
  C     -1.124699   -0.479410    0.605083
  H     -0.957665   -0.428103    1.693942
  C     -0.841512    0.895447   -0.010728
  H     -1.039601    0.860984   -1.090314
  C      0.617021    1.258459    0.221035
  H      0.783827    1.372967    1.304546
  C      1.533381    0.161559   -0.302364
  H      1.419347    0.085935   -1.396867
  C      1.142706   -1.181376    0.310021
  H      1.296422   -1.171135    1.399349
  O     -0.232615   -1.448317    0.019706
  O      1.902965   -2.246955   -0.192539
  O      2.895740    0.412734    0.045793
  O      0.980967    2.465696   -0.458663
  O     -1.631766    1.914228    0.614438
  O     -2.887361   -1.032915   -1.021458
  H     -3.244098   -0.294381    0.843912
  H     -2.647063   -1.966120    0.834323
  H      1.919788   -2.179997   -1.159011
  H      3.121605    1.286284   -0.301678
  H      0.469977    3.183573   -0.060894
  H     -2.505856    1.909834    0.204157
  H     -2.291536   -1.664493   -1.445667

 Total Charge           Charge          ....    0
 Multiplicity           Mult            ....    1
 Number of Electrons    NEL             ....   96
 Basis Dimension        Dim             ....  444

ORBITAL ENERGIES
----------------

  NO   OCC          E(Eh)            E(eV)
   0   2.0000     -21.691370      -590.2522
   1   2.0000     -21.691157      -590.2464
   2   2.0000     -21.683362      -590.0343
   3   2.0000     -21.682363      -590.0071
   4   2.0000     -21.681879      -589.9939
   5   2.0000     -21.677811      -589.8832
   6   2.0000     -12.153771      -330.7209
   7   2.0000     -12.104353      -329.3762
   8   2.0000     -12.102342      -329.3215
   9   2.0000     -12.102066      -329.3140
  10   2.0000     -12.099814      -329.2527
  11   2.0000     -12.091971      -329.0393
  12   2.0000      -1.723079       -46.8874
  13   2.0000      -1.690796       -46.0089
  14   2.0000      -1.686462       -45.8910
  15   2.0000      -1.681184       -45.7474
  16   2.0000      -1.678571       -45.6762
  17   2.0000      -1.675973       -45.6056
  18   2.0000      -1.333137       -36.2765
  19   2.0000      -1.318318       -35.8733
  20   2.0000      -1.234242       -33.5854
  21   2.0000      -1.198516       -32.6133
  22   2.0000      -1.167103       -31.7585
  23   2.0000      -1.127273       -30.6747
  24   2.0000      -1.088413       -29.6172
  25   2.0000      -1.055703       -28.7271
  26   2.0000      -1.052649       -28.6440
  27   2.0000      -1.039351       -28.2822
  28   2.0000      -1.034588       -28.1526
  29   2.0000      -1.019270       -27.7358
  30   2.0000      -1.001921       -27.2637
  31   2.0000      -0.981596       -26.7106
  32   2.0000      -0.978084       -26.6150
  33   2.0000      -0.967353       -26.3230
  34   2.0000      -0.962621       -26.1943
  35   2.0000      -0.947705       -25.7884
  36   2.0000      -0.941089       -25.6083
  37   2.0000      -0.933665       -25.4063
  38   2.0000      -0.923509       -25.1300
  39   2.0000      -0.903388       -24.5824
  40   2.0000      -0.901424       -24.5290
  41   2.0000      -0.889405       -24.2019
  42   2.0000      -0.844869       -22.9901
  43   2.0000      -0.833163       -22.6715
  44   2.0000      -0.815376       -22.1875
  45   2.0000      -0.800227       -21.7753
  46   2.0000      -0.793151       -21.5827
  47   2.0000      -0.769984       -20.9523
  48   0.0000      -0.235213        -6.4005
  49   0.0000      -0.192127        -5.2281
  50   0.0000      -0.170186        -4.6310
  51   0.0000      -0.149045        -4.0557
  52   0.0000      -0.124867        -3.3978

MULLIKEN ATOMIC CHARGES
-----------------------
   0 C :   -0.031705
   1 C :    0.011733
   2 H :    0.112507
   3 C :    0.034560
   4 H :    0.101878
   5 C :    0.094135
   6 H :    0.107455
   7 C :    0.070896
   8 H :    0.110383
   9 C :    0.137666
  10 H :    0.118169
  11 O :   -0.326852
  12 O :   -0.496400
  13 O :   -0.521517
  14 O :   -0.532556
  15 O :   -0.531563
  16 O :   -0.554001
  17 H :    0.135611
  18 H :    0.133119
  19 H :    0.369819
  20 H :    0.362339
  21 H :    0.362626
  22 H :    0.371836
  23 H :    0.359861
Sum of atomic charges:   -0.0000000

LOEWDIN ATOMIC CHARGES
----------------------
   0 C :   -0.309161
   1 C :   -0.297873
   2 H :    0.158246
   3 C :   -0.303130
   4 H :    0.148443
   5 C :   -0.308987
   6 H :    0.153526
   7 C :   -0.311103
   8 H :    0.152992
   9 C :   -0.401064
  10 H :    0.144101
  11 O :    0.160565
  12 O :   -0.018972
  13 O :   -0.042696
  14 O :   -0.044103
  15 O :   -0.035839
  16 O :   -0.082177
  17 H :    0.138986
  18 H :    0.130319
  19 H :    0.200499
  20 H :    0.191947
  21 H :    0.191878
  22 H :    0.195471
  23 H :    0.188130

  Mayer bond orders larger than 0.100000
B(  0-C ,  1-C ) :   0.9596 B(  0-C , 16-O ) :   0.9614 B(  0-C , 17-H ) :   0.9666
B(  0-C , 18-H ) :   0.9818 B(  1-C ,  2-H ) :   0.9500 B(  1-C ,  3-C ) :   0.9670
B(  1-C , 11-O ) :   0.9493 B(  3-C ,  4-H ) :   0.9597 B(  3-C ,  5-C ) :   0.9654
B(  3-C , 15-O ) :   1.0517 B(  5-C ,  6-H ) :   0.9608 B(  5-C ,  7-C ) :   0.9803
B(  5-C , 14-O ) :   1.0408 B(  7-C ,  8-H ) :   0.9526 B(  7-C ,  9-C ) :   0.9736
B(  7-C , 13-O ) :   1.0482 B(  9-C , 10-H ) :   0.9728 B(  9-C , 11-O ) :   1.0161
B(  9-C , 12-O ) :   1.1189 B( 12-O , 19-H ) :   0.8498 B( 13-O , 20-H ) :   0.8567
B( 14-O , 21-H ) :   0.8585 B( 15-O , 22-H ) :   0.8608 B( 16-O , 23-H ) :   0.8619

FINAL SINGLE POINT ENERGY      -687.287622695437

DIPOLE MOMENT
-------------

Method             : SCF
Type of density    : Electron Density
Multiplicity       :   1
Irrep              :   0
Energy             :  -687.3064896496372285 Eh
Relativity type    :
Basis              : AO
                                X                 Y                 Z
Electronic contribution:      2.365014689      -0.283705269      -0.947386674
Nuclear contribution   :     -3.319684493       1.051631683       0.808245739
                        -----------------------------------------
Total Dipole Moment    :     -0.954669805       0.767926414      -0.139140935
                        -----------------------------------------
Magnitude (a.u.)       :      1.233071617
Magnitude (Debye)      :      3.134218970

Rotational constants in cm-1:             0.039259             0.026546             0.017462
Rotational constants in MHz :          1176.959722           795.823683           523.499218

                             ****ORCA TERMINATED NORMALLY****
TOTAL RUN TIME: 0 days 0 hours 5 minutes 13 seconds 615 msec
