                         Program Version 6.0.0  -   RELEASE  -
|  1> ! pbe def2-sv(p) def2/J RI DEFGRID1 loosescf d4 GCP(DFT/SV(P)) printgap
|  2> %output
|  3>     printlevel normal
|  4> end
|  5> * xyz 0 1
|  6> C -0.4110365961 -1.0471969444 8.28986e-05
|  7> C 0.9534389581 -1.1987540759 3.75375e-05
|  8> C 1.7837411306 -0.0718988034 -3.70047e-05
|  9> C 1.2158413519 1.204928161 -9.8078e-06
| 10> C -0.1526491429 1.3519818807 2.7151e-06
| 11> C -0.9879508181 0.2303815449 -1.98908e-05
| 12> C -2.4279927706 0.386099294 1.31746e-05
| 13> O -3.2444917404 -0.5183883753 -2.99977e-05
| 14> O 3.1111635012 -0.2712747658 -6.7054e-06
| 15> H -1.0667882231 -1.9046675493 0.0001346497
| 16> H 1.4118172583 -2.174462912 -0.0001532791
| 17> H 1.8529963399 2.0766468574 -0.0002737545
| 18> H -0.5905300646 2.3386312598 0.0001058145
| 19> H -2.7756390662 1.4366550564 -0.0001515253
| 20> H 3.6015732903 0.5670795252 9.10685e-05
| 21> *
| 22>
| 23>                          ****END OF INPUT****

CARTESIAN COORDINATES (ANGSTROEM)
---------------------------------
  C     -0.411037   -1.047197    0.000083
  C      0.953439   -1.198754    0.000038
  C      1.783741   -0.071899   -0.000037
  C      1.215841    1.204928   -0.000010
  C     -0.152649    1.351982    0.000003
  C     -0.987951    0.230382   -0.000020
  C     -2.427993    0.386099    0.000013
  O     -3.244492   -0.518388   -0.000030
  O      3.111164   -0.271275   -0.000007
  H     -1.066788   -1.904668    0.000135
  H      1.411817   -2.174463   -0.000153
  H      1.852996    2.076647   -0.000274
  H     -0.590530    2.338631    0.000106
  H     -2.775639    1.436655   -0.000152
  H      3.601573    0.567080    0.000091

 Total Charge           Charge          ....    0
 Multiplicity           Mult            ....    1
 Number of Electrons    NEL             ....   64
 Basis Dimension        Dim             ....  138

ORBITAL ENERGIES
----------------

  NO   OCC          E(Eh)            E(eV)
   0   2.0000     -18.810269      -511.8534
   1   2.0000     -18.738353      -509.8965
   2   2.0000      -9.979117      -271.5456
   3   2.0000      -9.960846      -271.0484
   4   2.0000      -9.916249      -269.8348
   5   2.0000      -9.911584      -269.7079
   6   2.0000      -9.907860      -269.6066
   7   2.0000      -9.904334      -269.5106
   8   2.0000      -9.902566      -269.4625
   9   2.0000      -0.993590       -27.0370
  10   2.0000      -0.928628       -25.2693
  11   2.0000      -0.790729       -21.5168
  12   2.0000      -0.696802       -18.9610
  13   2.0000      -0.689919       -18.7737
  14   2.0000      -0.603431       -16.4202
  15   2.0000      -0.567050       -15.4302
  16   2.0000      -0.529165       -14.3993
  17   2.0000      -0.513709       -13.9787
  18   2.0000      -0.448891       -12.2149
  19   2.0000      -0.435262       -11.8441
  20   2.0000      -0.407983       -11.1018
  21   2.0000      -0.395533       -10.7630
  22   2.0000      -0.390411       -10.6236
  23   2.0000      -0.369765       -10.0618
  24   2.0000      -0.359188        -9.7740
  25   2.0000      -0.355080        -9.6622
  26   2.0000      -0.339621        -9.2416
  27   2.0000      -0.309349        -8.4178
  28   2.0000      -0.304574        -8.2879
  29   2.0000      -0.249244        -6.7823
  30   2.0000      -0.216401        -5.8886
  31   2.0000      -0.198931        -5.4132
  32   0.0000      -0.085566        -2.3284
  33   0.0000      -0.051089        -1.3902
  34   0.0000       0.004958         0.1349
  35   0.0000       0.011072         0.3013
  36   0.0000       0.043916         1.1950

MULLIKEN ATOMIC CHARGES
-----------------------
   0 C :   -0.089798
   1 C :   -0.109679
   2 C :    0.243265
   3 C :   -0.149717
   4 C :   -0.102968
   5 C :    0.099153
   6 C :    0.026738
   7 O :   -0.174897
   8 O :   -0.308618
   9 H :    0.066362
  10 H :    0.057103
  11 H :    0.035916
  12 H :    0.053946
  13 H :    0.028048
  14 H :    0.325144
Sum of atomic charges:    0.0000000

LOEWDIN ATOMIC CHARGES
----------------------
   0 C :   -0.070585
   1 C :   -0.140543
   2 C :    0.035886
   3 C :   -0.175444
   4 C :   -0.087525
   5 C :   -0.115116
   6 C :   -0.003915
   7 O :   -0.140626
   8 O :   -0.206936
   9 H :    0.136536
  10 H :    0.135568
  11 H :    0.123864
  12 H :    0.128562
  13 H :    0.076137
  14 H :    0.304137

  Mayer bond orders larger than 0.100000
B(  0-C ,  1-C ) :   1.3889 B(  0-C ,  5-C ) :   1.3057 B(  0-C ,  9-H ) :   0.9615
B(  1-C ,  2-C ) :   1.3140 B(  1-C , 10-H ) :   0.9693 B(  2-C ,  3-C ) :   1.2881
B(  2-C ,  8-O ) :   1.2235 B(  3-C ,  4-C ) :   1.3835 B(  3-C , 11-H ) :   0.9579
B(  4-C ,  5-C ) :   1.3102 B(  4-C , 12-H ) :   0.9559 B(  5-C ,  6-C ) :   1.0178
B(  6-C ,  7-O ) :   2.1235 B(  6-C , 13-H ) :   0.9171 B(  8-O , 14-H ) :   0.8360

Dispersion correction           -0.015446622
FINAL SINGLE POINT ENERGY      -419.927814514342

DIPOLE MOMENT
-------------

Method             : SCF
Type of density    : Electron Density
Multiplicity       :   1
Irrep              :   0
Energy             :  -419.9741155598545674 Eh
Relativity type    :
Basis              : AO
                                X                 Y                 Z
Electronic contribution:     -0.646783966      -1.218306499       0.000228167
Nuclear contribution   :      2.281005513       2.183512060      -0.000232298
                        -----------------------------------------
Total Dipole Moment    :      1.634221547       0.965205560      -0.000004131
                        -----------------------------------------
Magnitude (a.u.)       :      1.897973087
Magnitude (Debye)      :      4.824264196

Rotational constants in cm-1:             0.171247             0.033524             0.028036
Rotational constants in MHz :          5133.859469          1005.023520           840.486702

                             ****ORCA TERMINATED NORMALLY****
TOTAL RUN TIME: 0 days 0 hours 0 minutes 8 seconds 561 msec
