                         Program Version 6.0.0  -   RELEASE  -
|  1> ! r2scan-3c def2/J RI DEFGRID2 scfconv6 printgap
|  2> %output
|  3>     printlevel normal
|  4> end
|  5> * xyz 0 1
|  6> C -2.4530030049 0.1795996059 1.4744701178
|  7> O -1.1891908053 0.1079798422 0.8103994499
|  8> C -1.1990938453 -0.1975766993 -0.4784229534
|  9> O -2.2313417897 -0.4107209018 -1.0872531668
| 10> C 0.1638229019 -0.2604272092 -1.1303141066
| 11> C 1.05177269 -1.3567071171 -0.5201306226
| 12> C 1.6248727959 -0.9717617376 0.8397419396
| 13> C 2.386630569 0.345799619 0.7443922449
| 14> C 1.4552441362 1.4505729879 0.2571998223
| 15> C 0.8805854922 1.0992463417 -1.1110525439
| 16> H -3.0794446639 0.937695835 1.0029945997
| 17> H -2.2311434282 0.4410528095 2.5043503355
| 18> H -2.9605789039 -0.7838358941 1.4145607758
| 19> H -0.0463690254 -0.5257636037 -2.172764532
| 20> H 0.4791134429 -2.2834398004 -0.440834931
| 21> H 1.8758813283 -1.5321115735 -1.2145346007
| 22> H 0.81829021 -0.8697602114 1.565934843
| 23> H 2.2903722129 -1.7661076606 1.1824253261
| 24> H 2.7961287186 0.6092325949 1.720579765
| 25> H 3.219793236 0.2363894679 0.0466465607
| 26> H 0.6461377343 1.5825524146 0.9757550177
| 27> H 1.9988942838 2.3940691566 0.1825602829
| 28> H 0.1891950083 1.8772358386 -1.4423840217
| 29> H 1.6964267703 1.0475585701 -1.8348123298
| 30> *
| 31>
| 32>                          ****END OF INPUT****

CARTESIAN COORDINATES (ANGSTROEM)
---------------------------------
  C     -2.453003    0.179600    1.474470
  O     -1.189191    0.107980    0.810399
  C     -1.199094   -0.197577   -0.478423
  O     -2.231342   -0.410721   -1.087253
  C      0.163823   -0.260427   -1.130314
  C      1.051773   -1.356707   -0.520131
  C      1.624873   -0.971762    0.839742
  C      2.386631    0.345800    0.744392
  C      1.455244    1.450573    0.257200
  C      0.880585    1.099246   -1.111053
  H     -3.079445    0.937696    1.002995
  H     -2.231143    0.441053    2.504350
  H     -2.960579   -0.783836    1.414561
  H     -0.046369   -0.525764   -2.172765
  H      0.479113   -2.283440   -0.440835
  H      1.875881   -1.532112   -1.214535
  H      0.818290   -0.869760    1.565935
  H      2.290372   -1.766108    1.182425
  H      2.796129    0.609233    1.720580
  H      3.219793    0.236389    0.046647
  H      0.646138    1.582552    0.975755
  H      1.998894    2.394069    0.182560
  H      0.189195    1.877236   -1.442384
  H      1.696427    1.047559   -1.834812

 Total Charge           Charge          ....    0
 Multiplicity           Mult            ....    1
 Number of Electrons    NEL             ....   78
 Basis Dimension        Dim             ....  270

ORBITAL ENERGIES
----------------

  NO   OCC          E(Eh)            E(eV)
   0   2.0000     -19.002199      -517.0761
   1   2.0000     -18.925942      -515.0011
   2   2.0000     -10.149296      -276.1764
   3   2.0000     -10.088852      -274.5316
   4   2.0000     -10.046291      -273.3735
   5   2.0000     -10.033287      -273.0196
   6   2.0000     -10.033250      -273.0186
   7   2.0000     -10.022813      -272.7346
   8   2.0000     -10.021748      -272.7056
   9   2.0000     -10.021689      -272.7040
  10   2.0000      -1.076628       -29.2965
  11   2.0000      -0.973059       -26.4783
  12   2.0000      -0.808680       -22.0053
  13   2.0000      -0.732838       -19.9415
  14   2.0000      -0.713146       -19.4057
  15   2.0000      -0.694165       -18.8892
  16   2.0000      -0.597085       -16.2475
  17   2.0000      -0.579205       -15.7610
  18   2.0000      -0.546076       -14.8595
  19   2.0000      -0.523109       -14.2345
  20   2.0000      -0.461445       -12.5566
  21   2.0000      -0.458565       -12.4782
  22   2.0000      -0.449112       -12.2210
  23   2.0000      -0.430009       -11.7011
  24   2.0000      -0.411035       -11.1848
  25   2.0000      -0.410676       -11.1751
  26   2.0000      -0.397484       -10.8161
  27   2.0000      -0.369709       -10.0603
  28   2.0000      -0.358815        -9.7638
  29   2.0000      -0.350069        -9.5259
  30   2.0000      -0.340570        -9.2674
  31   2.0000      -0.339131        -9.2282
  32   2.0000      -0.325947        -8.8695
  33   2.0000      -0.314695        -8.5633
  34   2.0000      -0.282061        -7.6753
  35   2.0000      -0.275735        -7.5031
  36   2.0000      -0.274345        -7.4653
  37   2.0000      -0.270187        -7.3521
  38   2.0000      -0.229354        -6.2410
  39   0.0000      -0.014712        -0.4003
  40   0.0000       0.056125         1.5272
  41   0.0000       0.083561         2.2738
  42   0.0000       0.092530         2.5179
  43   0.0000       0.108262         2.9460

MULLIKEN ATOMIC CHARGES
-----------------------
   0 C :   -0.299124
   1 O :   -0.155575
   2 C :    0.188873
   3 O :   -0.402799
   4 C :    0.141219
   5 C :   -0.406113
   6 C :   -0.258179
   7 C :   -0.346808
   8 C :   -0.258599
   9 C :   -0.405761
  10 H :    0.163869
  11 H :    0.149867
  12 H :    0.163652
  13 H :    0.174134
  14 H :    0.150863
  15 H :    0.162002
  16 H :    0.166087
  17 H :    0.147682
  18 H :    0.152061
  19 H :    0.145794
  20 H :    0.166038
  21 H :    0.147754
  22 H :    0.150913
  23 H :    0.162150
Sum of atomic charges:    0.0000000

LOEWDIN ATOMIC CHARGES
----------------------
   0 C :   -0.043736
   1 O :   -0.618696
   2 C :    0.358999
   3 O :   -0.427519
   4 C :   -0.154581
   5 C :   -0.271830
   6 C :   -0.299145
   7 C :   -0.299522
   8 C :   -0.299155
   9 C :   -0.271732
  10 H :    0.178401
  11 H :    0.175075
  12 H :    0.178305
  13 H :    0.185403
  14 H :    0.164675
  15 H :    0.161476
  16 H :    0.170328
  17 H :    0.154040
  18 H :    0.155544
  19 H :    0.153191
  20 H :    0.170217
  21 H :    0.154072
  22 H :    0.164710
  23 H :    0.161481

  Mayer bond orders larger than 0.100000
B(  0-C ,  1-O ) :   0.8465 B(  0-C , 10-H ) :   0.9613 B(  0-C , 11-H ) :   0.9693
B(  0-C , 12-H ) :   0.9612 B(  1-O ,  2-C ) :   1.0589 B(  2-C ,  3-O ) :   1.8311
B(  2-C ,  4-C ) :   0.9714 B(  4-C ,  5-C ) :   0.8833 B(  4-C ,  9-C ) :   0.8829
B(  4-C , 13-H ) :   0.9343 B(  5-C ,  6-C ) :   0.8987 B(  5-C , 14-H ) :   0.9474
B(  5-C , 15-H ) :   0.9867 B(  6-C ,  7-C ) :   0.8987 B(  6-C , 16-H ) :   0.9874
B(  6-C , 17-H ) :   0.9386 B(  7-C ,  8-C ) :   0.8988 B(  7-C , 18-H ) :   0.9498
B(  7-C , 19-H ) :   1.0063 B(  8-C ,  9-C ) :   0.8987 B(  8-C , 20-H ) :   0.9874
B(  8-C , 21-H ) :   0.9386 B(  9-C , 22-H ) :   0.9472 B(  9-C , 23-H ) :   0.9868

Dispersion correction           -0.008023287
FINAL SINGLE POINT ENERGY      -463.631343439038

DIPOLE MOMENT
-------------

Method             : SCF
Type of density    : Electron Density
Multiplicity       :   1
Irrep              :   0
Energy             :  -463.6367413593992524 Eh
Relativity type    :
Basis              : AO
                                X                 Y                 Z
Electronic contribution:     -6.659586538      -1.082608789      -2.598452684
Nuclear contribution   :      7.166321678       1.275891926       3.270546251
                        -----------------------------------------
Total Dipole Moment    :      0.506735140       0.193283137       0.672093567
                        -----------------------------------------
Magnitude (a.u.)       :      0.863625287
Magnitude (Debye)      :      2.195161027

Rotational constants in cm-1:             0.069816             0.033482             0.031263
Rotational constants in MHz :          2093.035527          1003.769996           937.239852

                             ****ORCA TERMINATED NORMALLY****
TOTAL RUN TIME: 0 days 0 hours 0 minutes 37 seconds 546 msec
