                         Program Version 6.0.0  -   RELEASE  -
|  1> ! r2scan-3c def2/J RI DEFGRID2 scfconv6 printgap
|  2> %output
|  3>     printlevel normal
|  4> end
|  5> %cpcm
|  6>     smd true
|  7>     smdsolvent "water"
|  8> end
|  9> * xyz 0 1
| 10> C -2.4530030049 0.1795996059 1.4744701178
| 11> O -1.1891908053 0.1079798422 0.8103994499
| 12> C -1.1990938453 -0.1975766993 -0.4784229534
| 13> O -2.2313417897 -0.4107209018 -1.0872531668
| 14> C 0.1638229019 -0.2604272092 -1.1303141066
| 15> C 1.05177269 -1.3567071171 -0.5201306226
| 16> C 1.6248727959 -0.9717617376 0.8397419396
| 17> C 2.386630569 0.345799619 0.7443922449
| 18> C 1.4552441362 1.4505729879 0.2571998223
| 19> C 0.8805854922 1.0992463417 -1.1110525439
| 20> H -3.0794446639 0.937695835 1.0029945997
| 21> H -2.2311434282 0.4410528095 2.5043503355
| 22> H -2.9605789039 -0.7838358941 1.4145607758
| 23> H -0.0463690254 -0.5257636037 -2.172764532
| 24> H 0.4791134429 -2.2834398004 -0.440834931
| 25> H 1.8758813283 -1.5321115735 -1.2145346007
| 26> H 0.81829021 -0.8697602114 1.565934843
| 27> H 2.2903722129 -1.7661076606 1.1824253261
| 28> H 2.7961287186 0.6092325949 1.720579765
| 29> H 3.219793236 0.2363894679 0.0466465607
| 30> H 0.6461377343 1.5825524146 0.9757550177
| 31> H 1.9988942838 2.3940691566 0.1825602829
| 32> H 0.1891950083 1.8772358386 -1.4423840217
| 33> H 1.6964267703 1.0475585701 -1.8348123298
| 34> *
| 35>
| 36>                          ****END OF INPUT****

CARTESIAN COORDINATES (ANGSTROEM)
---------------------------------
  C     -2.453003    0.179600    1.474470
  O     -1.189191    0.107980    0.810399
  C     -1.199094   -0.197577   -0.478423
  O     -2.231342   -0.410721   -1.087253
  C      0.163823   -0.260427   -1.130314
  C      1.051773   -1.356707   -0.520131
  C      1.624873   -0.971762    0.839742
  C      2.386631    0.345800    0.744392
  C      1.455244    1.450573    0.257200
  C      0.880585    1.099246   -1.111053
  H     -3.079445    0.937696    1.002995
  H     -2.231143    0.441053    2.504350
  H     -2.960579   -0.783836    1.414561
  H     -0.046369   -0.525764   -2.172765
  H      0.479113   -2.283440   -0.440835
  H      1.875881   -1.532112   -1.214535
  H      0.818290   -0.869760    1.565935
  H      2.290372   -1.766108    1.182425
  H      2.796129    0.609233    1.720580
  H      3.219793    0.236389    0.046647
  H      0.646138    1.582552    0.975755
  H      1.998894    2.394069    0.182560
  H      0.189195    1.877236   -1.442384
  H      1.696427    1.047559   -1.834812

 Total Charge           Charge          ....    0
 Multiplicity           Mult            ....    1
 Number of Electrons    NEL             ....   78
 Basis Dimension        Dim             ....  270

ORBITAL ENERGIES
----------------

  NO   OCC          E(Eh)            E(eV)
   0   2.0000     -19.003890      -517.1221
   1   2.0000     -18.940931      -515.4089
   2   2.0000     -10.158617      -276.4300
   3   2.0000     -10.076528      -274.1963
   4   2.0000     -10.042014      -273.2571
   5   2.0000     -10.024261      -272.7740
   6   2.0000     -10.024180      -272.7718
   7   2.0000     -10.013336      -272.4767
   8   2.0000     -10.013263      -272.4747
   9   2.0000     -10.013114      -272.4707
  10   2.0000      -1.080579       -29.4040
  11   2.0000      -0.985540       -26.8179
  12   2.0000      -0.801512       -21.8103
  13   2.0000      -0.727044       -19.7839
  14   2.0000      -0.704451       -19.1691
  15   2.0000      -0.686494       -18.6805
  16   2.0000      -0.591128       -16.0854
  17   2.0000      -0.570819       -15.5328
  18   2.0000      -0.539187       -14.6720
  19   2.0000      -0.519274       -14.1302
  20   2.0000      -0.461389       -12.5550
  21   2.0000      -0.456087       -12.4108
  22   2.0000      -0.445090       -12.1115
  23   2.0000      -0.432856       -11.7786
  24   2.0000      -0.404533       -11.0079
  25   2.0000      -0.401250       -10.9186
  26   2.0000      -0.393567       -10.7095
  27   2.0000      -0.367675       -10.0050
  28   2.0000      -0.352578        -9.5941
  29   2.0000      -0.341074        -9.2811
  30   2.0000      -0.335611        -9.1324
  31   2.0000      -0.333389        -9.0720
  32   2.0000      -0.323199        -8.7947
  33   2.0000      -0.305826        -8.3219
  34   2.0000      -0.279641        -7.6094
  35   2.0000      -0.275079        -7.4853
  36   2.0000      -0.267989        -7.2923
  37   2.0000      -0.263226        -7.1627
  38   2.0000      -0.242900        -6.6096
  39   0.0000      -0.021899        -0.5959
  40   0.0000       0.063104         1.7171
  41   0.0000       0.092562         2.5187
  42   0.0000       0.103802         2.8246
  43   0.0000       0.116004         3.1566

MULLIKEN ATOMIC CHARGES
-----------------------
   0 C :   -0.334680
   1 O :   -0.157309
   2 C :    0.237107
   3 O :   -0.495619
   4 C :    0.129690
   5 C :   -0.411059
   6 C :   -0.278224
   7 C :   -0.356484
   8 C :   -0.278053
   9 C :   -0.410406
  10 H :    0.178630
  11 H :    0.178605
  12 H :    0.178674
  13 H :    0.179657
  14 H :    0.160539
  15 H :    0.178117
  16 H :    0.166162
  17 H :    0.157121
  18 H :    0.159756
  19 H :    0.155881
  20 H :    0.166004
  21 H :    0.157212
  22 H :    0.160333
  23 H :    0.178345
Sum of atomic charges:    0.0000000

LOEWDIN ATOMIC CHARGES
----------------------
   0 C :   -0.041252
   1 O :   -0.610790
   2 C :    0.368188
   3 O :   -0.494660
   4 C :   -0.153380
   5 C :   -0.270588
   6 C :   -0.301110
   7 C :   -0.302515
   8 C :   -0.301049
   9 C :   -0.270537
  10 H :    0.182848
  11 H :    0.187620
  12 H :    0.182826
  13 H :    0.187438
  14 H :    0.167553
  15 H :    0.167987
  16 H :    0.168939
  17 H :    0.157074
  18 H :    0.157009
  19 H :    0.156931
  20 H :    0.168821
  21 H :    0.157128
  22 H :    0.167509
  23 H :    0.168009

  Mayer bond orders larger than 0.100000
B(  0-C ,  1-O ) :   0.8271 B(  0-C , 10-H ) :   0.9565 B(  0-C , 11-H ) :   0.9598
B(  0-C , 12-H ) :   0.9564 B(  1-O ,  2-C ) :   1.0964 B(  2-C ,  3-O ) :   1.7605
B(  2-C ,  4-C ) :   0.9685 B(  4-C ,  5-C ) :   0.8808 B(  4-C ,  9-C ) :   0.8806
B(  4-C , 13-H ) :   0.9309 B(  5-C ,  6-C ) :   0.9000 B(  5-C , 14-H ) :   0.9444
B(  5-C , 15-H ) :   0.9817 B(  6-C ,  7-C ) :   0.8973 B(  6-C , 16-H ) :   0.9893
B(  6-C , 17-H ) :   0.9369 B(  7-C ,  8-C ) :   0.8973 B(  7-C , 18-H ) :   0.9500
B(  7-C , 19-H ) :   1.0015 B(  8-C ,  9-C ) :   0.8999 B(  8-C , 20-H ) :   0.9894
B(  8-C , 21-H ) :   0.9368 B(  9-C , 22-H ) :   0.9440 B(  9-C , 23-H ) :   0.9817

Dispersion correction           -0.008023287
FINAL SINGLE POINT ENERGY      -463.636411496266

DIPOLE MOMENT
-------------

Method             : SCF
Type of density    : Electron Density
Multiplicity       :   1
Irrep              :   0
Energy             :  -463.6418094166274386 Eh
Relativity type    :
Basis              : AO
                                X                 Y                 Z
Electronic contribution:     -6.359126794      -1.010095184      -2.374385054
Nuclear contribution   :      7.166321678       1.275891926       3.270546251
                        -----------------------------------------
Total Dipole Moment    :      0.807194884       0.265796741       0.896161197
                        -----------------------------------------
Magnitude (a.u.)       :      1.235036995
Magnitude (Debye)      :      3.139214565

Rotational constants in cm-1:             0.069816             0.033482             0.031263
Rotational constants in MHz :          2093.035527          1003.769996           937.239852

                             ****ORCA TERMINATED NORMALLY****
TOTAL RUN TIME: 0 days 0 hours 0 minutes 44 seconds 769 msec
