                         Program Version 6.0.0  -   RELEASE  -
|  1> ! pbe def2-sv(p) def2/J RI DEFGRID1 loosescf d4 GCP(DFT/SV(P)) printgap
|  2> %output
|  3>     printlevel normal
|  4> end
|  5> * xyz 0 1
|  6> C -2.2368267948 -0.9716465823 -0.3859013926
|  7> C -1.1882321097 -0.184963139 0.424785986
|  8> H -1.6578839583 0.236716078 1.3226751883
|  9> C -0.6005684277 0.9743555996 -0.3980550857
| 10> H -0.4738129485 0.6698331972 -1.4460183669
| 11> C 0.7871211848 1.3316421111 0.1550308919
| 12> H 0.7058272516 1.536745825 1.233106632
| 13> C 1.7388346821 0.1479063149 -0.036407137
| 14> H 2.0999948221 0.1798931449 -1.0712749262
| 15> C 0.982025347 -1.1895345136 0.1608902474
| 16> H 1.6105291057 -1.854932922 0.7713834341
| 17> O -0.1782494256 -1.0524069319 0.9353180213
| 18> O 0.7300354189 -1.7340046037 -1.0973947846
| 19> O 2.7914584152 0.2786066254 0.8839811267
| 20> O 1.3246872076 2.4398881889 -0.5163828247
| 21> O -1.3923092473 2.1347825989 -0.3042512498
| 22> O -2.6887983359 -2.1276105083 0.2705119637
| 23> H -1.7955318924 -1.3168217425 -1.3233405475
| 24> H -3.0780449782 -0.3026331244 -0.6118767934
| 25> H 0.3759063247 -2.6323255517 -1.0019855472
| 26> H 3.5875906336 -0.1564938996 0.5484687806
| 27> H 0.6708662901 3.1561514643 -0.478610693
| 28> H -2.1725282139 2.0586393673 -0.8694445457
| 29> H -3.0194397755 -1.8946698432 1.1493016773
| 30> *
| 31>
| 32>                          ****END OF INPUT****

CARTESIAN COORDINATES (ANGSTROEM)
---------------------------------
  C     -2.236827   -0.971647   -0.385901
  C     -1.188232   -0.184963    0.424786
  H     -1.657884    0.236716    1.322675
  C     -0.600568    0.974356   -0.398055
  H     -0.473813    0.669833   -1.446018
  C      0.787121    1.331642    0.155031
  H      0.705827    1.536746    1.233107
  C      1.738835    0.147906   -0.036407
  H      2.099995    0.179893   -1.071275
  C      0.982025   -1.189535    0.160890
  H      1.610529   -1.854933    0.771383
  O     -0.178249   -1.052407    0.935318
  O      0.730035   -1.734005   -1.097395
  O      2.791458    0.278607    0.883981
  O      1.324687    2.439888   -0.516383
  O     -1.392309    2.134783   -0.304251
  O     -2.688798   -2.127611    0.270512
  H     -1.795532   -1.316822   -1.323341
  H     -3.078045   -0.302633   -0.611877
  H      0.375906   -2.632326   -1.001986
  H      3.587591   -0.156494    0.548469
  H      0.670866    3.156151   -0.478611
  H     -2.172528    2.058639   -0.869445
  H     -3.019440   -1.894670    1.149302

 Total Charge           Charge          ....    0
 Multiplicity           Mult            ....    1
 Number of Electrons    NEL             ....   96
 Basis Dimension        Dim             ....  192

ORBITAL ENERGIES
----------------

  NO   OCC          E(Eh)            E(eV)
   0   2.0000     -18.767877      -510.6999
   1   2.0000     -18.766057      -510.6504
   2   2.0000     -18.761103      -510.5156
   3   2.0000     -18.748267      -510.1663
   4   2.0000     -18.747433      -510.1436
   5   2.0000     -18.738071      -509.8888
   6   2.0000      -9.980797      -271.5913
   7   2.0000      -9.944628      -270.6071
   8   2.0000      -9.942621      -270.5525
   9   2.0000      -9.936678      -270.3908
  10   2.0000      -9.935307      -270.3534
  11   2.0000      -9.934399      -270.3287
  12   2.0000      -0.979001       -26.6400
  13   2.0000      -0.948034       -25.7973
  14   2.0000      -0.928915       -25.2771
  15   2.0000      -0.925596       -25.1868
  16   2.0000      -0.909120       -24.7384
  17   2.0000      -0.908162       -24.7123
  18   2.0000      -0.704500       -19.1704
  19   2.0000      -0.689184       -18.7536
  20   2.0000      -0.619254       -16.8508
  21   2.0000      -0.586303       -15.9541
  22   2.0000      -0.563493       -15.3334
  23   2.0000      -0.511696       -13.9240
  24   2.0000      -0.501234       -13.6393
  25   2.0000      -0.496711       -13.5162
  26   2.0000      -0.475134       -12.9290
  27   2.0000      -0.456382       -12.4188
  28   2.0000      -0.442316       -12.0360
  29   2.0000      -0.427535       -11.6338
  30   2.0000      -0.409868       -11.1531
  31   2.0000      -0.399355       -10.8670
  32   2.0000      -0.387626       -10.5479
  33   2.0000      -0.372852       -10.1458
  34   2.0000      -0.360538        -9.8107
  35   2.0000      -0.353176        -9.6104
  36   2.0000      -0.329336        -8.9617
  37   2.0000      -0.307057        -8.3554
  38   2.0000      -0.296720        -8.0742
  39   2.0000      -0.287073        -7.8117
  40   2.0000      -0.279064        -7.5937
  41   2.0000      -0.266429        -7.2499
  42   2.0000      -0.260311        -7.0834
  43   2.0000      -0.235167        -6.3992
  44   2.0000      -0.232016        -6.3135
  45   2.0000      -0.218231        -5.9384
  46   2.0000      -0.215852        -5.8736
  47   2.0000      -0.197556        -5.3758
  48   0.0000       0.006380         0.1736
  49   0.0000       0.020723         0.5639
  50   0.0000       0.031533         0.8581
  51   0.0000       0.033677         0.9164
  52   0.0000       0.060340         1.6419

MULLIKEN ATOMIC CHARGES
-----------------------
   0 C :    0.056929
   1 C :    0.048764
   2 H :    0.061333
   3 C :   -0.019261
   4 H :    0.068073
   5 C :    0.073354
   6 H :    0.064753
   7 C :    0.066662
   8 H :    0.072509
   9 C :    0.174310
  10 H :    0.050126
  11 O :   -0.307427
  12 O :   -0.402757
  13 O :   -0.405492
  14 O :   -0.415321
  15 O :   -0.416150
  16 O :   -0.425989
  17 H :    0.082389
  18 H :    0.050999
  19 H :    0.311389
  20 H :    0.304221
  21 H :    0.300778
  22 H :    0.309503
  23 H :    0.296305
Sum of atomic charges:    0.0000000

LOEWDIN ATOMIC CHARGES
----------------------
   0 C :   -0.141457
   1 C :   -0.078836
   2 H :    0.111647
   3 C :   -0.082793
   4 H :    0.108648
   5 C :   -0.058606
   6 H :    0.112081
   7 C :   -0.072225
   8 H :    0.114414
   9 C :   -0.009492
  10 H :    0.096214
  11 O :   -0.142784
  12 O :   -0.312944
  13 O :   -0.311261
  14 O :   -0.316825
  15 O :   -0.316786
  16 O :   -0.333516
  17 H :    0.111417
  18 H :    0.087728
  19 H :    0.290296
  20 H :    0.289700
  21 H :    0.281701
  22 H :    0.289733
  23 H :    0.283945

  Mayer bond orders larger than 0.100000
B(  0-C ,  1-C ) :   1.0425 B(  0-C , 16-O ) :   1.0874 B(  0-C , 17-H ) :   0.9020
B(  0-C , 18-H ) :   0.9117 B(  1-C ,  2-H ) :   0.8783 B(  1-C ,  3-C ) :   0.9564
B(  1-C , 11-O ) :   0.9983 B(  3-C ,  4-H ) :   0.8845 B(  3-C ,  5-C ) :   1.0288
B(  3-C , 15-O ) :   1.0642 B(  5-C ,  6-H ) :   0.8613 B(  5-C ,  7-C ) :   1.0373
B(  5-C , 14-O ) :   1.0991 B(  7-C ,  8-H ) :   0.8799 B(  7-C ,  9-C ) :   0.9765
B(  7-C , 13-O ) :   1.1110 B(  9-C , 10-H ) :   0.8934 B(  9-C , 11-O ) :   1.0866
B(  9-C , 12-O ) :   1.0926 B( 12-O , 19-H ) :   0.8317 B( 13-O , 20-H ) :   0.8490
B( 14-O , 21-H ) :   0.8348 B( 15-O , 22-H ) :   0.8435 B( 16-O , 23-H ) :   0.8519

Dispersion correction           -0.024411155
FINAL SINGLE POINT ENERGY      -685.688282877299

DIPOLE MOMENT
-------------

Method             : SCF
Type of density    : Electron Density
Multiplicity       :   1
Irrep              :   0
Energy             :  -685.8171805413867332 Eh
Relativity type    :
Basis              : AO
                                X                 Y                 Z
Electronic contribution:      2.304920223       0.073004924       1.352475168
Nuclear contribution   :     -2.943284425      -0.301018652      -1.665161071
                        -----------------------------------------
Total Dipole Moment    :     -0.638364203      -0.228013728      -0.312685904
                        -----------------------------------------
Magnitude (a.u.)       :      0.746506256
Magnitude (Debye)      :      1.897468108

Rotational constants in cm-1:             0.042652             0.026185             0.018682
Rotational constants in MHz :          1278.660816           785.004290           560.072935

                             ****ORCA TERMINATED NORMALLY****
TOTAL RUN TIME: 0 days 0 hours 0 minutes 11 seconds 956 msec
