                         Program Version 6.0.0  -   RELEASE  -
|  1> ! r2scan-3c def2/J RI DEFGRID2 scfconv6 printgap
|  2> %output
|  3>     printlevel normal
|  4> end
|  5> * xyz 0 1
|  6> C -2.4699942485 -0.4925834268 -0.5682090713
|  7> C -1.7547706483 0.1945349746 0.5904090293
|  8> C -0.4452169998 0.9026858004 0.2246536076
|  9> C 0.8279185707 0.0589381189 0.0055544692
| 10> C 0.7871508582 -0.7250702448 -1.3084221289
| 11> C 2.0085339987 1.038131112 -0.0620351739
| 12> C 1.0615981326 -0.9075769667 1.1687880201
| 13> H -3.4776567521 -0.7715154383 -0.2667577002
| 14> H -2.5423437368 0.1766405092 -1.4224125318
| 15> H -1.9554235672 -1.3951261777 -0.8820369275
| 16> H -2.4267651827 0.9604147956 0.987765099
| 17> H -1.5818337481 -0.5238224131 1.391980864
| 18> H -0.2252633758 1.5989962484 1.0388684334
| 19> H -0.616864993 1.5033605796 -0.6723729393
| 20> H 1.766706964 -1.1509917709 -1.516543906
| 21> H 0.0742248526 -1.5417418446 -1.2607626353
| 22> H 0.5150535404 -0.0749337519 -2.1364143852
| 23> H 2.1067744333 1.5888528619 0.8708161738
| 24> H 1.8652015665 1.753879054 -0.8684634933
| 25> H 2.9386403816 0.5034136984 -0.2407647523
| 26> H 2.0356219577 -1.3816171957 1.0686994787
| 27> H 1.034167804 -0.3778332196 2.1185109288
| 28> H 0.3083893042 -1.6909465324 1.1852418492
| 29> *
| 30>
| 31>                          ****END OF INPUT****

CARTESIAN COORDINATES (ANGSTROEM)
---------------------------------
  C     -2.469994   -0.492583   -0.568209
  C     -1.754771    0.194535    0.590409
  C     -0.445217    0.902686    0.224654
  C      0.827919    0.058938    0.005554
  C      0.787151   -0.725070   -1.308422
  C      2.008534    1.038131   -0.062035
  C      1.061598   -0.907577    1.168788
  H     -3.477657   -0.771515   -0.266758
  H     -2.542344    0.176641   -1.422413
  H     -1.955424   -1.395126   -0.882037
  H     -2.426765    0.960415    0.987765
  H     -1.581834   -0.523822    1.391981
  H     -0.225263    1.598996    1.038868
  H     -0.616865    1.503361   -0.672373
  H      1.766707   -1.150992   -1.516544
  H      0.074225   -1.541742   -1.260763
  H      0.515054   -0.074934   -2.136414
  H      2.106774    1.588853    0.870816
  H      1.865202    1.753879   -0.868463
  H      2.938640    0.503414   -0.240765
  H      2.035622   -1.381617    1.068699
  H      1.034168   -0.377833    2.118511
  H      0.308389   -1.690947    1.185242

 Total Charge           Charge          ....    0
 Multiplicity           Mult            ....    1
 Number of Electrons    NEL             ....   58
 Basis Dimension        Dim             ....  213

ORBITAL ENERGIES
----------------

  NO   OCC          E(Eh)            E(eV)
   0   2.0000     -10.038730      -273.1677
   1   2.0000     -10.021587      -272.7012
   2   2.0000     -10.018503      -272.6173
   3   2.0000     -10.012625      -272.4574
   4   2.0000     -10.012085      -272.4427
   5   2.0000     -10.011068      -272.4150
   6   2.0000     -10.010518      -272.4000
   7   2.0000      -0.791477       -21.5372
   8   2.0000      -0.731127       -19.8950
   9   2.0000      -0.651679       -17.7331
  10   2.0000      -0.649647       -17.6778
  11   2.0000      -0.640393       -17.4260
  12   2.0000      -0.556639       -15.1469
  13   2.0000      -0.491448       -13.3730
  14   2.0000      -0.436110       -11.8672
  15   2.0000      -0.423413       -11.5217
  16   2.0000      -0.410763       -11.1774
  17   2.0000      -0.389012       -10.5856
  18   2.0000      -0.385043       -10.4776
  19   2.0000      -0.366525        -9.9737
  20   2.0000      -0.349198        -9.5022
  21   2.0000      -0.344597        -9.3770
  22   2.0000      -0.332126        -9.0376
  23   2.0000      -0.319607        -8.6970
  24   2.0000      -0.306766        -8.3475
  25   2.0000      -0.304309        -8.2807
  26   2.0000      -0.284039        -7.7291
  27   2.0000      -0.276866        -7.5339
  28   2.0000      -0.268834        -7.3154
  29   0.0000       0.075357         2.0506
  30   0.0000       0.108454         2.9512
  31   0.0000       0.112828         3.0702
  32   0.0000       0.122398         3.3306
  33   0.0000       0.127872         3.4796

MULLIKEN ATOMIC CHARGES
-----------------------
   0 C :   -0.470014
   1 C :   -0.263395
   2 C :   -0.281002
   3 C :    0.154114
   4 C :   -0.516844
   5 C :   -0.483305
   6 C :   -0.521472
   7 H :    0.143773
   8 H :    0.145896
   9 H :    0.137283
  10 H :    0.138511
  11 H :    0.147506
  12 H :    0.144924
  13 H :    0.149961
  14 H :    0.148566
  15 H :    0.146566
  16 H :    0.156918
  17 H :    0.152567
  18 H :    0.151990
  19 H :    0.153104
  20 H :    0.151290
  21 H :    0.156272
  22 H :    0.156790
Sum of atomic charges:   -0.0000000

LOEWDIN ATOMIC CHARGES
----------------------
   0 C :   -0.425215
   1 C :   -0.312497
   2 C :   -0.299410
   3 C :   -0.211662
   4 C :   -0.406165
   5 C :   -0.410584
   6 C :   -0.409245
   7 H :    0.149473
   8 H :    0.150166
   9 H :    0.146406
  10 H :    0.152730
  11 H :    0.154275
  12 H :    0.161320
  13 H :    0.159378
  14 H :    0.155570
  15 H :    0.153150
  16 H :    0.157074
  17 H :    0.155132
  18 H :    0.157006
  19 H :    0.153905
  20 H :    0.157385
  21 H :    0.157718
  22 H :    0.154090

  Mayer bond orders larger than 0.100000
B(  0-C ,  1-C ) :   0.8950 B(  0-C ,  7-H ) :   0.9718 B(  0-C ,  8-H ) :   0.9857
B(  0-C ,  9-H ) :   0.9767 B(  1-C ,  2-C ) :   0.9084 B(  1-C , 10-H ) :   0.9684
B(  1-C , 11-H ) :   0.9813 B(  2-C ,  3-C ) :   0.8823 B(  2-C , 12-H ) :   0.9715
B(  2-C , 13-H ) :   0.9845 B(  3-C ,  4-C ) :   0.9252 B(  3-C ,  5-C ) :   0.9292
B(  3-C ,  6-C ) :   0.9148 B(  4-C , 14-H ) :   0.9734 B(  4-C , 15-H ) :   0.9725
B(  4-C , 16-H ) :   0.9754 B(  5-C , 17-H ) :   0.9774 B(  5-C , 18-H ) :   0.9765
B(  5-C , 19-H ) :   0.9796 B(  6-C , 20-H ) :   0.9723 B(  6-C , 21-H ) :   0.9744
B(  6-C , 22-H ) :   0.9761

Dispersion correction           -0.006679999
FINAL SINGLE POINT ENERGY      -276.285424455532

DIPOLE MOMENT
-------------

Method             : SCF
Type of density    : Electron Density
Multiplicity       :   1
Irrep              :   0
Energy             :  -276.2901592294189754 Eh
Relativity type    :
Basis              : AO
                                X                 Y                 Z
Electronic contribution:      0.147640125       0.794419176       0.596750905
Nuclear contribution   :     -0.170154857      -0.772079277      -0.567255976
                        -----------------------------------------
Total Dipole Moment    :     -0.022514732       0.022339899       0.029494928
                        -----------------------------------------
Magnitude (a.u.)       :      0.043312066
Magnitude (Debye)      :      0.110090522

Rotational constants in cm-1:             0.125861             0.054454             0.052252
Rotational constants in MHz :          3773.203739          1632.475098          1566.470376

                             ****ORCA TERMINATED NORMALLY****
TOTAL RUN TIME: 0 days 0 hours 0 minutes 17 seconds 869 msec
