                         Program Version 6.0.0  -   RELEASE  -
|  1> ! r2scan-3c def2/J RI DEFGRID2 scfconv6 printgap
|  2> %output
|  3>     printlevel normal
|  4> end
|  5> %cpcm
|  6>     smd true
|  7>     smdsolvent "water"
|  8> end
|  9> * xyz 0 1
| 10> C -2.4699942485 -0.4925834268 -0.5682090713
| 11> C -1.7547706483 0.1945349746 0.5904090293
| 12> C -0.4452169998 0.9026858004 0.2246536076
| 13> C 0.8279185707 0.0589381189 0.0055544692
| 14> C 0.7871508582 -0.7250702448 -1.3084221289
| 15> C 2.0085339987 1.038131112 -0.0620351739
| 16> C 1.0615981326 -0.9075769667 1.1687880201
| 17> H -3.4776567521 -0.7715154383 -0.2667577002
| 18> H -2.5423437368 0.1766405092 -1.4224125318
| 19> H -1.9554235672 -1.3951261777 -0.8820369275
| 20> H -2.4267651827 0.9604147956 0.987765099
| 21> H -1.5818337481 -0.5238224131 1.391980864
| 22> H -0.2252633758 1.5989962484 1.0388684334
| 23> H -0.616864993 1.5033605796 -0.6723729393
| 24> H 1.766706964 -1.1509917709 -1.516543906
| 25> H 0.0742248526 -1.5417418446 -1.2607626353
| 26> H 0.5150535404 -0.0749337519 -2.1364143852
| 27> H 2.1067744333 1.5888528619 0.8708161738
| 28> H 1.8652015665 1.753879054 -0.8684634933
| 29> H 2.9386403816 0.5034136984 -0.2407647523
| 30> H 2.0356219577 -1.3816171957 1.0686994787
| 31> H 1.034167804 -0.3778332196 2.1185109288
| 32> H 0.3083893042 -1.6909465324 1.1852418492
| 33> *
| 34>
| 35>                          ****END OF INPUT****

CARTESIAN COORDINATES (ANGSTROEM)
---------------------------------
  C     -2.469994   -0.492583   -0.568209
  C     -1.754771    0.194535    0.590409
  C     -0.445217    0.902686    0.224654
  C      0.827919    0.058938    0.005554
  C      0.787151   -0.725070   -1.308422
  C      2.008534    1.038131   -0.062035
  C      1.061598   -0.907577    1.168788
  H     -3.477657   -0.771515   -0.266758
  H     -2.542344    0.176641   -1.422413
  H     -1.955424   -1.395126   -0.882037
  H     -2.426765    0.960415    0.987765
  H     -1.581834   -0.523822    1.391981
  H     -0.225263    1.598996    1.038868
  H     -0.616865    1.503361   -0.672373
  H      1.766707   -1.150992   -1.516544
  H      0.074225   -1.541742   -1.260763
  H      0.515054   -0.074934   -2.136414
  H      2.106774    1.588853    0.870816
  H      1.865202    1.753879   -0.868463
  H      2.938640    0.503414   -0.240765
  H      2.035622   -1.381617    1.068699
  H      1.034168   -0.377833    2.118511
  H      0.308389   -1.690947    1.185242

 Total Charge           Charge          ....    0
 Multiplicity           Mult            ....    1
 Number of Electrons    NEL             ....   58
 Basis Dimension        Dim             ....  213

ORBITAL ENERGIES
----------------

  NO   OCC          E(Eh)            E(eV)
   0   2.0000     -10.031375      -272.9676
   1   2.0000     -10.013879      -272.4915
   2   2.0000     -10.010228      -272.3921
   3   2.0000     -10.005073      -272.2519
   4   2.0000     -10.003704      -272.2146
   5   2.0000     -10.003376      -272.2057
   6   2.0000     -10.002477      -272.1812
   7   2.0000      -0.783663       -21.3245
   8   2.0000      -0.723698       -19.6928
   9   2.0000      -0.644338       -17.5333
  10   2.0000      -0.642097       -17.4724
  11   2.0000      -0.633195       -17.2301
  12   2.0000      -0.549423       -14.9506
  13   2.0000      -0.484157       -13.1746
  14   2.0000      -0.428154       -11.6507
  15   2.0000      -0.415660       -11.3107
  16   2.0000      -0.403113       -10.9692
  17   2.0000      -0.381431       -10.3793
  18   2.0000      -0.377359       -10.2685
  19   2.0000      -0.358876        -9.7655
  20   2.0000      -0.341809        -9.3011
  21   2.0000      -0.336997        -9.1702
  22   2.0000      -0.324247        -8.8232
  23   2.0000      -0.311733        -8.4827
  24   2.0000      -0.299149        -8.1403
  25   2.0000      -0.296749        -8.0750
  26   2.0000      -0.276252        -7.5172
  27   2.0000      -0.269263        -7.3270
  28   2.0000      -0.261108        -7.1051
  29   0.0000       0.084127         2.2892
  30   0.0000       0.116146         3.1605
  31   0.0000       0.120772         3.2864
  32   0.0000       0.128502         3.4967
  33   0.0000       0.134460         3.6589

MULLIKEN ATOMIC CHARGES
-----------------------
   0 C :   -0.515912
   1 C :   -0.270252
   2 C :   -0.303947
   3 C :    0.212025
   4 C :   -0.573368
   5 C :   -0.534839
   6 C :   -0.568333
   7 H :    0.152577
   8 H :    0.156683
   9 H :    0.152822
  10 H :    0.146169
  11 H :    0.154042
  12 H :    0.153071
  13 H :    0.159949
  14 H :    0.159689
  15 H :    0.162687
  16 H :    0.167902
  17 H :    0.164050
  18 H :    0.162275
  19 H :    0.165202
  20 H :    0.162128
  21 H :    0.166210
  22 H :    0.169169
Sum of atomic charges:   -0.0000000

LOEWDIN ATOMIC CHARGES
----------------------
   0 C :   -0.434402
   1 C :   -0.314726
   2 C :   -0.302375
   3 C :   -0.206652
   4 C :   -0.415598
   5 C :   -0.419776
   6 C :   -0.417496
   7 H :    0.151163
   8 H :    0.152245
   9 H :    0.150020
  10 H :    0.154156
  11 H :    0.156031
  12 H :    0.163015
  13 H :    0.161725
  14 H :    0.157670
  15 H :    0.156769
  16 H :    0.158999
  17 H :    0.157455
  18 H :    0.158787
  19 H :    0.156579
  20 H :    0.159279
  21 H :    0.159810
  22 H :    0.157324

  Mayer bond orders larger than 0.100000
B(  0-C ,  1-C ) :   0.8813 B(  0-C ,  7-H ) :   0.9696 B(  0-C ,  8-H ) :   0.9832
B(  0-C ,  9-H ) :   0.9759 B(  1-C ,  2-C ) :   0.9078 B(  1-C , 10-H ) :   0.9696
B(  1-C , 11-H ) :   0.9807 B(  2-C ,  3-C ) :   0.8764 B(  2-C , 12-H ) :   0.9723
B(  2-C , 13-H ) :   0.9837 B(  3-C ,  4-C ) :   0.9082 B(  3-C ,  5-C ) :   0.9119
B(  3-C ,  6-C ) :   0.9047 B(  4-C , 14-H ) :   0.9728 B(  4-C , 15-H ) :   0.9713
B(  4-C , 16-H ) :   0.9740 B(  5-C , 17-H ) :   0.9763 B(  5-C , 18-H ) :   0.9758
B(  5-C , 19-H ) :   0.9779 B(  6-C , 20-H ) :   0.9720 B(  6-C , 21-H ) :   0.9727
B(  6-C , 22-H ) :   0.9729

Dispersion correction           -0.006679999
FINAL SINGLE POINT ENERGY      -276.281973546640

DIPOLE MOMENT
-------------

Method             : SCF
Type of density    : Electron Density
Multiplicity       :   1
Irrep              :   0
Energy             :  -276.2867083205272820 Eh
Relativity type    :
Basis              : AO
                                X                 Y                 Z
Electronic contribution:      0.141986555       0.788770527       0.607405416
Nuclear contribution   :     -0.170154857      -0.772079277      -0.567255976
                        -----------------------------------------
Total Dipole Moment    :     -0.028168302       0.016691249       0.040149440
                        -----------------------------------------
Magnitude (a.u.)       :      0.051807611
Magnitude (Debye)      :      0.131684483

Rotational constants in cm-1:             0.125861             0.054454             0.052252
Rotational constants in MHz :          3773.203739          1632.475098          1566.470376

                             ****ORCA TERMINATED NORMALLY****
TOTAL RUN TIME: 0 days 0 hours 0 minutes 21 seconds 885 msec
