                         Program Version 6.0.0  -   RELEASE  -
|  1> ! wb97x-v def2-tzvp def2/J RIJCOSX DEFGRID2 scfconv7 GCP(DFT/TZ) printgap
|  2> %output
|  3>     printlevel normal
|  4> end
|  5> * xyz 0 1
|  6> C -1.8950824504628245 -0.01141618498826826 0.30649646472987574
|  7> C -1.1817838350219592 -1.2664443393871778 -0.20044461410870362
|  8> C 0.3012807735914141 -1.2521843201683656 0.18196489835917434
|  9> C 0.9767091657374399 0.007066102756533008 -0.33647206807578195
| 10> C 0.2781882196197386 1.2586097627286086 0.18235445691965707
| 11> C -1.203725493456969 1.253590348928944 -0.20544105897409515
| 12> O 2.3601423787411364 -0.03617795045254863 0.08515561467036571
| 13> H -1.883474604642317 -0.008745597555775983 1.4052720984705638
| 14> H -2.9461014025726304 -0.021921067466908157 -0.004270447385355838
| 15> H -1.658653030926284 -2.167437380678682 0.20082527969283726
| 16> H -1.2735524292438576 -1.3166953306590075 -1.294071629140449
| 17> H 0.40107257260536505 -1.2755450730000462 1.2760721768830645
| 18> H 0.8125275252099995 -2.1363628713611096 -0.21633620607305473
| 19> H 0.937968680350885 0.0058359409334821696 -1.4380821127209138
| 20> H 0.3747905481252159 1.2810339513172082 1.2767186640180583
| 21> H 0.7792332054361714 2.151127662223759 -0.21359172226712042
| 22> H -1.6957661550016676 2.1487747804581896 0.19073304905478144
| 23> H -1.2931705305278351 1.2975875839527582 -1.2995839419503046
| 24> H 2.7792126541069053 0.7767905040028081 -0.2264911208417918
| 25> *
| 26>
| 27>                          ****END OF INPUT****

CARTESIAN COORDINATES (ANGSTROEM)
---------------------------------
  C     -1.895082   -0.011416    0.306496
  C     -1.181784   -1.266444   -0.200445
  C      0.301281   -1.252184    0.181965
  C      0.976709    0.007066   -0.336472
  C      0.278188    1.258610    0.182354
  C     -1.203725    1.253590   -0.205441
  O      2.360142   -0.036178    0.085156
  H     -1.883475   -0.008746    1.405272
  H     -2.946101   -0.021921   -0.004270
  H     -1.658653   -2.167437    0.200825
  H     -1.273552   -1.316695   -1.294072
  H      0.401073   -1.275545    1.276072
  H      0.812528   -2.136363   -0.216336
  H      0.937969    0.005836   -1.438082
  H      0.374791    1.281034    1.276719
  H      0.779233    2.151128   -0.213592
  H     -1.695766    2.148775    0.190733
  H     -1.293171    1.297588   -1.299584
  H      2.779213    0.776791   -0.226491

 Total Charge           Charge          ....    0
 Multiplicity           Mult            ....    1
 Number of Electrons    NEL             ....   56
 Basis Dimension        Dim             ....  289

ORBITAL ENERGIES
----------------

  NO   OCC          E(Eh)            E(eV)
   0   2.0000     -21.664194      -589.5127
   1   2.0000     -12.091199      -329.0182
   2   2.0000     -12.043576      -327.7224
   3   2.0000     -12.041183      -327.6573
   4   2.0000     -12.040606      -327.6415
   5   2.0000     -12.039826      -327.6203
   6   2.0000     -12.035364      -327.4989
   7   2.0000      -1.662125       -45.2287
   8   2.0000      -1.341168       -36.4950
   9   2.0000      -1.252934       -34.0941
  10   2.0000      -1.250918       -34.0392
  11   2.0000      -1.118110       -30.4253
  12   2.0000      -1.101507       -29.9735
  13   2.0000      -1.031570       -28.0704
  14   2.0000      -1.010527       -27.4978
  15   2.0000      -0.946148       -25.7460
  16   2.0000      -0.926550       -25.2127
  17   2.0000      -0.891468       -24.2581
  18   2.0000      -0.871547       -23.7160
  19   2.0000      -0.864531       -23.5251
  20   2.0000      -0.844718       -22.9859
  21   2.0000      -0.833981       -22.6938
  22   2.0000      -0.821590       -22.3566
  23   2.0000      -0.783016       -21.3069
  24   2.0000      -0.777116       -21.1464
  25   2.0000      -0.765548       -20.8316
  26   2.0000      -0.751116       -20.4389
  27   2.0000      -0.735408       -20.0115
  28   0.0000      -0.151470        -4.1217
  29   0.0000      -0.052524        -1.4293
  30   0.0000      -0.024826        -0.6755
  31   0.0000      -0.019581        -0.5328
  32   0.0000      -0.012379        -0.3368

MULLIKEN ATOMIC CHARGES
-----------------------
   0 C :   -0.181816
   1 C :   -0.198388
   2 C :   -0.166032
   3 C :    0.067642
   4 C :   -0.215158
   5 C :   -0.194783
   6 O :   -0.436856
   7 H :    0.089411
   8 H :    0.102000
   9 H :    0.103058
  10 H :    0.091218
  11 H :    0.093529
  12 H :    0.106613
  13 H :    0.064303
  14 H :    0.101896
  15 H :    0.088434
  16 H :    0.102146
  17 H :    0.090538
  18 H :    0.292245
Sum of atomic charges:   -0.0000000

LOEWDIN ATOMIC CHARGES
----------------------
   0 C :   -0.260584
   1 C :   -0.257099
   2 C :   -0.235595
   3 C :   -0.337706
   4 C :   -0.249045
   5 C :   -0.257331
   6 O :   -0.037367
   7 H :    0.134191
   8 H :    0.131182
   9 H :    0.132154
  10 H :    0.133408
  11 H :    0.139257
  12 H :    0.136432
  13 H :    0.131094
  14 H :    0.138884
  15 H :    0.128649
  16 H :    0.131717
  17 H :    0.133550
  18 H :    0.164210

  Mayer bond orders larger than 0.100000
B(  0-C ,  1-C ) :   0.9843 B(  0-C ,  5-C ) :   0.9911 B(  0-C ,  7-H ) :   0.9742
B(  0-C ,  8-H ) :   0.9742 B(  1-C ,  2-C ) :   0.9737 B(  1-C ,  9-H ) :   0.9744
B(  1-C , 10-H ) :   0.9763 B(  2-C ,  3-C ) :   0.9746 B(  2-C , 11-H ) :   0.9697
B(  2-C , 12-H ) :   0.9730 B(  3-C ,  4-C ) :   0.9711 B(  3-C ,  6-O ) :   1.0839
B(  3-C , 13-H ) :   0.9863 B(  4-C ,  5-C ) :   0.9770 B(  4-C , 14-H ) :   0.9710
B(  4-C , 15-H ) :   0.9697 B(  5-C , 16-H ) :   0.9712 B(  5-C , 17-H ) :   0.9751
B(  6-O , 18-H ) :   0.9072

FINAL SINGLE POINT ENERGY      -311.115291208656

DIPOLE MOMENT
-------------

Method             : SCF
Type of density    : Electron Density
Multiplicity       :   1
Irrep              :   0
Energy             :  -311.1286442344558623 Eh
Relativity type    :
Basis              : AO
                                X                 Y                 Z
Electronic contribution:      3.983275897      -0.225925996       0.036129168
Nuclear contribution   :     -4.380107018       0.684895500      -0.338086781
                        -----------------------------------------
Total Dipole Moment    :     -0.396831120       0.458969504      -0.301957613
                        -----------------------------------------
Magnitude (a.u.)       :      0.677721435
Magnitude (Debye)      :      1.722630988

Rotational constants in cm-1:             0.143635             0.074313             0.053768
Rotational constants in MHz :          4306.070102          2227.859353          1611.929269

                             ****ORCA TERMINATED NORMALLY****
TOTAL RUN TIME: 0 days 0 hours 2 minutes 31 seconds 859 msec
