                         Program Version 6.0.0  -   RELEASE  -
|  1> ! wb97x-v def2-tzvp def2/J RIJCOSX DEFGRID2 scfconv7 GCP(DFT/TZ) printgap
|  2> %output
|  3>     printlevel normal
|  4> end
|  5> %cpcm
|  6>     smd true
|  7>     smdsolvent "water"
|  8> end
|  9> * xyz 0 1
| 10> C -1.8950824504628245 -0.01141618498826826 0.30649646472987574
| 11> C -1.1817838350219592 -1.2664443393871778 -0.20044461410870362
| 12> C 0.3012807735914141 -1.2521843201683656 0.18196489835917434
| 13> C 0.9767091657374399 0.007066102756533008 -0.33647206807578195
| 14> C 0.2781882196197386 1.2586097627286086 0.18235445691965707
| 15> C -1.203725493456969 1.253590348928944 -0.20544105897409515
| 16> O 2.3601423787411364 -0.03617795045254863 0.08515561467036571
| 17> H -1.883474604642317 -0.008745597555775983 1.4052720984705638
| 18> H -2.9461014025726304 -0.021921067466908157 -0.004270447385355838
| 19> H -1.658653030926284 -2.167437380678682 0.20082527969283726
| 20> H -1.2735524292438576 -1.3166953306590075 -1.294071629140449
| 21> H 0.40107257260536505 -1.2755450730000462 1.2760721768830645
| 22> H 0.8125275252099995 -2.1363628713611096 -0.21633620607305473
| 23> H 0.937968680350885 0.0058359409334821696 -1.4380821127209138
| 24> H 0.3747905481252159 1.2810339513172082 1.2767186640180583
| 25> H 0.7792332054361714 2.151127662223759 -0.21359172226712042
| 26> H -1.6957661550016676 2.1487747804581896 0.19073304905478144
| 27> H -1.2931705305278351 1.2975875839527582 -1.2995839419503046
| 28> H 2.7792126541069053 0.7767905040028081 -0.2264911208417918
| 29> *
| 30>
| 31>                          ****END OF INPUT****

CARTESIAN COORDINATES (ANGSTROEM)
---------------------------------
  C     -1.895082   -0.011416    0.306496
  C     -1.181784   -1.266444   -0.200445
  C      0.301281   -1.252184    0.181965
  C      0.976709    0.007066   -0.336472
  C      0.278188    1.258610    0.182354
  C     -1.203725    1.253590   -0.205441
  O      2.360142   -0.036178    0.085156
  H     -1.883475   -0.008746    1.405272
  H     -2.946101   -0.021921   -0.004270
  H     -1.658653   -2.167437    0.200825
  H     -1.273552   -1.316695   -1.294072
  H      0.401073   -1.275545    1.276072
  H      0.812528   -2.136363   -0.216336
  H      0.937969    0.005836   -1.438082
  H      0.374791    1.281034    1.276719
  H      0.779233    2.151128   -0.213592
  H     -1.695766    2.148775    0.190733
  H     -1.293171    1.297588   -1.299584
  H      2.779213    0.776791   -0.226491

 Total Charge           Charge          ....    0
 Multiplicity           Mult            ....    1
 Number of Electrons    NEL             ....   56
 Basis Dimension        Dim             ....  289

ORBITAL ENERGIES
----------------

  NO   OCC          E(Eh)            E(eV)
   0   2.0000     -21.669349      -589.6530
   1   2.0000     -12.085964      -328.8758
   2   2.0000     -12.031994      -327.4072
   3   2.0000     -12.031898      -327.4046
   4   2.0000     -12.030210      -327.3587
   5   2.0000     -12.029984      -327.3525
   6   2.0000     -12.029018      -327.3262
   7   2.0000      -1.667638       -45.3787
   8   2.0000      -1.332903       -36.2701
   9   2.0000      -1.246030       -33.9062
  10   2.0000      -1.241894       -33.7936
  11   2.0000      -1.114027       -30.3142
  12   2.0000      -1.093872       -29.7658
  13   2.0000      -1.028159       -27.9776
  14   2.0000      -1.007784       -27.4232
  15   2.0000      -0.949476       -25.8366
  16   2.0000      -0.927457       -25.2374
  17   2.0000      -0.884467       -24.0676
  18   2.0000      -0.862616       -23.4730
  19   2.0000      -0.856715       -23.3124
  20   2.0000      -0.837884       -22.8000
  21   2.0000      -0.827764       -22.5246
  22   2.0000      -0.812522       -22.1098
  23   2.0000      -0.775025       -21.0895
  24   2.0000      -0.767901       -20.8956
  25   2.0000      -0.756347       -20.5813
  26   2.0000      -0.742417       -20.2022
  27   2.0000      -0.726418       -19.7668
  28   0.0000      -0.147880        -4.0240
  29   0.0000      -0.034129        -0.9287
  30   0.0000      -0.015587        -0.4241
  31   0.0000      -0.011645        -0.3169
  32   0.0000      -0.002312        -0.0629

MULLIKEN ATOMIC CHARGES
-----------------------
   0 C :   -0.205354
   1 C :   -0.219588
   2 C :   -0.177265
   3 C :    0.065005
   4 C :   -0.220463
   5 C :   -0.215688
   6 O :   -0.550743
   7 H :    0.098993
   8 H :    0.114183
   9 H :    0.115227
  10 H :    0.104511
  11 H :    0.099471
  12 H :    0.113772
  13 H :    0.085768
  14 H :    0.100334
  15 H :    0.117609
  16 H :    0.114549
  17 H :    0.103904
  18 H :    0.355776
Sum of atomic charges:   -0.0000000

LOEWDIN ATOMIC CHARGES
----------------------
   0 C :   -0.262827
   1 C :   -0.257463
   2 C :   -0.244018
   3 C :   -0.334861
   4 C :   -0.247572
   5 C :   -0.257942
   6 O :   -0.080437
   7 H :    0.135987
   8 H :    0.133082
   9 H :    0.134138
  10 H :    0.137011
  11 H :    0.138914
  12 H :    0.135500
  13 H :    0.138598
  14 H :    0.138476
  15 H :    0.136214
  16 H :    0.133984
  17 H :    0.137005
  18 H :    0.186211

  Mayer bond orders larger than 0.100000
B(  0-C ,  1-C ) :   0.9880 B(  0-C ,  5-C ) :   0.9902 B(  0-C ,  7-H ) :   0.9731
B(  0-C ,  8-H ) :   0.9719 B(  1-C ,  2-C ) :   0.9795 B(  1-C ,  9-H ) :   0.9708
B(  1-C , 10-H ) :   0.9746 B(  2-C ,  3-C ) :   0.9812 B(  2-C , 11-H ) :   0.9617
B(  2-C , 12-H ) :   0.9670 B(  3-C ,  4-C ) :   0.9888 B(  3-C ,  6-O ) :   1.0382
B(  3-C , 13-H ) :   0.9906 B(  4-C ,  5-C ) :   0.9759 B(  4-C , 14-H ) :   0.9626
B(  4-C , 15-H ) :   0.9684 B(  5-C , 16-H ) :   0.9688 B(  5-C , 17-H ) :   0.9732
B(  6-O , 18-H ) :   0.8708

FINAL SINGLE POINT ENERGY      -311.123477080730

DIPOLE MOMENT
-------------

Method             : SCF
Type of density    : Electron Density
Multiplicity       :   1
Irrep              :   0
Energy             :  -311.1368301065299988 Eh
Relativity type    :
Basis              : AO
                                X                 Y                 Z
Electronic contribution:      3.834887887      -0.013489030      -0.134139176
Nuclear contribution   :     -4.380107018       0.684895500      -0.338086781
                        -----------------------------------------
Total Dipole Moment    :     -0.545219131       0.671406470      -0.472225957
                        -----------------------------------------
Magnitude (a.u.)       :      0.985417628
Magnitude (Debye)      :      2.504732557

Rotational constants in cm-1:             0.143635             0.074313             0.053768
Rotational constants in MHz :          4306.070102          2227.859353          1611.929269

                             ****ORCA TERMINATED NORMALLY****
TOTAL RUN TIME: 0 days 0 hours 2 minutes 53 seconds 395 msec
