                         Program Version 6.0.0  -   RELEASE  -
|  1> ! pbe def2-sv(p) def2/J RI DEFGRID1 loosescf d4 GCP(DFT/SV(P)) printgap
|  2> %output
|  3>     printlevel normal
|  4> end
|  5> * xyz 0 1
|  6> C -2.1223139715 -0.8965637563 -0.3471821282
|  7> C -1.2050770194 -0.3478908291 0.7648175773
|  8> H -1.7927331732 -0.409314893 1.6897042377
|  9> C -0.7722487565 1.119133409 0.5832975086
| 10> H -1.6304454326 1.6965648321 0.211202628
| 11> C 0.388682366 1.3010972298 -0.4134546454
| 12> H 0.8205831455 2.2927092146 -0.2187996955
| 13> C 1.5143012797 0.2871245881 -0.1097453627
| 14> H 2.163640468 0.2139081778 -0.9888111505
| 15> C 1.0255241892 -1.1413392925 0.2144569708
| 16> H 1.8194827844 -1.6128084948 0.8100932761
| 17> O -0.0964552529 -1.1984908682 1.0553070741
| 18> O 0.8210796032 -1.854976481 -0.9760302002
| 19> O 2.3179895177 0.7519694882 0.9477133456
| 20> O -0.0135869848 1.3316196301 -1.7501908689
| 21> O -0.3053858144 1.6465804172 1.8080376331
| 22> O -1.6011085701 -0.8590341555 -1.6532811342
| 23> H -3.0322669364 -0.2934145823 -0.3693979097
| 24> H -2.3865232175 -1.9262198968 -0.0775830457
| 25> H 0.8704185179 -2.8084837999 -0.8074837233
| 26> H 1.7375292424 1.0402140198 1.6726802656
| 27> H -0.6337981877 0.5896245581 -1.9308972294
| 28> H -1.0213621163 1.67243086 2.4589990035
| 29> H -0.7773895263 -1.3928737067 -1.6749549884
| 30> *
| 31>
| 32>                          ****END OF INPUT****

CARTESIAN COORDINATES (ANGSTROEM)
---------------------------------
  C     -2.122314   -0.896564   -0.347182
  C     -1.205077   -0.347891    0.764818
  H     -1.792733   -0.409315    1.689704
  C     -0.772249    1.119133    0.583298
  H     -1.630445    1.696565    0.211203
  C      0.388682    1.301097   -0.413455
  H      0.820583    2.292709   -0.218800
  C      1.514301    0.287125   -0.109745
  H      2.163640    0.213908   -0.988811
  C      1.025524   -1.141339    0.214457
  H      1.819483   -1.612808    0.810093
  O     -0.096455   -1.198491    1.055307
  O      0.821080   -1.854976   -0.976030
  O      2.317990    0.751969    0.947713
  O     -0.013587    1.331620   -1.750191
  O     -0.305386    1.646580    1.808038
  O     -1.601109   -0.859034   -1.653281
  H     -3.032267   -0.293415   -0.369398
  H     -2.386523   -1.926220   -0.077583
  H      0.870419   -2.808484   -0.807484
  H      1.737529    1.040214    1.672680
  H     -0.633798    0.589625   -1.930897
  H     -1.021362    1.672431    2.458999
  H     -0.777390   -1.392874   -1.674955

 Total Charge           Charge          ....    0
 Multiplicity           Mult            ....    1
 Number of Electrons    NEL             ....   96
 Basis Dimension        Dim             ....  192

ORBITAL ENERGIES
----------------

  NO   OCC          E(Eh)            E(eV)
   0   2.0000     -18.794424      -511.4223
   1   2.0000     -18.775364      -510.9036
   2   2.0000     -18.773938      -510.8648
   3   2.0000     -18.766536      -510.6634
   4   2.0000     -18.737535      -509.8742
   5   2.0000     -18.725670      -509.5514
   6   2.0000      -9.992558      -271.9113
   7   2.0000      -9.957761      -270.9645
   8   2.0000      -9.953425      -270.8465
   9   2.0000      -9.948676      -270.7172
  10   2.0000      -9.934931      -270.3432
  11   2.0000      -9.933320      -270.2994
  12   2.0000      -0.995600       -27.0916
  13   2.0000      -0.952847       -25.9283
  14   2.0000      -0.940981       -25.6054
  15   2.0000      -0.928271       -25.2595
  16   2.0000      -0.917782       -24.9741
  17   2.0000      -0.902781       -24.5659
  18   2.0000      -0.711614       -19.3640
  19   2.0000      -0.683474       -18.5983
  20   2.0000      -0.633997       -17.2519
  21   2.0000      -0.590569       -16.0702
  22   2.0000      -0.583446       -15.8764
  23   2.0000      -0.528343       -14.3770
  24   2.0000      -0.504055       -13.7160
  25   2.0000      -0.488979       -13.3058
  26   2.0000      -0.478803       -13.0289
  27   2.0000      -0.474444       -12.9103
  28   2.0000      -0.442174       -12.0322
  29   2.0000      -0.434487       -11.8230
  30   2.0000      -0.425484       -11.5780
  31   2.0000      -0.403895       -10.9905
  32   2.0000      -0.400577       -10.9002
  33   2.0000      -0.380294       -10.3483
  34   2.0000      -0.362224        -9.8566
  35   2.0000      -0.356491        -9.7006
  36   2.0000      -0.340938        -9.2774
  37   2.0000      -0.327289        -8.9060
  38   2.0000      -0.307616        -8.3707
  39   2.0000      -0.294694        -8.0190
  40   2.0000      -0.285087        -7.7576
  41   2.0000      -0.278908        -7.5895
  42   2.0000      -0.264571        -7.1993
  43   2.0000      -0.247405        -6.7322
  44   2.0000      -0.241000        -6.5579
  45   2.0000      -0.227227        -6.1832
  46   2.0000      -0.219444        -5.9714
  47   2.0000      -0.193987        -5.2787
  48   0.0000       0.000658         0.0179
  49   0.0000       0.004882         0.1328
  50   0.0000       0.038241         1.0406
  51   0.0000       0.064522         1.7557
  52   0.0000       0.065706         1.7879

MULLIKEN ATOMIC CHARGES
-----------------------
   0 C :    0.034851
   1 C :    0.029743
   2 H :    0.058377
   3 C :    0.023176
   4 H :    0.074291
   5 C :    0.045912
   6 H :    0.084807
   7 C :    0.067747
   8 H :    0.083845
   9 C :    0.157591
  10 H :    0.078919
  11 O :   -0.310743
  12 O :   -0.406647
  13 O :   -0.433089
  14 O :   -0.420999
  15 O :   -0.421165
  16 O :   -0.443640
  17 H :    0.091835
  18 H :    0.085879
  19 H :    0.318228
  20 H :    0.303185
  21 H :    0.284209
  22 H :    0.306460
  23 H :    0.307229
Sum of atomic charges:    0.0000000

LOEWDIN ATOMIC CHARGES
----------------------
   0 C :   -0.134585
   1 C :   -0.080972
   2 H :    0.116361
   3 C :   -0.075230
   4 H :    0.109072
   5 C :   -0.072397
   6 H :    0.121734
   7 C :   -0.078469
   8 H :    0.124608
   9 C :   -0.014692
  10 H :    0.109703
  11 O :   -0.147973
  12 O :   -0.302482
  13 O :   -0.318733
  14 O :   -0.330585
  15 O :   -0.312025
  16 O :   -0.332873
  17 H :    0.120134
  18 H :    0.107032
  19 H :    0.295397
  20 H :    0.274769
  21 H :    0.263705
  22 H :    0.288782
  23 H :    0.269716

  Mayer bond orders larger than 0.100000
B(  0-C ,  1-C ) :   1.0311 B(  0-C , 16-O ) :   1.0623 B(  0-C , 17-H ) :   0.9177
B(  0-C , 18-H ) :   0.9133 B(  1-C ,  2-H ) :   0.8817 B(  1-C ,  3-C ) :   0.9766
B(  1-C , 11-O ) :   0.9991 B(  3-C ,  4-H ) :   0.8991 B(  3-C ,  5-C ) :   0.9891
B(  3-C , 15-O ) :   1.0132 B(  5-C ,  6-H ) :   0.8966 B(  5-C ,  7-C ) :   0.9759
B(  5-C , 14-O ) :   1.1183 B(  7-C ,  8-H ) :   0.8863 B(  7-C ,  9-C ) :   0.9779
B(  7-C , 13-O ) :   1.0473 B(  9-C , 10-H ) :   0.9012 B(  9-C , 11-O ) :   1.0675
B(  9-C , 12-O ) :   1.0376 B( 12-O , 19-H ) :   0.8318 B( 12-O , 23-H ) :   0.1446
B( 13-O , 20-H ) :   0.8207 B( 14-O , 21-H ) :   0.7696 B( 15-O , 22-H ) :   0.8416
B( 16-O , 21-H ) :   0.1695 B( 16-O , 23-H ) :   0.7561

Dispersion correction           -0.026519847
FINAL SINGLE POINT ENERGY      -685.706031486733

DIPOLE MOMENT
-------------

Method             : SCF
Type of density    : Electron Density
Multiplicity       :   1
Irrep              :   0
Energy             :  -685.8414780177081411 Eh
Relativity type    :
Basis              : AO
                                X                 Y                 Z
Electronic contribution:      2.575008483      -0.187599236       0.298911163
Nuclear contribution   :     -3.607394232      -0.882389230       0.718427653
                        -----------------------------------------
Total Dipole Moment    :     -1.032385749      -1.069988466       1.017338816
                        -----------------------------------------
Magnitude (a.u.)       :      1.801575399
Magnitude (Debye)      :      4.579240746

Rotational constants in cm-1:             0.039224             0.031269             0.027848
Rotational constants in MHz :          1175.911110           937.406250           834.872274

                             ****ORCA TERMINATED NORMALLY****
TOTAL RUN TIME: 0 days 0 hours 0 minutes 12 seconds 796 msec
