                         Program Version 6.0.0  -   RELEASE  -
|  1> ! pbe def2-sv(p) def2/J RI DEFGRID1 loosescf d4 GCP(DFT/SV(P)) printgap
|  2> %output
|  3>     printlevel normal
|  4> end
|  5> * xyz 0 1
|  6> C 1.4623305131 1.412711068 1.7454118555
|  7> C 0.1066185939 0.7159869355 1.5988551558
|  8> H -0.4811847422 1.0545704243 2.4568247661
|  9> C 0.0821462021 -0.8399344199 1.5640067549
| 10> H -0.5166634082 -1.1992948647 2.4057406606
| 11> C 1.4077299983 -1.6162450875 1.6511727114
| 12> O 2.5938820448 -1.0230003866 1.1354697027
| 13> S 2.640162599 -0.0345486184 -0.1597915052
| 14> O 4.0496756164 0.0546223929 -0.4594854767
| 15> O 2.314421573 1.3871434236 0.6186254817
| 16> C -0.7614923057 -1.1344109905 0.28584504
| 17> C 0.0380768695 -0.69137371 -0.9143346885
| 18> C 0.0706862929 0.6504159671 -0.9006808829
| 19> C -0.7000376287 1.102954488 0.3213808999
| 20> C -1.8031337508 0.0122656451 0.3374258133
| 21> Cl -2.8525854265 0.063295115 -1.0920272021
| 22> Cl -2.8222418013 0.0145978768 1.7636883653
| 23> Cl -1.2477452208 2.7669541852 0.2840322199
| 24> Cl 0.9244538745 1.6708949615 -1.9471954103
| 25> Cl 0.8578564942 -1.7495051021 -1.9488179378
| 26> Cl -1.4045865345 -2.7621304416 0.1959645838
| 27> H 1.9888879393 0.9701369952 2.5971063829
| 28> H 1.293553737 2.4752676239 1.9384829314
| 29> H 1.6428352765 -1.7860464111 2.7051093057
| 30> H 1.2661245794 -2.5882847575 1.1659061167
| 31> *
| 32>
| 33>                          ****END OF INPUT****

CARTESIAN COORDINATES (ANGSTROEM)
---------------------------------
  C      1.462331    1.412711    1.745412
  C      0.106619    0.715987    1.598855
  H     -0.481185    1.054570    2.456825
  C      0.082146   -0.839934    1.564007
  H     -0.516663   -1.199295    2.405741
  C      1.407730   -1.616245    1.651173
  O      2.593882   -1.023000    1.135470
  S      2.640163   -0.034549   -0.159792
  O      4.049676    0.054622   -0.459485
  O      2.314422    1.387143    0.618625
  C     -0.761492   -1.134411    0.285845
  C      0.038077   -0.691374   -0.914335
  C      0.070686    0.650416   -0.900681
  C     -0.700038    1.102954    0.321381
  C     -1.803134    0.012266    0.337426
  Cl    -2.852585    0.063295   -1.092027
  Cl    -2.822242    0.014598    1.763688
  Cl    -1.247745    2.766954    0.284032
  Cl     0.924454    1.670895   -1.947195
  Cl     0.857856   -1.749505   -1.948818
  Cl    -1.404587   -2.762130    0.195965
  H      1.988888    0.970137    2.597106
  H      1.293554    2.475268    1.938483
  H      1.642835   -1.786046    2.705109
  H      1.266125   -2.588285    1.165906

 Total Charge           Charge          ....    0
 Multiplicity           Mult            ....    1
 Number of Electrons    NEL             ....  202
 Basis Dimension        Dim             ....  306

ORBITAL ENERGIES
----------------

  NO   OCC          E(Eh)            E(eV)
   0   2.0000    -100.681653     -2739.6871
   1   2.0000    -100.676351     -2739.5428
   2   2.0000    -100.673916     -2739.4765
   3   2.0000    -100.664938     -2739.2322
   4   2.0000    -100.662312     -2739.1608
   5   2.0000    -100.659528     -2739.0850
   6   2.0000     -88.190294     -2399.7799
   7   2.0000     -18.797374      -511.5025
   8   2.0000     -18.785283      -511.1735
   9   2.0000     -18.742053      -509.9972
  10   2.0000     -10.047485      -273.4060
  11   2.0000     -10.015520      -272.5361
  12   2.0000     -10.015230      -272.5283
  13   2.0000      -9.989630      -271.8316
  14   2.0000      -9.988262      -271.7944
  15   2.0000      -9.977726      -271.5077
  16   2.0000      -9.970269      -271.3048
  17   2.0000      -9.956975      -270.9431
  18   2.0000      -9.954775      -270.8832
  19   2.0000      -9.217093      -250.8098
  20   2.0000      -9.211815      -250.6662
  21   2.0000      -9.209959      -250.6157
  22   2.0000      -9.200696      -250.3637
  23   2.0000      -9.198059      -250.2919
  24   2.0000      -9.195422      -250.2201
  25   2.0000      -7.814681      -212.6483
  26   2.0000      -7.048566      -191.8012
  27   2.0000      -7.043395      -191.6605
  28   2.0000      -7.041580      -191.6111
  29   2.0000      -7.037362      -191.4964
  30   2.0000      -7.036061      -191.4610
  31   2.0000      -7.032377      -191.3607
  32   2.0000      -7.032010      -191.3507
  33   2.0000      -7.030751      -191.3165
  34   2.0000      -7.029801      -191.2906
  35   2.0000      -7.029506      -191.2826
  36   2.0000      -7.029360      -191.2786
  37   2.0000      -7.027505      -191.2281
  38   2.0000      -7.020360      -191.0337
  39   2.0000      -7.020025      -191.0246
  40   2.0000      -7.017641      -190.9597
  41   2.0000      -7.017425      -190.9538
  42   2.0000      -7.014845      -190.8836
  43   2.0000      -7.014599      -190.8769
  44   2.0000      -5.843630      -159.0133
  45   2.0000      -5.841871      -158.9654
  46   2.0000      -5.831966      -158.6958
  47   2.0000      -1.031729       -28.0748
  48   2.0000      -0.948095       -25.7990
  49   2.0000      -0.930547       -25.3215
  50   2.0000      -0.919145       -25.0112
  51   2.0000      -0.852126       -23.1875
  52   2.0000      -0.836336       -22.7579
  53   2.0000      -0.813480       -22.1359
  54   2.0000      -0.804550       -21.8929
  55   2.0000      -0.781594       -21.2683
  56   2.0000      -0.777654       -21.1610
  57   2.0000      -0.736024       -20.0282
  58   2.0000      -0.696490       -18.9525
  59   2.0000      -0.674196       -18.3458
  60   2.0000      -0.640477       -17.4283
  61   2.0000      -0.635158       -17.2835
  62   2.0000      -0.567555       -15.4440
  63   2.0000      -0.553619       -15.0647
  64   2.0000      -0.541020       -14.7219
  65   2.0000      -0.516565       -14.0564
  66   2.0000      -0.504295       -13.7226
  67   2.0000      -0.495403       -13.4806
  68   2.0000      -0.482976       -13.1424
  69   2.0000      -0.472506       -12.8576
  70   2.0000      -0.449133       -12.2215
  71   2.0000      -0.445036       -12.1100
  72   2.0000      -0.438481       -11.9317
  73   2.0000      -0.430966       -11.7272
  74   2.0000      -0.421779       -11.4772
  75   2.0000      -0.413924       -11.2635
  76   2.0000      -0.408576       -11.1179
  77   2.0000      -0.402406       -10.9500
  78   2.0000      -0.394057       -10.7228
  79   2.0000      -0.388341       -10.5673
  80   2.0000      -0.366452        -9.9717
  81   2.0000      -0.361982        -9.8500
  82   2.0000      -0.349345        -9.5062
  83   2.0000      -0.332225        -9.0403
  84   2.0000      -0.326173        -8.8756
  85   2.0000      -0.319214        -8.6863
  86   2.0000      -0.311333        -8.4718
  87   2.0000      -0.307614        -8.3706
  88   2.0000      -0.299946        -8.1619
  89   2.0000      -0.296946        -8.0803
  90   2.0000      -0.294551        -8.0152
  91   2.0000      -0.290296        -7.8994
  92   2.0000      -0.287770        -7.8306
  93   2.0000      -0.286575        -7.7981
  94   2.0000      -0.280310        -7.6276
  95   2.0000      -0.278784        -7.5861
  96   2.0000      -0.272594        -7.4177
  97   2.0000      -0.262914        -7.1542
  98   2.0000      -0.252499        -6.8708
  99   2.0000      -0.236430        -6.4336
 100   2.0000      -0.212941        -5.7944
 101   0.0000      -0.078254        -2.1294
 102   0.0000      -0.065851        -1.7919
 103   0.0000      -0.031517        -0.8576
 104   0.0000      -0.016805        -0.4573
 105   0.0000      -0.013074        -0.3558

MULLIKEN ATOMIC CHARGES
-----------------------
   0 C :    0.119804
   1 C :   -0.133774
   2 H :    0.099868
   3 C :   -0.096050
   4 H :    0.099126
   5 C :    0.113789
   6 O :   -0.412841
   7 S :    0.740635
   8 O :   -0.379325
   9 O :   -0.406910
  10 C :   -0.102145
  11 C :    0.032461
  12 C :    0.011073
  13 C :   -0.063054
  14 C :   -0.130091
  15 Cl:    0.019110
  16 Cl:    0.018473
  17 Cl:   -0.017142
  18 Cl:    0.038375
  19 Cl:    0.026017
  20 Cl:   -0.014891
  21 H :    0.111430
  22 H :    0.107879
  23 H :    0.111404
  24 H :    0.106782
Sum of atomic charges:    0.0000000

LOEWDIN ATOMIC CHARGES
----------------------
   0 C :   -0.129068
   1 C :   -0.161434
   2 H :    0.138384
   3 C :   -0.161696
   4 H :    0.136982
   5 C :   -0.118133
   6 O :   -0.307499
   7 S :    0.894177
   8 O :   -0.447761
   9 O :   -0.314510
  10 C :   -0.171509
  11 C :   -0.232056
  12 C :   -0.225086
  13 C :   -0.164093
  14 C :   -0.229490
  15 Cl:    0.127967
  16 Cl:    0.153056
  17 Cl:    0.138374
  18 Cl:    0.225727
  19 Cl:    0.216638
  20 Cl:    0.137814
  21 H :    0.118297
  22 H :    0.129920
  23 H :    0.129597
  24 H :    0.115402

  Mayer bond orders larger than 0.100000
B(  0-C ,  1-C ) :   1.0899 B(  0-C ,  9-O ) :   0.9922 B(  0-C , 21-H ) :   0.9069
B(  0-C , 22-H ) :   0.9048 B(  1-C ,  2-H ) :   0.8322 B(  1-C ,  3-C ) :   1.0179
B(  1-C , 13-C ) :   0.9902 B(  3-C ,  4-H ) :   0.8337 B(  3-C ,  5-C ) :   1.0750
B(  3-C , 10-C ) :   0.9903 B(  5-C ,  6-O ) :   0.9527 B(  5-C , 23-H ) :   0.9180
B(  5-C , 24-H ) :   0.9114 B(  6-O ,  7-S ) :   0.9061 B(  7-S ,  8-O ) :   1.8850
B(  7-S ,  9-O ) :   0.8586 B( 10-C , 11-C ) :   0.9065 B( 10-C , 14-C ) :   0.8203
B( 10-C , 20-Cl) :   1.1316 B( 11-C , 12-C ) :   1.6825 B( 11-C , 19-Cl) :   1.1655
B( 12-C , 13-C ) :   0.9034 B( 12-C , 18-Cl) :   1.1790 B( 13-C , 14-C ) :   0.8251
B( 13-C , 17-Cl) :   1.1332 B( 14-C , 15-Cl) :   1.1561 B( 14-C , 16-Cl) :   1.1452

Dispersion correction           -0.063910116
FINAL SINGLE POINT ENERGY     -3728.084110346546

DIPOLE MOMENT
-------------

Method             : SCF
Type of density    : Electron Density
Multiplicity       :   1
Irrep              :   0
Energy             : -3728.1316469413150116 Eh
Relativity type    :
Basis              : AO
                                X                 Y                 Z
Electronic contribution:    -14.847240281       0.720234426     -15.107896061
Nuclear contribution   :     13.713047174      -1.005594164      16.156093746
                        -----------------------------------------
Total Dipole Moment    :     -1.134193107      -0.285359738       1.048197685
                        -----------------------------------------
Magnitude (a.u.)       :      1.570523025
Magnitude (Debye)      :      3.991952283

Rotational constants in cm-1:             0.010868             0.007715             0.006774
Rotational constants in MHz :           325.806986           231.303057           203.077079

                             ****ORCA TERMINATED NORMALLY****
TOTAL RUN TIME: 0 days 0 hours 0 minutes 22 seconds 862 msec
