                         Program Version 6.0.0  -   RELEASE  -
|  1> ! pbe def2-sv(p) def2/J RI DEFGRID1 loosescf d4 GCP(DFT/SV(P)) printgap
|  2> %output
|  3>     printlevel normal
|  4> end
|  5> * xyz 0 1
|  6> C -1.6285894441 -0.1452821114 0.4581159424
|  7> C -0.6585134041 0.5170043997 -0.5154948968
|  8> C 0.6790445208 -0.2207759063 -0.6133241282
|  9> O 1.4846998615 -0.0892511111 0.5399101757
| 10> H -1.7960960804 -1.1838436349 0.1805711455
| 11> H -1.2474665276 -0.1126909761 1.4760832066
| 12> H -2.5839347986 0.3725785457 0.4427002388
| 13> H -0.4662739092 1.5458249711 -0.2057089554
| 14> H -1.101325419 0.5389401558 -1.5120190554
| 15> H 0.5036596114 -1.2836523084 -0.8304529749
| 16> H 1.2772947742 0.2017015415 -1.42434248
| 17> H 1.0087738921 -0.4608375553 1.2951548109
| 18> *
| 19>
| 20>                          ****END OF INPUT****

CARTESIAN COORDINATES (ANGSTROEM)
---------------------------------
  C     -1.628589   -0.145282    0.458116
  C     -0.658513    0.517004   -0.515495
  C      0.679045   -0.220776   -0.613324
  O      1.484700   -0.089251    0.539910
  H     -1.796096   -1.183844    0.180571
  H     -1.247467   -0.112691    1.476083
  H     -2.583935    0.372579    0.442700
  H     -0.466274    1.545825   -0.205709
  H     -1.101325    0.538940   -1.512019
  H      0.503660   -1.283652   -0.830453
  H      1.277295    0.201702   -1.424342
  H      1.008774   -0.460838    1.295155

 Total Charge           Charge          ....    0
 Multiplicity           Mult            ....    1
 Number of Electrons    NEL             ....   34
 Basis Dimension        Dim             ....   72

ORBITAL ENERGIES
----------------

  NO   OCC          E(Eh)            E(eV)
   0   2.0000     -18.738281      -509.8945
   1   2.0000      -9.925393      -270.0837
   2   2.0000      -9.885370      -268.9946
   3   2.0000      -9.882724      -268.9226
   4   2.0000      -0.914412       -24.8824
   5   2.0000      -0.699961       -19.0469
   6   2.0000      -0.608944       -16.5702
   7   2.0000      -0.528005       -14.3677
   8   2.0000      -0.453557       -12.3419
   9   2.0000      -0.412165       -11.2156
  10   2.0000      -0.388514       -10.5720
  11   2.0000      -0.372844       -10.1456
  12   2.0000      -0.330039        -8.9808
  13   2.0000      -0.312146        -8.4939
  14   2.0000      -0.304329        -8.2812
  15   2.0000      -0.267792        -7.2870
  16   2.0000      -0.210597        -5.7306
  17   0.0000       0.022400         0.6095
  18   0.0000       0.058780         1.5995
  19   0.0000       0.079890         2.1739
  20   0.0000       0.085919         2.3380
  21   0.0000       0.104854         2.8532

MULLIKEN ATOMIC CHARGES
-----------------------
   0 C :   -0.303847
   1 C :   -0.203441
   2 C :    0.010848
   3 O :   -0.441657
   4 H :    0.102229
   5 H :    0.090980
   6 H :    0.112903
   7 H :    0.096410
   8 H :    0.085146
   9 H :    0.067719
  10 H :    0.089481
  11 H :    0.293229
Sum of atomic charges:   -0.0000000

LOEWDIN ATOMIC CHARGES
----------------------
   0 C :   -0.348414
   1 C :   -0.260856
   2 C :   -0.122184
   3 O :   -0.343980
   4 H :    0.117518
   5 H :    0.110011
   6 H :    0.124524
   7 H :    0.120442
   8 H :    0.120298
   9 H :    0.092054
  10 H :    0.112160
  11 H :    0.278428

  Mayer bond orders larger than 0.100000
B(  0-C ,  1-C ) :   1.1405 B(  0-C ,  4-H ) :   0.9554 B(  0-C ,  5-H ) :   0.9484
B(  0-C ,  6-H ) :   0.9535 B(  1-C ,  2-C ) :   1.0972 B(  1-C ,  7-H ) :   0.9223
B(  1-C ,  8-H ) :   0.9150 B(  2-C ,  3-O ) :   1.0687 B(  2-C ,  9-H ) :   0.9252
B(  2-C , 10-H ) :   0.9332 B(  3-O , 11-H ) :   0.8526

Dispersion correction           -0.006436644
FINAL SINGLE POINT ENERGY      -193.874711039460

DIPOLE MOMENT
-------------

Method             : SCF
Type of density    : Electron Density
Multiplicity       :   1
Irrep              :   0
Energy             :  -193.9242409978683668 Eh
Relativity type    :
Basis              : AO
                                X                 Y                 Z
Electronic contribution:      3.513515138       0.143685842       0.575057006
Nuclear contribution   :     -4.110894086      -0.359690574      -0.534240462
                        -----------------------------------------
Total Dipole Moment    :     -0.597378948      -0.216004732       0.040816545
                        -----------------------------------------
Magnitude (a.u.)       :      0.636541941
Magnitude (Debye)      :      1.617961032

Rotational constants in cm-1:             0.495578             0.163722             0.141051
Rotational constants in MHz :         14857.058449          4908.250327          4228.603302

                             ****ORCA TERMINATED NORMALLY****
TOTAL RUN TIME: 0 days 0 hours 0 minutes 4 seconds 487 msec
