                         Program Version 6.0.0  -   RELEASE  -
|  1> ! pbe def2-sv(p) def2/J RI DEFGRID1 loosescf d4 GCP(DFT/SV(P)) printgap
|  2> %output
|  3>     printlevel normal
|  4> end
|  5> * xyz 0 1
|  6> C -2.7688127315 0.9190936783 1.2777872328
|  7> C -1.6633005687 0.49077978 0.3694057242
|  8> C -0.8711143562 1.3140437521 -0.3050514634
|  9> C 0.1885195779 0.7760126375 -1.211220356
| 10> C 0.964300269 -0.416751209 -0.5952325585
| 11> H 1.2562994865 -1.0709473496 -1.4215792326
| 12> C 0.1066730432 -1.2277302914 0.394607441
| 13> C -1.4014366627 -0.9893673554 0.222676412
| 14> H -1.9377885723 -1.541022708 1.0124450321
| 15> O -1.886982235 -1.4141114556 -1.0423974426
| 16> C 2.2290938343 0.0866854292 0.0568032209
| 17> C 3.4220681762 -0.2412009039 -0.4160725028
| 18> C 2.0754785823 0.9941074394 1.2423546805
| 19> H -2.5868997573 0.5604425436 2.2905942437
| 20> H -3.7121858354 0.4945178092 0.9369698655
| 21> H -2.8538613022 2.0020592988 1.2954420559
| 22> H -0.9972548443 2.3857979164 -0.2479170096
| 23> H -0.299752313 0.426631704 -2.1245049749
| 24> H 0.8949566474 1.5587410447 -1.4908637987
| 25> H 0.3284060755 -2.2907995834 0.2828416587
| 26> H 0.3500106165 -0.9465812032 1.4187572261
| 27> H -1.6653402329 -2.3469841773 -1.1639117024
| 28> H 4.3306532576 0.1320905372 0.0261793716
| 29> H 3.5422724725 -0.8974774814 -1.2615282667
| 30> H 1.1486383174 1.5584847114 1.1769385423
| 31> H 2.0541129732 0.4133652058 2.1642425853
| 32> H 2.9137390096 1.6830200978 1.306353815
| 33> *
| 34>
| 35>                          ****END OF INPUT****

CARTESIAN COORDINATES (ANGSTROEM)
---------------------------------
  C     -2.768813    0.919094    1.277787
  C     -1.663301    0.490780    0.369406
  C     -0.871114    1.314044   -0.305051
  C      0.188520    0.776013   -1.211220
  C      0.964300   -0.416751   -0.595233
  H      1.256299   -1.070947   -1.421579
  C      0.106673   -1.227730    0.394607
  C     -1.401437   -0.989367    0.222676
  H     -1.937789   -1.541023    1.012445
  O     -1.886982   -1.414111   -1.042397
  C      2.229094    0.086685    0.056803
  C      3.422068   -0.241201   -0.416073
  C      2.075479    0.994107    1.242355
  H     -2.586900    0.560443    2.290594
  H     -3.712186    0.494518    0.936970
  H     -2.853861    2.002059    1.295442
  H     -0.997255    2.385798   -0.247917
  H     -0.299752    0.426632   -2.124505
  H      0.894957    1.558741   -1.490864
  H      0.328406   -2.290800    0.282842
  H      0.350011   -0.946581    1.418757
  H     -1.665340   -2.346984   -1.163912
  H      4.330653    0.132091    0.026179
  H      3.542272   -0.897477   -1.261528
  H      1.148638    1.558485    1.176939
  H      2.054113    0.413365    2.164243
  H      2.913739    1.683020    1.306354

 Total Charge           Charge          ....    0
 Multiplicity           Mult            ....    1
 Number of Electrons    NEL             ....   84
 Basis Dimension        Dim             ....  186

ORBITAL ENERGIES
----------------

  NO   OCC          E(Eh)            E(eV)
   0   2.0000     -18.742707      -510.0150
   1   2.0000      -9.937960      -270.4256
   2   2.0000      -9.896668      -269.3020
   3   2.0000      -9.895316      -269.2652
   4   2.0000      -9.887574      -269.0546
   5   2.0000      -9.887098      -269.0416
   6   2.0000      -9.881418      -268.8870
   7   2.0000      -9.879009      -268.8215
   8   2.0000      -9.878767      -268.8149
   9   2.0000      -9.876592      -268.7557
  10   2.0000      -9.862863      -268.3821
  11   2.0000      -0.920146       -25.0384
  12   2.0000      -0.762143       -20.7390
  13   2.0000      -0.720137       -19.5959
  14   2.0000      -0.671741       -18.2790
  15   2.0000      -0.659367       -17.9423
  16   2.0000      -0.615669       -16.7532
  17   2.0000      -0.602804       -16.4031
  18   2.0000      -0.555617       -15.1191
  19   2.0000      -0.531408       -14.4603
  20   2.0000      -0.473671       -12.8892
  21   2.0000      -0.461261       -12.5516
  22   2.0000      -0.442876       -12.0513
  23   2.0000      -0.423543       -11.5252
  24   2.0000      -0.414283       -11.2732
  25   2.0000      -0.391575       -10.6553
  26   2.0000      -0.385829       -10.4990
  27   2.0000      -0.373246       -10.1566
  28   2.0000      -0.367119        -9.9898
  29   2.0000      -0.356557        -9.7024
  30   2.0000      -0.351753        -9.5717
  31   2.0000      -0.340891        -9.2761
  32   2.0000      -0.330173        -8.9845
  33   2.0000      -0.322454        -8.7744
  34   2.0000      -0.319581        -8.6963
  35   2.0000      -0.303552        -8.2601
  36   2.0000      -0.283300        -7.7090
  37   2.0000      -0.274718        -7.4755
  38   2.0000      -0.258654        -7.0383
  39   2.0000      -0.220118        -5.9897
  40   2.0000      -0.212516        -5.7829
  41   2.0000      -0.199465        -5.4277
  42   0.0000      -0.020122        -0.5475
  43   0.0000      -0.005123        -0.1394
  44   0.0000       0.024385         0.6635
  45   0.0000       0.046638         1.2691
  46   0.0000       0.060436         1.6445

MULLIKEN ATOMIC CHARGES
-----------------------
   0 C :   -0.208261
   1 C :   -0.022228
   2 C :   -0.255126
   3 C :    0.023833
   4 C :   -0.121191
   5 H :    0.043703
   6 C :   -0.090538
   7 C :    0.061899
   8 H :    0.040230
   9 O :   -0.424494
  10 C :   -0.073219
  11 C :   -0.231114
  12 C :   -0.230994
  13 H :    0.103716
  14 H :    0.115939
  15 H :    0.096228
  16 H :    0.044085
  17 H :    0.098187
  18 H :    0.086255
  19 H :    0.068831
  20 H :    0.081908
  21 H :    0.293188
  22 H :    0.076700
  23 H :    0.080883
  24 H :    0.118368
  25 H :    0.119904
  26 H :    0.103307
Sum of atomic charges:   -0.0000000

LOEWDIN ATOMIC CHARGES
----------------------
   0 C :   -0.321470
   1 C :   -0.069966
   2 C :   -0.142036
   3 C :   -0.212522
   4 C :   -0.121014
   5 H :    0.118734
   6 C :   -0.220988
   7 C :   -0.038757
   8 H :    0.095009
   9 O :   -0.329389
  10 C :   -0.050069
  11 C :   -0.272374
  12 C :   -0.330436
  13 H :    0.124962
  14 H :    0.131572
  15 H :    0.122983
  16 H :    0.116284
  17 H :    0.137596
  18 H :    0.122261
  19 H :    0.114791
  20 H :    0.124990
  21 H :    0.280946
  22 H :    0.114114
  23 H :    0.114936
  24 H :    0.129298
  25 H :    0.132288
  26 H :    0.128256

  Mayer bond orders larger than 0.100000
B(  0-C ,  1-C ) :   1.1510 B(  0-C , 13-H ) :   0.9275 B(  0-C , 14-H ) :   0.9275
B(  0-C , 15-H ) :   0.9440 B(  1-C ,  2-C ) :   1.8718 B(  1-C ,  7-C ) :   0.9948
B(  2-C ,  3-C ) :   1.0907 B(  2-C , 16-H ) :   0.9350 B(  3-C ,  4-C ) :   1.0731
B(  3-C , 17-H ) :   0.8612 B(  3-C , 18-H ) :   0.9128 B(  4-C ,  5-H ) :   0.8661
B(  4-C ,  6-C ) :   1.0698 B(  4-C , 10-C ) :   1.0350 B(  6-C ,  7-C ) :   1.0892
B(  6-C , 19-H ) :   0.9006 B(  6-C , 20-H ) :   0.8932 B(  7-C ,  8-H ) :   0.8964
B(  7-C ,  9-O ) :   1.0456 B(  9-O , 21-H ) :   0.8510 B( 10-C , 11-C ) :   2.0329
B( 10-C , 12-C ) :   1.1078 B( 11-C , 22-H ) :   0.9117 B( 11-C , 23-H ) :   0.9086
B( 12-C , 24-H ) :   0.9215 B( 12-C , 25-H ) :   0.9223 B( 12-C , 26-H ) :   0.9350

Dispersion correction           -0.029378250
FINAL SINGLE POINT ENERGY      -464.783377646778

DIPOLE MOMENT
-------------

Method             : SCF
Type of density    : Electron Density
Multiplicity       :   1
Irrep              :   0
Energy             :  -464.8719908762964224 Eh
Relativity type    :
Basis              : AO
                                X                 Y                 Z
Electronic contribution:     -2.559382938      -2.328429063      -3.567134890
Nuclear contribution   :      2.566992656       1.969199145       3.925273020
                        -----------------------------------------
Total Dipole Moment    :      0.007609717      -0.359229919       0.358138130
                        -----------------------------------------
Magnitude (a.u.)       :      0.507313475
Magnitude (Debye)      :      1.289488377

Rotational constants in cm-1:             0.063378             0.025860             0.022637
Rotational constants in MHz :          1900.016823           775.262238           678.654331

                             ****ORCA TERMINATED NORMALLY****
TOTAL RUN TIME: 0 days 0 hours 0 minutes 12 seconds 312 msec
