                         Program Version 6.0.0  -   RELEASE  -
|  1> ! pbe def2-sv(p) def2/J RI DEFGRID1 loosescf d4 GCP(DFT/SV(P)) printgap
|  2> %output
|  3>     printlevel normal
|  4> end
|  5> * xyz 0 1
|  6> C -2.4683313917 0.7091026834 0.9780422913
|  7> C -1.687753257 -0.0250110209 -0.0745172956
|  8> O -2.2543838319 -0.6810880881 -0.9369476571
|  9> C -0.2079606135 0.0185784629 -0.0122916314
| 10> C 0.4957957105 -1.0897631222 -0.4871875602
| 11> C 1.8762456915 -1.1147752013 -0.4532164286
| 12> C 2.5746799772 -0.0212265218 0.0344287412
| 13> C 1.8864938747 1.095120796 0.4825419571
| 14> C 0.5037781753 1.1173210068 0.4671228653
| 15> H -1.856185406 1.3795653315 1.5674181295
| 16> H -2.9062128891 -0.0394403264 1.6373108286
| 17> H -3.2906888901 1.2460968055 0.5110591393
| 18> H -0.0666031897 -1.9285991416 -0.8708486392
| 19> H 2.4072700934 -1.983274022 -0.8111450988
| 20> H 3.6533751139 -0.0362204892 0.0577527619
| 21> H 2.4304816062 1.9532635328 0.8460428823
| 22> H -0.0135554521 2.0053470167 0.7941700178
| 23> *
| 24>
| 25>                          ****END OF INPUT****

CARTESIAN COORDINATES (ANGSTROEM)
---------------------------------
  C     -2.468331    0.709103    0.978042
  C     -1.687753   -0.025011   -0.074517
  O     -2.254384   -0.681088   -0.936948
  C     -0.207961    0.018578   -0.012292
  C      0.495796   -1.089763   -0.487188
  C      1.876246   -1.114775   -0.453216
  C      2.574680   -0.021227    0.034429
  C      1.886494    1.095121    0.482542
  C      0.503778    1.117321    0.467123
  H     -1.856185    1.379565    1.567418
  H     -2.906213   -0.039440    1.637311
  H     -3.290689    1.246097    0.511059
  H     -0.066603   -1.928599   -0.870849
  H      2.407270   -1.983274   -0.811145
  H      3.653375   -0.036220    0.057753
  H      2.430482    1.953264    0.846043
  H     -0.013555    2.005347    0.794170

 Total Charge           Charge          ....    0
 Multiplicity           Mult            ....    1
 Number of Electrons    NEL             ....   64
 Basis Dimension        Dim             ....  142

ORBITAL ENERGIES
----------------

  NO   OCC          E(Eh)            E(eV)
   0   2.0000     -18.734115      -509.7812
   1   2.0000      -9.973455      -271.3915
   2   2.0000      -9.907859      -269.6065
   3   2.0000      -9.907204      -269.5887
   4   2.0000      -9.906987      -269.5828
   5   2.0000      -9.904344      -269.5109
   6   2.0000      -9.903868      -269.4979
   7   2.0000      -9.902833      -269.4698
   8   2.0000      -9.888372      -269.0763
   9   2.0000      -0.931228       -25.3400
  10   2.0000      -0.788344       -21.4519
  11   2.0000      -0.701473       -19.0881
  12   2.0000      -0.682326       -18.5670
  13   2.0000      -0.660560       -17.9748
  14   2.0000      -0.569474       -15.4962
  15   2.0000      -0.551875       -15.0173
  16   2.0000      -0.502616       -13.6769
  17   2.0000      -0.458403       -12.4738
  18   2.0000      -0.423728       -11.5302
  19   2.0000      -0.411019       -11.1844
  20   2.0000      -0.403611       -10.9828
  21   2.0000      -0.398285       -10.8379
  22   2.0000      -0.385496       -10.4899
  23   2.0000      -0.366745        -9.9796
  24   2.0000      -0.349013        -9.4971
  25   2.0000      -0.343750        -9.3539
  26   2.0000      -0.321847        -8.7579
  27   2.0000      -0.311968        -8.4891
  28   2.0000      -0.305601        -8.3158
  29   2.0000      -0.242744        -6.6054
  30   2.0000      -0.239639        -6.5209
  31   2.0000      -0.197503        -5.3743
  32   0.0000      -0.085057        -2.3145
  33   0.0000      -0.046013        -1.2521
  34   0.0000      -0.006733        -0.1832
  35   0.0000       0.034967         0.9515
  36   0.0000       0.058053         1.5797

MULLIKEN ATOMIC CHARGES
-----------------------
   0 C :   -0.252533
   1 C :    0.004618
   2 O :   -0.174852
   3 C :    0.082454
   4 C :   -0.089385
   5 C :   -0.044343
   6 C :   -0.040923
   7 C :   -0.050264
   8 C :   -0.107950
   9 H :    0.112997
  10 H :    0.135648
  11 H :    0.125972
  12 H :    0.062338
  13 H :    0.060910
  14 H :    0.061656
  15 H :    0.057750
  16 H :    0.055910
Sum of atomic charges:   -0.0000000

LOEWDIN ATOMIC CHARGES
----------------------
   0 C :   -0.360331
   1 C :    0.048718
   2 O :   -0.136510
   3 C :   -0.072428
   4 C :   -0.086563
   5 C :   -0.118981
   6 C :   -0.108744
   7 C :   -0.120739
   8 C :   -0.108304
   9 H :    0.125884
  10 H :    0.153164
  11 H :    0.144147
  12 H :    0.133309
  13 H :    0.127623
  14 H :    0.127067
  15 H :    0.126451
  16 H :    0.126237

  Mayer bond orders larger than 0.100000
B(  0-C ,  1-C ) :   1.0834 B(  0-C ,  9-H ) :   0.9285 B(  0-C , 10-H ) :   0.9202
B(  0-C , 11-H ) :   0.9251 B(  1-C ,  2-O ) :   2.1445 B(  1-C ,  3-C ) :   0.9384
B(  3-C ,  4-C ) :   1.3772 B(  3-C ,  8-C ) :   1.3477 B(  4-C ,  5-C ) :   1.3654
B(  4-C , 12-H ) :   0.9602 B(  5-C ,  6-C ) :   1.3599 B(  5-C , 13-H ) :   0.9667
B(  6-C ,  7-C ) :   1.3829 B(  6-C , 14-H ) :   0.9650 B(  7-C ,  8-C ) :   1.3870
B(  7-C , 15-H ) :   0.9619 B(  8-C , 16-H ) :   0.9525

Dispersion correction           -0.017446000
FINAL SINGLE POINT ENERGY      -384.061494096429

DIPOLE MOMENT
-------------

Method             : SCF
Type of density    : Electron Density
Multiplicity       :   1
Irrep              :   0
Energy             :  -384.1080111622230220 Eh
Relativity type    :
Basis              : AO
                                X                 Y                 Z
Electronic contribution:      0.372211660      -1.963790769      -2.782913985
Nuclear contribution   :      0.302356067       2.426092896       3.487145631
                        -----------------------------------------
Total Dipole Moment    :      0.674567727       0.462302127       0.704231647
                        -----------------------------------------
Magnitude (a.u.)       :      1.079215959
Magnitude (Debye)      :      2.743148966

Rotational constants in cm-1:             0.124220             0.040320             0.031583
Rotational constants in MHz :          3724.011003          1208.766918           946.839259

                             ****ORCA TERMINATED NORMALLY****
TOTAL RUN TIME: 0 days 0 hours 0 minutes 8 seconds 978 msec
