                         Program Version 6.0.0  -   RELEASE  -
|  1> ! wb97x-v def2-tzvp def2/J RIJCOSX DEFGRID2 scfconv7 GCP(DFT/TZ) printgap
|  2> %output
|  3>     printlevel normal
|  4> end
|  5> * xyz 0 1
|  6> C -1.4696032005953583 -0.0007042438095507503 0.22768494055127136
|  7> C -0.7242095441008768 1.253704576657662 -0.23084658493963084
|  8> C 0.7316937090739749 1.212470470918312 0.231961562140086
|  9> N 1.4608559037073106 0.0006939043145166398 -0.1951414420429938
| 10> C 0.7328489055158885 -1.211792127804434 0.23192931115578785
| 11> C -0.7230221959364403 -1.2544016967536922 -0.23085840852796408
| 12> H -2.497303566392418 -0.00119012916129586 -0.15340167851440292
| 13> H -1.533203328868254 -0.0007379819328063378 1.3250560241517866
| 14> H -0.7495856647016765 1.315828865402793 -1.3280269084604797
| 15> H -1.2101197539121777 2.1583816685495534 0.15572479623015995
| 16> H 1.272727753005039 2.091713907214118 -0.13504985601891403
| 17> H 0.7643163001570265 1.2525527171474047 1.329462430790946
| 18> H 1.4498128698732493 0.0007023315581237746 -1.2141144790691214
| 19> H 1.274718417820862 -2.09050416120393 -0.13512227037238386
| 20> H 0.7655209881252358 -1.2518805083012565 1.3294280281337543
| 21> H -0.7483591499258656 -1.3165518727769747 -1.3280380835570798
| 22> H -1.2080640253935286 -2.1595415061459455 0.15572165205753094
| 23> *
| 24>
| 25>                          ****END OF INPUT****

CARTESIAN COORDINATES (ANGSTROEM)
---------------------------------
  C     -1.469603   -0.000704    0.227685
  C     -0.724210    1.253705   -0.230847
  C      0.731694    1.212470    0.231962
  N      1.460856    0.000694   -0.195141
  C      0.732849   -1.211792    0.231929
  C     -0.723022   -1.254402   -0.230858
  H     -2.497304   -0.001190   -0.153402
  H     -1.533203   -0.000738    1.325056
  H     -0.749586    1.315829   -1.328027
  H     -1.210120    2.158382    0.155725
  H      1.272728    2.091714   -0.135050
  H      0.764316    1.252553    1.329462
  H      1.449813    0.000702   -1.214114
  H      1.274718   -2.090504   -0.135122
  H      0.765521   -1.251881    1.329428
  H     -0.748359   -1.316552   -1.328038
  H     -1.208064   -2.159542    0.155722

 Total Charge           Charge          ....    0
 Multiplicity           Mult            ....    1
 Number of Electrons    NEL             ....   48
 Basis Dimension        Dim             ....  252

ORBITAL ENERGIES
----------------

  NO   OCC          E(Eh)            E(eV)
   0   2.0000     -16.505784      -449.1452
   1   2.0000     -12.061286      -328.2043
   2   2.0000     -12.061076      -328.1986
   3   2.0000     -12.040833      -327.6477
   4   2.0000     -12.038535      -327.5852
   5   2.0000     -12.038125      -327.5740
   6   2.0000      -1.461310       -39.7643
   7   2.0000      -1.298765       -35.3412
   8   2.0000      -1.258731       -34.2518
   9   2.0000      -1.133882       -30.8545
  10   2.0000      -1.114201       -30.3190
  11   2.0000      -1.035952       -28.1897
  12   2.0000      -0.938642       -25.5417
  13   2.0000      -0.904863       -24.6226
  14   2.0000      -0.902740       -24.5648
  15   2.0000      -0.874324       -23.7916
  16   2.0000      -0.863017       -23.4839
  17   2.0000      -0.823330       -22.4040
  18   2.0000      -0.822730       -22.3876
  19   2.0000      -0.790259       -21.5040
  20   2.0000      -0.780109       -21.2278
  21   2.0000      -0.765081       -20.8189
  22   2.0000      -0.744449       -20.2575
  23   2.0000      -0.707127       -19.2419
  24   0.0000      -0.085235        -2.3194
  25   0.0000      -0.048223        -1.3122
  26   0.0000      -0.034438        -0.9371
  27   0.0000      -0.017350        -0.4721
  28   0.0000      -0.012957        -0.3526

MULLIKEN ATOMIC CHARGES
-----------------------
   0 C :   -0.151081
   1 C :   -0.194776
   2 C :   -0.158535
   3 N :   -0.276938
   4 C :   -0.158532
   5 C :   -0.194779
   6 H :    0.098976
   7 H :    0.090160
   8 H :    0.087693
   9 H :    0.095502
  10 H :    0.110742
  11 H :    0.092915
  12 H :    0.171789
  13 H :    0.110756
  14 H :    0.092901
  15 H :    0.087693
  16 H :    0.095514
Sum of atomic charges:   -0.0000000

LOEWDIN ATOMIC CHARGES
----------------------
   0 C :   -0.264963
   1 C :   -0.274074
   2 C :   -0.306769
   3 N :   -0.027921
   4 C :   -0.306768
   5 C :   -0.274075
   6 H :    0.129747
   7 H :    0.133627
   8 H :    0.129941
   9 H :    0.131922
  10 H :    0.125063
  11 H :    0.128325
  12 H :    0.160694
  13 H :    0.125064
  14 H :    0.128325
  15 H :    0.129941
  16 H :    0.131922

  Mayer bond orders larger than 0.100000
B(  0-C ,  1-C ) :   0.9662 B(  0-C ,  5-C ) :   0.9662 B(  0-C ,  6-H ) :   0.9758
B(  0-C ,  7-H ) :   0.9765 B(  1-C ,  2-C ) :   0.9867 B(  1-C ,  8-H ) :   0.9751
B(  1-C ,  9-H ) :   0.9691 B(  2-C ,  3-N ) :   1.0279 B(  2-C , 10-H ) :   0.9831
B(  2-C , 11-H ) :   0.9812 B(  3-N ,  4-C ) :   1.0279 B(  3-N , 12-H ) :   0.9381
B(  4-C ,  5-C ) :   0.9867 B(  4-C , 13-H ) :   0.9831 B(  4-C , 14-H ) :   0.9812
B(  5-C , 15-H ) :   0.9751 B(  5-C , 16-H ) :   0.9691

FINAL SINGLE POINT ENERGY      -251.915695103580

DIPOLE MOMENT
-------------

Method             : SCF
Type of density    : Electron Density
Multiplicity       :   1
Irrep              :   0
Energy             :  -251.9276465464800765 Eh
Relativity type    :
Basis              : AO
                                X                 Y                 Z
Electronic contribution:      1.824329183       0.000881682      -0.194585542
Nuclear contribution   :     -2.332221420      -0.001122617      -0.003087446
                        -----------------------------------------
Total Dipole Moment    :     -0.507892236      -0.000240935      -0.197672988
                        -----------------------------------------
Magnitude (a.u.)       :      0.545003846
Magnitude (Debye)      :      1.385289685

Rotational constants in cm-1:             0.150312             0.146839             0.084912
Rotational constants in MHz :          4506.240173          4402.110837          2545.604686

                             ****ORCA TERMINATED NORMALLY****
TOTAL RUN TIME: 0 days 0 hours 1 minutes 50 seconds 789 msec
