                         Program Version 6.0.0  -   RELEASE  -
|  1> ! wb97x-v def2-tzvp def2/J RIJCOSX DEFGRID2 scfconv7 GCP(DFT/TZ) printgap
|  2> %output
|  3>     printlevel normal
|  4> end
|  5> %cpcm
|  6>     smd true
|  7>     smdsolvent "water"
|  8> end
|  9> * xyz 0 1
| 10> C -1.4696032005953583 -0.0007042438095507503 0.22768494055127136
| 11> C -0.7242095441008768 1.253704576657662 -0.23084658493963084
| 12> C 0.7316937090739749 1.212470470918312 0.231961562140086
| 13> N 1.4608559037073106 0.0006939043145166398 -0.1951414420429938
| 14> C 0.7328489055158885 -1.211792127804434 0.23192931115578785
| 15> C -0.7230221959364403 -1.2544016967536922 -0.23085840852796408
| 16> H -2.497303566392418 -0.00119012916129586 -0.15340167851440292
| 17> H -1.533203328868254 -0.0007379819328063378 1.3250560241517866
| 18> H -0.7495856647016765 1.315828865402793 -1.3280269084604797
| 19> H -1.2101197539121777 2.1583816685495534 0.15572479623015995
| 20> H 1.272727753005039 2.091713907214118 -0.13504985601891403
| 21> H 0.7643163001570265 1.2525527171474047 1.329462430790946
| 22> H 1.4498128698732493 0.0007023315581237746 -1.2141144790691214
| 23> H 1.274718417820862 -2.09050416120393 -0.13512227037238386
| 24> H 0.7655209881252358 -1.2518805083012565 1.3294280281337543
| 25> H -0.7483591499258656 -1.3165518727769747 -1.3280380835570798
| 26> H -1.2080640253935286 -2.1595415061459455 0.15572165205753094
| 27> *
| 28>
| 29>                          ****END OF INPUT****

CARTESIAN COORDINATES (ANGSTROEM)
---------------------------------
  C     -1.469603   -0.000704    0.227685
  C     -0.724210    1.253705   -0.230847
  C      0.731694    1.212470    0.231962
  N      1.460856    0.000694   -0.195141
  C      0.732849   -1.211792    0.231929
  C     -0.723022   -1.254402   -0.230858
  H     -2.497304   -0.001190   -0.153402
  H     -1.533203   -0.000738    1.325056
  H     -0.749586    1.315829   -1.328027
  H     -1.210120    2.158382    0.155725
  H      1.272728    2.091714   -0.135050
  H      0.764316    1.252553    1.329462
  H      1.449813    0.000702   -1.214114
  H      1.274718   -2.090504   -0.135122
  H      0.765521   -1.251881    1.329428
  H     -0.748359   -1.316552   -1.328038
  H     -1.208064   -2.159542    0.155722

 Total Charge           Charge          ....    0
 Multiplicity           Mult            ....    1
 Number of Electrons    NEL             ....   48
 Basis Dimension        Dim             ....  252

ORBITAL ENERGIES
----------------

  NO   OCC          E(Eh)            E(eV)
   0   2.0000     -16.502909      -449.0670
   1   2.0000     -12.053620      -327.9957
   2   2.0000     -12.053416      -327.9901
   3   2.0000     -12.029498      -327.3393
   4   2.0000     -12.027573      -327.2869
   5   2.0000     -12.027113      -327.2744
   6   2.0000      -1.456688       -39.6385
   7   2.0000      -1.288503       -35.0620
   8   2.0000      -1.250017       -34.0147
   9   2.0000      -1.125411       -30.6240
  10   2.0000      -1.106050       -30.0971
  11   2.0000      -1.027202       -27.9516
  12   2.0000      -0.931773       -25.3548
  13   2.0000      -0.898046       -24.4371
  14   2.0000      -0.894420       -24.3384
  15   2.0000      -0.863868       -23.5070
  16   2.0000      -0.853198       -23.2167
  17   2.0000      -0.815445       -22.1894
  18   2.0000      -0.813908       -22.1476
  19   2.0000      -0.781724       -21.2718
  20   2.0000      -0.769953       -20.9515
  21   2.0000      -0.755618       -20.5614
  22   2.0000      -0.733771       -19.9669
  23   2.0000      -0.703456       -19.1420
  24   0.0000      -0.078593        -2.1386
  25   0.0000      -0.042284        -1.1506
  26   0.0000      -0.020637        -0.5616
  27   0.0000      -0.008450        -0.2299
  28   0.0000      -0.001866        -0.0508

MULLIKEN ATOMIC CHARGES
-----------------------
   0 C :   -0.183385
   1 C :   -0.209275
   2 C :   -0.161649
   3 N :   -0.378764
   4 C :   -0.161645
   5 C :   -0.209277
   6 H :    0.110473
   7 H :    0.100184
   8 H :    0.100421
   9 H :    0.108434
  10 H :    0.122289
  11 H :    0.106823
  12 H :    0.217394
  13 H :    0.122303
  14 H :    0.106808
  15 H :    0.100421
  16 H :    0.108445
Sum of atomic charges:    0.0000000

LOEWDIN ATOMIC CHARGES
----------------------
   0 C :   -0.267363
   1 C :   -0.273364
   2 C :   -0.310593
   3 N :   -0.055177
   4 C :   -0.310591
   5 C :   -0.273365
   6 H :    0.131389
   7 H :    0.135610
   8 H :    0.134142
   9 H :    0.134468
  10 H :    0.126832
  11 H :    0.130028
  12 H :    0.172510
  13 H :    0.126833
  14 H :    0.130028
  15 H :    0.134142
  16 H :    0.134469

  Mayer bond orders larger than 0.100000
B(  0-C ,  1-C ) :   0.9692 B(  0-C ,  5-C ) :   0.9692 B(  0-C ,  6-H ) :   0.9734
B(  0-C ,  7-H ) :   0.9760 B(  1-C ,  2-C ) :   0.9910 B(  1-C ,  8-H ) :   0.9722
B(  1-C ,  9-H ) :   0.9658 B(  2-C ,  3-N ) :   1.0131 B(  2-C , 10-H ) :   0.9765
B(  2-C , 11-H ) :   0.9802 B(  3-N ,  4-C ) :   1.0131 B(  3-N , 12-H ) :   0.9271
B(  4-C ,  5-C ) :   0.9910 B(  4-C , 13-H ) :   0.9765 B(  4-C , 14-H ) :   0.9801
B(  5-C , 15-H ) :   0.9722 B(  5-C , 16-H ) :   0.9658

FINAL SINGLE POINT ENERGY      -251.924274211779

DIPOLE MOMENT
-------------

Method             : SCF
Type of density    : Electron Density
Multiplicity       :   1
Irrep              :   0
Energy             :  -251.9362256546792764 Eh
Relativity type    :
Basis              : AO
                                X                 Y                 Z
Electronic contribution:      1.640276633       0.000793607      -0.297775933
Nuclear contribution   :     -2.332221420      -0.001122617      -0.003087446
                        -----------------------------------------
Total Dipole Moment    :     -0.691944787      -0.000329010      -0.300863379
                        -----------------------------------------
Magnitude (a.u.)       :      0.754524002
Magnitude (Debye)      :      1.917847599

Rotational constants in cm-1:             0.150312             0.146839             0.084912
Rotational constants in MHz :          4506.240173          4402.110837          2545.604686

                             ****ORCA TERMINATED NORMALLY****
TOTAL RUN TIME: 0 days 0 hours 1 minutes 53 seconds 741 msec
