                         Program Version 6.0.0  -   RELEASE  -
|  1> ! pbe def2-sv(p) def2/J RI DEFGRID1 loosescf d4 GCP(DFT/SV(P)) printgap
|  2> %output
|  3>     printlevel normal
|  4> end
|  5> * xyz 0 1
|  6> C -1.5013743566 0.7544213832 0.0815179136
|  7> C -1.3908844263 -0.6710935019 -0.4523095518
|  8> C -0.1339277464 -1.2107553281 0.2331264314
|  9> C 0.7830948428 0.0086164629 0.4583803819
| 10> C -0.0544711189 1.2391534967 0.0535152526
| 11> O 1.9515950697 -0.1455160973 -0.3259836136
| 12> H -1.8713385 0.7402816948 1.1078080492
| 13> H -2.1601137811 1.3801868022 -0.5178937533
| 14> H -2.2696605236 -1.2742227247 -0.2326325545
| 15> H -1.2463529474 -0.6475926539 -1.5329297197
| 16> H -0.3861302248 -1.6675486602 1.1891236381
| 17> H 0.3893436708 -1.9471293769 -0.374380112
| 18> H 1.0724384255 0.0722249793 1.517772896
| 19> H 0.1171468619 2.0915194643 0.7089194329
| 20> H 0.2192333063 1.5169557955 -0.9659468791
| 21> H 2.535549495 0.6111420462 -0.1848290315
| 22> *
| 23>
| 24>                          ****END OF INPUT****

CARTESIAN COORDINATES (ANGSTROEM)
---------------------------------
  C     -1.501374    0.754421    0.081518
  C     -1.390884   -0.671094   -0.452310
  C     -0.133928   -1.210755    0.233126
  C      0.783095    0.008616    0.458380
  C     -0.054471    1.239153    0.053515
  O      1.951595   -0.145516   -0.325984
  H     -1.871338    0.740282    1.107808
  H     -2.160114    1.380187   -0.517894
  H     -2.269661   -1.274223   -0.232633
  H     -1.246353   -0.647593   -1.532930
  H     -0.386130   -1.667549    1.189124
  H      0.389344   -1.947129   -0.374380
  H      1.072438    0.072225    1.517773
  H      0.117147    2.091519    0.708919
  H      0.219233    1.516956   -0.965947
  H      2.535549    0.611142   -0.184829

 Total Charge           Charge          ....    0
 Multiplicity           Mult            ....    1
 Number of Electrons    NEL             ....   48
 Basis Dimension        Dim             ....  104

ORBITAL ENERGIES
----------------

  NO   OCC          E(Eh)            E(eV)
   0   2.0000     -18.736707      -509.8517
   1   2.0000      -9.930724      -270.2287
   2   2.0000      -9.881939      -268.9012
   3   2.0000      -9.878635      -268.8113
   4   2.0000      -9.877710      -268.7862
   5   2.0000      -9.874532      -268.6997
   6   2.0000      -0.913807       -24.8659
   7   2.0000      -0.749559       -20.3965
   8   2.0000      -0.635881       -17.3032
   9   2.0000      -0.621939       -16.9238
  10   2.0000      -0.512369       -13.9423
  11   2.0000      -0.497845       -13.5471
  12   2.0000      -0.466041       -12.6816
  13   2.0000      -0.433870       -11.8062
  14   2.0000      -0.398938       -10.8556
  15   2.0000      -0.371528       -10.1098
  16   2.0000      -0.348677        -9.4880
  17   2.0000      -0.321023        -8.7355
  18   2.0000      -0.298633        -8.1262
  19   2.0000      -0.296073        -8.0566
  20   2.0000      -0.291642        -7.9360
  21   2.0000      -0.283476        -7.7138
  22   2.0000      -0.260793        -7.0965
  23   2.0000      -0.205778        -5.5995
  24   0.0000       0.026607         0.7240
  25   0.0000       0.042858         1.1662
  26   0.0000       0.055210         1.5023
  27   0.0000       0.086809         2.3622
  28   0.0000       0.103965         2.8290

MULLIKEN ATOMIC CHARGES
-----------------------
   0 C :   -0.183461
   1 C :   -0.171782
   2 C :   -0.113970
   3 C :   -0.000060
   4 C :   -0.127589
   5 O :   -0.424326
   6 H :    0.084194
   7 H :    0.091144
   8 H :    0.088354
   9 H :    0.087349
  10 H :    0.078995
  11 H :    0.093426
  12 H :    0.050922
  13 H :    0.081287
  14 H :    0.071981
  15 H :    0.293536
Sum of atomic charges:   -0.0000000

LOEWDIN ATOMIC CHARGES
----------------------
   0 C :   -0.228397
   1 C :   -0.228369
   2 C :   -0.232727
   3 C :   -0.050174
   4 C :   -0.248435
   5 O :   -0.333957
   6 H :    0.114845
   7 H :    0.116801
   8 H :    0.115965
   9 H :    0.118773
  10 H :    0.119454
  11 H :    0.128033
  12 H :    0.094130
  13 H :    0.114108
  14 H :    0.119369
  15 H :    0.280581

  Mayer bond orders larger than 0.100000
B(  0-C ,  1-C ) :   1.1156 B(  0-C ,  4-C ) :   1.1352 B(  0-C ,  6-H ) :   0.9248
B(  0-C ,  7-H ) :   0.9264 B(  1-C ,  2-C ) :   1.1560 B(  1-C ,  8-H ) :   0.9280
B(  1-C ,  9-H ) :   0.9211 B(  2-C ,  3-C ) :   1.1082 B(  2-C , 10-H ) :   0.9155
B(  2-C , 11-H ) :   0.9071 B(  3-C ,  4-C ) :   1.1151 B(  3-C ,  5-O ) :   1.0796
B(  3-C , 12-H ) :   0.9073 B(  4-C , 13-H ) :   0.9190 B(  4-C , 14-H ) :   0.8951
B(  5-O , 15-H ) :   0.8541

Dispersion correction           -0.012275436
FINAL SINGLE POINT ENERGY      -271.121283756518

DIPOLE MOMENT
-------------

Method             : SCF
Type of density    : Electron Density
Multiplicity       :   1
Irrep              :   0
Energy             :  -271.1837429052261541 Eh
Relativity type    :
Basis              : AO
                                X                 Y                 Z
Electronic contribution:      3.288585814      -0.352623559      -0.366530882
Nuclear contribution   :     -3.348339320       0.819503213       0.665964270
                        -----------------------------------------
Total Dipole Moment    :     -0.059753506       0.466879654       0.299433388
                        -----------------------------------------
Magnitude (a.u.)       :      0.557859701
Magnitude (Debye)      :      1.417966673

Rotational constants in cm-1:             0.202160             0.106229             0.080680
Rotational constants in MHz :          6060.610810          3184.680009          2418.734719

                             ****ORCA TERMINATED NORMALLY****
TOTAL RUN TIME: 0 days 0 hours 0 minutes 6 seconds 798 msec
