                         Program Version 6.0.0  -   RELEASE  -
|  1> ! pbe def2-sv(p) def2/J RI DEFGRID1 loosescf d4 GCP(DFT/SV(P)) printgap
|  2> %output
|  3>     printlevel normal
|  4> end
|  5> * xyz 0 1
|  6> C -2.3840412 -1.1803304633 -0.2790808829
|  7> C -1.0652619833 -0.6185308065 0.2626223534
|  8> H -1.1069372776 -0.5745429802 1.3632328477
|  9> C -0.7790712953 0.7950925284 -0.2655633693
| 10> H -0.8024622726 0.773907511 -1.3678139511
| 11> C 0.6206843102 1.2321797191 0.183793558
| 12> H 0.6092847877 1.3393636642 1.2811771306
| 13> C 1.6797434017 0.1893991058 -0.1886109477
| 14> H 1.7892051846 0.158508732 -1.282243418
| 15> C 1.2433358516 -1.2044532646 0.2824223456
| 16> H 1.2757554294 -1.2145462509 1.3919156179
| 17> O -0.0617269444 -1.522098827 -0.152901367
| 18> O 2.0971064985 -2.1382810639 -0.2587749334
| 19> O 2.9052473852 0.4793932042 0.4279570561
| 20> O 0.9985613454 2.4489552299 -0.411977789
| 21> O -1.6829053274 1.7524270892 0.2276088553
| 22> O -3.448598536 -0.3748687172 0.1702073192
| 23> H -2.4818924817 -2.2107362446 0.0791709718
| 24> H -2.327635229 -1.1913689373 -1.3742783013
| 25> H 1.7783933436 -3.0321130228 -0.0533574202
| 26> H 3.1782593177 1.3681774594 0.1511889766
| 27> H 0.2910574405 3.0934189776 -0.2595818297
| 28> H -2.5779817423 1.3695181167 0.2198023059
| 29> H -4.2878150584 -0.7523641639 -0.1302160928
| 30> *
| 31>
| 32>                          ****END OF INPUT****

CARTESIAN COORDINATES (ANGSTROEM)
---------------------------------
  C     -2.384041   -1.180330   -0.279081
  C     -1.065262   -0.618531    0.262622
  H     -1.106937   -0.574543    1.363233
  C     -0.779071    0.795093   -0.265563
  H     -0.802462    0.773908   -1.367814
  C      0.620684    1.232180    0.183794
  H      0.609285    1.339364    1.281177
  C      1.679743    0.189399   -0.188611
  H      1.789205    0.158509   -1.282243
  C      1.243336   -1.204453    0.282422
  H      1.275755   -1.214546    1.391916
  O     -0.061727   -1.522099   -0.152901
  O      2.097106   -2.138281   -0.258775
  O      2.905247    0.479393    0.427957
  O      0.998561    2.448955   -0.411978
  O     -1.682905    1.752427    0.227609
  O     -3.448599   -0.374869    0.170207
  H     -2.481892   -2.210736    0.079171
  H     -2.327635   -1.191369   -1.374278
  H      1.778393   -3.032113   -0.053357
  H      3.178259    1.368177    0.151189
  H      0.291057    3.093419   -0.259582
  H     -2.577982    1.369518    0.219802
  H     -4.287815   -0.752364   -0.130216

 Total Charge           Charge          ....    0
 Multiplicity           Mult            ....    1
 Number of Electrons    NEL             ....   96
 Basis Dimension        Dim             ....  192

ORBITAL ENERGIES
----------------

  NO   OCC          E(Eh)            E(eV)
   0   2.0000     -18.785620      -511.1827
   1   2.0000     -18.773751      -510.8597
   2   2.0000     -18.753797      -510.3168
   3   2.0000     -18.747236      -510.1382
   4   2.0000     -18.743294      -510.0310
   5   2.0000     -18.738153      -509.8911
   6   2.0000      -9.983455      -271.6636
   7   2.0000      -9.950450      -270.7655
   8   2.0000      -9.950092      -270.7558
   9   2.0000      -9.936657      -270.3902
  10   2.0000      -9.932846      -270.2865
  11   2.0000      -9.931268      -270.2435
  12   2.0000      -0.982356       -26.7313
  13   2.0000      -0.957856       -26.0646
  14   2.0000      -0.936903       -25.4944
  15   2.0000      -0.922533       -25.1034
  16   2.0000      -0.911081       -24.7918
  17   2.0000      -0.905320       -24.6350
  18   2.0000      -0.702938       -19.1279
  19   2.0000      -0.692295       -18.8383
  20   2.0000      -0.624089       -16.9823
  21   2.0000      -0.572442       -15.5769
  22   2.0000      -0.558934       -15.2094
  23   2.0000      -0.523593       -14.2477
  24   2.0000      -0.507639       -13.8136
  25   2.0000      -0.490181       -13.3385
  26   2.0000      -0.473403       -12.8819
  27   2.0000      -0.459775       -12.5111
  28   2.0000      -0.456367       -12.4184
  29   2.0000      -0.438609       -11.9351
  30   2.0000      -0.411282       -11.1916
  31   2.0000      -0.401281       -10.9194
  32   2.0000      -0.387432       -10.5426
  33   2.0000      -0.380772       -10.3613
  34   2.0000      -0.353524        -9.6199
  35   2.0000      -0.349202        -9.5023
  36   2.0000      -0.333245        -9.0680
  37   2.0000      -0.320460        -8.7202
  38   2.0000      -0.298680        -8.1275
  39   2.0000      -0.298364        -8.1189
  40   2.0000      -0.277446        -7.5497
  41   2.0000      -0.269366        -7.3298
  42   2.0000      -0.247904        -6.7458
  43   2.0000      -0.244873        -6.6633
  44   2.0000      -0.228521        -6.2184
  45   2.0000      -0.219605        -5.9758
  46   2.0000      -0.210097        -5.7170
  47   2.0000      -0.203632        -5.5411
  48   0.0000      -0.001362        -0.0371
  49   0.0000       0.033714         0.9174
  50   0.0000       0.037401         1.0177
  51   0.0000       0.051311         1.3962
  52   0.0000       0.062977         1.7137

MULLIKEN ATOMIC CHARGES
-----------------------
   0 C :    0.076046
   1 C :   -0.017628
   2 H :    0.061870
   3 C :    0.048901
   4 H :    0.047273
   5 C :    0.074357
   6 H :    0.049996
   7 C :    0.056682
   8 H :    0.060584
   9 C :    0.197864
  10 H :    0.038702
  11 O :   -0.317421
  12 O :   -0.366644
  13 O :   -0.414859
  14 O :   -0.428698
  15 O :   -0.439566
  16 O :   -0.445253
  17 H :    0.088719
  18 H :    0.079260
  19 H :    0.303409
  20 H :    0.307976
  21 H :    0.312289
  22 H :    0.307278
  23 H :    0.318864
Sum of atomic charges:   -0.0000000

LOEWDIN ATOMIC CHARGES
----------------------
   0 C :   -0.122791
   1 C :   -0.067186
   2 H :    0.105709
   3 C :   -0.079030
   4 H :    0.100658
   5 C :   -0.075931
   6 H :    0.103024
   7 C :   -0.075170
   8 H :    0.110067
   9 C :    0.011072
  10 H :    0.082554
  11 O :   -0.153816
  12 O :   -0.284744
  13 O :   -0.314783
  14 O :   -0.325617
  15 O :   -0.336094
  16 O :   -0.330237
  17 H :    0.106025
  18 H :    0.103938
  19 H :    0.288415
  20 H :    0.289475
  21 H :    0.291013
  22 H :    0.275615
  23 H :    0.297837

  Mayer bond orders larger than 0.100000
B(  0-C ,  1-C ) :   1.0573 B(  0-C , 16-O ) :   1.0465 B(  0-C , 17-H ) :   0.9183
B(  0-C , 18-H ) :   0.9075 B(  1-C ,  2-H ) :   0.8757 B(  1-C ,  3-C ) :   1.0123
B(  1-C , 11-O ) :   0.9966 B(  3-C ,  4-H ) :   0.8665 B(  3-C ,  5-C ) :   1.0055
B(  3-C , 15-O ) :   1.0787 B(  5-C ,  6-H ) :   0.8719 B(  5-C ,  7-C ) :   1.0167
B(  5-C , 14-O ) :   1.0823 B(  7-C ,  8-H ) :   0.8651 B(  7-C ,  9-C ) :   0.9989
B(  7-C , 13-O ) :   1.0788 B(  9-C , 10-H ) :   0.8856 B(  9-C , 11-O ) :   0.9959
B(  9-C , 12-O ) :   1.2009 B( 12-O , 19-H ) :   0.8416 B( 13-O , 20-H ) :   0.8402
B( 14-O , 21-H ) :   0.8359 B( 15-O , 22-H ) :   0.8026 B( 16-O , 22-H ) :   0.1055
B( 16-O , 23-H ) :   0.8405

Dispersion correction           -0.023749925
FINAL SINGLE POINT ENERGY      -685.701942913814

DIPOLE MOMENT
-------------

Method             : SCF
Type of density    : Electron Density
Multiplicity       :   1
Irrep              :   0
Energy             :  -685.8326416868101205 Eh
Relativity type    :
Basis              : AO
                                X                 Y                 Z
Electronic contribution:      2.686131249       0.226930316      -0.098614329
Nuclear contribution   :     -4.362504694      -0.809250278       0.017853659
                        -----------------------------------------
Total Dipole Moment    :     -1.676373445      -0.582319962      -0.080760670
                        -----------------------------------------
Magnitude (a.u.)       :      1.776470307
Magnitude (Debye)      :      4.515428673

Rotational constants in cm-1:             0.043902             0.024623             0.016513
Rotational constants in MHz :          1316.141892           738.184201           495.040102

                             ****ORCA TERMINATED NORMALLY****
TOTAL RUN TIME: 0 days 0 hours 0 minutes 11 seconds 882 msec
