                         Program Version 6.0.0  -   RELEASE  -
|  1> ! r2scan-3c def2/J RI DEFGRID2 scfconv6 printgap
|  2> %output
|  3>     printlevel normal
|  4> end
|  5> * xyz 0 1
|  6> C -3.6538245697 -0.0267928525 2.08731e-05
|  7> C -2.22318779 0.5038157132 -2.52567e-05
|  8> C -1.2448347701 -0.652217554 -1.50669e-05
|  9> I 0.8238371442 0.0225612704 8.715e-07
| 10> H -4.3562309941 0.8016366136 -1.75104e-05
| 11> H -3.8369235856 -0.6351030015 -0.8825154494
| 12> H -3.836754018 -0.6348583859 0.8827375242
| 13> H -2.0626468423 1.1263818842 0.8825318099
| 14> H -2.0627929608 1.1261263424 -0.8827663224
| 15> H -1.3525214387 -1.2686744891 -0.8886467769
| 16> H -1.3523585216 -1.2684390447 0.8887987702
| 17> *
| 18>
| 19>                          ****END OF INPUT****

CARTESIAN COORDINATES (ANGSTROEM)
---------------------------------
  C     -3.653825   -0.026793    0.000021
  C     -2.223188    0.503816   -0.000025
  C     -1.244835   -0.652218   -0.000015
  I      0.823837    0.022561    0.000001
  H     -4.356231    0.801637   -0.000018
  H     -3.836924   -0.635103   -0.882515
  H     -3.836754   -0.634858    0.882738
  H     -2.062647    1.126382    0.882532
  H     -2.062793    1.126126   -0.882766
  H     -1.352521   -1.268674   -0.888647
  H     -1.352359   -1.268439    0.888799

 Total Charge           Charge          ....    0
 Multiplicity           Mult            ....    1
 Number of Electrons    NEL             ....   50
 Basis Dimension        Dim             ....  128

ORBITAL ENERGIES
----------------

  NO   OCC          E(Eh)            E(eV)
   0   2.0000     -10.085228      -274.4330
   1   2.0000     -10.046768      -273.3865
   2   2.0000     -10.033760      -273.0325
   3   2.0000      -6.803304      -185.1273
   4   2.0000      -4.821664      -131.2041
   5   2.0000      -4.805823      -130.7731
   6   2.0000      -4.805576      -130.7664
   7   2.0000      -1.857077       -50.5336
   8   2.0000      -1.852962       -50.4216
   9   2.0000      -1.852746       -50.4158
  10   2.0000      -1.839894       -50.0660
  11   2.0000      -1.839873       -50.0655
  12   2.0000      -0.778959       -21.1965
  13   2.0000      -0.690757       -18.7965
  14   2.0000      -0.616632       -16.7794
  15   2.0000      -0.566873       -15.4254
  16   2.0000      -0.456782       -12.4297
  17   2.0000      -0.412354       -11.2207
  18   2.0000      -0.383873       -10.4457
  19   2.0000      -0.381987       -10.3944
  20   2.0000      -0.334696        -9.1075
  21   2.0000      -0.320292        -8.7156
  22   2.0000      -0.306570        -8.3422
  23   2.0000      -0.231494        -6.2993
  24   2.0000      -0.230949        -6.2844
  25   0.0000      -0.055118        -1.4998
  26   0.0000       0.093844         2.5536
  27   0.0000       0.107114         2.9147
  28   0.0000       0.126234         3.4350
  29   0.0000       0.132898         3.6164

MULLIKEN ATOMIC CHARGES
-----------------------
   0 C :   -0.448813
   1 C :   -0.224329
   2 C :   -0.267751
   3 I :   -0.142922
   4 H :    0.154753
   5 H :    0.142875
   6 H :    0.142869
   7 H :    0.152367
   8 H :    0.152361
   9 H :    0.169297
  10 H :    0.169293
Sum of atomic charges:   -0.0000000

LOEWDIN ATOMIC CHARGES
----------------------
   0 C :   -0.419559
   1 C :   -0.333977
   2 C :   -0.414790
   3 I :    0.061502
   4 H :    0.156906
   5 H :    0.151875
   6 H :    0.151870
   7 H :    0.158935
   8 H :    0.158927
   9 H :    0.164156
  10 H :    0.164155

  Mayer bond orders larger than 0.100000
B(  0-C ,  1-C ) :   0.8890 B(  0-C ,  4-H ) :   0.9658 B(  0-C ,  5-H ) :   0.9772
B(  0-C ,  6-H ) :   0.9772 B(  1-C ,  2-C ) :   0.9318 B(  1-C ,  7-H ) :   0.9642
B(  1-C ,  8-H ) :   0.9643 B(  2-C ,  3-I ) :   0.9712 B(  2-C ,  9-H ) :   0.9520
B(  2-C , 10-H ) :   0.9520

Dispersion correction           -0.002439667
FINAL SINGLE POINT ENERGY      -416.230193221265

DIPOLE MOMENT
-------------

Method             : SCF
Type of density    : Electron Density
Multiplicity       :   1
Irrep              :   0
Energy             :  -416.2327006881832858 Eh
Relativity type    :
Basis              : AO
                                X                 Y                 Z
Electronic contribution:     76.566589106       2.201605157      -0.000032074
Nuclear contribution   :    -77.466331380      -2.343279444       0.000051271
                        -----------------------------------------
Total Dipole Moment    :     -0.899742274      -0.141674287       0.000019197
                        -----------------------------------------
Magnitude (a.u.)       :      0.910828065
Magnitude (Debye)      :      2.315140953

Rotational constants in cm-1:             0.833433             0.043196             0.042037
Rotational constants in MHz :         24985.697562          1294.971702          1260.226108

                             ****ORCA TERMINATED NORMALLY****
TOTAL RUN TIME: 0 days 0 hours 0 minutes 11 seconds 61 msec
