                         Program Version 6.0.0  -   RELEASE  -
|  1> ! r2scan-3c def2/J RI DEFGRID2 scfconv6 printgap
|  2> %output
|  3>     printlevel normal
|  4> end
|  5> %cpcm
|  6>     smd true
|  7>     smdsolvent "water"
|  8> end
|  9> * xyz 0 1
| 10> C -3.6538245697 -0.0267928525 2.08731e-05
| 11> C -2.22318779 0.5038157132 -2.52567e-05
| 12> C -1.2448347701 -0.652217554 -1.50669e-05
| 13> I 0.8238371442 0.0225612704 8.715e-07
| 14> H -4.3562309941 0.8016366136 -1.75104e-05
| 15> H -3.8369235856 -0.6351030015 -0.8825154494
| 16> H -3.836754018 -0.6348583859 0.8827375242
| 17> H -2.0626468423 1.1263818842 0.8825318099
| 18> H -2.0627929608 1.1261263424 -0.8827663224
| 19> H -1.3525214387 -1.2686744891 -0.8886467769
| 20> H -1.3523585216 -1.2684390447 0.8887987702
| 21> *
| 22>
| 23>                          ****END OF INPUT****

CARTESIAN COORDINATES (ANGSTROEM)
---------------------------------
  C     -3.653825   -0.026793    0.000021
  C     -2.223188    0.503816   -0.000025
  C     -1.244835   -0.652218   -0.000015
  I      0.823837    0.022561    0.000001
  H     -4.356231    0.801637   -0.000018
  H     -3.836924   -0.635103   -0.882515
  H     -3.836754   -0.634858    0.882738
  H     -2.062647    1.126382    0.882532
  H     -2.062793    1.126126   -0.882766
  H     -1.352521   -1.268674   -0.888647
  H     -1.352359   -1.268439    0.888799

 Total Charge           Charge          ....    0
 Multiplicity           Mult            ....    1
 Number of Electrons    NEL             ....   50
 Basis Dimension        Dim             ....  128

ORBITAL ENERGIES
----------------

  NO   OCC          E(Eh)            E(eV)
   0   2.0000     -10.071339      -274.0551
   1   2.0000     -10.030537      -272.9448
   2   2.0000     -10.014767      -272.5157
   3   2.0000      -6.801342      -185.0739
   4   2.0000      -4.818712      -131.1238
   5   2.0000      -4.804387      -130.7340
   6   2.0000      -4.804112      -130.7265
   7   2.0000      -1.854328       -50.4588
   8   2.0000      -1.850618       -50.3579
   9   2.0000      -1.850377       -50.3513
  10   2.0000      -1.838820       -50.0368
  11   2.0000      -1.838806       -50.0365
  12   2.0000      -0.762928       -20.7603
  13   2.0000      -0.679125       -18.4799
  14   2.0000      -0.607215       -16.5232
  15   2.0000      -0.550734       -14.9862
  16   2.0000      -0.438843       -11.9415
  17   2.0000      -0.395422       -10.7600
  18   2.0000      -0.369094       -10.0435
  19   2.0000      -0.363615        -9.8945
  20   2.0000      -0.317289        -8.6339
  21   2.0000      -0.301905        -8.2153
  22   2.0000      -0.295190        -8.0325
  23   2.0000      -0.232584        -6.3289
  24   2.0000      -0.231915        -6.3107
  25   0.0000      -0.045376        -1.2347
  26   0.0000       0.112093         3.0502
  27   0.0000       0.119737         3.2582
  28   0.0000       0.139631         3.7996
  29   0.0000       0.148963         4.0535

MULLIKEN ATOMIC CHARGES
-----------------------
   0 C :   -0.490835
   1 C :   -0.230712
   2 C :   -0.245347
   3 I :   -0.211765
   4 H :    0.165075
   5 H :    0.156827
   6 H :    0.156815
   7 H :    0.158278
   8 H :    0.158268
   9 H :    0.191703
  10 H :    0.191693
Sum of atomic charges:    0.0000000

LOEWDIN ATOMIC CHARGES
----------------------
   0 C :   -0.424441
   1 C :   -0.333225
   2 C :   -0.401181
   3 I :    0.021956
   4 H :    0.159467
   5 H :    0.155843
   6 H :    0.155836
   7 H :    0.159902
   8 H :    0.159893
   9 H :    0.172977
  10 H :    0.172973

  Mayer bond orders larger than 0.100000
B(  0-C ,  1-C ) :   0.8873 B(  0-C ,  4-H ) :   0.9632 B(  0-C ,  5-H ) :   0.9749
B(  0-C ,  6-H ) :   0.9749 B(  1-C ,  2-C ) :   0.9278 B(  1-C ,  7-H ) :   0.9650
B(  1-C ,  8-H ) :   0.9650 B(  2-C ,  3-I ) :   0.9131 B(  2-C ,  9-H ) :   0.9455
B(  2-C , 10-H ) :   0.9455

Dispersion correction           -0.002439667
FINAL SINGLE POINT ENERGY      -416.232617790132

DIPOLE MOMENT
-------------

Method             : SCF
Type of density    : Electron Density
Multiplicity       :   1
Irrep              :   0
Energy             :  -416.2351252570500151 Eh
Relativity type    :
Basis              : AO
                                X                 Y                 Z
Electronic contribution:     76.317818398       2.098296765      -0.000008290
Nuclear contribution   :    -77.466331380      -2.343279444       0.000051271
                        -----------------------------------------
Total Dipole Moment    :     -1.148512981      -0.244982679       0.000042981
                        -----------------------------------------
Magnitude (a.u.)       :      1.174350281
Magnitude (Debye)      :      2.984961197

Rotational constants in cm-1:             0.833433             0.043196             0.042037
Rotational constants in MHz :         24985.697562          1294.971702          1260.226108

                             ****ORCA TERMINATED NORMALLY****
TOTAL RUN TIME: 0 days 0 hours 0 minutes 12 seconds 143 msec
