                         Program Version 6.0.0  -   RELEASE  -
|  1> ! wb97x-v def2-tzvp def2/J RIJCOSX DEFGRID2 scfconv7 GCP(DFT/TZ) printgap
|  2> %output
|  3>     printlevel normal
|  4> end
|  5> * xyz 0 1
|  6> C -3.1871581700211182 0.0023451037044092014 0.8438166145224018
|  7> C -2.4684074652027754 -0.0014039497198818861 -0.5105031130833138
|  8> C -0.9709612151391814 -0.0010569028128751305 -0.3476295397377519
|  9> C -0.2575929435900277 -1.19810074990304 -0.23605709540762496
| 10> C 1.1183321410514795 -1.19764148949263 -0.022904395073695516
| 11> C 1.8315953741028606 0.00014685524483753728 0.08596834838055238
| 12> C 1.1175086091579451 1.197458204905835 -0.02474712967490994
| 13> C -0.258243044695463 1.196721215094329 -0.23791136743439872
| 14> C 3.3216682524544434 0.0012659308442541752 0.2816847998335615
| 15> H -2.9145735943505233 0.8891951240365485 1.425857402962719
| 16> H -2.9158718110765927 -0.8821592011694248 1.4300022144000706
| 17> H -4.273834760973932 0.002854687508875416 0.7103956092155845
| 18> H -2.774692029071021 0.8797870862959989 -1.0853084004450142
| 19> H -2.7748298147332404 -0.8856415256802402 -1.0805193119424372
| 20> H -0.7880965043383349 -2.1440361184477723 -0.31511483377894856
| 21> H 1.6487636908472647 -2.143017411583515 0.05924590316458453
| 22> H 1.6473908843274037 2.1432905445718813 0.055895621825336944
| 23> H -0.7893814908684659 2.142174468264533 -0.31848359743564914
| 24> H 3.6522683328074956 -0.8935494534539326 0.8164095746716762
| 25> H 3.842668895185035 0.016565822082094412 -0.6833935837812969
| 26> H 3.647691861113268 0.8824905611007262 0.841369000446828
| 27> *
| 28>
| 29>                          ****END OF INPUT****

CARTESIAN COORDINATES (ANGSTROEM)
---------------------------------
  C     -3.187158    0.002345    0.843817
  C     -2.468407   -0.001404   -0.510503
  C     -0.970961   -0.001057   -0.347630
  C     -0.257593   -1.198101   -0.236057
  C      1.118332   -1.197641   -0.022904
  C      1.831595    0.000147    0.085968
  C      1.117509    1.197458   -0.024747
  C     -0.258243    1.196721   -0.237911
  C      3.321668    0.001266    0.281685
  H     -2.914574    0.889195    1.425857
  H     -2.915872   -0.882159    1.430002
  H     -4.273835    0.002855    0.710396
  H     -2.774692    0.879787   -1.085308
  H     -2.774830   -0.885642   -1.080519
  H     -0.788097   -2.144036   -0.315115
  H      1.648764   -2.143017    0.059246
  H      1.647391    2.143291    0.055896
  H     -0.789381    2.142174   -0.318484
  H      3.652268   -0.893549    0.816410
  H      3.842669    0.016566   -0.683394
  H      3.647692    0.882491    0.841369

 Total Charge           Charge          ....    0
 Multiplicity           Mult            ....    1
 Number of Electrons    NEL             ....   66
 Basis Dimension        Dim             ....  351

ORBITAL ENERGIES
----------------

  NO   OCC          E(Eh)            E(eV)
   0   2.0000     -12.054367      -328.0160
   1   2.0000     -12.051268      -327.9317
   2   2.0000     -12.046259      -327.7954
   3   2.0000     -12.045571      -327.7767
   4   2.0000     -12.044776      -327.7550
   5   2.0000     -12.043305      -327.7150
   6   2.0000     -12.042954      -327.7054
   7   2.0000     -12.041007      -327.6525
   8   2.0000     -12.035648      -327.5066
   9   2.0000      -1.382076       -37.6082
  10   2.0000      -1.310906       -35.6716
  11   2.0000      -1.265582       -34.4382
  12   2.0000      -1.251149       -34.0455
  13   2.0000      -1.186902       -32.2972
  14   2.0000      -1.112906       -30.2837
  15   2.0000      -1.103088       -30.0165
  16   2.0000      -1.057012       -28.7628
  17   2.0000      -0.955908       -26.0116
  18   2.0000      -0.943943       -25.6860
  19   2.0000      -0.907022       -24.6813
  20   2.0000      -0.873614       -23.7722
  21   2.0000      -0.866250       -23.5719
  22   2.0000      -0.859994       -23.4016
  23   2.0000      -0.840026       -22.8583
  24   2.0000      -0.834788       -22.7157
  25   2.0000      -0.822368       -22.3778
  26   2.0000      -0.819489       -22.2994
  27   2.0000      -0.791640       -21.5416
  28   2.0000      -0.783403       -21.3175
  29   2.0000      -0.766196       -20.8493
  30   2.0000      -0.750971       -20.4350
  31   2.0000      -0.632620       -17.2145
  32   2.0000      -0.625395       -17.0179
  33   0.0000      -0.237539        -6.4638
  34   0.0000      -0.231473        -6.2987
  35   0.0000      -0.074750        -2.0341
  36   0.0000      -0.048231        -1.3124
  37   0.0000      -0.018496        -0.5033

MULLIKEN ATOMIC CHARGES
-----------------------
   0 C :   -0.335937
   1 C :   -0.211639
   2 C :    0.195464
   3 C :   -0.206252
   4 C :   -0.178269
   5 C :    0.140147
   6 C :   -0.178398
   7 C :   -0.205797
   8 C :   -0.363534
   9 H :    0.111074
  10 H :    0.111081
  11 H :    0.109212
  12 H :    0.102507
  13 H :    0.102490
  14 H :    0.112088
  15 H :    0.111314
  16 H :    0.111440
  17 H :    0.112169
  18 H :    0.118312
  19 H :    0.123923
  20 H :    0.118605
Sum of atomic charges:    0.0000000

LOEWDIN ATOMIC CHARGES
----------------------
   0 C :   -0.295307
   1 C :   -0.243165
   2 C :   -0.149039
   3 C :   -0.113184
   4 C :   -0.117005
   5 C :   -0.172759
   6 C :   -0.116819
   7 C :   -0.113159
   8 C :   -0.254008
   9 H :    0.118000
  10 H :    0.118007
  11 H :    0.114376
  12 H :    0.137793
  13 H :    0.137780
  14 H :    0.143588
  15 H :    0.142477
  16 H :    0.142537
  17 H :    0.143600
  18 H :    0.124448
  19 H :    0.127285
  20 H :    0.124554

  Mayer bond orders larger than 0.100000
B(  0-C ,  1-C ) :   0.9766 B(  0-C ,  9-H ) :   0.9797 B(  0-C , 10-H ) :   0.9796
B(  0-C , 11-H ) :   0.9781 B(  1-C ,  2-C ) :   0.8942 B(  1-C , 12-H ) :   0.9897
B(  1-C , 13-H ) :   0.9898 B(  2-C ,  3-C ) :   1.3820 B(  2-C ,  7-C ) :   1.3806
B(  3-C ,  4-C ) :   1.4493 B(  3-C , 14-H ) :   0.9767 B(  4-C ,  5-C ) :   1.3844
B(  4-C , 15-H ) :   0.9751 B(  5-C ,  6-C ) :   1.3820 B(  5-C ,  8-C ) :   0.9193
B(  6-C ,  7-C ) :   1.4503 B(  6-C , 16-H ) :   0.9756 B(  7-C , 17-H ) :   0.9767
B(  8-C , 18-H ) :   0.9930 B(  8-C , 19-H ) :   0.9633 B(  8-C , 20-H ) :   0.9924

FINAL SINGLE POINT ENERGY      -350.205100252501

DIPOLE MOMENT
-------------

Method             : SCF
Type of density    : Electron Density
Multiplicity       :   1
Irrep              :   0
Energy             :  -350.2175036295005270 Eh
Relativity type    :
Basis              : AO
                                X                 Y                 Z
Electronic contribution:      2.636933571      -0.006154872      -1.747493881
Nuclear contribution   :     -2.633789407       0.007010782       1.755642531
                        -----------------------------------------
Total Dipole Moment    :      0.003144164       0.000855910       0.008148650
                        -----------------------------------------
Magnitude (a.u.)       :      0.008776038
Magnitude (Debye)      :      0.022306916

Rotational constants in cm-1:             0.144402             0.031505             0.027973
Rotational constants in MHz :          4329.055183           944.499999           838.603309

                             ****ORCA TERMINATED NORMALLY****
TOTAL RUN TIME: 0 days 0 hours 4 minutes 7 seconds 340 msec
