                         Program Version 6.0.0  -   RELEASE  -
|  1> ! wb97x-v def2-tzvp def2/J RIJCOSX DEFGRID2 scfconv7 GCP(DFT/TZ) printgap
|  2> %output
|  3>     printlevel normal
|  4> end
|  5> %cpcm
|  6>     smd true
|  7>     smdsolvent "water"
|  8> end
|  9> * xyz 0 1
| 10> C -3.1871581700211182 0.0023451037044092014 0.8438166145224018
| 11> C -2.4684074652027754 -0.0014039497198818861 -0.5105031130833138
| 12> C -0.9709612151391814 -0.0010569028128751305 -0.3476295397377519
| 13> C -0.2575929435900277 -1.19810074990304 -0.23605709540762496
| 14> C 1.1183321410514795 -1.19764148949263 -0.022904395073695516
| 15> C 1.8315953741028606 0.00014685524483753728 0.08596834838055238
| 16> C 1.1175086091579451 1.197458204905835 -0.02474712967490994
| 17> C -0.258243044695463 1.196721215094329 -0.23791136743439872
| 18> C 3.3216682524544434 0.0012659308442541752 0.2816847998335615
| 19> H -2.9145735943505233 0.8891951240365485 1.425857402962719
| 20> H -2.9158718110765927 -0.8821592011694248 1.4300022144000706
| 21> H -4.273834760973932 0.002854687508875416 0.7103956092155845
| 22> H -2.774692029071021 0.8797870862959989 -1.0853084004450142
| 23> H -2.7748298147332404 -0.8856415256802402 -1.0805193119424372
| 24> H -0.7880965043383349 -2.1440361184477723 -0.31511483377894856
| 25> H 1.6487636908472647 -2.143017411583515 0.05924590316458453
| 26> H 1.6473908843274037 2.1432905445718813 0.055895621825336944
| 27> H -0.7893814908684659 2.142174468264533 -0.31848359743564914
| 28> H 3.6522683328074956 -0.8935494534539326 0.8164095746716762
| 29> H 3.842668895185035 0.016565822082094412 -0.6833935837812969
| 30> H 3.647691861113268 0.8824905611007262 0.841369000446828
| 31> *
| 32>
| 33>                          ****END OF INPUT****

CARTESIAN COORDINATES (ANGSTROEM)
---------------------------------
  C     -3.187158    0.002345    0.843817
  C     -2.468407   -0.001404   -0.510503
  C     -0.970961   -0.001057   -0.347630
  C     -0.257593   -1.198101   -0.236057
  C      1.118332   -1.197641   -0.022904
  C      1.831595    0.000147    0.085968
  C      1.117509    1.197458   -0.024747
  C     -0.258243    1.196721   -0.237911
  C      3.321668    0.001266    0.281685
  H     -2.914574    0.889195    1.425857
  H     -2.915872   -0.882159    1.430002
  H     -4.273835    0.002855    0.710396
  H     -2.774692    0.879787   -1.085308
  H     -2.774830   -0.885642   -1.080519
  H     -0.788097   -2.144036   -0.315115
  H      1.648764   -2.143017    0.059246
  H      1.647391    2.143291    0.055896
  H     -0.789381    2.142174   -0.318484
  H      3.652268   -0.893549    0.816410
  H      3.842669    0.016566   -0.683394
  H      3.647692    0.882491    0.841369

 Total Charge           Charge          ....    0
 Multiplicity           Mult            ....    1
 Number of Electrons    NEL             ....   66
 Basis Dimension        Dim             ....  351

ORBITAL ENERGIES
----------------

  NO   OCC          E(Eh)            E(eV)
   0   2.0000     -12.053792      -328.0004
   1   2.0000     -12.050443      -327.9092
   2   2.0000     -12.044025      -327.7346
   3   2.0000     -12.043290      -327.7146
   4   2.0000     -12.041777      -327.6734
   5   2.0000     -12.041485      -327.6655
   6   2.0000     -12.038692      -327.5895
   7   2.0000     -12.032650      -327.4251
   8   2.0000     -12.028716      -327.3180
   9   2.0000      -1.382337       -37.6153
  10   2.0000      -1.308277       -35.6000
  11   2.0000      -1.265452       -34.4347
  12   2.0000      -1.246100       -33.9081
  13   2.0000      -1.182148       -32.1679
  14   2.0000      -1.108026       -30.1509
  15   2.0000      -1.101670       -29.9780
  16   2.0000      -1.054072       -28.6827
  17   2.0000      -0.954583       -25.9755
  18   2.0000      -0.940497       -25.5922
  19   2.0000      -0.902719       -24.5642
  20   2.0000      -0.869582       -23.6625
  21   2.0000      -0.863710       -23.5027
  22   2.0000      -0.852971       -23.2105
  23   2.0000      -0.834930       -22.7196
  24   2.0000      -0.828391       -22.5417
  25   2.0000      -0.815321       -22.1860
  26   2.0000      -0.814798       -22.1718
  27   2.0000      -0.787139       -21.4191
  28   2.0000      -0.777625       -21.1602
  29   2.0000      -0.759086       -20.6558
  30   2.0000      -0.751282       -20.4434
  31   2.0000      -0.634397       -17.2628
  32   2.0000      -0.626011       -17.0346
  33   0.0000      -0.238118        -6.4795
  34   0.0000      -0.232541        -6.3278
  35   0.0000      -0.073844        -2.0094
  36   0.0000      -0.041773        -1.1367
  37   0.0000      -0.012704        -0.3457

MULLIKEN ATOMIC CHARGES
-----------------------
   0 C :   -0.396263
   1 C :   -0.191906
   2 C :    0.144116
   3 C :   -0.242342
   4 C :   -0.220662
   5 C :    0.104225
   6 C :   -0.220598
   7 C :   -0.241912
   8 C :   -0.392670
   9 H :    0.125731
  10 H :    0.125706
  11 H :    0.128026
  12 H :    0.119408
  13 H :    0.119431
  14 H :    0.154634
  15 H :    0.154947
  16 H :    0.154914
  17 H :    0.154688
  18 H :    0.140394
  19 H :    0.139713
  20 H :    0.140420
Sum of atomic charges:    0.0000000

LOEWDIN ATOMIC CHARGES
----------------------
   0 C :   -0.301418
   1 C :   -0.242006
   2 C :   -0.159391
   3 C :   -0.122871
   4 C :   -0.127698
   5 C :   -0.183052
   6 C :   -0.127454
   7 C :   -0.122812
   8 C :   -0.256377
   9 H :    0.119521
  10 H :    0.119517
  11 H :    0.118470
  12 H :    0.142339
  13 H :    0.142328
  14 H :    0.153160
  15 H :    0.151906
  16 H :    0.151951
  17 H :    0.153176
  18 H :    0.129518
  19 H :    0.131598
  20 H :    0.129594

  Mayer bond orders larger than 0.100000
B(  0-C ,  1-C ) :   0.9662 B(  0-C ,  9-H ) :   0.9786 B(  0-C , 10-H ) :   0.9785
B(  0-C , 11-H ) :   0.9753 B(  1-C ,  2-C ) :   0.9123 B(  1-C , 12-H ) :   0.9821
B(  1-C , 13-H ) :   0.9822 B(  2-C ,  3-C ) :   1.3637 B(  2-C ,  7-C ) :   1.3623
B(  3-C ,  4-C ) :   1.4292 B(  3-C , 14-H ) :   0.9835 B(  4-C ,  5-C ) :   1.3637
B(  4-C , 15-H ) :   0.9819 B(  5-C ,  6-C ) :   1.3613 B(  5-C ,  8-C ) :   0.9352
B(  6-C ,  7-C ) :   1.4304 B(  6-C , 16-H ) :   0.9824 B(  7-C , 17-H ) :   0.9835
B(  8-C , 18-H ) :   0.9871 B(  8-C , 19-H ) :   0.9584 B(  8-C , 20-H ) :   0.9864

FINAL SINGLE POINT ENERGY      -350.205736282272

DIPOLE MOMENT
-------------

Method             : SCF
Type of density    : Electron Density
Multiplicity       :   1
Irrep              :   0
Energy             :  -350.2181396592722535 Eh
Relativity type    :
Basis              : AO
                                X                 Y                 Z
Electronic contribution:      2.621647209      -0.005720896      -1.755521782
Nuclear contribution   :     -2.633789407       0.007010782       1.755642531
                        -----------------------------------------
Total Dipole Moment    :     -0.012142198       0.001289885       0.000120749
                        -----------------------------------------
Magnitude (a.u.)       :      0.012211116
Magnitude (Debye)      :      0.031038190

Rotational constants in cm-1:             0.144402             0.031505             0.027973
Rotational constants in MHz :          4329.055183           944.499999           838.603309

                             ****ORCA TERMINATED NORMALLY****
TOTAL RUN TIME: 0 days 0 hours 3 minutes 49 seconds 670 msec
