                         Program Version 6.0.0  -   RELEASE  -
|  1> ! wb97x-v def2-tzvp def2/J RIJCOSX DEFGRID2 scfconv7 GCP(DFT/TZ) printgap
|  2> %output
|  3>     printlevel normal
|  4> end
|  5> * xyz 0 1
|  6> C -4.269023268995342 -0.26137493059144495 0.0012284528575841008
|  7> C -2.7783368422432955 -0.09022532503689248 -0.019828844129691967
|  8> C -1.9476797925939755 -0.9558395955238327 0.6999923535779418
|  9> C -0.567964637315267 -0.7895667381805891 0.703576604553791
| 10> C 0.016390299341480532 0.2646847463871464 -0.004587023945864077
| 11> C -0.8068630941130294 1.1446550208238004 -0.7115430842006196
| 12> C -2.183459723349049 0.9575961688074273 -0.7307285234291302
| 13> C 1.4798056765669063 0.5527611950632795 0.05891277613005857
| 14> O 1.8620316923208433 1.718625020686024 0.300820028742999
| 15> N 2.357009574244752 -0.4602737630337008 -0.107388607270249
| 16> C 3.7839904081890556 -0.1852876647262312 0.05619679484392032
| 17> C 2.037285033246711 -1.746298030570491 -0.727692968729758
| 18> H -4.5468432769487945 -1.3177266514715393 0.05417685834018213
| 19> H -4.698736218334525 0.2328028829280149 0.88099100377993
| 20> H -4.731876247250794 0.18183085730106668 -0.8842582186513465
| 21> H -2.389203586580656 -1.7714869289265467 1.2660516191226419
| 22> H 0.05343476771718762 -1.4752412450057455 1.2710250079646905
| 23> H -0.36153585174791864 1.9705338899078269 -1.2575788700350876
| 24> H -2.809181215827065 1.6377896730459995 -1.3018714139022747
| 25> H 4.295772425509869 -1.1253607784578827 0.2755430577758926
| 26> H 3.9432043633618283 0.5086450086158162 0.8826447683430318
| 27> H 4.2142251507818145 0.2461153627688729 -0.8563448347128296
| 28> H 2.7081617484891614 -1.90274418385379 -1.5798175981033415
| 29> H 1.0119717888616164 -1.7568247236660266 -1.0938374332707606
| 30> H 2.177113699684956 -2.5710912397093266 -0.020525793016605894
| 31> *
| 32>
| 33>                          ****END OF INPUT****

CARTESIAN COORDINATES (ANGSTROEM)
---------------------------------
  C     -4.269023   -0.261375    0.001228
  C     -2.778337   -0.090225   -0.019829
  C     -1.947680   -0.955840    0.699992
  C     -0.567965   -0.789567    0.703577
  C      0.016390    0.264685   -0.004587
  C     -0.806863    1.144655   -0.711543
  C     -2.183460    0.957596   -0.730729
  C      1.479806    0.552761    0.058913
  O      1.862032    1.718625    0.300820
  N      2.357010   -0.460274   -0.107389
  C      3.783990   -0.185288    0.056197
  C      2.037285   -1.746298   -0.727693
  H     -4.546843   -1.317727    0.054177
  H     -4.698736    0.232803    0.880991
  H     -4.731876    0.181831   -0.884258
  H     -2.389204   -1.771487    1.266052
  H      0.053435   -1.475241    1.271025
  H     -0.361536    1.970534   -1.257579
  H     -2.809181    1.637790   -1.301871
  H      4.295772   -1.125361    0.275543
  H      3.943204    0.508645    0.882645
  H      4.214225    0.246115   -0.856345
  H      2.708162   -1.902744   -1.579818
  H      1.011972   -1.756825   -1.093837
  H      2.177114   -2.571091   -0.020526

 Total Charge           Charge          ....    0
 Multiplicity           Mult            ....    1
 Number of Electrons    NEL             ....   88
 Basis Dimension        Dim             ....  450

ORBITAL ENERGIES
----------------

  NO   OCC          E(Eh)            E(eV)
   0   2.0000     -21.622351      -588.3741
   1   2.0000     -16.559883      -450.6173
   2   2.0000     -12.143459      -330.4403
   3   2.0000     -12.087267      -328.9113
   4   2.0000     -12.075523      -328.5917
   5   2.0000     -12.067211      -328.3655
   6   2.0000     -12.062193      -328.2290
   7   2.0000     -12.060150      -328.1734
   8   2.0000     -12.055810      -328.0553
   9   2.0000     -12.053812      -328.0009
  10   2.0000     -12.051836      -327.9471
  11   2.0000     -12.048518      -327.8568
  12   2.0000      -1.668811       -45.4107
  13   2.0000      -1.527435       -41.5636
  14   2.0000      -1.393109       -37.9084
  15   2.0000      -1.312517       -35.7154
  16   2.0000      -1.278447       -34.7883
  17   2.0000      -1.243680       -33.8423
  18   2.0000      -1.238913       -33.7125
  19   2.0000      -1.198842       -32.6221
  20   2.0000      -1.116286       -30.3757
  21   2.0000      -1.109179       -30.1823
  22   2.0000      -1.058478       -28.8026
  23   2.0000      -1.016083       -27.6490
  24   2.0000      -1.005544       -27.3622
  25   2.0000      -0.963928       -26.2298
  26   2.0000      -0.945189       -25.7199
  27   2.0000      -0.929898       -25.3038
  28   2.0000      -0.922684       -25.1075
  29   2.0000      -0.897758       -24.4292
  30   2.0000      -0.878345       -23.9010
  31   2.0000      -0.865963       -23.5640
  32   2.0000      -0.855309       -23.2741
  33   2.0000      -0.847128       -23.0515
  34   2.0000      -0.843393       -22.9499
  35   2.0000      -0.838518       -22.8172
  36   2.0000      -0.832262       -22.6470
  37   2.0000      -0.826826       -22.4991
  38   2.0000      -0.814158       -22.1544
  39   2.0000      -0.801493       -21.8097
  40   2.0000      -0.769684       -20.9442
  41   2.0000      -0.736344       -20.0369
  42   2.0000      -0.645906       -17.5760
  43   2.0000      -0.643438       -17.5088
  44   0.0000      -0.305390        -8.3101
  45   0.0000      -0.241051        -6.5593
  46   0.0000      -0.226770        -6.1707
  47   0.0000      -0.126851        -3.4518
  48   0.0000      -0.097243        -2.6461

MULLIKEN ATOMIC CHARGES
-----------------------
   0 C :   -0.365703
   1 C :    0.151780
   2 C :   -0.170456
   3 C :   -0.201101
   4 C :    0.119534
   5 C :   -0.191670
   6 C :   -0.182638
   7 C :    0.227689
   8 O :   -0.406668
   9 N :   -0.071617
  10 C :   -0.285964
  11 C :   -0.318912
  12 H :    0.120859
  13 H :    0.130151
  14 H :    0.120925
  15 H :    0.116000
  16 H :    0.130842
  17 H :    0.134478
  18 H :    0.117042
  19 H :    0.120005
  20 H :    0.153749
  21 H :    0.126575
  22 H :    0.132028
  23 H :    0.162752
  24 H :    0.130322
Sum of atomic charges:    0.0000000

LOEWDIN ATOMIC CHARGES
----------------------
   0 C :   -0.250316
   1 C :   -0.161707
   2 C :   -0.116081
   3 C :   -0.104354
   4 C :   -0.122509
   5 C :   -0.081341
   6 C :   -0.111304
   7 C :   -0.376618
   8 O :    0.029711
   9 N :    0.157363
  10 C :   -0.272227
  11 C :   -0.279544
  12 H :    0.125806
  13 H :    0.130631
  14 H :    0.125757
  15 H :    0.144343
  16 H :    0.148581
  17 H :    0.154061
  18 H :    0.144760
  19 H :    0.114969
  20 H :    0.126952
  21 H :    0.115118
  22 H :    0.117036
  23 H :    0.129316
  24 H :    0.111600

  Mayer bond orders larger than 0.100000
B(  0-C ,  1-C ) :   0.9228 B(  0-C , 12-H ) :   0.9895 B(  0-C , 13-H ) :   0.9626
B(  0-C , 14-H ) :   0.9928 B(  1-C ,  2-C ) :   1.3776 B(  1-C ,  6-C ) :   1.3777
B(  2-C ,  3-C ) :   1.4494 B(  2-C , 15-H ) :   0.9769 B(  3-C ,  4-C ) :   1.3466
B(  3-C , 16-H ) :   0.9743 B(  4-C ,  5-C ) :   1.4143 B(  4-C ,  7-C ) :   0.8781
B(  5-C ,  6-C ) :   1.4485 B(  5-C , 17-H ) :   0.9700 B(  6-C , 18-H ) :   0.9762
B(  7-C ,  8-O ) :   2.0226 B(  7-C ,  9-N ) :   1.2826 B(  9-N , 10-C ) :   0.9308
B(  9-N , 11-C ) :   0.9214 B( 10-C , 19-H ) :   0.9697 B( 10-C , 20-H ) :   0.9695
B( 10-C , 21-H ) :   0.9782 B( 11-C , 22-H ) :   0.9699 B( 11-C , 23-H ) :   0.9698
B( 11-C , 24-H ) :   0.9794

FINAL SINGLE POINT ENERGY      -518.905858083257

DIPOLE MOMENT
-------------

Method             : SCF
Type of density    : Electron Density
Multiplicity       :   1
Irrep              :   0
Energy             :  -518.9211103904572155 Eh
Relativity type    :
Basis              : AO
                                X                 Y                 Z
Electronic contribution:      0.587030997       5.212747027       1.276231282
Nuclear contribution   :     -0.931199396      -6.717982584      -1.676761737
                        -----------------------------------------
Total Dipole Moment    :     -0.344168400      -1.505235557      -0.400530455
                        -----------------------------------------
Magnitude (a.u.)       :      1.595183568
Magnitude (Debye)      :      4.054634402

Rotational constants in cm-1:             0.079480             0.016912             0.015045
Rotational constants in MHz :          2382.753594           507.003483           451.045675

                             ****ORCA TERMINATED NORMALLY****
TOTAL RUN TIME: 0 days 0 hours 5 minutes 53 seconds 359 msec
