                         Program Version 6.0.0  -   RELEASE  -
|  1> ! wb97x-v def2-tzvp def2/J RIJCOSX DEFGRID2 scfconv7 GCP(DFT/TZ) printgap
|  2> %output
|  3>     printlevel normal
|  4> end
|  5> %cpcm
|  6>     smd true
|  7>     smdsolvent "water"
|  8> end
|  9> * xyz 0 1
| 10> C -4.269023268995342 -0.26137493059144495 0.0012284528575841008
| 11> C -2.7783368422432955 -0.09022532503689248 -0.019828844129691967
| 12> C -1.9476797925939755 -0.9558395955238327 0.6999923535779418
| 13> C -0.567964637315267 -0.7895667381805891 0.703576604553791
| 14> C 0.016390299341480532 0.2646847463871464 -0.004587023945864077
| 15> C -0.8068630941130294 1.1446550208238004 -0.7115430842006196
| 16> C -2.183459723349049 0.9575961688074273 -0.7307285234291302
| 17> C 1.4798056765669063 0.5527611950632795 0.05891277613005857
| 18> O 1.8620316923208433 1.718625020686024 0.300820028742999
| 19> N 2.357009574244752 -0.4602737630337008 -0.107388607270249
| 20> C 3.7839904081890556 -0.1852876647262312 0.05619679484392032
| 21> C 2.037285033246711 -1.746298030570491 -0.727692968729758
| 22> H -4.5468432769487945 -1.3177266514715393 0.05417685834018213
| 23> H -4.698736218334525 0.2328028829280149 0.88099100377993
| 24> H -4.731876247250794 0.18183085730106668 -0.8842582186513465
| 25> H -2.389203586580656 -1.7714869289265467 1.2660516191226419
| 26> H 0.05343476771718762 -1.4752412450057455 1.2710250079646905
| 27> H -0.36153585174791864 1.9705338899078269 -1.2575788700350876
| 28> H -2.809181215827065 1.6377896730459995 -1.3018714139022747
| 29> H 4.295772425509869 -1.1253607784578827 0.2755430577758926
| 30> H 3.9432043633618283 0.5086450086158162 0.8826447683430318
| 31> H 4.2142251507818145 0.2461153627688729 -0.8563448347128296
| 32> H 2.7081617484891614 -1.90274418385379 -1.5798175981033415
| 33> H 1.0119717888616164 -1.7568247236660266 -1.0938374332707606
| 34> H 2.177113699684956 -2.5710912397093266 -0.020525793016605894
| 35> *
| 36>
| 37>                          ****END OF INPUT****

CARTESIAN COORDINATES (ANGSTROEM)
---------------------------------
  C     -4.269023   -0.261375    0.001228
  C     -2.778337   -0.090225   -0.019829
  C     -1.947680   -0.955840    0.699992
  C     -0.567965   -0.789567    0.703577
  C      0.016390    0.264685   -0.004587
  C     -0.806863    1.144655   -0.711543
  C     -2.183460    0.957596   -0.730729
  C      1.479806    0.552761    0.058913
  O      1.862032    1.718625    0.300820
  N      2.357010   -0.460274   -0.107389
  C      3.783990   -0.185288    0.056197
  C      2.037285   -1.746298   -0.727693
  H     -4.546843   -1.317727    0.054177
  H     -4.698736    0.232803    0.880991
  H     -4.731876    0.181831   -0.884258
  H     -2.389204   -1.771487    1.266052
  H      0.053435   -1.475241    1.271025
  H     -0.361536    1.970534   -1.257579
  H     -2.809181    1.637790   -1.301871
  H      4.295772   -1.125361    0.275543
  H      3.943204    0.508645    0.882645
  H      4.214225    0.246115   -0.856345
  H      2.708162   -1.902744   -1.579818
  H      1.011972   -1.756825   -1.093837
  H      2.177114   -2.571091   -0.020526

 Total Charge           Charge          ....    0
 Multiplicity           Mult            ....    1
 Number of Electrons    NEL             ....   88
 Basis Dimension        Dim             ....  450

ORBITAL ENERGIES
----------------

  NO   OCC          E(Eh)            E(eV)
   0   2.0000     -21.643197      -588.9413
   1   2.0000     -16.563516      -450.7162
   2   2.0000     -12.157097      -330.8114
   3   2.0000     -12.070540      -328.4561
   4   2.0000     -12.067358      -328.3695
   5   2.0000     -12.064315      -328.2867
   6   2.0000     -12.062808      -328.2457
   7   2.0000     -12.057304      -328.0959
   8   2.0000     -12.055850      -328.0563
   9   2.0000     -12.048842      -327.8656
  10   2.0000     -12.048388      -327.8533
  11   2.0000     -12.035169      -327.4936
  12   2.0000      -1.692203       -46.0472
  13   2.0000      -1.528780       -41.6002
  14   2.0000      -1.392232       -37.8846
  15   2.0000      -1.310963       -35.6731
  16   2.0000      -1.276483       -34.7349
  17   2.0000      -1.241079       -33.7715
  18   2.0000      -1.230491       -33.4834
  19   2.0000      -1.192622       -32.4529
  20   2.0000      -1.115125       -30.3441
  21   2.0000      -1.107612       -30.1397
  22   2.0000      -1.066088       -29.0097
  23   2.0000      -1.018791       -27.7227
  24   2.0000      -1.012131       -27.5415
  25   2.0000      -0.962887       -26.2015
  26   2.0000      -0.940250       -25.5855
  27   2.0000      -0.930579       -25.3223
  28   2.0000      -0.919627       -25.0243
  29   2.0000      -0.896463       -24.3940
  30   2.0000      -0.881767       -23.9941
  31   2.0000      -0.874274       -23.7902
  32   2.0000      -0.858759       -23.3680
  33   2.0000      -0.840084       -22.8598
  34   2.0000      -0.832637       -22.6572
  35   2.0000      -0.826207       -22.4822
  36   2.0000      -0.822123       -22.3711
  37   2.0000      -0.819903       -22.3107
  38   2.0000      -0.815378       -22.1876
  39   2.0000      -0.794292       -21.6138
  40   2.0000      -0.769532       -20.9400
  41   2.0000      -0.734262       -19.9803
  42   2.0000      -0.644850       -17.5473
  43   2.0000      -0.643140       -17.5007
  44   0.0000      -0.310878        -8.4594
  45   0.0000      -0.239638        -6.5209
  46   0.0000      -0.228955        -6.2302
  47   0.0000      -0.120580        -3.2811
  48   0.0000      -0.094290        -2.5658

MULLIKEN ATOMIC CHARGES
-----------------------
   0 C :   -0.396860
   1 C :    0.131657
   2 C :   -0.212554
   3 C :   -0.219928
   4 C :    0.106351
   5 C :   -0.239086
   6 C :   -0.233950
   7 C :    0.310143
   8 O :   -0.567411
   9 N :   -0.053911
  10 C :   -0.326385
  11 C :   -0.328566
  12 H :    0.144187
  13 H :    0.145308
  14 H :    0.143990
  15 H :    0.160106
  16 H :    0.175544
  17 H :    0.161847
  18 H :    0.159810
  19 H :    0.156822
  20 H :    0.148202
  21 H :    0.150833
  22 H :    0.157104
  23 H :    0.172052
  24 H :    0.154694
Sum of atomic charges:    0.0000000

LOEWDIN ATOMIC CHARGES
----------------------
   0 C :   -0.250159
   1 C :   -0.163604
   2 C :   -0.115865
   3 C :   -0.100597
   4 C :   -0.135669
   5 C :   -0.099241
   6 C :   -0.116833
   7 C :   -0.369753
   8 O :   -0.065095
   9 N :    0.173671
  10 C :   -0.270297
  11 C :   -0.265779
  12 H :    0.131852
  13 H :    0.135366
  14 H :    0.131287
  15 H :    0.155625
  16 H :    0.160498
  17 H :    0.157293
  18 H :    0.155121
  19 H :    0.127765
  20 H :    0.123028
  21 H :    0.121172
  22 H :    0.126239
  23 H :    0.132291
  24 H :    0.121683

  Mayer bond orders larger than 0.100000
B(  0-C ,  1-C ) :   0.9376 B(  0-C , 12-H ) :   0.9826 B(  0-C , 13-H ) :   0.9567
B(  0-C , 14-H ) :   0.9867 B(  1-C ,  2-C ) :   1.3544 B(  1-C ,  6-C ) :   1.3634
B(  2-C ,  3-C ) :   1.4411 B(  2-C , 15-H ) :   0.9820 B(  3-C ,  4-C ) :   1.3348
B(  3-C , 16-H ) :   0.9755 B(  4-C ,  5-C ) :   1.3575 B(  4-C ,  7-C ) :   0.9015
B(  5-C ,  6-C ) :   1.4524 B(  5-C , 17-H ) :   0.9757 B(  6-C , 18-H ) :   0.9814
B(  7-C ,  8-O ) :   1.8385 B(  7-C ,  9-N ) :   1.3574 B(  9-N , 10-C ) :   0.9174
B(  9-N , 11-C ) :   0.9089 B( 10-C , 19-H ) :   0.9651 B( 10-C , 20-H ) :   0.9674
B( 10-C , 21-H ) :   0.9721 B( 11-C , 22-H ) :   0.9643 B( 11-C , 23-H ) :   0.9641
B( 11-C , 24-H ) :   0.9732

FINAL SINGLE POINT ENERGY      -518.919827147647

DIPOLE MOMENT
-------------

Method             : SCF
Type of density    : Electron Density
Multiplicity       :   1
Irrep              :   0
Energy             :  -518.9350794548469139 Eh
Relativity type    :
Basis              : AO
                                X                 Y                 Z
Electronic contribution:      0.427418178       4.324295933       1.100700562
Nuclear contribution   :     -0.931199396      -6.717982584      -1.676761737
                        -----------------------------------------
Total Dipole Moment    :     -0.503781218      -2.393686651      -0.576061175
                        -----------------------------------------
Magnitude (a.u.)       :      2.513041539
Magnitude (Debye)      :      6.387643957

Rotational constants in cm-1:             0.079480             0.016912             0.015045
Rotational constants in MHz :          2382.753594           507.003483           451.045675

                             ****ORCA TERMINATED NORMALLY****
TOTAL RUN TIME: 0 days 0 hours 5 minutes 55 seconds 417 msec
