                         Program Version 6.0.0  -   RELEASE  -
|  1> ! pbe def2-sv(p) def2/J RI DEFGRID1 loosescf d4 GCP(DFT/SV(P)) printgap
|  2> %output
|  3>     printlevel normal
|  4> end
|  5> * xyz 0 1
|  6> C -1.491535989 0.173238623 -1.2437624493
|  7> C -0.6386633967 0.4311327381 -0.0002657112
|  8> C -1.4908606791 0.1746004556 1.2439762085
|  9> C 0.6386845436 -0.4311698013 -0.0002411881
| 10> C 1.4915342033 -0.173301325 -1.2437576883
| 11> C 1.4908444412 -0.1745111832 1.2439955368
| 12> H -2.4279422268 0.7223182056 -1.1736725657
| 13> H -0.9846094155 0.4942709941 -2.148732167
| 14> H -1.7230415406 -0.8864265115 -1.3301722146
| 15> H -0.3376815276 1.4854770249 -0.0009178952
| 16> H -0.9843128832 0.4986005682 2.1481000795
| 17> H -2.4282332262 0.7218830171 1.172813392
| 18> H -1.7205232074 -0.8852607011 1.3328503282
| 19> H 0.3377423923 -1.4855253738 -0.0008011171
| 20> H 1.721557594 0.8866039669 -1.3311757148
| 21> H 2.4287015822 -0.7209644353 -1.1728927843
| 22> H 0.9853091506 -0.4959402073 -2.1485522195
| 23> H 0.9837825008 -0.4973274875 2.1482527317
| 24> H 1.7215198463 0.8851912513 1.3321034765
| 25> H 2.4276937404 -0.7227752699 1.1734555726
| 26> *
| 27>
| 28>                          ****END OF INPUT****

CARTESIAN COORDINATES (ANGSTROEM)
---------------------------------
  C     -1.491536    0.173239   -1.243762
  C     -0.638663    0.431133   -0.000266
  C     -1.490861    0.174600    1.243976
  C      0.638685   -0.431170   -0.000241
  C      1.491534   -0.173301   -1.243758
  C      1.490844   -0.174511    1.243996
  H     -2.427942    0.722318   -1.173673
  H     -0.984609    0.494271   -2.148732
  H     -1.723042   -0.886427   -1.330172
  H     -0.337682    1.485477   -0.000918
  H     -0.984313    0.498601    2.148100
  H     -2.428233    0.721883    1.172813
  H     -1.720523   -0.885261    1.332850
  H      0.337742   -1.485525   -0.000801
  H      1.721558    0.886604   -1.331176
  H      2.428702   -0.720964   -1.172893
  H      0.985309   -0.495940   -2.148552
  H      0.983783   -0.497327    2.148253
  H      1.721520    0.885191    1.332103
  H      2.427694   -0.722775    1.173456

 Total Charge           Charge          ....    0
 Multiplicity           Mult            ....    1
 Number of Electrons    NEL             ....   50
 Basis Dimension        Dim             ....  112

ORBITAL ENERGIES
----------------

  NO   OCC          E(Eh)            E(eV)
   0   2.0000      -9.889496      -269.1069
   1   2.0000      -9.889477      -269.1063
   2   2.0000      -9.867614      -268.5114
   3   2.0000      -9.867605      -268.5112
   4   2.0000      -9.867580      -268.5105
   5   2.0000      -9.867578      -268.5105
   6   2.0000      -0.738514       -20.0960
   7   2.0000      -0.669922       -18.2295
   8   2.0000      -0.617517       -16.8035
   9   2.0000      -0.592116       -16.1123
  10   2.0000      -0.537956       -14.6385
  11   2.0000      -0.487292       -13.2599
  12   2.0000      -0.407142       -11.0789
  13   2.0000      -0.406508       -11.0616
  14   2.0000      -0.383365       -10.4319
  15   2.0000      -0.374813       -10.1992
  16   2.0000      -0.345737        -9.4080
  17   2.0000      -0.343754        -9.3540
  18   2.0000      -0.332181        -9.0391
  19   2.0000      -0.316368        -8.6088
  20   2.0000      -0.308742        -8.4013
  21   2.0000      -0.296035        -8.0555
  22   2.0000      -0.276639        -7.5277
  23   2.0000      -0.268053        -7.2941
  24   2.0000      -0.266138        -7.2420
  25   0.0000       0.035230         0.9587
  26   0.0000       0.058697         1.5972
  27   0.0000       0.069196         1.8829
  28   0.0000       0.075323         2.0496
  29   0.0000       0.091931         2.5016

MULLIKEN ATOMIC CHARGES
-----------------------
   0 C :   -0.243663
   1 C :   -0.157282
   2 C :   -0.243663
   3 C :   -0.157266
   4 C :   -0.243683
   5 C :   -0.243655
   6 H :    0.095250
   7 H :    0.104362
   8 H :    0.090906
   9 H :    0.063517
  10 H :    0.104405
  11 H :    0.095225
  12 H :    0.090935
  13 H :    0.063516
  14 H :    0.090921
  15 H :    0.095234
  16 H :    0.104390
  17 H :    0.104386
  18 H :    0.090923
  19 H :    0.095241
Sum of atomic charges:    0.0000000

LOEWDIN ATOMIC CHARGES
----------------------
   0 C :   -0.330541
   1 C :   -0.149901
   2 C :   -0.330550
   3 C :   -0.149901
   4 C :   -0.330547
   5 C :   -0.330546
   6 H :    0.116512
   7 H :    0.116673
   8 H :    0.116588
   9 H :    0.111422
  10 H :    0.116691
  11 H :    0.116512
  12 H :    0.116594
  13 H :    0.111423
  14 H :    0.116592
  15 H :    0.116513
  16 H :    0.116680
  17 H :    0.116687
  18 H :    0.116592
  19 H :    0.116509

  Mayer bond orders larger than 0.100000
B(  0-C ,  1-C ) :   1.1143 B(  0-C ,  6-H ) :   0.9488 B(  0-C ,  7-H ) :   0.9436
B(  0-C ,  8-H ) :   0.9492 B(  1-C ,  2-C ) :   1.1143 B(  1-C ,  3-C ) :   1.0485
B(  1-C ,  9-H ) :   0.8949 B(  2-C , 10-H ) :   0.9436 B(  2-C , 11-H ) :   0.9488
B(  2-C , 12-H ) :   0.9492 B(  3-C ,  4-C ) :   1.1143 B(  3-C ,  5-C ) :   1.1143
B(  3-C , 13-H ) :   0.8949 B(  4-C , 14-H ) :   0.9492 B(  4-C , 15-H ) :   0.9488
B(  4-C , 16-H ) :   0.9436 B(  5-C , 17-H ) :   0.9436 B(  5-C , 18-H ) :   0.9492
B(  5-C , 19-H ) :   0.9488

Dispersion correction           -0.015597783
FINAL SINGLE POINT ENERGY      -236.448442190782

DIPOLE MOMENT
-------------

Method             : SCF
Type of density    : Electron Density
Multiplicity       :   1
Irrep              :   0
Energy             :  -236.5160128112314624 Eh
Relativity type    :
Basis              : AO
                                X                 Y                 Z
Electronic contribution:      0.000046750      -0.000122363      -0.000617566
Nuclear contribution   :     -0.000034919       0.000117309       0.000618157
                        -----------------------------------------
Total Dipole Moment    :      0.000011831      -0.000005054       0.000000590
                        -----------------------------------------
Magnitude (a.u.)       :      0.000012879
Magnitude (Debye)      :      0.000032736

Rotational constants in cm-1:             0.142146             0.097375             0.063419
Rotational constants in MHz :          4261.437332          2919.227819          1901.245644

                             ****ORCA TERMINATED NORMALLY****
TOTAL RUN TIME: 0 days 0 hours 0 minutes 7 seconds 566 msec
