                         Program Version 6.0.0  -   RELEASE  -
|  1> ! pbe def2-sv(p) def2/J RI DEFGRID1 loosescf d4 GCP(DFT/SV(P)) printgap
|  2> %output
|  3>     printlevel normal
|  4> end
|  5> * xyz 0 1
|  6> C -2.5400962814 -0.7004154676 -0.3854916975
|  7> C -1.162875097 -0.336666102 0.1652578153
|  8> H -1.2245412921 -0.3167679937 1.2658651788
|  9> C -0.6971115766 1.0438998608 -0.3458501226
| 10> H -0.6726637584 1.0309874628 -1.4407474626
| 11> C 0.7211536497 1.3212725084 0.1713657025
| 12> H 0.6929367714 1.4131390108 1.2713244955
| 13> C 1.6508820628 0.1513430533 -0.1739783165
| 14> H 1.7633880103 0.0912408383 -1.2666017343
| 15> C 1.0339207234 -1.1722739215 0.3054332845
| 16> H 0.9743943096 -1.1565144429 1.4159685995
| 17> O -0.2540108557 -1.3463275449 -0.2286320692
| 18> O 1.8377274139 -2.2059355915 -0.1343180997
| 19> O 2.887624099 0.3967140099 0.4453509715
| 20> O 1.1835875833 2.5191464013 -0.3958148402
| 21> O -1.6041914192 2.0533541273 -0.0034589984
| 22> O -3.1424816556 -1.6329847841 0.4823502342
| 23> H -2.402371524 -1.122459032 -1.3869178971
| 24> H -3.1347551158 0.2188949181 -0.4477887907
| 25> H 1.3530351933 -3.0436206536 -0.0697063082
| 26> H 3.4829841429 -0.3460750853 0.2664976503
| 27> H 2.1134079806 2.6357384658 -0.1473330887
| 28> H -1.5225792933 2.2707134979 0.9369739784
| 29> H -3.9940103807 -1.9063449912 0.112952552
| 30> *
| 31>
| 32>                          ****END OF INPUT****

CARTESIAN COORDINATES (ANGSTROEM)
---------------------------------
  C     -2.540096   -0.700415   -0.385492
  C     -1.162875   -0.336666    0.165258
  H     -1.224541   -0.316768    1.265865
  C     -0.697112    1.043900   -0.345850
  H     -0.672664    1.030987   -1.440747
  C      0.721154    1.321273    0.171366
  H      0.692937    1.413139    1.271324
  C      1.650882    0.151343   -0.173978
  H      1.763388    0.091241   -1.266602
  C      1.033921   -1.172274    0.305433
  H      0.974394   -1.156514    1.415969
  O     -0.254011   -1.346328   -0.228632
  O      1.837727   -2.205936   -0.134318
  O      2.887624    0.396714    0.445351
  O      1.183588    2.519146   -0.395815
  O     -1.604191    2.053354   -0.003459
  O     -3.142482   -1.632985    0.482350
  H     -2.402372   -1.122459   -1.386918
  H     -3.134755    0.218895   -0.447789
  H      1.353035   -3.043621   -0.069706
  H      3.482984   -0.346075    0.266498
  H      2.113408    2.635738   -0.147333
  H     -1.522579    2.270713    0.936974
  H     -3.994010   -1.906345    0.112953

 Total Charge           Charge          ....    0
 Multiplicity           Mult            ....    1
 Number of Electrons    NEL             ....   96
 Basis Dimension        Dim             ....  192

ORBITAL ENERGIES
----------------

  NO   OCC          E(Eh)            E(eV)
   0   2.0000     -18.771641      -510.8023
   1   2.0000     -18.767527      -510.6904
   2   2.0000     -18.760197      -510.4909
   3   2.0000     -18.753094      -510.2976
   4   2.0000     -18.746170      -510.1092
   5   2.0000     -18.745318      -510.0860
   6   2.0000      -9.986733      -271.7528
   7   2.0000      -9.944427      -270.6016
   8   2.0000      -9.943774      -270.5839
   9   2.0000      -9.943060      -270.5644
  10   2.0000      -9.940392      -270.4918
  11   2.0000      -9.928739      -270.1747
  12   2.0000      -0.987613       -26.8743
  13   2.0000      -0.944095       -25.6901
  14   2.0000      -0.937815       -25.5192
  15   2.0000      -0.923643       -25.1336
  16   2.0000      -0.915503       -24.9121
  17   2.0000      -0.912917       -24.8417
  18   2.0000      -0.703617       -19.1464
  19   2.0000      -0.693074       -18.8595
  20   2.0000      -0.617836       -16.8122
  21   2.0000      -0.582401       -15.8479
  22   2.0000      -0.551495       -15.0069
  23   2.0000      -0.537935       -14.6379
  24   2.0000      -0.508665       -13.8415
  25   2.0000      -0.488460       -13.2917
  26   2.0000      -0.474746       -12.9185
  27   2.0000      -0.462297       -12.5798
  28   2.0000      -0.451072       -12.2743
  29   2.0000      -0.431723       -11.7478
  30   2.0000      -0.411917       -11.2088
  31   2.0000      -0.400241       -10.8911
  32   2.0000      -0.386737       -10.5236
  33   2.0000      -0.370381       -10.0786
  34   2.0000      -0.360958        -9.8222
  35   2.0000      -0.349795        -9.5184
  36   2.0000      -0.323439        -8.8012
  37   2.0000      -0.322686        -8.7807
  38   2.0000      -0.303548        -8.2600
  39   2.0000      -0.297686        -8.1005
  40   2.0000      -0.276925        -7.5355
  41   2.0000      -0.270795        -7.3687
  42   2.0000      -0.256160        -6.9705
  43   2.0000      -0.243829        -6.6349
  44   2.0000      -0.229536        -6.2460
  45   2.0000      -0.222074        -6.0430
  46   2.0000      -0.212239        -5.7753
  47   2.0000      -0.201098        -5.4722
  48   0.0000       0.020455         0.5566
  49   0.0000       0.023630         0.6430
  50   0.0000       0.032028         0.8715
  51   0.0000       0.036435         0.9914
  52   0.0000       0.059154         1.6097

MULLIKEN ATOMIC CHARGES
-----------------------
   0 C :    0.077178
   1 C :    0.005482
   2 H :    0.047083
   3 C :    0.064113
   4 H :    0.070528
   5 C :    0.068883
   6 H :    0.037210
   7 C :    0.023863
   8 H :    0.063137
   9 C :    0.184951
  10 H :    0.035931
  11 O :   -0.304587
  12 O :   -0.392256
  13 O :   -0.426322
  14 O :   -0.405396
  15 O :   -0.401310
  16 O :   -0.436901
  17 H :    0.071504
  18 H :    0.083296
  19 H :    0.312872
  20 H :    0.313001
  21 H :    0.307165
  22 H :    0.300935
  23 H :    0.299640
Sum of atomic charges:   -0.0000000

LOEWDIN ATOMIC CHARGES
----------------------
   0 C :   -0.127476
   1 C :   -0.066065
   2 H :    0.102555
   3 C :   -0.066900
   4 H :    0.122465
   5 C :   -0.072417
   6 H :    0.095518
   7 C :   -0.091403
   8 H :    0.109850
   9 C :   -0.005444
  10 H :    0.079092
  11 O :   -0.147715
  12 O :   -0.304500
  13 O :   -0.322439
  14 O :   -0.316474
  15 O :   -0.298536
  16 O :   -0.345849
  17 H :    0.103019
  18 H :    0.104766
  19 H :    0.294334
  20 H :    0.292665
  21 H :    0.287815
  22 H :    0.287001
  23 H :    0.286139

  Mayer bond orders larger than 0.100000
B(  0-C ,  1-C ) :   1.0662 B(  0-C , 16-O ) :   1.1031 B(  0-C , 17-H ) :   0.9009
B(  0-C , 18-H ) :   0.9093 B(  1-C ,  2-H ) :   0.8707 B(  1-C ,  3-C ) :   0.9674
B(  1-C , 11-O ) :   0.9866 B(  3-C ,  4-H ) :   0.8678 B(  3-C ,  5-C ) :   1.0174
B(  3-C , 15-O ) :   1.0387 B(  5-C ,  6-H ) :   0.8663 B(  5-C ,  7-C ) :   1.0118
B(  5-C , 14-O ) :   1.1143 B(  7-C ,  8-H ) :   0.8668 B(  7-C ,  9-C ) :   0.9865
B(  7-C , 13-O ) :   1.0619 B(  9-C , 10-H ) :   0.8836 B(  9-C , 11-O ) :   1.0217
B(  9-C , 12-O ) :   1.1616 B( 12-O , 19-H ) :   0.8359 B( 13-O , 20-H ) :   0.8377
B( 14-O , 21-H ) :   0.8378 B( 15-O , 22-H ) :   0.8460 B( 16-O , 23-H ) :   0.8519

Dispersion correction           -0.023492424
FINAL SINGLE POINT ENERGY      -685.696338250975

DIPOLE MOMENT
-------------

Method             : SCF
Type of density    : Electron Density
Multiplicity       :   1
Irrep              :   0
Energy             :  -685.8254293271627375 Eh
Relativity type    :
Basis              : AO
                                X                 Y                 Z
Electronic contribution:      2.347359073      -0.460120859      -0.188416330
Nuclear contribution   :     -2.398368906      -0.219981522       0.481375272
                        -----------------------------------------
Total Dipole Moment    :     -0.051009832      -0.680102381       0.292958942
                        -----------------------------------------
Magnitude (a.u.)       :      0.742270970
Magnitude (Debye)      :      1.886702868

Rotational constants in cm-1:             0.039882             0.025411             0.016336
Rotational constants in MHz :          1195.631210           761.796281           489.729642

                             ****ORCA TERMINATED NORMALLY****
TOTAL RUN TIME: 0 days 0 hours 0 minutes 11 seconds 930 msec
