                         Program Version 6.0.0  -   RELEASE  -
|  1> ! r2scan-3c def2/J RI DEFGRID2 scfconv6 printgap
|  2> %output
|  3>     printlevel normal
|  4> end
|  5> * xyz 0 1
|  6> C 2.2922080935 0.1483101977 5.78069e-05
|  7> C 0.811095178 0.2705617091 -0.0001121345
|  8> C 0.047469039 1.3939587571 6.4049e-06
|  9> C -1.3436652299 1.1291849877 -5.47786e-05
| 10> C -1.621825489 -0.196126299 0.0001170702
| 11> S -0.1886588618 -1.1524293062 -3.28052e-05
| 12> H 2.7443253811 1.1364382643 -0.0038841472
| 13> H 2.6304241711 -0.3932497709 0.8823153529
| 14> H 2.6301480049 -0.4003608441 -0.8778721642
| 15> H 0.4604264802 2.3868011356 8.45574e-05
| 16> H -2.0965815092 1.8965794794 -6.40299e-05
| 17> H -2.57493021 -0.6852535161 0.0002928155
| 18> *
| 19>
| 20>                          ****END OF INPUT****

CARTESIAN COORDINATES (ANGSTROEM)
---------------------------------
  C      2.292208    0.148310    0.000058
  C      0.811095    0.270562   -0.000112
  C      0.047469    1.393959    0.000006
  C     -1.343665    1.129185   -0.000055
  C     -1.621825   -0.196126    0.000117
  S     -0.188659   -1.152429   -0.000033
  H      2.744325    1.136438   -0.003884
  H      2.630424   -0.393250    0.882315
  H      2.630148   -0.400361   -0.877872
  H      0.460426    2.386801    0.000085
  H     -2.096582    1.896579   -0.000064
  H     -2.574930   -0.685254    0.000293

 Total Charge           Charge          ....    0
 Multiplicity           Mult            ....    1
 Number of Electrons    NEL             ....   52
 Basis Dimension        Dim             ....  152

ORBITAL ENERGIES
----------------

  NO   OCC          E(Eh)            E(eV)
   0   2.0000     -88.583998     -2410.4931
   1   2.0000     -10.065175      -273.8873
   2   2.0000     -10.053662      -273.5741
   3   2.0000     -10.039105      -273.1779
   4   2.0000     -10.031764      -272.9782
   5   2.0000     -10.028848      -272.8988
   6   2.0000      -7.878104      -214.3741
   7   2.0000      -5.824531      -158.4935
   8   2.0000      -5.820200      -158.3757
   9   2.0000      -5.817675      -158.3070
  10   2.0000      -0.847501       -23.0617
  11   2.0000      -0.734481       -19.9862
  12   2.0000      -0.697997       -18.9935
  13   2.0000      -0.644816       -17.5463
  14   2.0000      -0.528650       -14.3853
  15   2.0000      -0.504428       -13.7262
  16   2.0000      -0.469573       -12.7777
  17   2.0000      -0.402237       -10.9454
  18   2.0000      -0.400279       -10.8921
  19   2.0000      -0.371395       -10.1062
  20   2.0000      -0.353870        -9.6293
  21   2.0000      -0.338915        -9.2223
  22   2.0000      -0.335482        -9.1289
  23   2.0000      -0.312602        -8.5063
  24   2.0000      -0.230284        -6.2663
  25   2.0000      -0.207091        -5.6352
  26   0.0000      -0.034313        -0.9337
  27   0.0000       0.008652         0.2354
  28   0.0000       0.036753         1.0001
  29   0.0000       0.076631         2.0852
  30   0.0000       0.098377         2.6770

MULLIKEN ATOMIC CHARGES
-----------------------
   0 C :   -0.494559
   1 C :    0.088333
   2 C :   -0.221549
   3 C :   -0.163765
   4 C :   -0.221251
   5 S :    0.060859
   6 H :    0.157753
   7 H :    0.162773
   8 H :    0.162623
   9 H :    0.151637
  10 H :    0.149401
  11 H :    0.167744
Sum of atomic charges:   -0.0000000

LOEWDIN ATOMIC CHARGES
----------------------
   0 C :   -0.387506
   1 C :   -0.206292
   2 C :   -0.201618
   3 C :   -0.191072
   4 C :   -0.283781
   5 S :    0.260131
   6 H :    0.165283
   7 H :    0.164441
   8 H :    0.164417
   9 H :    0.171137
  10 H :    0.170673
  11 H :    0.174187

  Mayer bond orders larger than 0.100000
B(  0-C ,  1-C ) :   0.8088 B(  0-C ,  6-H ) :   0.9899 B(  0-C ,  7-H ) :   0.9715
B(  0-C ,  8-H ) :   0.9717 B(  1-C ,  2-C ) :   1.6283 B(  1-C ,  5-S ) :   1.1459
B(  2-C ,  3-C ) :   1.2950 B(  2-C ,  9-H ) :   0.9282 B(  3-C ,  4-C ) :   1.6502
B(  3-C , 10-H ) :   0.9374 B(  4-C ,  5-S ) :   1.1702 B(  4-C , 11-H ) :   0.9259

Dispersion correction           -0.003576339
FINAL SINGLE POINT ENERGY      -592.245239010644

DIPOLE MOMENT
-------------

Method             : SCF
Type of density    : Electron Density
Multiplicity       :   1
Irrep              :   0
Energy             :  -592.2473395821364193 Eh
Relativity type    :
Basis              : AO
                                X                 Y                 Z
Electronic contribution:     -3.375701450      -3.518339382      -0.000592475
Nuclear contribution   :      3.564659639       3.730303342       0.000819388
                        -----------------------------------------
Total Dipole Moment    :      0.188958188       0.211963960       0.000226913
                        -----------------------------------------
Magnitude (a.u.)       :      0.283961210
Magnitude (Debye)      :      0.721772035

Rotational constants in cm-1:             0.175857             0.105436             0.066731
Rotational constants in MHz :          5272.056980          3160.901814          2000.540194

                             ****ORCA TERMINATED NORMALLY****
TOTAL RUN TIME: 0 days 0 hours 0 minutes 13 seconds 558 msec
