                         Program Version 6.0.0  -   RELEASE  -
|  1> ! r2scan-3c def2/J RI DEFGRID2 scfconv6 printgap
|  2> %output
|  3>     printlevel normal
|  4> end
|  5> %cpcm
|  6>     smd true
|  7>     smdsolvent "water"
|  8> end
|  9> * xyz 0 1
| 10> C 2.2922080935 0.1483101977 5.78069e-05
| 11> C 0.811095178 0.2705617091 -0.0001121345
| 12> C 0.047469039 1.3939587571 6.4049e-06
| 13> C -1.3436652299 1.1291849877 -5.47786e-05
| 14> C -1.621825489 -0.196126299 0.0001170702
| 15> S -0.1886588618 -1.1524293062 -3.28052e-05
| 16> H 2.7443253811 1.1364382643 -0.0038841472
| 17> H 2.6304241711 -0.3932497709 0.8823153529
| 18> H 2.6301480049 -0.4003608441 -0.8778721642
| 19> H 0.4604264802 2.3868011356 8.45574e-05
| 20> H -2.0965815092 1.8965794794 -6.40299e-05
| 21> H -2.57493021 -0.6852535161 0.0002928155
| 22> *
| 23>
| 24>                          ****END OF INPUT****

CARTESIAN COORDINATES (ANGSTROEM)
---------------------------------
  C      2.292208    0.148310    0.000058
  C      0.811095    0.270562   -0.000112
  C      0.047469    1.393959    0.000006
  C     -1.343665    1.129185   -0.000055
  C     -1.621825   -0.196126    0.000117
  S     -0.188659   -1.152429   -0.000033
  H      2.744325    1.136438   -0.003884
  H      2.630424   -0.393250    0.882315
  H      2.630148   -0.400361   -0.877872
  H      0.460426    2.386801    0.000085
  H     -2.096582    1.896579   -0.000064
  H     -2.574930   -0.685254    0.000293

 Total Charge           Charge          ....    0
 Multiplicity           Mult            ....    1
 Number of Electrons    NEL             ....   52
 Basis Dimension        Dim             ....  152

ORBITAL ENERGIES
----------------

  NO   OCC          E(Eh)            E(eV)
   0   2.0000     -88.585050     -2410.5218
   1   2.0000     -10.064786      -273.8767
   2   2.0000     -10.052637      -273.5462
   3   2.0000     -10.030867      -272.9538
   4   2.0000     -10.027468      -272.8613
   5   2.0000     -10.026817      -272.8436
   6   2.0000      -7.879326      -214.4074
   7   2.0000      -5.825657      -158.5242
   8   2.0000      -5.821371      -158.4076
   9   2.0000      -5.819020      -158.3436
  10   2.0000      -0.848343       -23.0846
  11   2.0000      -0.729651       -19.8548
  12   2.0000      -0.698230       -18.9998
  13   2.0000      -0.639955       -17.4141
  14   2.0000      -0.525800       -14.3077
  15   2.0000      -0.501727       -13.6527
  16   2.0000      -0.465187       -12.6584
  17   2.0000      -0.395148       -10.7525
  18   2.0000      -0.391562       -10.6550
  19   2.0000      -0.366942        -9.9850
  20   2.0000      -0.349992        -9.5238
  21   2.0000      -0.339232        -9.2310
  22   2.0000      -0.329376        -8.9628
  23   2.0000      -0.312441        -8.5020
  24   2.0000      -0.233787        -6.3617
  25   2.0000      -0.208463        -5.6726
  26   0.0000      -0.035758        -0.9730
  27   0.0000       0.009160         0.2493
  28   0.0000       0.035502         0.9661
  29   0.0000       0.082027         2.2321
  30   0.0000       0.098699         2.6857

MULLIKEN ATOMIC CHARGES
-----------------------
   0 C :   -0.516602
   1 C :    0.076143
   2 C :   -0.265974
   3 C :   -0.206506
   4 C :   -0.251412
   5 S :    0.044772
   6 H :    0.181339
   7 H :    0.179788
   8 H :    0.179646
   9 H :    0.186395
  10 H :    0.183850
  11 H :    0.208561
Sum of atomic charges:   -0.0000000

LOEWDIN ATOMIC CHARGES
----------------------
   0 C :   -0.391564
   1 C :   -0.208093
   2 C :   -0.214218
   3 C :   -0.204551
   4 C :   -0.294229
   5 S :    0.244468
   6 H :    0.173487
   7 H :    0.171282
   8 H :    0.171252
   9 H :    0.183275
  10 H :    0.181929
  11 H :    0.186961

  Mayer bond orders larger than 0.100000
B(  0-C ,  1-C ) :   0.8113 B(  0-C ,  6-H ) :   0.9820 B(  0-C ,  7-H ) :   0.9639
B(  0-C ,  8-H ) :   0.9640 B(  1-C ,  2-C ) :   1.5982 B(  1-C ,  5-S ) :   1.1440
B(  2-C ,  3-C ) :   1.2572 B(  2-C ,  9-H ) :   0.9388 B(  3-C ,  4-C ) :   1.6213
B(  3-C , 10-H ) :   0.9418 B(  4-C ,  5-S ) :   1.1636 B(  4-C , 11-H ) :   0.9182

Dispersion correction           -0.003576339
FINAL SINGLE POINT ENERGY      -592.247086096788

DIPOLE MOMENT
-------------

Method             : SCF
Type of density    : Electron Density
Multiplicity       :   1
Irrep              :   0
Energy             :  -592.2491866682805721 Eh
Relativity type    :
Basis              : AO
                                X                 Y                 Z
Electronic contribution:     -3.290760263      -3.439885026      -0.000493817
Nuclear contribution   :      3.564659639       3.730303342       0.000819388
                        -----------------------------------------
Total Dipole Moment    :      0.273899375       0.290418316       0.000325571
                        -----------------------------------------
Magnitude (a.u.)       :      0.399203923
Magnitude (Debye)      :      1.014695733

Rotational constants in cm-1:             0.175857             0.105436             0.066731
Rotational constants in MHz :          5272.056980          3160.901814          2000.540194

                             ****ORCA TERMINATED NORMALLY****
TOTAL RUN TIME: 0 days 0 hours 0 minutes 15 seconds 932 msec
