                         Program Version 6.0.0  -   RELEASE  -
|  1> ! pbe def2-sv(p) def2/J RI DEFGRID1 loosescf d4 GCP(DFT/SV(P)) printgap
|  2> %output
|  3>     printlevel normal
|  4> end
|  5> * xyz 0 1
|  6> C -2.2737781798 0.3377474699 -1.165017941
|  7> N -1.6487701297 0.2715082643 0.1426685094
|  8> C -2.2607568235 -0.7329191211 0.9921981475
|  9> C -0.2242764692 0.1247227877 0.0626697433
| 10> C 0.3909709276 -0.9837222644 -0.5088941584
| 11> C 1.7709424263 -1.0670028532 -0.5570058602
| 12> C 2.5487511939 -0.0466596529 -0.0362494287
| 13> C 1.9411664578 1.0589702339 0.5344686851
| 14> C 0.5607626142 1.1444622934 0.584109224
| 15> H -3.3188655811 0.6160770019 -1.034276105
| 16> H -2.2331637805 -0.6126690371 -1.7181569679
| 17> H -1.7747598734 1.1058032493 -1.7531495123
| 18> H -1.75329975 -0.7339135858 1.9552525833
| 19> H -2.2170146349 -1.7480127931 0.5692046438
| 20> H -3.3062731947 -0.4669216025 1.1438004637
| 21> H -0.2088726766 -1.7845941057 -0.917486957
| 22> H 2.2403869589 -1.9318321196 -1.0025506171
| 23> H 3.6254228279 -0.1145089105 -0.0755957834
| 24> H 2.5438918125 1.8568606345 0.9416572527
| 25> H 0.0739946687 1.9997286197 1.025515691
| 26> *
| 27>
| 28>                          ****END OF INPUT****

CARTESIAN COORDINATES (ANGSTROEM)
---------------------------------
  C     -2.273778    0.337747   -1.165018
  N     -1.648770    0.271508    0.142669
  C     -2.260757   -0.732919    0.992198
  C     -0.224276    0.124723    0.062670
  C      0.390971   -0.983722   -0.508894
  C      1.770942   -1.067003   -0.557006
  C      2.548751   -0.046660   -0.036249
  C      1.941166    1.058970    0.534469
  C      0.560763    1.144462    0.584109
  H     -3.318866    0.616077   -1.034276
  H     -2.233164   -0.612669   -1.718157
  H     -1.774760    1.105803   -1.753150
  H     -1.753300   -0.733914    1.955253
  H     -2.217015   -1.748013    0.569205
  H     -3.306273   -0.466922    1.143800
  H     -0.208873   -1.784594   -0.917487
  H      2.240387   -1.931832   -1.002551
  H      3.625423   -0.114509   -0.075596
  H      2.543892    1.856861    0.941657
  H      0.073995    1.999729    1.025516

 Total Charge           Charge          ....    0
 Multiplicity           Mult            ....    1
 Number of Electrons    NEL             ....   66
 Basis Dimension        Dim             ....  148

ORBITAL ENERGIES
----------------

  NO   OCC          E(Eh)            E(eV)
   0   2.0000     -13.983903      -380.5213
   1   2.0000      -9.919677      -269.9281
   2   2.0000      -9.902033      -269.4480
   3   2.0000      -9.901979      -269.4466
   4   2.0000      -9.891754      -269.1683
   5   2.0000      -9.890545      -269.1354
   6   2.0000      -9.890173      -269.1253
   7   2.0000      -9.889685      -269.1120
   8   2.0000      -9.885798      -269.0062
   9   2.0000      -0.844340       -22.9757
  10   2.0000      -0.765952       -20.8426
  11   2.0000      -0.669568       -18.2199
  12   2.0000      -0.665146       -18.0995
  13   2.0000      -0.633550       -17.2398
  14   2.0000      -0.575671       -15.6648
  15   2.0000      -0.542073       -14.7506
  16   2.0000      -0.512905       -13.9569
  17   2.0000      -0.468365       -12.7449
  18   2.0000      -0.424633       -11.5548
  19   2.0000      -0.418068       -11.3762
  20   2.0000      -0.409131       -11.1330
  21   2.0000      -0.391177       -10.6445
  22   2.0000      -0.382092       -10.3972
  23   2.0000      -0.371047       -10.0967
  24   2.0000      -0.348817        -9.4918
  25   2.0000      -0.340925        -9.2770
  26   2.0000      -0.325103        -8.8465
  27   2.0000      -0.320858        -8.7310
  28   2.0000      -0.305581        -8.3153
  29   2.0000      -0.299583        -8.1521
  30   2.0000      -0.228760        -6.2249
  31   2.0000      -0.222745        -6.0612
  32   2.0000      -0.173151        -4.7117
  33   0.0000      -0.034476        -0.9381
  34   0.0000      -0.031851        -0.8667
  35   0.0000       0.037383         1.0172
  36   0.0000       0.053227         1.4484
  37   0.0000       0.077632         2.1125

MULLIKEN ATOMIC CHARGES
-----------------------
   0 C :   -0.160986
   1 N :   -0.271081
   2 C :   -0.160101
   3 C :    0.107267
   4 C :   -0.093067
   5 C :   -0.063134
   6 C :   -0.035264
   7 C :   -0.058770
   8 C :   -0.068303
   9 H :    0.102215
  10 H :    0.076295
  11 H :    0.111666
  12 H :    0.111384
  13 H :    0.076004
  14 H :    0.102333
  15 H :    0.038452
  16 H :    0.050424
  17 H :    0.052213
  18 H :    0.052103
  19 H :    0.030349
Sum of atomic charges:    0.0000000

LOEWDIN ATOMIC CHARGES
----------------------
   0 C :   -0.251811
   1 N :   -0.132364
   2 C :   -0.251597
   3 C :   -0.003166
   4 C :   -0.129442
   5 C :   -0.121398
   6 C :   -0.127181
   7 C :   -0.121678
   8 C :   -0.120990
   9 H :    0.113456
  10 H :    0.088515
  11 H :    0.118755
  12 H :    0.118689
  13 H :    0.088554
  14 H :    0.113379
  15 H :    0.123306
  16 H :    0.122610
  17 H :    0.122918
  18 H :    0.123370
  19 H :    0.126075

  Mayer bond orders larger than 0.100000
B(  0-C ,  1-N ) :   1.0403 B(  0-C ,  9-H ) :   0.9549 B(  0-C , 10-H ) :   0.9269
B(  0-C , 11-H ) :   0.9549 B(  1-N ,  2-C ) :   1.0396 B(  1-N ,  3-C ) :   0.9912
B(  2-C , 12-H ) :   0.9547 B(  2-C , 13-H ) :   0.9272 B(  2-C , 14-H ) :   0.9549
B(  3-C ,  4-C ) :   1.3631 B(  3-C ,  8-C ) :   1.4364 B(  4-C ,  5-C ) :   1.3540
B(  4-C , 15-H ) :   0.9610 B(  5-C ,  6-C ) :   1.3786 B(  5-C , 16-H ) :   0.9600
B(  6-C ,  7-C ) :   1.3788 B(  6-C , 17-H ) :   0.9659 B(  7-C ,  8-C ) :   1.3266
B(  7-C , 18-H ) :   0.9616 B(  8-C , 19-H ) :   0.9654

Dispersion correction           -0.020546300
FINAL SINGLE POINT ENERGY      -365.370529412927

DIPOLE MOMENT
-------------

Method             : SCF
Type of density    : Electron Density
Multiplicity       :   1
Irrep              :   0
Energy             :  -365.4305405006894034 Eh
Relativity type    :
Basis              : AO
                                X                 Y                 Z
Electronic contribution:      5.899339384       1.503632176       0.714462243
Nuclear contribution   :     -5.946282521      -1.700332123      -0.811470002
                        -----------------------------------------
Total Dipole Moment    :     -0.046943137      -0.196699947      -0.097007758
                        -----------------------------------------
Magnitude (a.u.)       :      0.224287834
Magnitude (Debye)      :      0.570094368

Rotational constants in cm-1:             0.118190             0.038115             0.034724
Rotational constants in MHz :          3543.246381          1142.645502          1040.995060

                             ****ORCA TERMINATED NORMALLY****
TOTAL RUN TIME: 0 days 0 hours 0 minutes 9 seconds 807 msec
