                         Program Version 6.0.0  -   RELEASE  -
|  1> ! pbe def2-sv(p) def2/J RI DEFGRID1 loosescf d4 GCP(DFT/SV(P)) printgap
|  2> %output
|  3>     printlevel normal
|  4> end
|  5> * xyz 0 1
|  6> C -3.2100349221 -0.0464230791 1.20153e-05
|  7> C -1.7879382488 0.504812801 -1.50509e-05
|  8> C -0.7877763933 -0.634946818 -1.21785e-05
|  9> Br 1.067806438 0.0365167606 1.7444e-06
| 10> H -3.3840661308 -0.6567717465 0.8826829489
| 11> H -3.9235458127 0.7721416122 3.3975e-05
| 12> H -3.3841091469 -0.656784661 -0.882652784
| 13> H -1.6315603477 1.1281871796 0.8827828021
| 14> H -1.6315677508 1.1282187813 -0.8827958509
| 15> H -0.8754357903 -1.2529820753 -0.8919771017
| 16> H -0.8753915529 -1.2529656428 0.8919690156
| 17> *
| 18>
| 19>                          ****END OF INPUT****

CARTESIAN COORDINATES (ANGSTROEM)
---------------------------------
  C     -3.210035   -0.046423    0.000012
  C     -1.787938    0.504813   -0.000015
  C     -0.787776   -0.634947   -0.000012
  Br     1.067806    0.036517    0.000002
  H     -3.384066   -0.656772    0.882683
  H     -3.923546    0.772142    0.000034
  H     -3.384109   -0.656785   -0.882653
  H     -1.631560    1.128187    0.882783
  H     -1.631568    1.128219   -0.882796
  H     -0.875436   -1.252982   -0.891977
  H     -0.875392   -1.252966    0.891969

 Total Charge           Charge          ....    0
 Multiplicity           Mult            ....    1
 Number of Electrons    NEL             ....   60
 Basis Dimension        Dim             ....   88

ORBITAL ENERGIES
----------------

  NO   OCC          E(Eh)            E(eV)
   0   2.0000    -480.917638    -13086.4342
   1   2.0000     -61.760008     -1680.5753
   2   2.0000     -55.690647     -1515.4195
   3   2.0000     -55.687545     -1515.3351
   4   2.0000     -55.687426     -1515.3319
   5   2.0000      -9.939804      -270.4758
   6   2.0000      -9.900256      -269.3997
   7   2.0000      -9.887759      -269.0596
   8   2.0000      -8.385081      -228.1697
   9   2.0000      -6.267046      -170.5350
  10   2.0000      -6.252686      -170.1442
  11   2.0000      -6.252544      -170.1404
  12   2.0000      -2.468162       -67.1621
  13   2.0000      -2.464607       -67.0654
  14   2.0000      -2.464497       -67.0624
  15   2.0000      -2.453759       -66.7702
  16   2.0000      -2.453747       -66.7698
  17   2.0000      -0.746344       -20.3090
  18   2.0000      -0.687804       -18.7161
  19   2.0000      -0.599055       -16.3011
  20   2.0000      -0.534799       -14.5526
  21   2.0000      -0.438185       -11.9236
  22   2.0000      -0.397682       -10.8215
  23   2.0000      -0.374533       -10.1916
  24   2.0000      -0.367769       -10.0075
  25   2.0000      -0.321168        -8.7394
  26   2.0000      -0.309958        -8.4344
  27   2.0000      -0.307160        -8.3583
  28   2.0000      -0.231864        -6.3093
  29   2.0000      -0.231390        -6.2964
  30   0.0000      -0.027211        -0.7404
  31   0.0000       0.039730         1.0811
  32   0.0000       0.070438         1.9167
  33   0.0000       0.073072         1.9884
  34   0.0000       0.089039         2.4229

MULLIKEN ATOMIC CHARGES
-----------------------
   0 C :   -0.283593
   1 C :   -0.169374
   2 C :   -0.243944
   3 Br:   -0.123574
   4 H :    0.105269
   5 H :    0.116031
   6 H :    0.105270
   7 H :    0.106535
   8 H :    0.106539
   9 H :    0.140420
  10 H :    0.140421
Sum of atomic charges:   -0.0000000

LOEWDIN ATOMIC CHARGES
----------------------
   0 C :   -0.339275
   1 C :   -0.252873
   2 C :   -0.274825
   3 Br:   -0.002116
   4 H :    0.120104
   5 H :    0.126715
   6 H :    0.120103
   7 H :    0.123011
   8 H :    0.123012
   9 H :    0.128071
  10 H :    0.128071

  Mayer bond orders larger than 0.100000
B(  0-C ,  1-C ) :   1.1336 B(  0-C ,  4-H ) :   0.9549 B(  0-C ,  5-H ) :   0.9499
B(  0-C ,  6-H ) :   0.9549 B(  1-C ,  2-C ) :   1.1019 B(  1-C ,  7-H ) :   0.9264
B(  1-C ,  8-H ) :   0.9264 B(  2-C ,  3-Br) :   1.0425 B(  2-C ,  9-H ) :   0.9267
B(  2-C , 10-H ) :   0.9267

Dispersion correction           -0.007115137
FINAL SINGLE POINT ENERGY     -2691.674879100378

DIPOLE MOMENT
-------------

Method             : SCF
Type of density    : Electron Density
Multiplicity       :   1
Irrep              :   0
Energy             : -2691.7172247774983589 Eh
Relativity type    :
Basis              : AO
                                X                 Y                 Z
Electronic contribution:     23.856243109       0.910294069      -0.000015358
Nuclear contribution   :    -24.649420366      -1.081119979       0.000024149
                        -----------------------------------------
Total Dipole Moment    :     -0.793177256      -0.170825910       0.000008791
                        -----------------------------------------
Magnitude (a.u.)       :      0.811364068
Magnitude (Debye)      :      2.062323566

Rotational constants in cm-1:             0.843601             0.054208             0.052439
Rotational constants in MHz :         25290.510367          1625.119862          1572.082653

                             ****ORCA TERMINATED NORMALLY****
TOTAL RUN TIME: 0 days 0 hours 0 minutes 4 seconds 182 msec
