                         Program Version 6.0.0  -   RELEASE  -
|  1> ! r2scan-3c def2/J RI DEFGRID2 scfconv6 printgap
|  2> %output
|  3>     printlevel normal
|  4> end
|  5> * xyz 0 1
|  6> C -1.465538716 -0.0008396984 -0.2411304407
|  7> C -0.725562879 1.2445573929 0.2386363681
|  8> C 0.7256189008 1.1996394589 -0.2343190245
|  9> N 1.3623961834 0.0004771263 0.2840797226
| 10> C 0.7265071529 -1.1987698207 -0.2349403335
| 11> C -0.7241697555 -1.2451939588 0.2392118434
| 12> H -1.5079369429 -0.0011771483 -1.3335813551
| 13> H -2.4890614899 -0.0011606483 0.1367074517
| 14> H -1.2068847139 2.1472311532 -0.1402802214
| 15> H -0.7362440043 1.2747666907 1.3286562034
| 16> H 0.7448516093 1.2328504491 -1.3404363684
| 17> H 1.2715914312 2.0675623613 0.142505827
| 18> H 2.3471027385 0.0010138373 0.0395982839
| 19> H 0.7448179156 -1.2308455156 -1.3410568965
| 20> H 1.2735317366 -2.0665132992 0.1404929575
| 21> H -1.2047896859 -2.1485903882 -0.1385602714
| 22> H -0.7339886783 -1.2745389986 1.3292876122
| 23> *
| 24>
| 25>                          ****END OF INPUT****

CARTESIAN COORDINATES (ANGSTROEM)
---------------------------------
  C     -1.465539   -0.000840   -0.241130
  C     -0.725563    1.244557    0.238636
  C      0.725619    1.199639   -0.234319
  N      1.362396    0.000477    0.284080
  C      0.726507   -1.198770   -0.234940
  C     -0.724170   -1.245194    0.239212
  H     -1.507937   -0.001177   -1.333581
  H     -2.489061   -0.001161    0.136707
  H     -1.206885    2.147231   -0.140280
  H     -0.736244    1.274767    1.328656
  H      0.744852    1.232850   -1.340436
  H      1.271591    2.067562    0.142506
  H      2.347103    0.001014    0.039598
  H      0.744818   -1.230846   -1.341057
  H      1.273532   -2.066513    0.140493
  H     -1.204790   -2.148590   -0.138560
  H     -0.733989   -1.274539    1.329288

 Total Charge           Charge          ....    0
 Multiplicity           Mult            ....    1
 Number of Electrons    NEL             ....   48
 Basis Dimension        Dim             ....  174

ORBITAL ENERGIES
----------------

  NO   OCC          E(Eh)            E(eV)
   0   2.0000     -14.137812      -384.7094
   1   2.0000     -10.045627      -273.3554
   2   2.0000     -10.045599      -273.3546
   3   2.0000     -10.020627      -272.6751
   4   2.0000     -10.018617      -272.6204
   5   2.0000     -10.018586      -272.6196
   6   2.0000      -0.874378       -23.7930
   7   2.0000      -0.748909       -20.3789
   8   2.0000      -0.712175       -19.3793
   9   2.0000      -0.596209       -16.2237
  10   2.0000      -0.580793       -15.8042
  11   2.0000      -0.515713       -14.0333
  12   2.0000      -0.476331       -12.9616
  13   2.0000      -0.415940       -11.3183
  14   2.0000      -0.415377       -11.3030
  15   2.0000      -0.389689       -10.6040
  16   2.0000      -0.374265       -10.1843
  17   2.0000      -0.363742        -9.8979
  18   2.0000      -0.346901        -9.4397
  19   2.0000      -0.310891        -8.4598
  20   2.0000      -0.295504        -8.0411
  21   2.0000      -0.276824        -7.5328
  22   2.0000      -0.275222        -7.4892
  23   2.0000      -0.190504        -5.1839
  24   0.0000       0.074298         2.0218
  25   0.0000       0.109030         2.9669
  26   0.0000       0.121054         3.2941
  27   0.0000       0.123739         3.3671
  28   0.0000       0.127521         3.4700

MULLIKEN ATOMIC CHARGES
-----------------------
   0 C :   -0.258952
   1 C :   -0.284925
   2 C :   -0.258199
   3 N :   -0.313981
   4 C :   -0.258130
   5 C :   -0.284942
   6 H :    0.145928
   7 H :    0.146585
   8 H :    0.142607
   9 H :    0.155817
  10 H :    0.132314
  11 H :    0.139942
  12 H :    0.225213
  13 H :    0.132328
  14 H :    0.139930
  15 H :    0.142624
  16 H :    0.155841
Sum of atomic charges:   -0.0000000

LOEWDIN ATOMIC CHARGES
----------------------
   0 C :   -0.304877
   1 C :   -0.277400
   2 C :   -0.064431
   3 N :   -0.854271
   4 C :   -0.064409
   5 C :   -0.277366
   6 H :    0.155204
   7 H :    0.154648
   8 H :    0.154718
   9 H :    0.161363
  10 H :    0.152899
  11 H :    0.174031
  12 H :    0.246872
  13 H :    0.152915
  14 H :    0.174013
  15 H :    0.154695
  16 H :    0.161397

  Mayer bond orders larger than 0.100000
B(  0-C ,  1-C ) :   0.9111 B(  0-C ,  5-C ) :   0.9110 B(  0-C ,  6-H ) :   0.9832
B(  0-C ,  7-H ) :   0.9575 B(  1-C ,  2-C ) :   0.9321 B(  1-C ,  8-H ) :   0.9590
B(  1-C ,  9-H ) :   0.9817 B(  2-C ,  3-N ) :   0.9528 B(  2-C , 10-H ) :   0.9861
B(  2-C , 11-H ) :   0.9509 B(  3-N ,  4-C ) :   0.9526 B(  3-N , 12-H ) :   0.9067
B(  4-C ,  5-C ) :   0.9319 B(  4-C , 13-H ) :   0.9861 B(  4-C , 14-H ) :   0.9509
B(  5-C , 15-H ) :   0.9590 B(  5-C , 16-H ) :   0.9818

Dispersion correction           -0.004486999
FINAL SINGLE POINT ENERGY      -251.819210746044

DIPOLE MOMENT
-------------

Method             : SCF
Type of density    : Electron Density
Multiplicity       :   1
Irrep              :   0
Energy             :  -251.8262777283914602 Eh
Relativity type    :
Basis              : AO
                                X                 Y                 Z
Electronic contribution:      1.473768667      -0.000414180       0.772813454
Nuclear contribution   :     -1.396988721       0.000564095      -1.102352758
                        -----------------------------------------
Total Dipole Moment    :      0.076779946       0.000149915      -0.329539304
                        -----------------------------------------
Magnitude (a.u.)       :      0.338365683
Magnitude (Debye)      :      0.860057216

Rotational constants in cm-1:             0.153780             0.148952             0.086185
Rotational constants in MHz :          4610.206488          4465.461407          2583.767313

                             ****ORCA TERMINATED NORMALLY****
TOTAL RUN TIME: 0 days 0 hours 0 minutes 15 seconds 892 msec
