                         Program Version 6.0.0  -   RELEASE  -
|  1> ! r2scan-3c def2/J RI DEFGRID2 scfconv6 printgap
|  2> %output
|  3>     printlevel normal
|  4> end
|  5> %cpcm
|  6>     smd true
|  7>     smdsolvent "water"
|  8> end
|  9> * xyz 0 1
| 10> C -1.465538716 -0.0008396984 -0.2411304407
| 11> C -0.725562879 1.2445573929 0.2386363681
| 12> C 0.7256189008 1.1996394589 -0.2343190245
| 13> N 1.3623961834 0.0004771263 0.2840797226
| 14> C 0.7265071529 -1.1987698207 -0.2349403335
| 15> C -0.7241697555 -1.2451939588 0.2392118434
| 16> H -1.5079369429 -0.0011771483 -1.3335813551
| 17> H -2.4890614899 -0.0011606483 0.1367074517
| 18> H -1.2068847139 2.1472311532 -0.1402802214
| 19> H -0.7362440043 1.2747666907 1.3286562034
| 20> H 0.7448516093 1.2328504491 -1.3404363684
| 21> H 1.2715914312 2.0675623613 0.142505827
| 22> H 2.3471027385 0.0010138373 0.0395982839
| 23> H 0.7448179156 -1.2308455156 -1.3410568965
| 24> H 1.2735317366 -2.0665132992 0.1404929575
| 25> H -1.2047896859 -2.1485903882 -0.1385602714
| 26> H -0.7339886783 -1.2745389986 1.3292876122
| 27> *
| 28>
| 29>                          ****END OF INPUT****

CARTESIAN COORDINATES (ANGSTROEM)
---------------------------------
  C     -1.465539   -0.000840   -0.241130
  C     -0.725563    1.244557    0.238636
  C      0.725619    1.199639   -0.234319
  N      1.362396    0.000477    0.284080
  C      0.726507   -1.198770   -0.234940
  C     -0.724170   -1.245194    0.239212
  H     -1.507937   -0.001177   -1.333581
  H     -2.489061   -0.001161    0.136707
  H     -1.206885    2.147231   -0.140280
  H     -0.736244    1.274767    1.328656
  H      0.744852    1.232850   -1.340436
  H      1.271591    2.067562    0.142506
  H      2.347103    0.001014    0.039598
  H      0.744818   -1.230846   -1.341057
  H      1.273532   -2.066513    0.140493
  H     -1.204790   -2.148590   -0.138560
  H     -0.733989   -1.274539    1.329288

 Total Charge           Charge          ....    0
 Multiplicity           Mult            ....    1
 Number of Electrons    NEL             ....   48
 Basis Dimension        Dim             ....  174

ORBITAL ENERGIES
----------------

  NO   OCC          E(Eh)            E(eV)
   0   2.0000     -14.133267      -384.5858
   1   2.0000     -10.039342      -273.1844
   2   2.0000     -10.039313      -273.1836
   3   2.0000     -10.014187      -272.4999
   4   2.0000     -10.013110      -272.4706
   5   2.0000     -10.013082      -272.4698
   6   2.0000      -0.869702       -23.6658
   7   2.0000      -0.743450       -20.2303
   8   2.0000      -0.706896       -19.2356
   9   2.0000      -0.590300       -16.0629
  10   2.0000      -0.575392       -15.6572
  11   2.0000      -0.510620       -13.8947
  12   2.0000      -0.470378       -12.7996
  13   2.0000      -0.410530       -11.1711
  14   2.0000      -0.409868       -11.1531
  15   2.0000      -0.384350       -10.4587
  16   2.0000      -0.368323       -10.0226
  17   2.0000      -0.358501        -9.7553
  18   2.0000      -0.340881        -9.2758
  19   2.0000      -0.305508        -8.3133
  20   2.0000      -0.290185        -7.8963
  21   2.0000      -0.270711        -7.3664
  22   2.0000      -0.269083        -7.3221
  23   2.0000      -0.190650        -5.1879
  24   0.0000       0.085286         2.3208
  25   0.0000       0.116001         3.1566
  26   0.0000       0.125573         3.4170
  27   0.0000       0.129036         3.5112
  28   0.0000       0.132462         3.6045

MULLIKEN ATOMIC CHARGES
-----------------------
   0 C :   -0.254948
   1 C :   -0.314009
   2 C :   -0.277457
   3 N :   -0.369288
   4 C :   -0.277370
   5 C :   -0.314042
   6 H :    0.155958
   7 H :    0.155170
   8 H :    0.155114
   9 H :    0.159497
  10 H :    0.142130
  11 H :    0.155553
  12 H :    0.271369
  13 H :    0.142146
  14 H :    0.155554
  15 H :    0.155128
  16 H :    0.159493
Sum of atomic charges:   -0.0000000

LOEWDIN ATOMIC CHARGES
----------------------
   0 C :   -0.307639
   1 C :   -0.282152
   2 C :   -0.066553
   3 N :   -0.873741
   4 C :   -0.066530
   5 C :   -0.282119
   6 H :    0.158683
   7 H :    0.156632
   8 H :    0.158533
   9 H :    0.159414
  10 H :    0.157692
  11 H :    0.177567
  12 H :    0.257006
  13 H :    0.157710
  14 H :    0.177553
  15 H :    0.158506
  16 H :    0.159436

  Mayer bond orders larger than 0.100000
B(  0-C ,  1-C ) :   0.8973 B(  0-C ,  5-C ) :   0.8972 B(  0-C ,  6-H ) :   0.9778
B(  0-C ,  7-H ) :   0.9578 B(  1-C ,  2-C ) :   0.9178 B(  1-C ,  8-H ) :   0.9564
B(  1-C ,  9-H ) :   0.9876 B(  2-C ,  3-N ) :   0.9538 B(  2-C , 10-H ) :   0.9854
B(  2-C , 11-H ) :   0.9544 B(  3-N ,  4-C ) :   0.9535 B(  3-N , 12-H ) :   0.8913
B(  4-C ,  5-C ) :   0.9177 B(  4-C , 13-H ) :   0.9854 B(  4-C , 14-H ) :   0.9544
B(  5-C , 15-H ) :   0.9564 B(  5-C , 16-H ) :   0.9877

Dispersion correction           -0.004486999
FINAL SINGLE POINT ENERGY      -251.825162006248

DIPOLE MOMENT
-------------

Method             : SCF
Type of density    : Electron Density
Multiplicity       :   1
Irrep              :   0
Energy             :  -251.8322289885951193 Eh
Relativity type    :
Basis              : AO
                                X                 Y                 Z
Electronic contribution:      1.504175231      -0.000339619       0.570826813
Nuclear contribution   :     -1.396988721       0.000564095      -1.102352758
                        -----------------------------------------
Total Dipole Moment    :      0.107186510       0.000224476      -0.531525945
                        -----------------------------------------
Magnitude (a.u.)       :      0.542225809
Magnitude (Debye)      :      1.378228477

Rotational constants in cm-1:             0.153780             0.148952             0.086185
Rotational constants in MHz :          4610.206488          4465.461407          2583.767313

                             ****ORCA TERMINATED NORMALLY****
TOTAL RUN TIME: 0 days 0 hours 0 minutes 20 seconds 526 msec
