                         Program Version 6.0.0  -   RELEASE  -
|  1> ! pbe def2-sv(p) def2/J RI DEFGRID1 loosescf d4 GCP(DFT/SV(P)) printgap
|  2> %output
|  3>     printlevel normal
|  4> end
|  5> * xyz 0 1
|  6> C -2.6300356644 1.3509965997 0.5074018253
|  7> C -1.9368104995 0.2662783816 -0.3120791501
|  8> C -0.4413541774 0.224698652 -0.1386513276
|  9> C 0.3271027034 1.3709296081 -0.0092785326
| 10> C 1.7023501925 1.3086007343 0.1423210427
| 11> C 2.3352912265 0.0800617647 0.1650320257
| 12> C 1.5914087682 -1.0785920795 0.031217328
| 13> C 0.2128526597 -1.0141286254 -0.1233544486
| 14> O -0.5382844324 -2.1453774 -0.2637659805
| 15> H -2.3813171483 2.3438845593 0.1426765172
| 16> H -2.3377839087 1.2821518096 1.5527335506
| 17> H -3.7082510917 1.2283218101 0.4404360559
| 18> H -2.1628675978 0.4139392759 -1.3726807774
| 19> H -2.3354932321 -0.7102583548 -0.0307862765
| 20> H -0.15635108 2.3348366521 -0.0281092205
| 21> H 2.2752031503 2.2178252466 0.2418416489
| 22> H 3.4062691194 0.0179170469 0.284358727
| 23> H 2.083688623 -2.040951315 0.0459069906
| 24> H 0.0284783037 -2.929502772 -0.2188282735
| 25> *
| 26>
| 27>                          ****END OF INPUT****

CARTESIAN COORDINATES (ANGSTROEM)
---------------------------------
  C     -2.630036    1.350997    0.507402
  C     -1.936810    0.266278   -0.312079
  C     -0.441354    0.224699   -0.138651
  C      0.327103    1.370930   -0.009279
  C      1.702350    1.308601    0.142321
  C      2.335291    0.080062    0.165032
  C      1.591409   -1.078592    0.031217
  C      0.212853   -1.014129   -0.123354
  O     -0.538284   -2.145377   -0.263766
  H     -2.381317    2.343885    0.142677
  H     -2.337784    1.282152    1.552734
  H     -3.708251    1.228322    0.440436
  H     -2.162868    0.413939   -1.372681
  H     -2.335493   -0.710258   -0.030786
  H     -0.156351    2.334837   -0.028109
  H      2.275203    2.217825    0.241842
  H      3.406269    0.017917    0.284359
  H      2.083689   -2.040951    0.045907
  H      0.028478   -2.929503   -0.218828

 Total Charge           Charge          ....    0
 Multiplicity           Mult            ....    1
 Number of Electrons    NEL             ....   66
 Basis Dimension        Dim             ....  146

ORBITAL ENERGIES
----------------

  NO   OCC          E(Eh)            E(eV)
   0   2.0000     -18.780123      -511.0331
   1   2.0000      -9.946678      -270.6629
   2   2.0000      -9.892194      -269.1803
   3   2.0000      -9.888181      -269.0711
   4   2.0000      -9.887673      -269.0573
   5   2.0000      -9.885383      -268.9949
   6   2.0000      -9.882737      -268.9229
   7   2.0000      -9.880880      -268.8724
   8   2.0000      -9.873216      -268.6639
   9   2.0000      -0.961150       -26.1542
  10   2.0000      -0.770148       -20.9568
  11   2.0000      -0.706076       -19.2133
  12   2.0000      -0.659190       -17.9375
  13   2.0000      -0.645272       -17.5587
  14   2.0000      -0.571317       -15.5463
  15   2.0000      -0.552931       -15.0460
  16   2.0000      -0.510788       -13.8992
  17   2.0000      -0.488644       -13.2967
  18   2.0000      -0.437335       -11.9005
  19   2.0000      -0.418800       -11.3961
  20   2.0000      -0.394963       -10.7475
  21   2.0000      -0.383516       -10.4360
  22   2.0000      -0.380040       -10.3414
  23   2.0000      -0.357714        -9.7339
  24   2.0000      -0.340268        -9.2592
  25   2.0000      -0.329993        -8.9796
  26   2.0000      -0.322061        -8.7637
  27   2.0000      -0.309667        -8.4265
  28   2.0000      -0.292669        -7.9639
  29   2.0000      -0.288051        -7.8383
  30   2.0000      -0.280377        -7.6294
  31   2.0000      -0.218893        -5.9564
  32   2.0000      -0.190096        -5.1728
  33   0.0000      -0.029581        -0.8049
  34   0.0000      -0.014123        -0.3843
  35   0.0000       0.022431         0.6104
  36   0.0000       0.048018         1.3066
  37   0.0000       0.056600         1.5402

MULLIKEN ATOMIC CHARGES
-----------------------
   0 C :   -0.291525
   1 C :   -0.120304
   2 C :   -0.005616
   3 C :   -0.149386
   4 C :   -0.041426
   5 C :   -0.052415
   6 C :   -0.163840
   7 C :    0.179435
   8 O :   -0.339372
   9 H :    0.109208
  10 H :    0.108273
  11 H :    0.101864
  12 H :    0.101188
  13 H :    0.098300
  14 H :    0.035666
  15 H :    0.043739
  16 H :    0.048910
  17 H :    0.020396
  18 H :    0.316904
Sum of atomic charges:    0.0000000

LOEWDIN ATOMIC CHARGES
----------------------
   0 C :   -0.337203
   1 C :   -0.220772
   2 C :   -0.064311
   3 C :   -0.117025
   4 C :   -0.146393
   5 C :   -0.123025
   6 C :   -0.176280
   7 C :    0.025081
   8 O :   -0.236075
   9 H :    0.115785
  10 H :    0.121256
  11 H :    0.120382
  12 H :    0.129875
  13 H :    0.126810
  14 H :    0.122550
  15 H :    0.121001
  16 H :    0.122542
  17 H :    0.117959
  18 H :    0.297844

  Mayer bond orders larger than 0.100000
B(  0-C ,  1-C ) :   1.1582 B(  0-C ,  9-H ) :   0.9433 B(  0-C , 10-H ) :   0.9586
B(  0-C , 11-H ) :   0.9506 B(  1-C ,  2-C ) :   1.0808 B(  1-C , 12-H ) :   0.8998
B(  1-C , 13-H ) :   0.9050 B(  2-C ,  3-C ) :   1.4078 B(  2-C ,  7-C ) :   1.3852
B(  3-C ,  4-C ) :   1.3469 B(  3-C , 14-H ) :   0.9630 B(  4-C ,  5-C ) :   1.3752
B(  4-C , 15-H ) :   0.9663 B(  5-C ,  6-C ) :   1.3622 B(  5-C , 16-H ) :   0.9631
B(  6-C ,  7-C ) :   1.3279 B(  6-C , 17-H ) :   0.9556 B(  7-C ,  8-O ) :   1.1909
B(  8-O , 18-H ) :   0.8399

Dispersion correction           -0.018931196
FINAL SINGLE POINT ENERGY      -385.234211637211

DIPOLE MOMENT
-------------

Method             : SCF
Type of density    : Electron Density
Multiplicity       :   1
Irrep              :   0
Energy             :  -385.2942334924654801 Eh
Relativity type    :
Basis              : AO
                                X                 Y                 Z
Electronic contribution:      5.180937137      -4.295843416      -0.987409647
Nuclear contribution   :     -4.969412219       3.869264748       0.988250314
                        -----------------------------------------
Total Dipole Moment    :      0.211524918      -0.426578668       0.000840667
                        -----------------------------------------
Magnitude (a.u.)       :      0.476143737
Magnitude (Debye)      :      1.210261197

Rotational constants in cm-1:             0.083295             0.049490             0.032030
Rotational constants in MHz :          2497.113972          1483.680092           960.233661

                             ****ORCA TERMINATED NORMALLY****
TOTAL RUN TIME: 0 days 0 hours 0 minutes 8 seconds 901 msec
