                         Program Version 6.0.0  -   RELEASE  -
|  1> ! wb97x-v def2-tzvp def2/J RIJCOSX DEFGRID2 scfconv7 GCP(DFT/TZ) printgap
|  2> %output
|  3>     printlevel normal
|  4> end
|  5> * xyz 0 1
|  6> C -2.485551308938741 -0.05155778147940109 0.3446170474892517
|  7> C -1.2386472214393884 -0.6661211334821976 -0.271180063495527
|  8> C 0.027627992579967706 0.026678420453850618 0.14332565668883973
|  9> O 0.09416868932643184 1.0696169389676027 0.7714200660249125
| 10> O 1.1191271460141359 -0.6442282217909298 -0.282150805705654
| 11> C 2.398342538368533 -0.040904699821791735 0.04033367582874164
| 12> H -2.600584042853664 0.994261467431747 0.04739517012063383
| 13> H -3.3719483159367907 -0.5989845619124242 0.013666807674738025
| 14> H -2.446689901017766 -0.09381274747954278 1.4368526534612938
| 15> H -1.277774336400937 -0.6257837378972514 -1.3672814812785055
| 16> H -1.141523160811146 -1.7264778246248143 -0.014193524100817416
| 17> H 2.510860826271033 0.05139432978048617 1.123008773265356
| 18> H 2.4827715247843694 0.9409108855388315 -0.4316778501804359
| 19> H 3.147961609268647 -0.7212795636559282 -0.3619546436000862
| 20> *
| 21>
| 22>                          ****END OF INPUT****

CARTESIAN COORDINATES (ANGSTROEM)
---------------------------------
  C     -2.485551   -0.051558    0.344617
  C     -1.238647   -0.666121   -0.271180
  C      0.027628    0.026678    0.143326
  O      0.094169    1.069617    0.771420
  O      1.119127   -0.644228   -0.282151
  C      2.398343   -0.040905    0.040334
  H     -2.600584    0.994261    0.047395
  H     -3.371948   -0.598985    0.013667
  H     -2.446690   -0.093813    1.436853
  H     -1.277774   -0.625784   -1.367281
  H     -1.141523   -1.726478   -0.014194
  H      2.510861    0.051394    1.123009
  H      2.482772    0.940911   -0.431678
  H      3.147962   -0.721280   -0.361955

 Total Charge           Charge          ....    0
 Multiplicity           Mult            ....    1
 Number of Electrons    NEL             ....   48
 Basis Dimension        Dim             ....  234

ORBITAL ENERGIES
----------------

  NO   OCC          E(Eh)            E(eV)
   0   2.0000     -21.718047      -590.9781
   1   2.0000     -21.656061      -589.2914
   2   2.0000     -12.175669      -331.3168
   3   2.0000     -12.102880      -329.3361
   4   2.0000     -12.062971      -328.2501
   5   2.0000     -12.040626      -327.6421
   6   2.0000      -1.756407       -47.7943
   7   2.0000      -1.691024       -46.0151
   8   2.0000      -1.316807       -35.8321
   9   2.0000      -1.257636       -34.2220
  10   2.0000      -1.148868       -31.2623
  11   2.0000      -1.106913       -30.1206
  12   2.0000      -1.061785       -28.8926
  13   2.0000      -1.002927       -27.2910
  14   2.0000      -0.995565       -27.0907
  15   2.0000      -0.943164       -25.6648
  16   2.0000      -0.907023       -24.6814
  17   2.0000      -0.867941       -23.6179
  18   2.0000      -0.860266       -23.4090
  19   2.0000      -0.845050       -22.9950
  20   2.0000      -0.837869       -22.7996
  21   2.0000      -0.824583       -22.4380
  22   2.0000      -0.798017       -21.7152
  23   2.0000      -0.781537       -21.2667
  24   0.0000      -0.301660        -8.2086
  25   0.0000      -0.182803        -4.9743
  26   0.0000      -0.103932        -2.8281
  27   0.0000      -0.033828        -0.9205
  28   0.0000      -0.002869        -0.0781

MULLIKEN ATOMIC CHARGES
-----------------------
   0 C :   -0.319577
   1 C :   -0.172544
   2 C :    0.306430
   3 O :   -0.355960
   4 O :   -0.247274
   5 C :   -0.186317
   6 H :    0.119872
   7 H :    0.114092
   8 H :    0.115239
   9 H :    0.117996
  10 H :    0.120535
  11 H :    0.130340
  12 H :    0.129066
  13 H :    0.128104
Sum of atomic charges:    0.0000000

LOEWDIN ATOMIC CHARGES
----------------------
   0 C :   -0.293419
   1 C :   -0.253952
   2 C :   -0.464373
   3 O :    0.086978
   4 O :    0.218145
   5 C :   -0.289364
   6 H :    0.123810
   7 H :    0.117645
   8 H :    0.122851
   9 H :    0.151875
  10 H :    0.148891
  11 H :    0.110935
  12 H :    0.110588
  13 H :    0.109390

  Mayer bond orders larger than 0.100000
B(  0-C ,  1-C ) :   0.9997 B(  0-C ,  6-H ) :   0.9731 B(  0-C ,  7-H ) :   0.9785
B(  0-C ,  8-H ) :   0.9755 B(  1-C ,  2-C ) :   0.9944 B(  1-C ,  9-H ) :   0.9469
B(  1-C , 10-H ) :   0.9610 B(  2-C ,  3-O ) :   2.0334 B(  2-C ,  4-O ) :   1.2014
B(  4-O ,  5-C ) :   0.9077 B(  5-C , 11-H ) :   0.9782 B(  5-C , 12-H ) :   0.9787
B(  5-C , 13-H ) :   0.9720

FINAL SINGLE POINT ENERGY      -307.721341052693

DIPOLE MOMENT
-------------

Method             : SCF
Type of density    : Electron Density
Multiplicity       :   1
Irrep              :   0
Energy             :  -307.7307893120927247 Eh
Relativity type    :
Basis              : AO
                                X                 Y                 Z
Electronic contribution:      2.784613406       0.746833615       0.166029794
Nuclear contribution   :     -2.606322645      -1.340250492      -0.546481979
                        -----------------------------------------
Total Dipole Moment    :      0.178290761      -0.593416877      -0.380452185
                        -----------------------------------------
Magnitude (a.u.)       :      0.727100440
Magnitude (Debye)      :      1.848142445

Rotational constants in cm-1:             0.316308             0.071067             0.060080
Rotational constants in MHz :          9482.685641          2130.531923          1801.152831

                             ****ORCA TERMINATED NORMALLY****
TOTAL RUN TIME: 0 days 0 hours 1 minutes 25 seconds 475 msec
