                         Program Version 6.0.0  -   RELEASE  -
|  1> ! wb97x-v def2-tzvp def2/J RIJCOSX DEFGRID2 scfconv7 GCP(DFT/TZ) printgap
|  2> %output
|  3>     printlevel normal
|  4> end
|  5> %cpcm
|  6>     smd true
|  7>     smdsolvent "water"
|  8> end
|  9> * xyz 0 1
| 10> C -2.485551308938741 -0.05155778147940109 0.3446170474892517
| 11> C -1.2386472214393884 -0.6661211334821976 -0.271180063495527
| 12> C 0.027627992579967706 0.026678420453850618 0.14332565668883973
| 13> O 0.09416868932643184 1.0696169389676027 0.7714200660249125
| 14> O 1.1191271460141359 -0.6442282217909298 -0.282150805705654
| 15> C 2.398342538368533 -0.040904699821791735 0.04033367582874164
| 16> H -2.600584042853664 0.994261467431747 0.04739517012063383
| 17> H -3.3719483159367907 -0.5989845619124242 0.013666807674738025
| 18> H -2.446689901017766 -0.09381274747954278 1.4368526534612938
| 19> H -1.277774336400937 -0.6257837378972514 -1.3672814812785055
| 20> H -1.141523160811146 -1.7264778246248143 -0.014193524100817416
| 21> H 2.510860826271033 0.05139432978048617 1.123008773265356
| 22> H 2.4827715247843694 0.9409108855388315 -0.4316778501804359
| 23> H 3.147961609268647 -0.7212795636559282 -0.3619546436000862
| 24> *
| 25>
| 26>                          ****END OF INPUT****

CARTESIAN COORDINATES (ANGSTROEM)
---------------------------------
  C     -2.485551   -0.051558    0.344617
  C     -1.238647   -0.666121   -0.271180
  C      0.027628    0.026678    0.143326
  O      0.094169    1.069617    0.771420
  O      1.119127   -0.644228   -0.282151
  C      2.398343   -0.040905    0.040334
  H     -2.600584    0.994261    0.047395
  H     -3.371948   -0.598985    0.013667
  H     -2.446690   -0.093813    1.436853
  H     -1.277774   -0.625784   -1.367281
  H     -1.141523   -1.726478   -0.014194
  H      2.510861    0.051394    1.123009
  H      2.482772    0.940911   -0.431678
  H      3.147962   -0.721280   -0.361955

 Total Charge           Charge          ....    0
 Multiplicity           Mult            ....    1
 Number of Electrons    NEL             ....   48
 Basis Dimension        Dim             ....  234

ORBITAL ENERGIES
----------------

  NO   OCC          E(Eh)            E(eV)
   0   2.0000     -21.722083      -591.0879
   1   2.0000     -21.669226      -589.6496
   2   2.0000     -12.184908      -331.5682
   3   2.0000     -12.092044      -329.0412
   4   2.0000     -12.053999      -328.0060
   5   2.0000     -12.032997      -327.4345
   6   2.0000      -1.763395       -47.9844
   7   2.0000      -1.702291       -46.3217
   8   2.0000      -1.313500       -35.7422
   9   2.0000      -1.252618       -34.0855
  10   2.0000      -1.146564       -31.1996
  11   2.0000      -1.110067       -30.2065
  12   2.0000      -1.072384       -29.1811
  13   2.0000      -1.001306       -27.2469
  14   2.0000      -0.998244       -27.1636
  15   2.0000      -0.947711       -25.7885
  16   2.0000      -0.917576       -24.9685
  17   2.0000      -0.867095       -23.5948
  18   2.0000      -0.864272       -23.5180
  19   2.0000      -0.837279       -22.7835
  20   2.0000      -0.829018       -22.5587
  21   2.0000      -0.816590       -22.2205
  22   2.0000      -0.791994       -21.5513
  23   2.0000      -0.773369       -21.0444
  24   0.0000      -0.305234        -8.3058
  25   0.0000      -0.176785        -4.8106
  26   0.0000      -0.106093        -2.8869
  27   0.0000      -0.029804        -0.8110
  28   0.0000       0.007652         0.2082

MULLIKEN ATOMIC CHARGES
-----------------------
   0 C :   -0.388025
   1 C :   -0.178865
   2 C :    0.396273
   3 O :   -0.474743
   4 O :   -0.275474
   5 C :   -0.227033
   6 H :    0.127776
   7 H :    0.138293
   8 H :    0.129946
   9 H :    0.149409
  10 H :    0.146442
  11 H :    0.149433
  12 H :    0.150043
  13 H :    0.156525
Sum of atomic charges:   -0.0000000

LOEWDIN ATOMIC CHARGES
----------------------
   0 C :   -0.300315
   1 C :   -0.247308
   2 C :   -0.443758
   3 O :    0.024457
   4 O :    0.213069
   5 C :   -0.286610
   6 H :    0.122390
   7 H :    0.124762
   8 H :    0.123177
   9 H :    0.162393
  10 H :    0.157979
  11 H :    0.115303
  12 H :    0.115468
  13 H :    0.118993

  Mayer bond orders larger than 0.100000
B(  0-C ,  1-C ) :   0.9858 B(  0-C ,  6-H ) :   0.9723 B(  0-C ,  7-H ) :   0.9748
B(  0-C ,  8-H ) :   0.9750 B(  1-C ,  2-C ) :   1.0075 B(  1-C ,  9-H ) :   0.9359
B(  1-C , 10-H ) :   0.9518 B(  2-C ,  3-O ) :   1.9050 B(  2-C ,  4-O ) :   1.2144
B(  4-O ,  5-C ) :   0.8815 B(  5-C , 11-H ) :   0.9731 B(  5-C , 12-H ) :   0.9734
B(  5-C , 13-H ) :   0.9671

FINAL SINGLE POINT ENERGY      -307.727154489965

DIPOLE MOMENT
-------------

Method             : SCF
Type of density    : Electron Density
Multiplicity       :   1
Irrep              :   0
Energy             :  -307.7366027493645788 Eh
Relativity type    :
Basis              : AO
                                X                 Y                 Z
Electronic contribution:      2.830963609       0.450760460      -0.026731387
Nuclear contribution   :     -2.606322645      -1.340250492      -0.546481979
                        -----------------------------------------
Total Dipole Moment    :      0.224640964      -0.889490032      -0.573213366
                        -----------------------------------------
Magnitude (a.u.)       :      1.081771530
Magnitude (Debye)      :      2.749644710

Rotational constants in cm-1:             0.316308             0.071067             0.060080
Rotational constants in MHz :          9482.685641          2130.531923          1801.152831

                             ****ORCA TERMINATED NORMALLY****
TOTAL RUN TIME: 0 days 0 hours 1 minutes 27 seconds 996 msec
