                         Program Version 6.0.0  -   RELEASE  -
|  1> ! pbe def2-sv(p) def2/J RI DEFGRID1 loosescf d4 GCP(DFT/SV(P)) printgap
|  2> %output
|  3>     printlevel normal
|  4> end
|  5> * xyz 0 1
|  6> C -2.5510469292 -0.6737411029 -0.3795581768
|  7> C -1.1777355818 -0.3191895699 0.205418317
|  8> H -1.2458129052 -0.26551501 1.3038769363
|  9> C -0.706786014 1.0498325207 -0.3107393462
| 10> H -0.7150413117 1.0300586346 -1.4130536811
| 11> C 0.7298718606 1.3232928284 0.1748636039
| 12> H 0.7126985753 1.413498476 1.2687831084
| 13> C 1.6390039431 0.1540653666 -0.2320237029
| 14> H 1.6527831029 0.067752343 -1.3253520235
| 15> C 1.0360571489 -1.1494736531 0.3493857723
| 16> H 1.0040082504 -1.0752424128 1.4507020273
| 17> O -0.2647021257 -1.3334899807 -0.165099042
| 18> O 1.7865074806 -2.2685325557 0.067005872
| 19> O 2.9760739694 0.3439225253 0.1368548974
| 20> O 1.1852120907 2.5712107021 -0.2860680011
| 21> O -1.5917093482 2.0320432074 0.1612332855
| 22> O -3.1638449822 -1.7696357575 0.2436877339
| 23> H -2.4189619976 -0.9626443597 -1.423729247
| 24> H -3.1801294189 0.2220534953 -0.3215472652
| 25> H 1.7019855662 -2.4936169694 -0.8726272098
| 26> H 3.0624987016 0.3755017809 1.1000948142
| 27> H 1.5107306605 2.4945879116 -1.1944183648
| 28> H -1.1689822809 2.899912177 0.0542024009
| 29> H -3.357559829 -1.5535672905 1.1669173194
| 30> *
| 31>
| 32>                          ****END OF INPUT****

CARTESIAN COORDINATES (ANGSTROEM)
---------------------------------
  C     -2.551047   -0.673741   -0.379558
  C     -1.177736   -0.319190    0.205418
  H     -1.245813   -0.265515    1.303877
  C     -0.706786    1.049833   -0.310739
  H     -0.715041    1.030059   -1.413054
  C      0.729872    1.323293    0.174864
  H      0.712699    1.413498    1.268783
  C      1.639004    0.154065   -0.232024
  H      1.652783    0.067752   -1.325352
  C      1.036057   -1.149474    0.349386
  H      1.004008   -1.075242    1.450702
  O     -0.264702   -1.333490   -0.165099
  O      1.786507   -2.268533    0.067006
  O      2.976074    0.343923    0.136855
  O      1.185212    2.571211   -0.286068
  O     -1.591709    2.032043    0.161233
  O     -3.163845   -1.769636    0.243688
  H     -2.418962   -0.962644   -1.423729
  H     -3.180129    0.222053   -0.321547
  H      1.701986   -2.493617   -0.872627
  H      3.062499    0.375502    1.100095
  H      1.510731    2.494588   -1.194418
  H     -1.168982    2.899912    0.054202
  H     -3.357560   -1.553567    1.166917

 Total Charge           Charge          ....    0
 Multiplicity           Mult            ....    1
 Number of Electrons    NEL             ....   96
 Basis Dimension        Dim             ....  192

ORBITAL ENERGIES
----------------

  NO   OCC          E(Eh)            E(eV)
   0   2.0000     -18.774474      -510.8794
   1   2.0000     -18.766965      -510.6751
   2   2.0000     -18.762000      -510.5400
   3   2.0000     -18.758550      -510.4461
   4   2.0000     -18.758406      -510.4422
   5   2.0000     -18.744309      -510.0586
   6   2.0000      -9.992358      -271.9059
   7   2.0000      -9.951490      -270.7938
   8   2.0000      -9.949727      -270.7458
   9   2.0000      -9.948532      -270.7133
  10   2.0000      -9.948180      -270.7037
  11   2.0000      -9.929638      -270.1992
  12   2.0000      -0.987441       -26.8696
  13   2.0000      -0.954855       -25.9829
  14   2.0000      -0.939358       -25.5612
  15   2.0000      -0.924519       -25.1574
  16   2.0000      -0.924012       -25.1436
  17   2.0000      -0.914058       -24.8728
  18   2.0000      -0.709695       -19.3118
  19   2.0000      -0.695007       -18.9121
  20   2.0000      -0.616879       -16.7861
  21   2.0000      -0.589738       -16.0476
  22   2.0000      -0.575768       -15.6675
  23   2.0000      -0.549006       -14.9392
  24   2.0000      -0.505145       -13.7457
  25   2.0000      -0.500595       -13.6219
  26   2.0000      -0.467122       -12.7110
  27   2.0000      -0.458589       -12.4788
  28   2.0000      -0.453079       -12.3289
  29   2.0000      -0.436256       -11.8711
  30   2.0000      -0.427639       -11.6367
  31   2.0000      -0.410015       -11.1571
  32   2.0000      -0.396781       -10.7970
  33   2.0000      -0.378283       -10.2936
  34   2.0000      -0.359463        -9.7815
  35   2.0000      -0.346971        -9.4416
  36   2.0000      -0.326264        -8.8781
  37   2.0000      -0.318547        -8.6681
  38   2.0000      -0.308677        -8.3995
  39   2.0000      -0.300694        -8.1823
  40   2.0000      -0.288616        -7.8536
  41   2.0000      -0.277355        -7.5472
  42   2.0000      -0.257044        -6.9945
  43   2.0000      -0.252356        -6.8669
  44   2.0000      -0.239388        -6.5141
  45   2.0000      -0.225115        -6.1257
  46   2.0000      -0.209854        -5.7104
  47   2.0000      -0.206443        -5.6176
  48   0.0000       0.007815         0.2127
  49   0.0000       0.020044         0.5454
  50   0.0000       0.028679         0.7804
  51   0.0000       0.034408         0.9363
  52   0.0000       0.053228         1.4484

MULLIKEN ATOMIC CHARGES
-----------------------
   0 C :    0.090159
   1 C :    0.007972
   2 H :    0.040614
   3 C :    0.043089
   4 H :    0.039806
   5 C :    0.051235
   6 H :    0.050651
   7 C :    0.039017
   8 H :    0.041059
   9 C :    0.176665
  10 H :    0.039164
  11 O :   -0.294010
  12 O :   -0.364228
  13 O :   -0.395855
  14 O :   -0.408827
  15 O :   -0.414940
  16 O :   -0.427858
  17 H :    0.080702
  18 H :    0.092954
  19 H :    0.305699
  20 H :    0.300756
  21 H :    0.305326
  22 H :    0.306016
  23 H :    0.294834
Sum of atomic charges:   -0.0000000

LOEWDIN ATOMIC CHARGES
----------------------
   0 C :   -0.127439
   1 C :   -0.067576
   2 H :    0.099344
   3 C :   -0.078856
   4 H :    0.097063
   5 C :   -0.091317
   6 H :    0.110748
   7 C :   -0.104899
   8 H :    0.108675
   9 C :   -0.004305
  10 H :    0.091829
  11 O :   -0.147495
  12 O :   -0.282459
  13 O :   -0.304756
  14 O :   -0.310533
  15 O :   -0.320467
  16 O :   -0.330489
  17 H :    0.118006
  18 H :    0.107359
  19 H :    0.291360
  20 H :    0.288402
  21 H :    0.289509
  22 H :    0.285438
  23 H :    0.282859

  Mayer bond orders larger than 0.100000
B(  0-C ,  1-C ) :   1.0352 B(  0-C , 16-O ) :   1.0899 B(  0-C , 17-H ) :   0.9038
B(  0-C , 18-H ) :   0.9169 B(  1-C ,  2-H ) :   0.8677 B(  1-C ,  3-C ) :   0.9876
B(  1-C , 11-O ) :   1.0012 B(  3-C ,  4-H ) :   0.8673 B(  3-C ,  5-C ) :   0.9932
B(  3-C , 15-O ) :   1.0647 B(  5-C ,  6-H ) :   0.8668 B(  5-C ,  7-C ) :   0.9914
B(  5-C , 14-O ) :   1.0608 B(  7-C ,  8-H ) :   0.8531 B(  7-C ,  9-C ) :   0.9547
B(  7-C , 13-O ) :   1.0748 B(  9-C , 10-H ) :   0.8773 B(  9-C , 11-O ) :   1.0081
B(  9-C , 12-O ) :   1.1692 B( 12-O , 19-H ) :   0.8421 B( 13-O , 20-H ) :   0.8480
B( 14-O , 21-H ) :   0.8458 B( 15-O , 22-H ) :   0.8284 B( 16-O , 23-H ) :   0.8538

Dispersion correction           -0.023574996
FINAL SINGLE POINT ENERGY      -685.692757482843

DIPOLE MOMENT
-------------

Method             : SCF
Type of density    : Electron Density
Multiplicity       :   1
Irrep              :   0
Energy             :  -685.8216428796866921 Eh
Relativity type    :
Basis              : AO
                                X                 Y                 Z
Electronic contribution:      2.450207596      -1.250932596       0.148383870
Nuclear contribution   :     -2.277066749       2.013384236      -0.191069899
                        -----------------------------------------
Total Dipole Moment    :      0.173140847       0.762451639      -0.042686030
                        -----------------------------------------
Magnitude (a.u.)       :      0.783027683
Magnitude (Debye)      :      1.990298198

Rotational constants in cm-1:             0.039459             0.025428             0.016198
Rotational constants in MHz :          1182.946270           762.325168           485.589168

                             ****ORCA TERMINATED NORMALLY****
TOTAL RUN TIME: 0 days 0 hours 0 minutes 11 seconds 851 msec
