                         Program Version 6.0.0  -   RELEASE  -
|  1> ! pbe def2-sv(p) def2/J RI DEFGRID1 loosescf d4 GCP(DFT/SV(P)) printgap
|  2> %output
|  3>     printlevel normal
|  4> end
|  5> * xyz 0 1
|  6> C -1.8986131505 -0.5749854878 -0.8054590214
|  7> C -1.2180165614 -0.0944730068 0.4884874263
|  8> H -1.9524377244 -0.0824481968 1.3037598771
|  9> C -0.6376834598 1.3228209599 0.3537347111
| 10> H -1.3907376403 1.9640349113 -0.1172795164
| 11> C 0.6523385216 1.3352982982 -0.495496616
| 12> H 1.1321501712 2.3129462592 -0.3263524632
| 13> C 1.6350513108 0.2586827391 0.0067837613
| 14> H 2.3863706922 0.0925802979 -0.7747406788
| 15> C 0.9575662596 -1.1027092358 0.2445489508
| 16> H 1.6149022007 -1.6782531985 0.9204625675
| 17> O -0.2388507011 -1.0167033346 0.9637072433
| 18> O 0.8262649246 -1.7474021008 -0.9822806467
| 19> O 2.2157984886 0.6416071627 1.2311490864
| 20> O 0.4235409518 1.1314689962 -1.8653531891
| 21> O -0.3933440052 1.8941236992 1.6165784886
| 22> O -2.350350928 -1.902841196 -0.7068132166
| 23> H -1.1847757876 -0.5610221211 -1.6305620599
| 24> H -2.7290351087 0.105788797 -1.0332497333
| 25> H 0.293343385 -2.5502296702 -0.8683795886
| 26> H 2.8999192414 1.3096220438 1.0786365789
| 27> H 0.0153105582 1.9204206502 -2.2499648388
| 28> H 0.2950278593 1.3741512798 2.0639378052
| 29> H -2.9781745371 -1.9780580158 0.0258749242
| 30> *
| 31>
| 32>                          ****END OF INPUT****

CARTESIAN COORDINATES (ANGSTROEM)
---------------------------------
  C     -1.898613   -0.574985   -0.805459
  C     -1.218017   -0.094473    0.488487
  H     -1.952438   -0.082448    1.303760
  C     -0.637683    1.322821    0.353735
  H     -1.390738    1.964035   -0.117280
  C      0.652339    1.335298   -0.495497
  H      1.132150    2.312946   -0.326352
  C      1.635051    0.258683    0.006784
  H      2.386371    0.092580   -0.774741
  C      0.957566   -1.102709    0.244549
  H      1.614902   -1.678253    0.920463
  O     -0.238851   -1.016703    0.963707
  O      0.826265   -1.747402   -0.982281
  O      2.215798    0.641607    1.231149
  O      0.423541    1.131469   -1.865353
  O     -0.393344    1.894124    1.616578
  O     -2.350351   -1.902841   -0.706813
  H     -1.184776   -0.561022   -1.630562
  H     -2.729035    0.105789   -1.033250
  H      0.293343   -2.550230   -0.868380
  H      2.899919    1.309622    1.078637
  H      0.015311    1.920421   -2.249965
  H      0.295028    1.374151    2.063938
  H     -2.978175   -1.978058    0.025875

 Total Charge           Charge          ....    0
 Multiplicity           Mult            ....    1
 Number of Electrons    NEL             ....   96
 Basis Dimension        Dim             ....  192

ORBITAL ENERGIES
----------------

  NO   OCC          E(Eh)            E(eV)
   0   2.0000     -18.772292      -510.8200
   1   2.0000     -18.762381      -510.5503
   2   2.0000     -18.762151      -510.5441
   3   2.0000     -18.750439      -510.2254
   4   2.0000     -18.743895      -510.0473
   5   2.0000     -18.739286      -509.9219
   6   2.0000      -9.980473      -271.5825
   7   2.0000      -9.947078      -270.6738
   8   2.0000      -9.946993      -270.6714
   9   2.0000      -9.940764      -270.5019
  10   2.0000      -9.936989      -270.3992
  11   2.0000      -9.920468      -269.9497
  12   2.0000      -0.977125       -26.5889
  13   2.0000      -0.946916       -25.7669
  14   2.0000      -0.937336       -25.5062
  15   2.0000      -0.921278       -25.0692
  16   2.0000      -0.917556       -24.9680
  17   2.0000      -0.899551       -24.4780
  18   2.0000      -0.698282       -19.0012
  19   2.0000      -0.690775       -18.7970
  20   2.0000      -0.614619       -16.7246
  21   2.0000      -0.585817       -15.9409
  22   2.0000      -0.571959       -15.5638
  23   2.0000      -0.526306       -14.3215
  24   2.0000      -0.491425       -13.3724
  25   2.0000      -0.482906       -13.1405
  26   2.0000      -0.476501       -12.9663
  27   2.0000      -0.456373       -12.4185
  28   2.0000      -0.437506       -11.9051
  29   2.0000      -0.422850       -11.5063
  30   2.0000      -0.413664       -11.2564
  31   2.0000      -0.399389       -10.8679
  32   2.0000      -0.385932       -10.5017
  33   2.0000      -0.377860       -10.2821
  34   2.0000      -0.359424        -9.7804
  35   2.0000      -0.337489        -9.1835
  36   2.0000      -0.330793        -9.0013
  37   2.0000      -0.322490        -8.7754
  38   2.0000      -0.305157        -8.3037
  39   2.0000      -0.287813        -7.8318
  40   2.0000      -0.281343        -7.6557
  41   2.0000      -0.261043        -7.1033
  42   2.0000      -0.246712        -6.7134
  43   2.0000      -0.239437        -6.5154
  44   2.0000      -0.232383        -6.3235
  45   2.0000      -0.221258        -6.0207
  46   2.0000      -0.213023        -5.7967
  47   2.0000      -0.196222        -5.3395
  48   0.0000       0.009145         0.2488
  49   0.0000       0.011289         0.3072
  50   0.0000       0.029100         0.7919
  51   0.0000       0.055163         1.5010
  52   0.0000       0.062681         1.7056

MULLIKEN ATOMIC CHARGES
-----------------------
   0 C :    0.009371
   1 C :    0.010081
   2 H :    0.062930
   3 C :    0.066661
   4 H :    0.054128
   5 C :    0.037016
   6 H :    0.054959
   7 C :    0.008908
   8 H :    0.089260
   9 C :    0.211750
  10 H :    0.063934
  11 O :   -0.312801
  12 O :   -0.395808
  13 O :   -0.416026
  14 O :   -0.390972
  15 O :   -0.431459
  16 O :   -0.433825
  17 H :    0.126976
  18 H :    0.063338
  19 H :    0.308649
  20 H :    0.312119
  21 H :    0.305724
  22 H :    0.301884
  23 H :    0.293204
Sum of atomic charges:   -0.0000000

LOEWDIN ATOMIC CHARGES
----------------------
   0 C :   -0.158869
   1 C :   -0.074229
   2 H :    0.111137
   3 C :   -0.073212
   4 H :    0.109589
   5 C :   -0.080713
   6 H :    0.096966
   7 C :   -0.078298
   8 H :    0.118352
   9 C :    0.002078
  10 H :    0.097702
  11 O :   -0.142738
  12 O :   -0.306341
  13 O :   -0.305841
  14 O :   -0.302199
  15 O :   -0.322663
  16 O :   -0.335413
  17 H :    0.122658
  18 H :    0.094415
  19 H :    0.288558
  20 H :    0.293629
  21 H :    0.289880
  22 H :    0.274237
  23 H :    0.281315

  Mayer bond orders larger than 0.100000
B(  0-C ,  1-C ) :   1.0328 B(  0-C , 16-O ) :   1.0486 B(  0-C , 17-H ) :   0.8844
B(  0-C , 18-H ) :   0.9112 B(  1-C ,  2-H ) :   0.8939 B(  1-C ,  3-C ) :   1.0018
B(  1-C , 11-O ) :   1.0059 B(  3-C ,  4-H ) :   0.8920 B(  3-C ,  5-C ) :   0.9502
B(  3-C , 15-O ) :   1.0532 B(  5-C ,  6-H ) :   0.9028 B(  5-C ,  7-C ) :   0.9785
B(  5-C , 14-O ) :   1.0760 B(  7-C ,  8-H ) :   0.8879 B(  7-C ,  9-C ) :   0.9953
B(  7-C , 13-O ) :   1.0487 B(  9-C , 10-H ) :   0.9004 B(  9-C , 11-O ) :   1.0670
B(  9-C , 12-O ) :   1.1382 B( 12-O , 19-H ) :   0.8245 B( 13-O , 20-H ) :   0.8422
B( 14-O , 21-H ) :   0.8429 B( 15-O , 22-H ) :   0.8206 B( 16-O , 23-H ) :   0.8532

Dispersion correction           -0.025978298
FINAL SINGLE POINT ENERGY      -685.692442846117

DIPOLE MOMENT
-------------

Method             : SCF
Type of density    : Electron Density
Multiplicity       :   1
Irrep              :   0
Energy             :  -685.8231052994141237 Eh
Relativity type    :
Basis              : AO
                                X                 Y                 Z
Electronic contribution:      1.631702193      -1.390047167       1.398755827
Nuclear contribution   :     -1.492167818       2.076870532      -1.504636367
                        -----------------------------------------
Total Dipole Moment    :      0.139534375       0.686823366      -0.105880540
                        -----------------------------------------
Magnitude (a.u.)       :      0.708806649
Magnitude (Debye)      :      1.801643324

Rotational constants in cm-1:             0.041666             0.028268             0.025229
Rotational constants in MHz :          1249.118287           847.444837           756.352054

                             ****ORCA TERMINATED NORMALLY****
TOTAL RUN TIME: 0 days 0 hours 0 minutes 12 seconds 164 msec
