                         Program Version 6.0.0  -   RELEASE  -
|  1> ! r2scan-3c def2/J RI DEFGRID2 scfconv6 printgap
|  2> %output
|  3>     printlevel normal
|  4> end
|  5> * xyz 0 1
|  6> C -2.5546237966 -0.6609156624 -0.3570201193
|  7> C -1.1709420989 -0.3101453685 0.2045642931
|  8> H -1.2195331075 -0.2497350991 1.3043259978
|  9> C -0.6930973503 1.0507685587 -0.3223719167
| 10> H -0.6842705193 1.0258855412 -1.4229301691
| 11> C 0.7386791529 1.3204625094 0.1594617753
| 12> H 0.7330912556 1.429957364 1.2562022078
| 13> C 1.6483589442 0.1427639645 -0.1990481195
| 14> H 1.7217692489 0.0607605155 -1.2939105197
| 15> C 1.0279326746 -1.162005901 0.3270846468
| 16> H 0.9977110391 -1.1172645679 1.4381649664
| 17> O -0.2745699263 -1.3371738402 -0.1702347996
| 18> O 1.808186818 -2.2171902545 -0.1051891221
| 19> O 2.9085538311 0.382863204 0.3718361275
| 20> O 1.1711986542 2.5162506577 -0.440134885
| 21> O -1.5781618485 2.0352937377 0.1411107515
| 22> O -3.1700641585 -1.7334881297 0.3044884793
| 23> H -2.4342487937 -0.9785907436 -1.3941714534
| 24> H -3.1729219979 0.2424240042 -0.3172543705
| 25> H 1.299793085 -3.0410005546 -0.0434765908
| 26> H 3.482748711 -0.3782863759 0.2009595534
| 27> H 2.1054307367 2.6506349284 -0.2221148371
| 28> H -1.2208875398 2.9030130723 -0.104233211
| 29> H -3.3811045093 -1.4766853575 1.2136286323
| 30> *
| 31>
| 32>                          ****END OF INPUT****

CARTESIAN COORDINATES (ANGSTROEM)
---------------------------------
  C     -2.554624   -0.660916   -0.357020
  C     -1.170942   -0.310145    0.204564
  H     -1.219533   -0.249735    1.304326
  C     -0.693097    1.050769   -0.322372
  H     -0.684271    1.025886   -1.422930
  C      0.738679    1.320463    0.159462
  H      0.733091    1.429957    1.256202
  C      1.648359    0.142764   -0.199048
  H      1.721769    0.060761   -1.293911
  C      1.027933   -1.162006    0.327085
  H      0.997711   -1.117265    1.438165
  O     -0.274570   -1.337174   -0.170235
  O      1.808187   -2.217190   -0.105189
  O      2.908554    0.382863    0.371836
  O      1.171199    2.516251   -0.440135
  O     -1.578162    2.035294    0.141111
  O     -3.170064   -1.733488    0.304488
  H     -2.434249   -0.978591   -1.394171
  H     -3.172922    0.242424   -0.317254
  H      1.299793   -3.041001   -0.043477
  H      3.482749   -0.378286    0.200960
  H      2.105431    2.650635   -0.222115
  H     -1.220888    2.903013   -0.104233
  H     -3.381105   -1.476685    1.213629

 Total Charge           Charge          ....    0
 Multiplicity           Mult            ....    1
 Number of Electrons    NEL             ....   96
 Basis Dimension        Dim             ....  318

ORBITAL ENERGIES
----------------

  NO   OCC          E(Eh)            E(eV)
   0   2.0000     -18.974529      -516.3232
   1   2.0000     -18.974268      -516.3161
   2   2.0000     -18.968562      -516.1608
   3   2.0000     -18.964919      -516.0617
   4   2.0000     -18.961878      -515.9789
   5   2.0000     -18.952402      -515.7211
   6   2.0000     -10.142866      -276.0014
   7   2.0000     -10.096720      -274.7457
   8   2.0000     -10.095208      -274.7046
   9   2.0000     -10.094854      -274.6949
  10   2.0000     -10.092797      -274.6390
  11   2.0000     -10.079377      -274.2738
  12   2.0000      -1.057937       -28.7879
  13   2.0000      -1.018736       -27.7212
  14   2.0000      -1.008390       -27.4397
  15   2.0000      -0.994274       -27.0556
  16   2.0000      -0.989966       -26.9383
  17   2.0000      -0.984068       -26.7778
  18   2.0000      -0.756893       -20.5961
  19   2.0000      -0.740782       -20.1577
  20   2.0000      -0.658825       -17.9275
  21   2.0000      -0.619988       -16.8707
  22   2.0000      -0.595837       -16.2136
  23   2.0000      -0.561437       -15.2775
  24   2.0000      -0.540623       -14.7111
  25   2.0000      -0.506885       -13.7930
  26   2.0000      -0.499366       -13.5884
  27   2.0000      -0.488259       -13.2862
  28   2.0000      -0.477215       -12.9857
  29   2.0000      -0.458378       -12.4731
  30   2.0000      -0.436951       -11.8900
  31   2.0000      -0.421251       -11.4628
  32   2.0000      -0.412686       -11.2298
  33   2.0000      -0.406019       -11.0483
  34   2.0000      -0.386403       -10.5146
  35   2.0000      -0.374679       -10.1955
  36   2.0000      -0.355357        -9.6698
  37   2.0000      -0.343774        -9.3546
  38   2.0000      -0.336727        -9.1628
  39   2.0000      -0.321343        -8.7442
  40   2.0000      -0.311933        -8.4881
  41   2.0000      -0.295208        -8.0330
  42   2.0000      -0.279194        -7.5973
  43   2.0000      -0.268967        -7.3190
  44   2.0000      -0.255495        -6.9524
  45   2.0000      -0.251127        -6.8335
  46   2.0000      -0.236825        -6.4443
  47   2.0000      -0.230099        -6.2613
  48   0.0000       0.031299         0.8517
  49   0.0000       0.047616         1.2957
  50   0.0000       0.060225         1.6388
  51   0.0000       0.075874         2.0646
  52   0.0000       0.085854         2.3362

MULLIKEN ATOMIC CHARGES
-----------------------
   0 C :   -0.295726
   1 C :   -0.060977
   2 H :    0.163694
   3 C :    0.029675
   4 H :    0.167848
   5 C :   -0.060733
   6 H :    0.170326
   7 C :    0.060790
   8 H :    0.171241
   9 C :   -0.052315
  10 H :    0.144295
  11 O :   -0.184236
  12 O :   -0.403604
  13 O :   -0.445156
  14 O :   -0.443399
  15 O :   -0.445099
  16 O :   -0.395479
  17 H :    0.152741
  18 H :    0.168213
  19 H :    0.316060
  20 H :    0.314769
  21 H :    0.315348
  22 H :    0.315582
  23 H :    0.296143
Sum of atomic charges:   -0.0000000

LOEWDIN ATOMIC CHARGES
----------------------
   0 C :    0.044442
   1 C :    0.116837
   2 H :    0.183562
   3 C :    0.115659
   4 H :    0.185038
   5 C :    0.108465
   6 H :    0.185941
   7 C :    0.115678
   8 H :    0.188652
   9 C :    0.296913
  10 H :    0.178396
  11 O :   -0.673137
  12 O :   -0.505171
  13 O :   -0.573460
  14 O :   -0.576273
  15 O :   -0.584223
  16 O :   -0.587602
  17 H :    0.190897
  18 H :    0.182192
  19 H :    0.288142
  20 H :    0.283663
  21 H :    0.284092
  22 H :    0.284729
  23 H :    0.266568

  Mayer bond orders larger than 0.100000
B(  0-C ,  1-C ) :   0.9031 B(  0-C , 16-O ) :   1.0209 B(  0-C , 17-H ) :   0.9803
B(  0-C , 18-H ) :   0.9855 B(  1-C ,  2-H ) :   0.9668 B(  1-C ,  3-C ) :   0.8646
B(  1-C , 11-O ) :   0.7936 B(  3-C ,  4-H ) :   0.9614 B(  3-C ,  5-C ) :   0.8720
B(  3-C , 15-O ) :   0.8560 B(  5-C ,  6-H ) :   0.9914 B(  5-C ,  7-C ) :   0.8562
B(  5-C , 14-O ) :   0.9177 B(  7-C ,  8-H ) :   0.9686 B(  7-C ,  9-C ) :   0.7979
B(  7-C , 13-O ) :   0.9026 B(  9-C , 10-H ) :   1.0040 B(  9-C , 11-O ) :   0.9294
B(  9-C , 12-O ) :   1.0332 B( 12-O , 19-H ) :   0.8743 B( 13-O , 20-H ) :   0.8809
B( 14-O , 21-H ) :   0.8775 B( 15-O , 22-H ) :   0.8787 B( 16-O , 23-H ) :   0.8944

Dispersion correction           -0.007917464
FINAL SINGLE POINT ENERGY      -687.076588961136

DIPOLE MOMENT
-------------

Method             : SCF
Type of density    : Electron Density
Multiplicity       :   1
Irrep              :   0
Energy             :  -687.0879774612920983 Eh
Relativity type    :
Basis              : AO
                                X                 Y                 Z
Electronic contribution:      2.079083594      -0.893102434      -0.178448884
Nuclear contribution   :     -1.650017065       0.999649851       0.578662317
                        -----------------------------------------
Total Dipole Moment    :      0.429066529       0.106547417       0.400213433
                        -----------------------------------------
Magnitude (a.u.)       :      0.596339862
Magnitude (Debye)      :      1.515775468

Rotational constants in cm-1:             0.039831             0.025521             0.016303
Rotational constants in MHz :          1194.094177           765.089308           488.764370

                             ****ORCA TERMINATED NORMALLY****
TOTAL RUN TIME: 0 days 0 hours 0 minutes 47 seconds 487 msec
