                         Program Version 6.0.0  -   RELEASE  -
|  1> ! r2scan-3c def2/J RI DEFGRID2 scfconv6 printgap
|  2> %output
|  3>     printlevel normal
|  4> end
|  5> %cpcm
|  6>     smd true
|  7>     smdsolvent "water"
|  8> end
|  9> * xyz 0 1
| 10> C -2.5546237966 -0.6609156624 -0.3570201193
| 11> C -1.1709420989 -0.3101453685 0.2045642931
| 12> H -1.2195331075 -0.2497350991 1.3043259978
| 13> C -0.6930973503 1.0507685587 -0.3223719167
| 14> H -0.6842705193 1.0258855412 -1.4229301691
| 15> C 0.7386791529 1.3204625094 0.1594617753
| 16> H 0.7330912556 1.429957364 1.2562022078
| 17> C 1.6483589442 0.1427639645 -0.1990481195
| 18> H 1.7217692489 0.0607605155 -1.2939105197
| 19> C 1.0279326746 -1.162005901 0.3270846468
| 20> H 0.9977110391 -1.1172645679 1.4381649664
| 21> O -0.2745699263 -1.3371738402 -0.1702347996
| 22> O 1.808186818 -2.2171902545 -0.1051891221
| 23> O 2.9085538311 0.382863204 0.3718361275
| 24> O 1.1711986542 2.5162506577 -0.440134885
| 25> O -1.5781618485 2.0352937377 0.1411107515
| 26> O -3.1700641585 -1.7334881297 0.3044884793
| 27> H -2.4342487937 -0.9785907436 -1.3941714534
| 28> H -3.1729219979 0.2424240042 -0.3172543705
| 29> H 1.299793085 -3.0410005546 -0.0434765908
| 30> H 3.482748711 -0.3782863759 0.2009595534
| 31> H 2.1054307367 2.6506349284 -0.2221148371
| 32> H -1.2208875398 2.9030130723 -0.104233211
| 33> H -3.3811045093 -1.4766853575 1.2136286323
| 34> *
| 35>
| 36>                          ****END OF INPUT****

CARTESIAN COORDINATES (ANGSTROEM)
---------------------------------
  C     -2.554624   -0.660916   -0.357020
  C     -1.170942   -0.310145    0.204564
  H     -1.219533   -0.249735    1.304326
  C     -0.693097    1.050769   -0.322372
  H     -0.684271    1.025886   -1.422930
  C      0.738679    1.320463    0.159462
  H      0.733091    1.429957    1.256202
  C      1.648359    0.142764   -0.199048
  H      1.721769    0.060761   -1.293911
  C      1.027933   -1.162006    0.327085
  H      0.997711   -1.117265    1.438165
  O     -0.274570   -1.337174   -0.170235
  O      1.808187   -2.217190   -0.105189
  O      2.908554    0.382863    0.371836
  O      1.171199    2.516251   -0.440135
  O     -1.578162    2.035294    0.141111
  O     -3.170064   -1.733488    0.304488
  H     -2.434249   -0.978591   -1.394171
  H     -3.172922    0.242424   -0.317254
  H      1.299793   -3.041001   -0.043477
  H      3.482749   -0.378286    0.200960
  H      2.105431    2.650635   -0.222115
  H     -1.220888    2.903013   -0.104233
  H     -3.381105   -1.476685    1.213629

 Total Charge           Charge          ....    0
 Multiplicity           Mult            ....    1
 Number of Electrons    NEL             ....   96
 Basis Dimension        Dim             ....  318

ORBITAL ENERGIES
----------------

  NO   OCC          E(Eh)            E(eV)
   0   2.0000     -18.975070      -516.3379
   1   2.0000     -18.968883      -516.1695
   2   2.0000     -18.963999      -516.0367
   3   2.0000     -18.961523      -515.9693
   4   2.0000     -18.961437      -515.9669
   5   2.0000     -18.956336      -515.8281
   6   2.0000     -10.136200      -275.8200
   7   2.0000     -10.090146      -274.5668
   8   2.0000     -10.089238      -274.5421
   9   2.0000     -10.087851      -274.5044
  10   2.0000     -10.086347      -274.4635
  11   2.0000     -10.076409      -274.1930
  12   2.0000      -1.055038       -28.7091
  13   2.0000      -1.015204       -27.6251
  14   2.0000      -1.005467       -27.3601
  15   2.0000      -0.994715       -27.0676
  16   2.0000      -0.987040       -26.8587
  17   2.0000      -0.982431       -26.7333
  18   2.0000      -0.751420       -20.4472
  19   2.0000      -0.735719       -20.0199
  20   2.0000      -0.654193       -17.8015
  21   2.0000      -0.614530       -16.7222
  22   2.0000      -0.591841       -16.1048
  23   2.0000      -0.554332       -15.0842
  24   2.0000      -0.535004       -14.5582
  25   2.0000      -0.501727       -13.6527
  26   2.0000      -0.494752       -13.4629
  27   2.0000      -0.481792       -13.1102
  28   2.0000      -0.472789       -12.8653
  29   2.0000      -0.453104       -12.3296
  30   2.0000      -0.432762       -11.7760
  31   2.0000      -0.420091       -11.4313
  32   2.0000      -0.410748       -11.1770
  33   2.0000      -0.403369       -10.9762
  34   2.0000      -0.383080       -10.4241
  35   2.0000      -0.373476       -10.1628
  36   2.0000      -0.355298        -9.6681
  37   2.0000      -0.341903        -9.3037
  38   2.0000      -0.335724        -9.1355
  39   2.0000      -0.323018        -8.7898
  40   2.0000      -0.310445        -8.4476
  41   2.0000      -0.296705        -8.0737
  42   2.0000      -0.277180        -7.5425
  43   2.0000      -0.267610        -7.2820
  44   2.0000      -0.254533        -6.9262
  45   2.0000      -0.251181        -6.8350
  46   2.0000      -0.239855        -6.5268
  47   2.0000      -0.227741        -6.1971
  48   0.0000       0.042099         1.1456
  49   0.0000       0.061571         1.6754
  50   0.0000       0.076477         2.0810
  51   0.0000       0.089757         2.4424
  52   0.0000       0.099691         2.7127

MULLIKEN ATOMIC CHARGES
-----------------------
   0 C :   -0.300012
   1 C :   -0.040020
   2 H :    0.199260
   3 C :    0.007769
   4 H :    0.186098
   5 C :   -0.034754
   6 H :    0.184836
   7 C :    0.049528
   8 H :    0.186109
   9 C :   -0.053955
  10 H :    0.167390
  11 O :   -0.238282
  12 O :   -0.453473
  13 O :   -0.495759
  14 O :   -0.496600
  15 O :   -0.503264
  16 O :   -0.479308
  17 H :    0.171250
  18 H :    0.170189
  19 H :    0.360153
  20 H :    0.353399
  21 H :    0.352285
  22 H :    0.352547
  23 H :    0.354615
Sum of atomic charges:   -0.0000000

LOEWDIN ATOMIC CHARGES
----------------------
   0 C :    0.042792
   1 C :    0.119313
   2 H :    0.197577
   3 C :    0.116442
   4 H :    0.192172
   5 C :    0.109842
   6 H :    0.193646
   7 C :    0.116049
   8 H :    0.193492
   9 C :    0.299305
  10 H :    0.190266
  11 O :   -0.696274
  12 O :   -0.521337
  13 O :   -0.589484
  14 O :   -0.596162
  15 O :   -0.606746
  16 O :   -0.620775
  17 H :    0.194491
  18 H :    0.185865
  19 H :    0.302992
  20 H :    0.296610
  21 H :    0.295981
  22 H :    0.296768
  23 H :    0.287174

  Mayer bond orders larger than 0.100000
B(  0-C ,  1-C ) :   0.9011 B(  0-C , 16-O ) :   1.0098 B(  0-C , 17-H ) :   0.9810
B(  0-C , 18-H ) :   0.9748 B(  1-C ,  2-H ) :   0.9542 B(  1-C ,  3-C ) :   0.8704
B(  1-C , 11-O ) :   0.7892 B(  3-C ,  4-H ) :   0.9559 B(  3-C ,  5-C ) :   0.8893
B(  3-C , 15-O ) :   0.8408 B(  5-C ,  6-H ) :   0.9704 B(  5-C ,  7-C ) :   0.8814
B(  5-C , 14-O ) :   0.9024 B(  7-C ,  8-H ) :   0.9588 B(  7-C ,  9-C ) :   0.8186
B(  7-C , 13-O ) :   0.8872 B(  9-C , 10-H ) :   0.9952 B(  9-C , 11-O ) :   0.9376
B(  9-C , 12-O ) :   1.0347 B( 12-O , 19-H ) :   0.8514 B( 13-O , 20-H ) :   0.8613
B( 14-O , 21-H ) :   0.8593 B( 15-O , 22-H ) :   0.8608 B( 16-O , 23-H ) :   0.8648

Dispersion correction           -0.007917464
FINAL SINGLE POINT ENERGY      -687.109158123141

DIPOLE MOMENT
-------------

Method             : SCF
Type of density    : Electron Density
Multiplicity       :   1
Irrep              :   0
Energy             :  -687.1205466232972867 Eh
Relativity type    :
Basis              : AO
                                X                 Y                 Z
Electronic contribution:      2.211715595      -0.808911323       0.077500169
Nuclear contribution   :     -1.650017065       0.999649851       0.578662317
                        -----------------------------------------
Total Dipole Moment    :      0.561698530       0.190738528       0.656162487
                        -----------------------------------------
Magnitude (a.u.)       :      0.884553918
Magnitude (Debye)      :      2.248357379

Rotational constants in cm-1:             0.039831             0.025521             0.016303
Rotational constants in MHz :          1194.094177           765.089308           488.764370

                             ****ORCA TERMINATED NORMALLY****
TOTAL RUN TIME: 0 days 0 hours 0 minutes 56 seconds 651 msec
