                         Program Version 6.0.0  -   RELEASE  -
|  1> ! r2scan-3c def2/J RI DEFGRID2 scfconv6 printgap
|  2> %output
|  3>     printlevel normal
|  4> end
|  5> * xyz 0 1
|  6> C -3.6476141975 0.0320332292 -0.0539200627
|  7> C -2.1537651893 0.0136103038 -0.0041701185
|  8> C -1.4365636751 1.1879875597 0.2063680594
|  9> C -0.0562193895 1.1920129136 0.2160481864
| 10> C 0.6521951354 0.0050625016 0.0268816097
| 11> C -0.0675619271 -1.1785638252 -0.1539057974
| 12> C -1.446148846 -1.171527164 -0.1814284569
| 13> C 2.1269749083 -0.0778651655 0.0329514062
| 14> O 2.692870217 -1.1168048444 0.3494652329
| 15> C 2.9178706829 1.1208127362 -0.4122734351
| 16> H -3.9758648866 0.3027693589 -1.0571587259
| 17> H -4.0562028679 -0.9462701801 0.1835954522
| 18> H -4.0484199695 0.7670169074 0.6392131376
| 19> H -1.9714665594 2.1124571765 0.365533185
| 20> H 0.4639212136 2.1166782973 0.410071979
| 21> H 0.4847233303 -2.0981465834 -0.2835015464
| 22> H -1.9820610975 -2.096002562 -0.3369304141
| 23> H 2.314117908 2.0132712831 -0.5140740485
| 24> H 3.3562178075 0.8784300159 -1.3796468966
| 25> H 3.7397710915 1.2886108122 0.2799791278
| 26> *
| 27>
| 28>                          ****END OF INPUT****

CARTESIAN COORDINATES (ANGSTROEM)
---------------------------------
  C     -3.647614    0.032033   -0.053920
  C     -2.153765    0.013610   -0.004170
  C     -1.436564    1.187988    0.206368
  C     -0.056219    1.192013    0.216048
  C      0.652195    0.005063    0.026882
  C     -0.067562   -1.178564   -0.153906
  C     -1.446149   -1.171527   -0.181428
  C      2.126975   -0.077865    0.032951
  O      2.692870   -1.116805    0.349465
  C      2.917871    1.120813   -0.412273
  H     -3.975865    0.302769   -1.057159
  H     -4.056203   -0.946270    0.183595
  H     -4.048420    0.767017    0.639213
  H     -1.971467    2.112457    0.365533
  H      0.463921    2.116678    0.410072
  H      0.484723   -2.098147   -0.283502
  H     -1.982061   -2.096003   -0.336930
  H      2.314118    2.013271   -0.514074
  H      3.356218    0.878430   -1.379647
  H      3.739771    1.288611    0.279979

 Total Charge           Charge          ....    0
 Multiplicity           Mult            ....    1
 Number of Electrons    NEL             ....   72
 Basis Dimension        Dim             ....  245

ORBITAL ENERGIES
----------------

  NO   OCC          E(Eh)            E(eV)
   0   2.0000     -18.929726      -515.1040
   1   2.0000     -10.117649      -275.3152
   2   2.0000     -10.058822      -273.7145
   3   2.0000     -10.050851      -273.4976
   4   2.0000     -10.047306      -273.4011
   5   2.0000     -10.043904      -273.3085
   6   2.0000     -10.043356      -273.2936
   7   2.0000     -10.041564      -273.2448
   8   2.0000     -10.037993      -273.1477
   9   2.0000     -10.032189      -272.9897
  10   2.0000      -0.995579       -27.0911
  11   2.0000      -0.841788       -22.9062
  12   2.0000      -0.764468       -20.8022
  13   2.0000      -0.728756       -19.8305
  14   2.0000      -0.713226       -19.4079
  15   2.0000      -0.669149       -18.2085
  16   2.0000      -0.588780       -16.0215
  17   2.0000      -0.580998       -15.8098
  18   2.0000      -0.527409       -14.3515
  19   2.0000      -0.467343       -12.7170
  20   2.0000      -0.451646       -12.2899
  21   2.0000      -0.428188       -11.6516
  22   2.0000      -0.414414       -11.2768
  23   2.0000      -0.414049       -11.2668
  24   2.0000      -0.404335       -11.0025
  25   2.0000      -0.398898       -10.8546
  26   2.0000      -0.389622       -10.6021
  27   2.0000      -0.363705        -9.8969
  28   2.0000      -0.360752        -9.8165
  29   2.0000      -0.347477        -9.4553
  30   2.0000      -0.330542        -8.9945
  31   2.0000      -0.318644        -8.6708
  32   2.0000      -0.313805        -8.5391
  33   2.0000      -0.248963        -6.7746
  34   2.0000      -0.237538        -6.4637
  35   2.0000      -0.213275        -5.8035
  36   0.0000      -0.081426        -2.2157
  37   0.0000      -0.042590        -1.1589
  38   0.0000       0.003192         0.0869
  39   0.0000       0.068681         1.8689
  40   0.0000       0.087340         2.3766

MULLIKEN ATOMIC CHARGES
-----------------------
   0 C :   -0.531766
   1 C :    0.225463
   2 C :   -0.217450
   3 C :   -0.211156
   4 C :    0.160432
   5 C :   -0.179454
   6 C :   -0.212526
   7 C :    0.241120
   8 O :   -0.350688
   9 C :   -0.520355
  10 H :    0.174533
  11 H :    0.154228
  12 H :    0.154908
  13 H :    0.146508
  14 H :    0.138404
  15 H :    0.176817
  16 H :    0.147907
  17 H :    0.145167
  18 H :    0.179049
  19 H :    0.178860
Sum of atomic charges:    0.0000000

LOEWDIN ATOMIC CHARGES
----------------------
   0 C :   -0.386915
   1 C :   -0.080113
   2 C :   -0.161369
   3 C :   -0.133578
   4 C :   -0.081798
   5 C :   -0.096870
   6 C :   -0.158665
   7 C :    0.238847
   8 O :   -0.477104
   9 C :   -0.380360
  10 H :    0.169919
  11 H :    0.162596
  12 H :    0.163712
  13 H :    0.169987
  14 H :    0.170196
  15 H :    0.188868
  16 H :    0.170673
  17 H :    0.157788
  18 H :    0.184570
  19 H :    0.179617

  Mayer bond orders larger than 0.100000
B(  0-C ,  1-C ) :   0.8001 B(  0-C , 10-H ) :   0.9666 B(  0-C , 11-H ) :   0.9874
B(  0-C , 12-H ) :   0.9854 B(  1-C ,  2-C ) :   1.3877 B(  1-C ,  6-C ) :   1.3716
B(  2-C ,  3-C ) :   1.4717 B(  2-C , 13-H ) :   0.9446 B(  3-C ,  4-C ) :   1.3719
B(  3-C , 14-H ) :   0.9340 B(  4-C ,  5-C ) :   1.4059 B(  4-C ,  7-C ) :   0.9103
B(  4-C ,  8-O ) :  -0.1419 B(  5-C ,  6-C ) :   1.4294 B(  5-C , 15-H ) :   0.9565
B(  6-C , 16-H ) :   0.9445 B(  7-C ,  8-O ) :   1.9243 B(  7-C ,  9-C ) :   0.9180
B(  9-C , 17-H ) :   0.9701 B(  9-C , 18-H ) :   0.9460 B(  9-C , 19-H ) :   0.9679

Dispersion correction           -0.006771470
FINAL SINGLE POINT ENERGY      -424.099001874847

DIPOLE MOMENT
-------------

Method             : SCF
Type of density    : Electron Density
Multiplicity       :   1
Irrep              :   0
Energy             :  -424.0991274056514726 Eh
Relativity type    :
Basis              : AO
                                X                 Y                 Z
Electronic contribution:      4.231095307      -3.158195215       1.236001142
Nuclear contribution   :     -5.284458032       4.053995034      -1.583066455
                        -----------------------------------------
Total Dipole Moment    :     -1.053362725       0.895799819      -0.347065313
                        -----------------------------------------
Magnitude (a.u.)       :      1.425652369
Magnitude (Debye)      :      3.623720341

Rotational constants in cm-1:             0.121749             0.026274             0.022187
Rotational constants in MHz :          3649.950838           787.674347           665.155730

                             ****ORCA TERMINATED NORMALLY****
TOTAL RUN TIME: 0 days 0 hours 0 minutes 34 seconds 591 msec
