                         Program Version 6.0.0  -   RELEASE  -
|  1> ! r2scan-3c def2/J RI DEFGRID2 scfconv6 printgap
|  2> %output
|  3>     printlevel normal
|  4> end
|  5> %cpcm
|  6>     smd true
|  7>     smdsolvent "water"
|  8> end
|  9> * xyz 0 1
| 10> C -3.6476141975 0.0320332292 -0.0539200627
| 11> C -2.1537651893 0.0136103038 -0.0041701185
| 12> C -1.4365636751 1.1879875597 0.2063680594
| 13> C -0.0562193895 1.1920129136 0.2160481864
| 14> C 0.6521951354 0.0050625016 0.0268816097
| 15> C -0.0675619271 -1.1785638252 -0.1539057974
| 16> C -1.446148846 -1.171527164 -0.1814284569
| 17> C 2.1269749083 -0.0778651655 0.0329514062
| 18> O 2.692870217 -1.1168048444 0.3494652329
| 19> C 2.9178706829 1.1208127362 -0.4122734351
| 20> H -3.9758648866 0.3027693589 -1.0571587259
| 21> H -4.0562028679 -0.9462701801 0.1835954522
| 22> H -4.0484199695 0.7670169074 0.6392131376
| 23> H -1.9714665594 2.1124571765 0.365533185
| 24> H 0.4639212136 2.1166782973 0.410071979
| 25> H 0.4847233303 -2.0981465834 -0.2835015464
| 26> H -1.9820610975 -2.096002562 -0.3369304141
| 27> H 2.314117908 2.0132712831 -0.5140740485
| 28> H 3.3562178075 0.8784300159 -1.3796468966
| 29> H 3.7397710915 1.2886108122 0.2799791278
| 30> *
| 31>
| 32>                          ****END OF INPUT****

CARTESIAN COORDINATES (ANGSTROEM)
---------------------------------
  C     -3.647614    0.032033   -0.053920
  C     -2.153765    0.013610   -0.004170
  C     -1.436564    1.187988    0.206368
  C     -0.056219    1.192013    0.216048
  C      0.652195    0.005063    0.026882
  C     -0.067562   -1.178564   -0.153906
  C     -1.446149   -1.171527   -0.181428
  C      2.126975   -0.077865    0.032951
  O      2.692870   -1.116805    0.349465
  C      2.917871    1.120813   -0.412273
  H     -3.975865    0.302769   -1.057159
  H     -4.056203   -0.946270    0.183595
  H     -4.048420    0.767017    0.639213
  H     -1.971467    2.112457    0.365533
  H      0.463921    2.116678    0.410072
  H      0.484723   -2.098147   -0.283502
  H     -1.982061   -2.096003   -0.336930
  H      2.314118    2.013271   -0.514074
  H      3.356218    0.878430   -1.379647
  H      3.739771    1.288611    0.279979

 Total Charge           Charge          ....    0
 Multiplicity           Mult            ....    1
 Number of Electrons    NEL             ....   72
 Basis Dimension        Dim             ....  245

ORBITAL ENERGIES
----------------

  NO   OCC          E(Eh)            E(eV)
   0   2.0000     -18.943876      -515.4891
   1   2.0000     -10.127579      -275.5854
   2   2.0000     -10.054156      -273.5875
   3   2.0000     -10.045388      -273.3489
   4   2.0000     -10.044844      -273.3341
   5   2.0000     -10.041687      -273.2482
   6   2.0000     -10.035887      -273.0904
   7   2.0000     -10.035705      -273.0854
   8   2.0000     -10.023846      -272.7627
   9   2.0000     -10.021261      -272.6924
  10   2.0000      -1.011660       -27.5287
  11   2.0000      -0.838267       -22.8104
  12   2.0000      -0.759349       -20.6629
  13   2.0000      -0.723982       -19.7006
  14   2.0000      -0.707358       -19.2482
  15   2.0000      -0.660508       -17.9733
  16   2.0000      -0.582628       -15.8541
  17   2.0000      -0.575994       -15.6736
  18   2.0000      -0.523678       -14.2500
  19   2.0000      -0.466913       -12.7054
  20   2.0000      -0.447035       -12.1644
  21   2.0000      -0.423217       -11.5163
  22   2.0000      -0.415352       -11.3023
  23   2.0000      -0.407069       -11.0769
  24   2.0000      -0.395379       -10.7588
  25   2.0000      -0.391970       -10.6660
  26   2.0000      -0.391593       -10.6558
  27   2.0000      -0.356820        -9.7096
  28   2.0000      -0.350613        -9.5407
  29   2.0000      -0.342675        -9.3246
  30   2.0000      -0.326124        -8.8743
  31   2.0000      -0.321141        -8.7387
  32   2.0000      -0.307874        -8.3777
  33   2.0000      -0.246601        -6.7104
  34   2.0000      -0.237568        -6.4646
  35   2.0000      -0.227957        -6.2030
  36   0.0000      -0.084821        -2.3081
  37   0.0000      -0.039040        -1.0623
  38   0.0000       0.003044         0.0828
  39   0.0000       0.080983         2.2037
  40   0.0000       0.102403         2.7865

MULLIKEN ATOMIC CHARGES
-----------------------
   0 C :   -0.556503
   1 C :    0.210990
   2 C :   -0.242684
   3 C :   -0.209217
   4 C :    0.129167
   5 C :   -0.208484
   6 C :   -0.250479
   7 C :    0.297491
   8 O :   -0.455285
   9 C :   -0.555622
  10 H :    0.191866
  11 H :    0.172924
  12 H :    0.174040
  13 H :    0.180854
  14 H :    0.177421
  15 H :    0.189900
  16 H :    0.181131
  17 H :    0.175931
  18 H :    0.203547
  19 H :    0.193014
Sum of atomic charges:    0.0000000

LOEWDIN ATOMIC CHARGES
----------------------
   0 C :   -0.390013
   1 C :   -0.075887
   2 C :   -0.162617
   3 C :   -0.128083
   4 C :   -0.096595
   5 C :   -0.113013
   6 C :   -0.162969
   7 C :    0.252324
   8 O :   -0.556032
   9 C :   -0.377648
  10 H :    0.177781
  11 H :    0.168931
  12 H :    0.170834
  13 H :    0.182967
  14 H :    0.185395
  15 H :    0.190635
  16 H :    0.182799
  17 H :    0.171467
  18 H :    0.194174
  19 H :    0.185550

  Mayer bond orders larger than 0.100000
B(  0-C ,  1-C ) :   0.8162 B(  0-C , 10-H ) :   0.9579 B(  0-C , 11-H ) :   0.9813
B(  0-C , 12-H ) :   0.9772 B(  1-C ,  2-C ) :   1.3528 B(  1-C ,  6-C ) :   1.3466
B(  2-C ,  3-C ) :   1.4497 B(  2-C , 13-H ) :   0.9560 B(  3-C ,  4-C ) :   1.3556
B(  3-C , 14-H ) :   0.9404 B(  4-C ,  5-C ) :   1.3254 B(  4-C ,  7-C ) :   0.9334
B(  4-C ,  8-O ) :  -0.1302 B(  5-C ,  6-C ) :   1.4229 B(  5-C , 15-H ) :   0.9650
B(  6-C , 16-H ) :   0.9539 B(  7-C ,  8-O ) :   1.8444 B(  7-C ,  9-C ) :   0.9277
B(  9-C , 17-H ) :   0.9594 B(  9-C , 18-H ) :   0.9369 B(  9-C , 19-H ) :   0.9563

Dispersion correction           -0.006771470
FINAL SINGLE POINT ENERGY      -424.107619990236

DIPOLE MOMENT
-------------

Method             : SCF
Type of density    : Electron Density
Multiplicity       :   1
Irrep              :   0
Energy             :  -424.1077455210398739 Eh
Relativity type    :
Basis              : AO
                                X                 Y                 Z
Electronic contribution:      3.729458438      -2.632850420       1.078545936
Nuclear contribution   :     -5.284458032       4.053995034      -1.583066455
                        -----------------------------------------
Total Dipole Moment    :     -1.554999594       1.421144614      -0.504520519
                        -----------------------------------------
Magnitude (a.u.)       :      2.166152512
Magnitude (Debye)      :      5.505922123

Rotational constants in cm-1:             0.121749             0.026274             0.022187
Rotational constants in MHz :          3649.950838           787.674347           665.155730

                             ****ORCA TERMINATED NORMALLY****
TOTAL RUN TIME: 0 days 0 hours 0 minutes 39 seconds 793 msec
