                         Program Version 6.0.0  -   RELEASE  -
|  1> ! pbe def2-sv(p) def2/J RI DEFGRID1 loosescf d4 GCP(DFT/SV(P)) printgap
|  2> %output
|  3>     printlevel normal
|  4> end
|  5> * xyz 0 1
|  6> C -2.5256095914 -0.9554559204 0.3749290273
|  7> C -1.0971908905 -0.453089982 0.6340100207
|  8> H -0.9379371132 -0.3499773553 1.7182080208
|  9> C -0.8327813043 0.9119763948 -0.0339785529
| 10> H -1.024577005 0.8113747225 -1.1116977935
| 11> C 0.6373103637 1.2893313111 0.1813262187
| 12> H 0.7957885642 1.4680006248 1.2514735241
| 13> C 1.5728607142 0.1563070759 -0.2765310749
| 14> H 1.5256199484 0.0526032098 -1.3727011668
| 15> C 1.1443829738 -1.1875039519 0.3268511579
| 16> H 1.3441904123 -1.1532477172 1.4174404606
| 17> O -0.2257840884 -1.437790971 0.107911
| 18> O 1.8537754206 -2.1925750007 -0.2919481912
| 19> O 2.8903961607 0.4121663309 0.1325095362
| 20> O 0.9978795446 2.4939509674 -0.4458119418
| 21> O -1.6269989683 1.926193285 0.5286317276
| 22> O -2.8362942014 -0.9996313282 -0.99323809
| 23> H -3.2405211859 -0.2748661687 0.8386370202
| 24> H -2.6279664755 -1.9459665981 0.8321867883
| 25> H 1.5562337959 -3.0567825557 0.0349019642
| 26> H 3.1022953471 1.3332887783 -0.0916895536
| 27> H 0.6828831119 2.4997955982 -1.3617883694
| 28> H -2.5184391641 1.8886176662 0.1549138929
| 29> H -2.2516827286 -1.6429637178 -1.4189194723
| 30> *
| 31>
| 32>                          ****END OF INPUT****

CARTESIAN COORDINATES (ANGSTROEM)
---------------------------------
  C     -2.525610   -0.955456    0.374929
  C     -1.097191   -0.453090    0.634010
  H     -0.937937   -0.349977    1.718208
  C     -0.832781    0.911976   -0.033979
  H     -1.024577    0.811375   -1.111698
  C      0.637310    1.289331    0.181326
  H      0.795789    1.468001    1.251474
  C      1.572861    0.156307   -0.276531
  H      1.525620    0.052603   -1.372701
  C      1.144383   -1.187504    0.326851
  H      1.344190   -1.153248    1.417440
  O     -0.225784   -1.437791    0.107911
  O      1.853775   -2.192575   -0.291948
  O      2.890396    0.412166    0.132510
  O      0.997880    2.493951   -0.445812
  O     -1.626999    1.926193    0.528632
  O     -2.836294   -0.999631   -0.993238
  H     -3.240521   -0.274866    0.838637
  H     -2.627966   -1.945967    0.832187
  H      1.556234   -3.056783    0.034902
  H      3.102295    1.333289   -0.091690
  H      0.682883    2.499796   -1.361788
  H     -2.518439    1.888618    0.154914
  H     -2.251683   -1.642964   -1.418919

 Total Charge           Charge          ....    0
 Multiplicity           Mult            ....    1
 Number of Electrons    NEL             ....   96
 Basis Dimension        Dim             ....  192

ORBITAL ENERGIES
----------------

  NO   OCC          E(Eh)            E(eV)
   0   2.0000     -18.778574      -510.9910
   1   2.0000     -18.760114      -510.4887
   2   2.0000     -18.760100      -510.4883
   3   2.0000     -18.759407      -510.4694
   4   2.0000     -18.757996      -510.4310
   5   2.0000     -18.743950      -510.0488
   6   2.0000      -9.988545      -271.8021
   7   2.0000      -9.947885      -270.6957
   8   2.0000      -9.947113      -270.6747
   9   2.0000      -9.943169      -270.5674
  10   2.0000      -9.942671      -270.5538
  11   2.0000      -9.938228      -270.4329
  12   2.0000      -0.987584       -26.8735
  13   2.0000      -0.948296       -25.8045
  14   2.0000      -0.940317       -25.5873
  15   2.0000      -0.929866       -25.3029
  16   2.0000      -0.917756       -24.9734
  17   2.0000      -0.912232       -24.8231
  18   2.0000      -0.705007       -19.1842
  19   2.0000      -0.693108       -18.8604
  20   2.0000      -0.628603       -17.1052
  21   2.0000      -0.580396       -15.7934
  22   2.0000      -0.567693       -15.4477
  23   2.0000      -0.532772       -14.4975
  24   2.0000      -0.503521       -13.7015
  25   2.0000      -0.491740       -13.3809
  26   2.0000      -0.476322       -12.9614
  27   2.0000      -0.465015       -12.6537
  28   2.0000      -0.458508       -12.4766
  29   2.0000      -0.430255       -11.7078
  30   2.0000      -0.419337       -11.4107
  31   2.0000      -0.412566       -11.2265
  32   2.0000      -0.385922       -10.5015
  33   2.0000      -0.381484       -10.3807
  34   2.0000      -0.365245        -9.9388
  35   2.0000      -0.355688        -9.6788
  36   2.0000      -0.322850        -8.7852
  37   2.0000      -0.316458        -8.6113
  38   2.0000      -0.302808        -8.2398
  39   2.0000      -0.290132        -7.8949
  40   2.0000      -0.287726        -7.8294
  41   2.0000      -0.275664        -7.5012
  42   2.0000      -0.254574        -6.9273
  43   2.0000      -0.242871        -6.6088
  44   2.0000      -0.239616        -6.5203
  45   2.0000      -0.228742        -6.2244
  46   2.0000      -0.213412        -5.8072
  47   2.0000      -0.209019        -5.6877
  48   0.0000       0.010464         0.2847
  49   0.0000       0.020782         0.5655
  50   0.0000       0.032324         0.8796
  51   0.0000       0.037799         1.0286
  52   0.0000       0.055179         1.5015

MULLIKEN ATOMIC CHARGES
-----------------------
   0 C :    0.073427
   1 C :   -0.022838
   2 H :    0.056992
   3 C :    0.042990
   4 H :    0.038073
   5 C :    0.075219
   6 H :    0.068373
   7 C :    0.051878
   8 H :    0.042043
   9 C :    0.199978
  10 H :    0.041249
  11 O :   -0.324387
  12 O :   -0.366288
  13 O :   -0.411153
  14 O :   -0.411538
  15 O :   -0.403215
  16 O :   -0.439543
  17 H :    0.079928
  18 H :    0.087599
  19 H :    0.303930
  20 H :    0.302443
  21 H :    0.298437
  22 H :    0.311000
  23 H :    0.305404
Sum of atomic charges:   -0.0000000

LOEWDIN ATOMIC CHARGES
----------------------
   0 C :   -0.127438
   1 C :   -0.081559
   2 H :    0.107297
   3 C :   -0.081145
   4 H :    0.097203
   5 C :   -0.078137
   6 H :    0.120784
   7 C :   -0.085064
   8 H :    0.099946
   9 C :    0.006947
  10 H :    0.084405
  11 O :   -0.162883
  12 O :   -0.285830
  13 O :   -0.316153
  14 O :   -0.307044
  15 O :   -0.311721
  16 O :   -0.334265
  17 H :    0.112198
  18 H :    0.106091
  19 H :    0.288748
  20 H :    0.283533
  21 H :    0.285193
  22 H :    0.291747
  23 H :    0.287146

  Mayer bond orders larger than 0.100000
B(  0-C ,  1-C ) :   1.0339 B(  0-C , 16-O ) :   1.0671 B(  0-C , 17-H ) :   0.9152
B(  0-C , 18-H ) :   0.9205 B(  1-C ,  2-H ) :   0.8701 B(  1-C ,  3-C ) :   0.9774
B(  1-C , 11-O ) :   0.9802 B(  3-C ,  4-H ) :   0.8633 B(  3-C ,  5-C ) :   1.0048
B(  3-C , 15-O ) :   1.0981 B(  5-C ,  6-H ) :   0.8656 B(  5-C ,  7-C ) :   1.0031
B(  5-C , 14-O ) :   1.0455 B(  7-C ,  8-H ) :   0.8599 B(  7-C ,  9-C ) :   0.9849
B(  7-C , 13-O ) :   1.0859 B(  9-C , 10-H ) :   0.8867 B(  9-C , 11-O ) :   0.9982
B(  9-C , 12-O ) :   1.2007 B( 12-O , 19-H ) :   0.8414 B( 13-O , 20-H ) :   0.8327
B( 14-O , 21-H ) :   0.8473 B( 15-O , 22-H ) :   0.8425 B( 16-O , 23-H ) :   0.8420

Dispersion correction           -0.023902644
FINAL SINGLE POINT ENERGY      -685.697956989133

DIPOLE MOMENT
-------------

Method             : SCF
Type of density    : Electron Density
Multiplicity       :   1
Irrep              :   0
Energy             :  -685.8270461638473989 Eh
Relativity type    :
Basis              : AO
                                X                 Y                 Z
Electronic contribution:      2.630410940      -0.091080039      -1.053259217
Nuclear contribution   :     -3.356289669      -0.344241652       0.821626295
                        -----------------------------------------
Total Dipole Moment    :     -0.725878729      -0.435321690      -0.231632922
                        -----------------------------------------
Magnitude (a.u.)       :      0.877529893
Magnitude (Debye)      :      2.230503728

Rotational constants in cm-1:             0.039458             0.026918             0.017652
Rotational constants in MHz :          1182.924978           806.975888           529.196112

                             ****ORCA TERMINATED NORMALLY****
TOTAL RUN TIME: 0 days 0 hours 0 minutes 11 seconds 609 msec
