                         Program Version 6.0.0  -   RELEASE  -
|  1> ! pbe def2-sv(p) def2/J RI DEFGRID1 loosescf d4 GCP(DFT/SV(P)) printgap
|  2> %output
|  3>     printlevel normal
|  4> end
|  5> * xyz 0 1
|  6> C -2.4858138866 -0.7972158503 0.0009078735
|  7> C -1.1037064625 -0.5174555065 0.6025651021
|  8> H -1.0876715664 -0.8411606624 1.6561722912
|  9> C -0.7502938232 0.9918674046 0.5632371678
| 10> H -1.6360101293 1.5423104953 0.2244906255
| 11> C 0.4066751379 1.2469300115 -0.419830293
| 12> H 0.7342203867 2.2905081896 -0.2906016074
| 13> C 1.6082118216 0.3560433193 -0.0611582575
| 14> H 2.2681669898 0.3219301178 -0.9361900825
| 15> C 1.1470505131 -1.0933132599 0.2287708203
| 16> H 1.2400664886 -1.2720230004 1.324797289
| 17> O -0.1885348846 -1.3072019129 -0.1415708826
| 18> O 1.9458345744 -1.9673332423 -0.4836037987
| 19> O 2.2444729474 0.9245700858 1.0573093346
| 20> O 0.0579454799 0.9907150826 -1.7531395631
| 21> O -0.4513542525 1.4947724414 1.8422251587
| 22> O -2.611080495 -0.2703922381 -1.2939582338
| 23> H -3.25402368 -0.3192497303 0.6105133013
| 24> H -2.6471651515 -1.8824337683 -0.0050201539
| 25> H 1.4970747335 -2.8237456857 -0.5627945245
| 26> H 3.1360020294 0.5615017973 1.1547393587
| 27> H -0.6693719932 1.5757403538 -2.0123805975
| 28> H 0.4937672355 1.3643893592 2.0278903828
| 29> H -1.8693390068 -0.6035827543 -1.8230521985
| 30> *
| 31>
| 32>                          ****END OF INPUT****

CARTESIAN COORDINATES (ANGSTROEM)
---------------------------------
  C     -2.485814   -0.797216    0.000908
  C     -1.103706   -0.517456    0.602565
  H     -1.087672   -0.841161    1.656172
  C     -0.750294    0.991867    0.563237
  H     -1.636010    1.542310    0.224491
  C      0.406675    1.246930   -0.419830
  H      0.734220    2.290508   -0.290602
  C      1.608212    0.356043   -0.061158
  H      2.268167    0.321930   -0.936190
  C      1.147051   -1.093313    0.228771
  H      1.240066   -1.272023    1.324797
  O     -0.188535   -1.307202   -0.141571
  O      1.945835   -1.967333   -0.483604
  O      2.244473    0.924570    1.057309
  O      0.057945    0.990715   -1.753140
  O     -0.451354    1.494772    1.842225
  O     -2.611080   -0.270392   -1.293958
  H     -3.254024   -0.319250    0.610513
  H     -2.647165   -1.882434   -0.005020
  H      1.497075   -2.823746   -0.562795
  H      3.136002    0.561502    1.154739
  H     -0.669372    1.575740   -2.012381
  H      0.493767    1.364389    2.027890
  H     -1.869339   -0.603583   -1.823052

 Total Charge           Charge          ....    0
 Multiplicity           Mult            ....    1
 Number of Electrons    NEL             ....   96
 Basis Dimension        Dim             ....  192

ORBITAL ENERGIES
----------------

  NO   OCC          E(Eh)            E(eV)
   0   2.0000     -18.778700      -510.9944
   1   2.0000     -18.772542      -510.8268
   2   2.0000     -18.763840      -510.5900
   3   2.0000     -18.761017      -510.5132
   4   2.0000     -18.745838      -510.1002
   5   2.0000     -18.738457      -509.8993
   6   2.0000      -9.989853      -271.8377
   7   2.0000      -9.948859      -270.7222
   8   2.0000      -9.947688      -270.6904
   9   2.0000      -9.939856      -270.4772
  10   2.0000      -9.937264      -270.4067
  11   2.0000      -9.931578      -270.2520
  12   2.0000      -0.989462       -26.9246
  13   2.0000      -0.953391       -25.9431
  14   2.0000      -0.940216       -25.5846
  15   2.0000      -0.927249       -25.2317
  16   2.0000      -0.917474       -24.9657
  17   2.0000      -0.910624       -24.7793
  18   2.0000      -0.698296       -19.0016
  19   2.0000      -0.691634       -18.8203
  20   2.0000      -0.617389       -16.8000
  21   2.0000      -0.594582       -16.1794
  22   2.0000      -0.563021       -15.3206
  23   2.0000      -0.525321       -14.2947
  24   2.0000      -0.507524       -13.8104
  25   2.0000      -0.494955       -13.4684
  26   2.0000      -0.478120       -13.0103
  27   2.0000      -0.457942       -12.4612
  28   2.0000      -0.447365       -12.1734
  29   2.0000      -0.442571       -12.0430
  30   2.0000      -0.425081       -11.5671
  31   2.0000      -0.391396       -10.6504
  32   2.0000      -0.385196       -10.4817
  33   2.0000      -0.372100       -10.1254
  34   2.0000      -0.356808        -9.7092
  35   2.0000      -0.353155        -9.6098
  36   2.0000      -0.325382        -8.8541
  37   2.0000      -0.322712        -8.7814
  38   2.0000      -0.314700        -8.5634
  39   2.0000      -0.308734        -8.4011
  40   2.0000      -0.278434        -7.5766
  41   2.0000      -0.271717        -7.3938
  42   2.0000      -0.253337        -6.8937
  43   2.0000      -0.247762        -6.7419
  44   2.0000      -0.237315        -6.4577
  45   2.0000      -0.224001        -6.0954
  46   2.0000      -0.212379        -5.7791
  47   2.0000      -0.199191        -5.4203
  48   0.0000       0.005526         0.1504
  49   0.0000       0.026938         0.7330
  50   0.0000       0.035754         0.9729
  51   0.0000       0.054684         1.4880
  52   0.0000       0.062237         1.6936

MULLIKEN ATOMIC CHARGES
-----------------------
   0 C :    0.067224
   1 C :    0.025869
   2 H :    0.058905
   3 C :    0.011456
   4 H :    0.075268
   5 C :    0.028739
   6 H :    0.082497
   7 C :    0.016829
   8 H :    0.086724
   9 C :    0.220127
  10 H :    0.025636
  11 O :   -0.313110
  12 O :   -0.388274
  13 O :   -0.422993
  14 O :   -0.408873
  15 O :   -0.427678
  16 O :   -0.449077
  17 H :    0.095506
  18 H :    0.078557
  19 H :    0.305846
  20 H :    0.319421
  21 H :    0.306739
  22 H :    0.303849
  23 H :    0.300811
Sum of atomic charges:   -0.0000000

LOEWDIN ATOMIC CHARGES
----------------------
   0 C :   -0.121631
   1 C :   -0.078983
   2 H :    0.106693
   3 C :   -0.077054
   4 H :    0.114238
   5 C :   -0.073260
   6 H :    0.108547
   7 C :   -0.080636
   8 H :    0.121247
   9 C :    0.001164
  10 H :    0.072158
  11 O :   -0.156645
  12 O :   -0.301345
  13 O :   -0.309050
  14 O :   -0.308849
  15 O :   -0.323447
  16 O :   -0.337915
  17 H :    0.118354
  18 H :    0.100983
  19 H :    0.289015
  20 H :    0.299162
  21 H :    0.287384
  22 H :    0.273179
  23 H :    0.276691

  Mayer bond orders larger than 0.100000
B(  0-C ,  1-C ) :   1.0468 B(  0-C , 16-O ) :   1.0678 B(  0-C , 17-H ) :   0.9227
B(  0-C , 18-H ) :   0.9142 B(  1-C ,  2-H ) :   0.8761 B(  1-C ,  3-C ) :   0.9391
B(  1-C , 11-O ) :   0.9861 B(  3-C ,  4-H ) :   0.8960 B(  3-C ,  5-C ) :   1.0077
B(  3-C , 15-O ) :   1.0719 B(  5-C ,  6-H ) :   0.8990 B(  5-C ,  7-C ) :   1.0091
B(  5-C , 14-O ) :   1.0650 B(  7-C ,  8-H ) :   0.8803 B(  7-C ,  9-C ) :   0.9705
B(  7-C , 13-O ) :   1.0381 B(  9-C , 10-H ) :   0.8804 B(  9-C , 11-O ) :   1.0525
B(  9-C , 12-O ) :   1.1614 B( 12-O , 19-H ) :   0.8375 B( 13-O , 20-H ) :   0.8409
B( 14-O , 21-H ) :   0.8332 B( 15-O , 22-H ) :   0.8143 B( 16-O , 23-H ) :   0.8244

Dispersion correction           -0.025335607
FINAL SINGLE POINT ENERGY      -685.692958724409

DIPOLE MOMENT
-------------

Method             : SCF
Type of density    : Electron Density
Multiplicity       :   1
Irrep              :   0
Energy             :  -685.8247597563654381 Eh
Relativity type    :
Basis              : AO
                                X                 Y                 Z
Electronic contribution:      2.375537071      -0.384849052      -1.177040604
Nuclear contribution   :     -1.668569071      -0.082507366       1.272498208
                        -----------------------------------------
Total Dipole Moment    :      0.706968000      -0.467356418       0.095457604
                        -----------------------------------------
Magnitude (a.u.)       :      0.852841093
Magnitude (Debye)      :      2.167749784

Rotational constants in cm-1:             0.040993             0.027983             0.023473
Rotational constants in MHz :          1228.938631           838.895395           703.691366

                             ****ORCA TERMINATED NORMALLY****
TOTAL RUN TIME: 0 days 0 hours 0 minutes 12 seconds 66 msec
