                         Program Version 6.0.0  -   RELEASE  -
|  1> ! pbe def2-sv(p) def2/J RI DEFGRID1 loosescf d4 GCP(DFT/SV(P)) printgap
|  2> %output
|  3>     printlevel normal
|  4> end
|  5> * xyz 0 1
|  6> C -2.6416872699 1.5093474809 0.1105547841
|  7> C -1.9526745099 0.157666274 -0.0096668429
|  8> C -0.448109163 0.1926778 0.0127998372
|  9> C 0.3031428287 1.3489730631 0.1331393186
| 10> C 1.6893101971 1.3095669679 0.1470033265
| 11> C 2.346300646 0.0993618301 0.0394335565
| 12> C 1.6168035292 -1.0712506805 -0.0819963261
| 13> C 0.2307552389 -1.029685702 -0.0956572818
| 14> O -0.5217666764 -2.1619262102 -0.2136731933
| 15> H -2.3608045198 2.1618284816 -0.7127504104
| 16> H -2.3834263957 1.9935953882 1.0493094708
| 17> H -3.7199735164 1.3718847196 0.0835928436
| 18> H -2.2616113073 -0.3300336812 -0.9393720985
| 19> H -2.2837636112 -0.4963022672 0.8029589276
| 20> H -0.1934958655 2.3018626805 0.218109761
| 21> H 2.2511195553 2.2262300605 0.2419580029
| 22> H 3.4249230687 0.0589506279 0.049297316
| 23> H 2.126758163 -2.0206570593 -0.1663852975
| 24> H 0.0518009129 -2.9395937201 -0.2809434284
| 25> *
| 26>
| 27>                          ****END OF INPUT****

CARTESIAN COORDINATES (ANGSTROEM)
---------------------------------
  C     -2.641687    1.509347    0.110555
  C     -1.952675    0.157666   -0.009667
  C     -0.448109    0.192678    0.012800
  C      0.303143    1.348973    0.133139
  C      1.689310    1.309567    0.147003
  C      2.346301    0.099362    0.039434
  C      1.616804   -1.071251   -0.081996
  C      0.230755   -1.029686   -0.095657
  O     -0.521767   -2.161926   -0.213673
  H     -2.360805    2.161828   -0.712750
  H     -2.383426    1.993595    1.049309
  H     -3.719974    1.371885    0.083593
  H     -2.261611   -0.330034   -0.939372
  H     -2.283764   -0.496302    0.802959
  H     -0.193496    2.301863    0.218110
  H      2.251120    2.226230    0.241958
  H      3.424923    0.058951    0.049297
  H      2.126758   -2.020657   -0.166385
  H      0.051801   -2.939594   -0.280943

 Total Charge           Charge          ....    0
 Multiplicity           Mult            ....    1
 Number of Electrons    NEL             ....   66
 Basis Dimension        Dim             ....  146

ORBITAL ENERGIES
----------------

  NO   OCC          E(Eh)            E(eV)
   0   2.0000     -18.780936      -511.0553
   1   2.0000      -9.945610      -270.6338
   2   2.0000      -9.892303      -269.1833
   3   2.0000      -9.887566      -269.0543
   4   2.0000      -9.887215      -269.0448
   5   2.0000      -9.884990      -268.9843
   6   2.0000      -9.884469      -268.9701
   7   2.0000      -9.880267      -268.8557
   8   2.0000      -9.873785      -268.6793
   9   2.0000      -0.961675       -26.1685
  10   2.0000      -0.769894       -20.9499
  11   2.0000      -0.706715       -19.2307
  12   2.0000      -0.659007       -17.9325
  13   2.0000      -0.645910       -17.5761
  14   2.0000      -0.573975       -15.6187
  15   2.0000      -0.551036       -14.9944
  16   2.0000      -0.509945       -13.8763
  17   2.0000      -0.488964       -13.3054
  18   2.0000      -0.436658       -11.8821
  19   2.0000      -0.412753       -11.2316
  20   2.0000      -0.403197       -10.9715
  21   2.0000      -0.383687       -10.4406
  22   2.0000      -0.381930       -10.3928
  23   2.0000      -0.356934        -9.7127
  24   2.0000      -0.338904        -9.2221
  25   2.0000      -0.330434        -8.9916
  26   2.0000      -0.321158        -8.7392
  27   2.0000      -0.303444        -8.2571
  28   2.0000      -0.294811        -8.0222
  29   2.0000      -0.293156        -7.9772
  30   2.0000      -0.281719        -7.6660
  31   2.0000      -0.219198        -5.9647
  32   2.0000      -0.189655        -5.1608
  33   0.0000      -0.026030        -0.7083
  34   0.0000      -0.014806        -0.4029
  35   0.0000       0.022269         0.6060
  36   0.0000       0.049982         1.3601
  37   0.0000       0.054877         1.4933

MULLIKEN ATOMIC CHARGES
-----------------------
   0 C :   -0.265513
   1 C :   -0.138960
   2 C :   -0.004685
   3 C :   -0.165483
   4 C :   -0.035042
   5 C :   -0.052336
   6 C :   -0.163545
   7 C :    0.182350
   8 O :   -0.339081
   9 H :    0.105823
  10 H :    0.106039
  11 H :    0.102814
  12 H :    0.100437
  13 H :    0.100386
  14 H :    0.038821
  15 H :    0.042530
  16 H :    0.048150
  17 H :    0.020505
  18 H :    0.316788
Sum of atomic charges:   -0.0000000

LOEWDIN ATOMIC CHARGES
----------------------
   0 C :   -0.340597
   1 C :   -0.219123
   2 C :   -0.064485
   3 C :   -0.123248
   4 C :   -0.146667
   5 C :   -0.123819
   6 C :   -0.177324
   7 C :    0.025797
   8 O :   -0.234843
   9 H :    0.119620
  10 H :    0.119701
  11 H :    0.122218
  12 H :    0.129879
  13 H :    0.129844
  14 H :    0.123846
  15 H :    0.120839
  16 H :    0.122335
  17 H :    0.117947
  18 H :    0.298082

  Mayer bond orders larger than 0.100000
B(  0-C ,  1-C ) :   1.1976 B(  0-C ,  9-H ) :   0.9432 B(  0-C , 10-H ) :   0.9431
B(  0-C , 11-H ) :   0.9474 B(  1-C ,  2-C ) :   1.0641 B(  1-C , 12-H ) :   0.8995
B(  1-C , 13-H ) :   0.8996 B(  2-C ,  3-C ) :   1.4408 B(  2-C ,  7-C ) :   1.3737
B(  3-C ,  4-C ) :   1.3214 B(  3-C , 14-H ) :   0.9558 B(  4-C ,  5-C ) :   1.3863
B(  4-C , 15-H ) :   0.9647 B(  5-C ,  6-C ) :   1.3533 B(  5-C , 16-H ) :   0.9633
B(  6-C ,  7-C ) :   1.3386 B(  6-C , 17-H ) :   0.9560 B(  7-C ,  8-O ) :   1.2085
B(  8-O , 18-H ) :   0.8401

Dispersion correction           -0.018939516
FINAL SINGLE POINT ENERGY      -385.235741932016

DIPOLE MOMENT
-------------

Method             : SCF
Type of density    : Electron Density
Multiplicity       :   1
Irrep              :   0
Energy             :  -385.2958426017424927 Eh
Relativity type    :
Basis              : AO
                                X                 Y                 Z
Electronic contribution:      5.218716280      -4.483330387      -0.362496759
Nuclear contribution   :     -5.025503194       4.028134103       0.321228722
                        -----------------------------------------
Total Dipole Moment    :      0.193213086      -0.455196284      -0.041268037
                        -----------------------------------------
Magnitude (a.u.)       :      0.496223745
Magnitude (Debye)      :      1.261300522

Rotational constants in cm-1:             0.084001             0.049485             0.031504
Rotational constants in MHz :          2518.285515          1483.514405           944.457082

                             ****ORCA TERMINATED NORMALLY****
TOTAL RUN TIME: 0 days 0 hours 0 minutes 8 seconds 927 msec
