                         Program Version 6.0.0  -   RELEASE  -
|  1> ! r2scan-3c def2/J RI DEFGRID2 scfconv6 printgap
|  2> %output
|  3>     printlevel normal
|  4> end
|  5> * xyz 0 1
|  6> C 1.2255234733 0.440024717 -1.5548384929
|  7> C 2.5977946806 0.5348804326 -1.6961565868
|  8> C 3.4236413106 0.3007629837 -0.6076896947
|  9> C 2.8704314653 -0.0296529761 0.6245180228
| 10> C 1.4962291654 -0.1259052655 0.7671761257
| 11> C 0.6710869742 0.109533931 -0.3242554465
| 12> C -0.8001715835 0.0068674538 -0.1699634098
| 13> C -1.5546041306 1.1297494236 0.1616879455
| 14> C -2.9373128926 1.0327818996 0.2998055626
| 15> C -3.5742768512 -0.1831821825 0.1074715113
| 16> C -2.8292262699 -1.3049096662 -0.2210219746
| 17> C -1.4462028155 -1.2124787429 -0.359207726
| 18> Cl -0.5115298601 -2.6027165281 -0.7655960967
| 19> Cl -3.6199557213 -2.8146858698 -0.4581128247
| 20> Cl -3.8619671392 2.4244955389 0.7109083089
| 21> Cl -0.7537347022 2.6370067315 0.4026470747
| 22> Cl 3.8941304435 -0.3231884715 1.9906391268
| 23> Cl 5.1419889982 0.4204768057 -0.7850888346
| 24> H 0.5827194854 0.6218396777 -2.4004863017
| 25> H 3.0362927818 0.7898762104 -2.646576713
| 26> H 1.0754491295 -0.382377063 1.7255707833
| 27> H -4.6438901317 -0.2562297661 0.2133327297
| 28> *
| 29>
| 30>                          ****END OF INPUT****

CARTESIAN COORDINATES (ANGSTROEM)
---------------------------------
  C      1.225523    0.440025   -1.554838
  C      2.597795    0.534880   -1.696157
  C      3.423641    0.300763   -0.607690
  C      2.870431   -0.029653    0.624518
  C      1.496229   -0.125905    0.767176
  C      0.671087    0.109534   -0.324255
  C     -0.800172    0.006867   -0.169963
  C     -1.554604    1.129749    0.161688
  C     -2.937313    1.032782    0.299806
  C     -3.574277   -0.183182    0.107472
  C     -2.829226   -1.304910   -0.221022
  C     -1.446203   -1.212479   -0.359208
  Cl    -0.511530   -2.602717   -0.765596
  Cl    -3.619956   -2.814686   -0.458113
  Cl    -3.861967    2.424496    0.710908
  Cl    -0.753735    2.637007    0.402647
  Cl     3.894130   -0.323188    1.990639
  Cl     5.141989    0.420477   -0.785089
  H      0.582719    0.621840   -2.400486
  H      3.036293    0.789876   -2.646577
  H      1.075449   -0.382377    1.725571
  H     -4.643890   -0.256230    0.213333

 Total Charge           Charge          ....    0
 Multiplicity           Mult            ....    1
 Number of Electrons    NEL             ....  178
 Basis Dimension        Dim             ....  410

ORBITAL ENERGIES
----------------

  NO   OCC          E(Eh)            E(eV)
   0   2.0000    -101.244742     -2755.0095
   1   2.0000    -101.244740     -2755.0094
   2   2.0000    -101.243871     -2754.9858
   3   2.0000    -101.243845     -2754.9851
   4   2.0000    -101.233545     -2754.7048
   5   2.0000    -101.233538     -2754.7046
   6   2.0000     -10.136582      -275.8304
   7   2.0000     -10.136576      -275.8303
   8   2.0000     -10.136018      -275.8151
   9   2.0000     -10.136009      -275.8148
  10   2.0000     -10.123594      -275.4770
  11   2.0000     -10.122844      -275.4566
  12   2.0000     -10.098373      -274.7907
  13   2.0000     -10.086102      -274.4568
  14   2.0000     -10.081262      -274.3251
  15   2.0000     -10.070496      -274.0321
  16   2.0000     -10.069390      -274.0020
  17   2.0000     -10.065979      -273.9092
  18   2.0000      -9.400536      -255.8016
  19   2.0000      -9.400533      -255.8015
  20   2.0000      -9.399534      -255.7743
  21   2.0000      -9.399507      -255.7736
  22   2.0000      -9.389249      -255.4945
  23   2.0000      -9.389224      -255.4938
  24   2.0000      -7.147065      -194.4815
  25   2.0000      -7.147060      -194.4814
  26   2.0000      -7.146146      -194.4565
  27   2.0000      -7.146121      -194.4558
  28   2.0000      -7.136792      -194.2020
  29   2.0000      -7.136790      -194.2019
  30   2.0000      -7.136021      -194.1810
  31   2.0000      -7.136019      -194.1810
  32   2.0000      -7.135882      -194.1772
  33   2.0000      -7.135854      -194.1765
  34   2.0000      -7.135718      -194.1728
  35   2.0000      -7.135711      -194.1726
  36   2.0000      -7.134862      -194.1495
  37   2.0000      -7.134834      -194.1487
  38   2.0000      -7.125552      -193.8961
  39   2.0000      -7.125513      -193.8951
  40   2.0000      -7.124775      -193.8750
  41   2.0000      -7.124760      -193.8746
  42   2.0000      -0.927202       -25.2304
  43   2.0000      -0.898851       -24.4590
  44   2.0000      -0.888020       -24.1643
  45   2.0000      -0.860725       -23.4215
  46   2.0000      -0.841004       -22.8849
  47   2.0000      -0.834244       -22.7009
  48   2.0000      -0.825981       -22.4761
  49   2.0000      -0.803713       -21.8701
  50   2.0000      -0.758064       -20.6280
  51   2.0000      -0.733262       -19.9531
  52   2.0000      -0.709688       -19.3116
  53   2.0000      -0.704361       -19.1666
  54   2.0000      -0.635540       -17.2939
  55   2.0000      -0.611316       -16.6347
  56   2.0000      -0.590049       -16.0561
  57   2.0000      -0.576433       -15.6855
  58   2.0000      -0.518573       -14.1111
  59   2.0000      -0.515675       -14.0322
  60   2.0000      -0.499301       -13.5867
  61   2.0000      -0.483027       -13.1438
  62   2.0000      -0.466610       -12.6971
  63   2.0000      -0.453361       -12.3366
  64   2.0000      -0.444326       -12.0907
  65   2.0000      -0.432381       -11.7657
  66   2.0000      -0.431481       -11.7412
  67   2.0000      -0.424956       -11.5636
  68   2.0000      -0.410282       -11.1643
  69   2.0000      -0.404484       -11.0066
  70   2.0000      -0.397732       -10.8228
  71   2.0000      -0.383970       -10.4483
  72   2.0000      -0.368079       -10.0159
  73   2.0000      -0.365408        -9.9433
  74   2.0000      -0.348296        -9.4776
  75   2.0000      -0.335741        -9.1360
  76   2.0000      -0.332215        -9.0400
  77   2.0000      -0.328715        -8.9448
  78   2.0000      -0.323867        -8.8129
  79   2.0000      -0.314208        -8.5500
  80   2.0000      -0.309408        -8.4194
  81   2.0000      -0.301017        -8.1911
  82   2.0000      -0.300809        -8.1854
  83   2.0000      -0.293243        -7.9795
  84   2.0000      -0.286732        -7.8024
  85   2.0000      -0.258995        -7.0476
  86   2.0000      -0.255944        -6.9646
  87   2.0000      -0.240061        -6.5324
  88   2.0000      -0.239223        -6.5096
  89   0.0000      -0.079751        -2.1701
  90   0.0000      -0.076231        -2.0744
  91   0.0000      -0.065443        -1.7808
  92   0.0000      -0.060944        -1.6584
  93   0.0000      -0.053063        -1.4439

MULLIKEN ATOMIC CHARGES
-----------------------
   0 C :   -0.140781
   1 C :   -0.230876
   2 C :    0.160682
   3 C :    0.076659
   4 C :   -0.206031
   5 C :    0.135480
   6 C :    0.133374
   7 C :   -0.003457
   8 C :    0.159240
   9 C :   -0.378962
  10 C :    0.159024
  11 C :   -0.003071
  12 Cl:   -0.072971
  13 Cl:   -0.089047
  14 Cl:   -0.089061
  15 Cl:   -0.073014
  16 Cl:   -0.107472
  17 Cl:   -0.108751
  18 H :    0.161737
  19 H :    0.163342
  20 H :    0.173804
  21 H :    0.180154
Sum of atomic charges:   -0.0000000

LOEWDIN ATOMIC CHARGES
----------------------
   0 C :   -0.131142
   1 C :   -0.152185
   2 C :   -0.176981
   3 C :   -0.173208
   4 C :   -0.136876
   5 C :   -0.088394
   6 C :   -0.085936
   7 C :   -0.161783
   8 C :   -0.178867
   9 C :   -0.165554
  10 C :   -0.178861
  11 C :   -0.161736
  12 Cl:    0.194992
  13 Cl:    0.171702
  14 Cl:    0.171687
  15 Cl:    0.195001
  16 Cl:    0.155775
  17 Cl:    0.154291
  18 H :    0.181573
  19 H :    0.183112
  20 H :    0.189799
  21 H :    0.193590

  Mayer bond orders larger than 0.100000
B(  0-C ,  1-C ) :   1.3957 B(  0-C ,  5-C ) :   1.3855 B(  0-C , 18-H ) :   0.9455
B(  1-C ,  2-C ) :   1.3382 B(  1-C , 19-H ) :   0.9464 B(  2-C ,  3-C ) :   1.2914
B(  2-C , 17-Cl) :   1.0438 B(  3-C ,  4-C ) :   1.3402 B(  3-C , 16-Cl) :   1.0596
B(  4-C ,  5-C ) :   1.4088 B(  4-C , 20-H ) :   0.9363 B(  5-C ,  6-C ) :   0.7649
B(  5-C ,  7-C ) :  -0.1032 B(  5-C , 11-C ) :  -0.1035 B(  6-C ,  7-C ) :   1.2230
B(  6-C , 11-C ) :   1.2228 B(  7-C ,  8-C ) :   1.1739 B(  7-C , 15-Cl) :   1.2148
B(  8-C ,  9-C ) :   1.3190 B(  8-C , 14-Cl) :   1.0623 B(  9-C , 10-C ) :   1.3191
B(  9-C , 21-H ) :   0.9259 B( 10-C , 11-C ) :   1.1740 B( 10-C , 13-Cl) :   1.0623
B( 11-C , 12-Cl) :   1.2148

Dispersion correction           -0.014662277
FINAL SINGLE POINT ENERGY     -3220.644283611965

DIPOLE MOMENT
-------------

Method             : SCF
Type of density    : Electron Density
Multiplicity       :   1
Irrep              :   0
Energy             : -3220.6414628984321098 Eh
Relativity type    :
Basis              : AO
                                X                 Y                 Z
Electronic contribution:     -0.294812914      -1.003655176       3.995615869
Nuclear contribution   :     -0.340361879       1.072424283      -4.386255328
                        -----------------------------------------
Total Dipole Moment    :     -0.635174793       0.068769107      -0.390639459
                        -----------------------------------------
Magnitude (a.u.)       :      0.748849381
Magnitude (Debye)      :      1.903423858

Rotational constants in cm-1:             0.012283             0.004683             0.003820
Rotational constants in MHz :           368.239078           140.398206           114.509637

                             ****ORCA TERMINATED NORMALLY****
TOTAL RUN TIME: 0 days 0 hours 1 minutes 12 seconds 969 msec
