                         Program Version 6.0.0  -   RELEASE  -
|  1> ! r2scan-3c def2/J RI DEFGRID2 scfconv6 printgap
|  2> %output
|  3>     printlevel normal
|  4> end
|  5> %cpcm
|  6>     smd true
|  7>     smdsolvent "water"
|  8> end
|  9> * xyz 0 1
| 10> C 1.2255234733 0.440024717 -1.5548384929
| 11> C 2.5977946806 0.5348804326 -1.6961565868
| 12> C 3.4236413106 0.3007629837 -0.6076896947
| 13> C 2.8704314653 -0.0296529761 0.6245180228
| 14> C 1.4962291654 -0.1259052655 0.7671761257
| 15> C 0.6710869742 0.109533931 -0.3242554465
| 16> C -0.8001715835 0.0068674538 -0.1699634098
| 17> C -1.5546041306 1.1297494236 0.1616879455
| 18> C -2.9373128926 1.0327818996 0.2998055626
| 19> C -3.5742768512 -0.1831821825 0.1074715113
| 20> C -2.8292262699 -1.3049096662 -0.2210219746
| 21> C -1.4462028155 -1.2124787429 -0.359207726
| 22> Cl -0.5115298601 -2.6027165281 -0.7655960967
| 23> Cl -3.6199557213 -2.8146858698 -0.4581128247
| 24> Cl -3.8619671392 2.4244955389 0.7109083089
| 25> Cl -0.7537347022 2.6370067315 0.4026470747
| 26> Cl 3.8941304435 -0.3231884715 1.9906391268
| 27> Cl 5.1419889982 0.4204768057 -0.7850888346
| 28> H 0.5827194854 0.6218396777 -2.4004863017
| 29> H 3.0362927818 0.7898762104 -2.646576713
| 30> H 1.0754491295 -0.382377063 1.7255707833
| 31> H -4.6438901317 -0.2562297661 0.2133327297
| 32> *
| 33>
| 34>                          ****END OF INPUT****

CARTESIAN COORDINATES (ANGSTROEM)
---------------------------------
  C      1.225523    0.440025   -1.554838
  C      2.597795    0.534880   -1.696157
  C      3.423641    0.300763   -0.607690
  C      2.870431   -0.029653    0.624518
  C      1.496229   -0.125905    0.767176
  C      0.671087    0.109534   -0.324255
  C     -0.800172    0.006867   -0.169963
  C     -1.554604    1.129749    0.161688
  C     -2.937313    1.032782    0.299806
  C     -3.574277   -0.183182    0.107472
  C     -2.829226   -1.304910   -0.221022
  C     -1.446203   -1.212479   -0.359208
  Cl    -0.511530   -2.602717   -0.765596
  Cl    -3.619956   -2.814686   -0.458113
  Cl    -3.861967    2.424496    0.710908
  Cl    -0.753735    2.637007    0.402647
  Cl     3.894130   -0.323188    1.990639
  Cl     5.141989    0.420477   -0.785089
  H      0.582719    0.621840   -2.400486
  H      3.036293    0.789876   -2.646577
  H      1.075449   -0.382377    1.725571
  H     -4.643890   -0.256230    0.213333

 Total Charge           Charge          ....    0
 Multiplicity           Mult            ....    1
 Number of Electrons    NEL             ....  178
 Basis Dimension        Dim             ....  410

ORBITAL ENERGIES
----------------

  NO   OCC          E(Eh)            E(eV)
   0   2.0000    -101.239581     -2754.8691
   1   2.0000    -101.239578     -2754.8690
   2   2.0000    -101.239297     -2754.8613
   3   2.0000    -101.239293     -2754.8612
   4   2.0000    -101.233328     -2754.6989
   5   2.0000    -101.233052     -2754.6914
   6   2.0000     -10.128204      -275.6025
   7   2.0000     -10.128194      -275.6022
   8   2.0000     -10.127700      -275.5887
   9   2.0000     -10.127692      -275.5885
  10   2.0000     -10.118262      -275.3319
  11   2.0000     -10.117395      -275.3083
  12   2.0000     -10.089730      -274.5555
  13   2.0000     -10.074299      -274.1356
  14   2.0000     -10.072582      -274.0889
  15   2.0000     -10.061181      -273.7786
  16   2.0000     -10.058981      -273.7188
  17   2.0000     -10.054496      -273.5967
  18   2.0000      -9.395362      -255.6608
  19   2.0000      -9.395359      -255.6607
  20   2.0000      -9.395200      -255.6564
  21   2.0000      -9.395196      -255.6563
  22   2.0000      -9.389180      -255.4926
  23   2.0000      -9.388931      -255.4858
  24   2.0000      -7.141866      -194.3400
  25   2.0000      -7.141860      -194.3399
  26   2.0000      -7.141635      -194.3338
  27   2.0000      -7.141629      -194.3336
  28   2.0000      -7.135523      -194.1675
  29   2.0000      -7.135255      -194.1602
  30   2.0000      -7.131720      -194.0640
  31   2.0000      -7.131719      -194.0639
  32   2.0000      -7.131494      -194.0578
  33   2.0000      -7.131491      -194.0577
  34   2.0000      -7.130765      -194.0380
  35   2.0000      -7.130762      -194.0379
  36   2.0000      -7.130720      -194.0368
  37   2.0000      -7.130717      -194.0367
  38   2.0000      -7.125515      -193.8951
  39   2.0000      -7.125289      -193.8890
  40   2.0000      -7.124777      -193.8750
  41   2.0000      -7.124515      -193.8679
  42   2.0000      -0.919247       -25.0140
  43   2.0000      -0.894672       -24.3453
  44   2.0000      -0.881981       -23.9999
  45   2.0000      -0.854204       -23.2441
  46   2.0000      -0.835766       -22.7423
  47   2.0000      -0.832807       -22.6618
  48   2.0000      -0.820313       -22.3219
  49   2.0000      -0.796990       -21.6872
  50   2.0000      -0.750419       -20.4199
  51   2.0000      -0.725295       -19.7363
  52   2.0000      -0.702252       -19.1092
  53   2.0000      -0.697201       -18.9718
  54   2.0000      -0.626803       -17.0562
  55   2.0000      -0.601891       -16.3783
  56   2.0000      -0.582500       -15.8506
  57   2.0000      -0.568368       -15.4661
  58   2.0000      -0.510828       -13.9003
  59   2.0000      -0.507187       -13.8013
  60   2.0000      -0.490703       -13.3527
  61   2.0000      -0.474928       -12.9235
  62   2.0000      -0.459835       -12.5128
  63   2.0000      -0.445667       -12.1272
  64   2.0000      -0.438387       -11.9291
  65   2.0000      -0.424957       -11.5637
  66   2.0000      -0.421792       -11.4775
  67   2.0000      -0.414491       -11.2789
  68   2.0000      -0.405624       -11.0376
  69   2.0000      -0.394870       -10.7450
  70   2.0000      -0.392302       -10.6751
  71   2.0000      -0.377846       -10.2817
  72   2.0000      -0.360226        -9.8023
  73   2.0000      -0.354953        -9.6588
  74   2.0000      -0.341662        -9.2971
  75   2.0000      -0.332866        -9.0577
  76   2.0000      -0.330273        -8.9872
  77   2.0000      -0.324637        -8.8338
  78   2.0000      -0.319006        -8.6806
  79   2.0000      -0.309709        -8.4276
  80   2.0000      -0.308494        -8.3945
  81   2.0000      -0.296634        -8.0718
  82   2.0000      -0.295475        -8.0403
  83   2.0000      -0.289222        -7.8701
  84   2.0000      -0.286776        -7.8036
  85   2.0000      -0.250258        -6.8099
  86   2.0000      -0.249668        -6.7938
  87   2.0000      -0.235848        -6.4177
  88   2.0000      -0.233110        -6.3433
  89   0.0000      -0.069258        -1.8846
  90   0.0000      -0.068146        -1.8543
  91   0.0000      -0.058731        -1.5982
  92   0.0000      -0.053606        -1.4587
  93   0.0000      -0.046075        -1.2538

MULLIKEN ATOMIC CHARGES
-----------------------
   0 C :   -0.163674
   1 C :   -0.246760
   2 C :    0.163166
   3 C :    0.067762
   4 C :   -0.207707
   5 C :    0.068433
   6 C :    0.234807
   7 C :   -0.006124
   8 C :    0.139605
   9 C :   -0.354904
  10 C :    0.139368
  11 C :   -0.005926
  12 Cl:   -0.095110
  13 Cl:   -0.104642
  14 Cl:   -0.104616
  15 Cl:   -0.095069
  16 Cl:   -0.127548
  17 Cl:   -0.129125
  18 H :    0.202466
  19 H :    0.199358
  20 H :    0.210591
  21 H :    0.215649
Sum of atomic charges:   -0.0000000

LOEWDIN ATOMIC CHARGES
----------------------
   0 C :   -0.126602
   1 C :   -0.149780
   2 C :   -0.183267
   3 C :   -0.180736
   4 C :   -0.135851
   5 C :   -0.090973
   6 C :   -0.074299
   7 C :   -0.157918
   8 C :   -0.177674
   9 C :   -0.154506
  10 C :   -0.177616
  11 C :   -0.157928
  12 Cl:    0.182574
  13 Cl:    0.161482
  14 Cl:    0.161467
  15 Cl:    0.182655
  16 Cl:    0.139533
  17 Cl:    0.138508
  18 H :    0.195691
  19 H :    0.195933
  20 H :    0.202238
  21 H :    0.207067

  Mayer bond orders larger than 0.100000
B(  0-C ,  1-C ) :   1.4000 B(  0-C ,  5-C ) :   1.3764 B(  0-C , 18-H ) :   0.9447
B(  1-C ,  2-C ) :   1.3102 B(  1-C , 19-H ) :   0.9445 B(  2-C ,  3-C ) :   1.2677
B(  2-C , 17-Cl) :   1.0288 B(  3-C ,  4-C ) :   1.3193 B(  3-C , 16-Cl) :   1.0509
B(  4-C ,  5-C ) :   1.4178 B(  4-C , 20-H ) :   0.9290 B(  5-C ,  6-C ) :   0.7383
B(  6-C ,  7-C ) :   1.2348 B(  6-C , 11-C ) :   1.2346 B(  7-C ,  8-C ) :   1.1658
B(  7-C , 15-Cl) :   1.1774 B(  8-C ,  9-C ) :   1.3384 B(  8-C , 14-Cl) :   1.0590
B(  9-C , 10-C ) :   1.3390 B(  9-C , 21-H ) :   0.9051 B( 10-C , 11-C ) :   1.1659
B( 10-C , 13-Cl) :   1.0589 B( 11-C , 12-Cl) :   1.1771

Dispersion correction           -0.014662277
FINAL SINGLE POINT ENERGY     -3220.646136397683

DIPOLE MOMENT
-------------

Method             : SCF
Type of density    : Electron Density
Multiplicity       :   1
Irrep              :   0
Energy             : -3220.6433156841499112 Eh
Relativity type    :
Basis              : AO
                                X                 Y                 Z
Electronic contribution:     -0.709742852      -0.973846788       3.803705014
Nuclear contribution   :     -0.340361879       1.072424283      -4.386255328
                        -----------------------------------------
Total Dipole Moment    :     -1.050104731       0.098577495      -0.582550314
                        -----------------------------------------
Magnitude (a.u.)       :      1.204907605
Magnitude (Debye)      :      3.062631741

Rotational constants in cm-1:             0.012283             0.004683             0.003820
Rotational constants in MHz :           368.239078           140.398206           114.509637

                             ****ORCA TERMINATED NORMALLY****
TOTAL RUN TIME: 0 days 0 hours 1 minutes 35 seconds 66 msec
