                         Program Version 6.0.0  -   RELEASE  -
|  1> ! wb97x-v def2-tzvp def2/J RIJCOSX DEFGRID2 scfconv7 GCP(DFT/TZ) printgap
|  2> %output
|  3>     printlevel normal
|  4> end
|  5> * xyz 0 1
|  6> C -3.681431265237309 0.1752566183210451 0.10902429340291075
|  7> C -2.18600652990371 0.06467464002581863 0.013451856575312659
|  8> C -1.4904352815377184 -0.9926955672795845 0.6008297218971469
|  9> C -0.10147603961543444 -1.0796561355655085 0.5215635395779923
| 10> C 0.6556416068611312 -0.11357071387555387 -0.15094287667346193
| 11> C -0.04925987065865824 0.9443640615014695 -0.7429206816863951
| 12> C -1.4353788614124563 1.0308739977697334 -0.663154971136698
| 13> C 2.1725187793137586 -0.2256352504169713 -0.2677699208057874
| 14> C 2.8035939628471853 -0.9873109679484805 0.9028569182712106
| 15> C 2.8585364907370807 1.1367339041987055 -0.41866180002774994
| 16> H -3.9738744201343454 1.0695869559153357 0.6708731521859261
| 17> H -4.136642272191447 0.2584492696990177 -0.8836897124704893
| 18> H -4.111010081912887 -0.6952505389453061 0.6113178549735092
| 19> H -2.0417058035124267 -1.7632804247104117 1.1339292462422643
| 20> H 0.38785815657867756 -1.9226319298499062 0.9967802340961318
| 21> H 0.4842830595459549 1.72099485056084 -1.2797339733477897
| 22> H -1.9445024031525744 1.8686090928169383 -1.1339340584675057
| 23> H 2.3815971844071835 -0.8002675776141979 -1.1827756452206015
| 24> H 3.8920869726154854 -0.9999288043219409 0.790595220564643
| 25> H 2.470884730202605 -2.0269329299439742 0.9569633368548235
| 26> H 2.566317825955768 -0.5014855046802593 1.8564950908448408
| 27> H 3.944035487030762 1.001816293518258 -0.4514156105034264
| 28> H 2.6225871105615033 1.787411487786672 0.43143364531899964
| 29> H 2.5678199373369566 1.6543306609023998 -1.3361885599374859
| 30> *
| 31>
| 32>                          ****END OF INPUT****

CARTESIAN COORDINATES (ANGSTROEM)
---------------------------------
  C     -3.681431    0.175257    0.109024
  C     -2.186007    0.064675    0.013452
  C     -1.490435   -0.992696    0.600830
  C     -0.101476   -1.079656    0.521564
  C      0.655642   -0.113571   -0.150943
  C     -0.049260    0.944364   -0.742921
  C     -1.435379    1.030874   -0.663155
  C      2.172519   -0.225635   -0.267770
  C      2.803594   -0.987311    0.902857
  C      2.858536    1.136734   -0.418662
  H     -3.973874    1.069587    0.670873
  H     -4.136642    0.258449   -0.883690
  H     -4.111010   -0.695251    0.611318
  H     -2.041706   -1.763280    1.133929
  H      0.387858   -1.922632    0.996780
  H      0.484283    1.720995   -1.279734
  H     -1.944502    1.868609   -1.133934
  H      2.381597   -0.800268   -1.182776
  H      3.892087   -0.999929    0.790595
  H      2.470885   -2.026933    0.956963
  H      2.566318   -0.501486    1.856495
  H      3.944035    1.001816   -0.451416
  H      2.622587    1.787411    0.431434
  H      2.567820    1.654331   -1.336189

 Total Charge           Charge          ....    0
 Multiplicity           Mult            ....    1
 Number of Electrons    NEL             ....   74
 Basis Dimension        Dim             ....  394

ORBITAL ENERGIES
----------------

  NO   OCC          E(Eh)            E(eV)
   0   2.0000     -12.055924      -328.0584
   1   2.0000     -12.053257      -327.9858
   2   2.0000     -12.052229      -327.9578
   3   2.0000     -12.044103      -327.7367
   4   2.0000     -12.043343      -327.7160
   5   2.0000     -12.041851      -327.6754
   6   2.0000     -12.041578      -327.6680
   7   2.0000     -12.040590      -327.6411
   8   2.0000     -12.034711      -327.4811
   9   2.0000     -12.034398      -327.4726
  10   2.0000      -1.381317       -37.5876
  11   2.0000      -1.319776       -35.9129
  12   2.0000      -1.267659       -34.4948
  13   2.0000      -1.264304       -34.4035
  14   2.0000      -1.188470       -32.3399
  15   2.0000      -1.177417       -32.0391
  16   2.0000      -1.099146       -29.9093
  17   2.0000      -1.098537       -29.8927
  18   2.0000      -1.043625       -28.3985
  19   2.0000      -0.951825       -25.9005
  20   2.0000      -0.947222       -25.7752
  21   2.0000      -0.906406       -24.6646
  22   2.0000      -0.884611       -24.0715
  23   2.0000      -0.879720       -23.9384
  24   2.0000      -0.865463       -23.5504
  25   2.0000      -0.838236       -22.8096
  26   2.0000      -0.835023       -22.7221
  27   2.0000      -0.827447       -22.5160
  28   2.0000      -0.820914       -22.3382
  29   2.0000      -0.808617       -22.0036
  30   2.0000      -0.795167       -21.6376
  31   2.0000      -0.791199       -21.5296
  32   2.0000      -0.777553       -21.1583
  33   2.0000      -0.769395       -20.9363
  34   2.0000      -0.744588       -20.2613
  35   2.0000      -0.631078       -17.1725
  36   2.0000      -0.623537       -16.9673
  37   0.0000      -0.235484        -6.4078
  38   0.0000      -0.229979        -6.2581
  39   0.0000      -0.070878        -1.9287
  40   0.0000      -0.055304        -1.5049
  41   0.0000      -0.029792        -0.8107

MULLIKEN ATOMIC CHARGES
-----------------------
   0 C :   -0.366641
   1 C :    0.150897
   2 C :   -0.201548
   3 C :   -0.180833
   4 C :    0.108340
   5 C :   -0.174883
   6 C :   -0.199252
   7 C :    0.032406
   8 C :   -0.363802
   9 C :   -0.364424
  10 H :    0.122558
  11 H :    0.121949
  12 H :    0.115386
  13 H :    0.107817
  14 H :    0.106519
  15 H :    0.107256
  16 H :    0.110890
  17 H :    0.078809
  18 H :    0.111840
  19 H :    0.112928
  20 H :    0.119412
  21 H :    0.112099
  22 H :    0.119655
  23 H :    0.112623
Sum of atomic charges:   -0.0000000

LOEWDIN ATOMIC CHARGES
----------------------
   0 C :   -0.253727
   1 C :   -0.174120
   2 C :   -0.119991
   3 C :   -0.111671
   4 C :   -0.119125
   5 C :   -0.111530
   6 C :   -0.116055
   7 C :   -0.259122
   8 C :   -0.276635
   9 C :   -0.276653
  10 H :    0.126803
  11 H :    0.126212
  12 H :    0.123518
  13 H :    0.141873
  14 H :    0.143930
  15 H :    0.143965
  16 H :    0.143129
  17 H :    0.156299
  18 H :    0.118876
  19 H :    0.114946
  20 H :    0.122651
  21 H :    0.118900
  22 H :    0.122660
  23 H :    0.114866

  Mayer bond orders larger than 0.100000
B(  0-C ,  1-C ) :   0.9131 B(  0-C , 10-H ) :   0.9737 B(  0-C , 11-H ) :   0.9794
B(  0-C , 12-H ) :   0.9973 B(  1-C ,  2-C ) :   1.4132 B(  1-C ,  6-C ) :   1.3655
B(  2-C ,  3-C ) :   1.4640 B(  2-C , 13-H ) :   0.9697 B(  3-C ,  4-C ) :   1.3637
B(  3-C , 14-H ) :   0.9707 B(  4-C ,  5-C ) :   1.3440 B(  4-C ,  7-C ) :   0.9435
B(  5-C ,  6-C ) :   1.4778 B(  5-C , 15-H ) :   0.9713 B(  6-C , 16-H ) :   0.9819
B(  7-C ,  8-C ) :   0.9883 B(  7-C ,  9-C ) :   0.9867 B(  7-C , 17-H ) :   0.9473
B(  8-C , 18-H ) :   0.9829 B(  8-C , 19-H ) :   0.9764 B(  8-C , 20-H ) :   0.9760
B(  9-C , 21-H ) :   0.9826 B(  9-C , 22-H ) :   0.9762 B(  9-C , 23-H ) :   0.9766

FINAL SINGLE POINT ENERGY      -389.517130565934

DIPOLE MOMENT
-------------

Method             : SCF
Type of density    : Electron Density
Multiplicity       :   1
Irrep              :   0
Energy             :  -389.5321200082337327 Eh
Relativity type    :
Basis              : AO
                                X                 Y                 Z
Electronic contribution:     -4.796950211      -0.603588288      -1.136126613
Nuclear contribution   :      4.823067056       0.602093015       1.103709162
                        -----------------------------------------
Total Dipole Moment    :      0.026116845      -0.001495273      -0.032417452
                        -----------------------------------------
Magnitude (a.u.)       :      0.041655931
Magnitude (Debye)      :      0.105880963

Rotational constants in cm-1:             0.109659             0.025553             0.021333
Rotational constants in MHz :          3287.502582           766.061720           639.542019

                             ****ORCA TERMINATED NORMALLY****
TOTAL RUN TIME: 0 days 0 hours 5 minutes 5 seconds 377 msec
