                         Program Version 6.0.0  -   RELEASE  -
|  1> ! wb97x-v def2-tzvp def2/J RIJCOSX DEFGRID2 scfconv7 GCP(DFT/TZ) printgap
|  2> %output
|  3>     printlevel normal
|  4> end
|  5> %cpcm
|  6>     smd true
|  7>     smdsolvent "water"
|  8> end
|  9> * xyz 0 1
| 10> C -3.681431265237309 0.1752566183210451 0.10902429340291075
| 11> C -2.18600652990371 0.06467464002581863 0.013451856575312659
| 12> C -1.4904352815377184 -0.9926955672795845 0.6008297218971469
| 13> C -0.10147603961543444 -1.0796561355655085 0.5215635395779923
| 14> C 0.6556416068611312 -0.11357071387555387 -0.15094287667346193
| 15> C -0.04925987065865824 0.9443640615014695 -0.7429206816863951
| 16> C -1.4353788614124563 1.0308739977697334 -0.663154971136698
| 17> C 2.1725187793137586 -0.2256352504169713 -0.2677699208057874
| 18> C 2.8035939628471853 -0.9873109679484805 0.9028569182712106
| 19> C 2.8585364907370807 1.1367339041987055 -0.41866180002774994
| 20> H -3.9738744201343454 1.0695869559153357 0.6708731521859261
| 21> H -4.136642272191447 0.2584492696990177 -0.8836897124704893
| 22> H -4.111010081912887 -0.6952505389453061 0.6113178549735092
| 23> H -2.0417058035124267 -1.7632804247104117 1.1339292462422643
| 24> H 0.38785815657867756 -1.9226319298499062 0.9967802340961318
| 25> H 0.4842830595459549 1.72099485056084 -1.2797339733477897
| 26> H -1.9445024031525744 1.8686090928169383 -1.1339340584675057
| 27> H 2.3815971844071835 -0.8002675776141979 -1.1827756452206015
| 28> H 3.8920869726154854 -0.9999288043219409 0.790595220564643
| 29> H 2.470884730202605 -2.0269329299439742 0.9569633368548235
| 30> H 2.566317825955768 -0.5014855046802593 1.8564950908448408
| 31> H 3.944035487030762 1.001816293518258 -0.4514156105034264
| 32> H 2.6225871105615033 1.787411487786672 0.43143364531899964
| 33> H 2.5678199373369566 1.6543306609023998 -1.3361885599374859
| 34> *
| 35>
| 36>                          ****END OF INPUT****

CARTESIAN COORDINATES (ANGSTROEM)
---------------------------------
  C     -3.681431    0.175257    0.109024
  C     -2.186007    0.064675    0.013452
  C     -1.490435   -0.992696    0.600830
  C     -0.101476   -1.079656    0.521564
  C      0.655642   -0.113571   -0.150943
  C     -0.049260    0.944364   -0.742921
  C     -1.435379    1.030874   -0.663155
  C      2.172519   -0.225635   -0.267770
  C      2.803594   -0.987311    0.902857
  C      2.858536    1.136734   -0.418662
  H     -3.973874    1.069587    0.670873
  H     -4.136642    0.258449   -0.883690
  H     -4.111010   -0.695251    0.611318
  H     -2.041706   -1.763280    1.133929
  H      0.387858   -1.922632    0.996780
  H      0.484283    1.720995   -1.279734
  H     -1.944502    1.868609   -1.133934
  H      2.381597   -0.800268   -1.182776
  H      3.892087   -0.999929    0.790595
  H      2.470885   -2.026933    0.956963
  H      2.566318   -0.501486    1.856495
  H      3.944035    1.001816   -0.451416
  H      2.622587    1.787411    0.431434
  H      2.567820    1.654331   -1.336189

 Total Charge           Charge          ....    0
 Multiplicity           Mult            ....    1
 Number of Electrons    NEL             ....   74
 Basis Dimension        Dim             ....  394

ORBITAL ENERGIES
----------------

  NO   OCC          E(Eh)            E(eV)
   0   2.0000     -12.053047      -327.9801
   1   2.0000     -12.052174      -327.9563
   2   2.0000     -12.048910      -327.8675
   3   2.0000     -12.043069      -327.7086
   4   2.0000     -12.042327      -327.6884
   5   2.0000     -12.040823      -327.6475
   6   2.0000     -12.040476      -327.6380
   7   2.0000     -12.032674      -327.4257
   8   2.0000     -12.025418      -327.2283
   9   2.0000     -12.025116      -327.2201
  10   2.0000      -1.381923       -37.6040
  11   2.0000      -1.316005       -35.8103
  12   2.0000      -1.264653       -34.4130
  13   2.0000      -1.263381       -34.3783
  14   2.0000      -1.184104       -32.2211
  15   2.0000      -1.169011       -31.8104
  16   2.0000      -1.098102       -29.8809
  17   2.0000      -1.094637       -29.7866
  18   2.0000      -1.039604       -28.2891
  19   2.0000      -0.951148       -25.8820
  20   2.0000      -0.943650       -25.6780
  21   2.0000      -0.902173       -24.5494
  22   2.0000      -0.880018       -23.9465
  23   2.0000      -0.872271       -23.7357
  24   2.0000      -0.863500       -23.4970
  25   2.0000      -0.830767       -22.6063
  26   2.0000      -0.828989       -22.5579
  27   2.0000      -0.823136       -22.3987
  28   2.0000      -0.813950       -22.1487
  29   2.0000      -0.799945       -21.7676
  30   2.0000      -0.789541       -21.4845
  31   2.0000      -0.784694       -21.3526
  32   2.0000      -0.770222       -20.9588
  33   2.0000      -0.764925       -20.8147
  34   2.0000      -0.742348       -20.2003
  35   2.0000      -0.633414       -17.2361
  36   2.0000      -0.624459       -16.9924
  37   0.0000      -0.236430        -6.4336
  38   0.0000      -0.231618        -6.3026
  39   0.0000      -0.070517        -1.9189
  40   0.0000      -0.049027        -1.3341
  41   0.0000      -0.024189        -0.6582

MULLIKEN ATOMIC CHARGES
-----------------------
   0 C :   -0.396794
   1 C :    0.118571
   2 C :   -0.245685
   3 C :   -0.222508
   4 C :    0.054645
   5 C :   -0.220210
   6 C :   -0.238155
   7 C :    0.069874
   8 C :   -0.417216
   9 C :   -0.418457
  10 H :    0.139521
  11 H :    0.139942
  12 H :    0.140312
  13 H :    0.152923
  14 H :    0.153997
  15 H :    0.154608
  16 H :    0.152692
  17 H :    0.092474
  18 H :    0.132335
  19 H :    0.135164
  20 H :    0.126905
  21 H :    0.132585
  22 H :    0.127328
  23 H :    0.135149
Sum of atomic charges:   -0.0000000

LOEWDIN ATOMIC CHARGES
----------------------
   0 C :   -0.256119
   1 C :   -0.184229
   2 C :   -0.131154
   3 C :   -0.122603
   4 C :   -0.128774
   5 C :   -0.122111
   6 C :   -0.126051
   7 C :   -0.258302
   8 C :   -0.281401
   9 C :   -0.281426
  10 H :    0.131315
  11 H :    0.130832
  12 H :    0.128871
  13 H :    0.151449
  14 H :    0.153189
  15 H :    0.153280
  16 H :    0.152349
  17 H :    0.160375
  18 H :    0.122610
  19 H :    0.119636
  20 H :    0.122992
  21 H :    0.122626
  22 H :    0.123030
  23 H :    0.119616

  Mayer bond orders larger than 0.100000
B(  0-C ,  1-C ) :   0.9270 B(  0-C , 10-H ) :   0.9678 B(  0-C , 11-H ) :   0.9733
B(  0-C , 12-H ) :   0.9929 B(  1-C ,  2-C ) :   1.3938 B(  1-C ,  6-C ) :   1.3447
B(  2-C ,  3-C ) :   1.4410 B(  2-C , 13-H ) :   0.9787 B(  3-C ,  4-C ) :   1.3477
B(  3-C , 14-H ) :   0.9756 B(  4-C ,  5-C ) :   1.3273 B(  4-C ,  7-C ) :   0.9536
B(  5-C ,  6-C ) :   1.4600 B(  5-C , 15-H ) :   0.9764 B(  6-C , 16-H ) :   0.9890
B(  7-C ,  8-C ) :   0.9788 B(  7-C ,  9-C ) :   0.9774 B(  7-C , 17-H ) :   0.9378
B(  8-C , 18-H ) :   0.9797 B(  8-C , 19-H ) :   0.9733 B(  8-C , 20-H ) :   0.9751
B(  9-C , 21-H ) :   0.9794 B(  9-C , 22-H ) :   0.9753 B(  9-C , 23-H ) :   0.9735

FINAL SINGLE POINT ENERGY      -389.517658214719

DIPOLE MOMENT
-------------

Method             : SCF
Type of density    : Electron Density
Multiplicity       :   1
Irrep              :   0
Energy             :  -389.5326476570194245 Eh
Relativity type    :
Basis              : AO
                                X                 Y                 Z
Electronic contribution:     -4.782959993      -0.618682099      -1.173087923
Nuclear contribution   :      4.823067056       0.602093015       1.103709162
                        -----------------------------------------
Total Dipole Moment    :      0.040107063      -0.016589084      -0.069378762
                        -----------------------------------------
Magnitude (a.u.)       :      0.081836341
Magnitude (Debye)      :      0.208011449

Rotational constants in cm-1:             0.109659             0.025553             0.021333
Rotational constants in MHz :          3287.502582           766.061720           639.542019

                             ****ORCA TERMINATED NORMALLY****
TOTAL RUN TIME: 0 days 0 hours 4 minutes 53 seconds 171 msec
