                         Program Version 6.0.0  -   RELEASE  -
|  1> ! pbe def2-sv(p) def2/J RI DEFGRID1 loosescf d4 GCP(DFT/SV(P)) printgap
|  2> %output
|  3>     printlevel normal
|  4> end
|  5> * xyz 0 1
|  6> C -2.5439625361 -0.6970854325 -0.3721359606
|  7> C -1.1696429693 -0.3347418665 0.207833909
|  8> H -1.2277535022 -0.2970418361 1.3084943058
|  9> C -0.7052632938 1.0429695213 -0.3193457985
| 10> H -0.7027844615 1.0059252513 -1.4150170232
| 11> C 0.7220738619 1.3218591152 0.1891786746
| 12> H 0.704995642 1.3764057692 1.2864281304
| 13> C 1.6406384236 0.1588881922 -0.2356341442
| 14> H 1.6574218999 0.0868705509 -1.3292589243
| 15> C 1.0509291501 -1.1567525243 0.3318126663
| 16> H 1.0285928136 -1.1005907719 1.4345868343
| 17> O -0.253594895 -1.3438030251 -0.173054764
| 18> O 1.8054642868 -2.2674118834 0.0290288347
| 19> O 2.9761228036 0.3518718425 0.1369747425
| 20> O 1.2043361813 2.5754534387 -0.2118237265
| 21> O -1.6047183159 2.0638067413 0.0172603112
| 22> O -3.1905300354 -1.7381379564 0.3095147173
| 23> H -2.4004338875 -1.0544303012 -1.3931957497
| 24> H -3.1574024326 0.2116744108 -0.387853993
| 25> H 1.7406339067 -2.4627928392 -0.9186897397
| 26> H 3.0538026742 0.4271690039 1.0985814339
| 27> H 1.2959332236 2.6097115611 -1.1743050033
| 28> H -1.4696124344 2.3419532952 0.9350310525
| 29> H -3.4194469123 -1.4522377884 1.2053940669
| 30> *
| 31>
| 32>                          ****END OF INPUT****

CARTESIAN COORDINATES (ANGSTROEM)
---------------------------------
  C     -2.543963   -0.697085   -0.372136
  C     -1.169643   -0.334742    0.207834
  H     -1.227754   -0.297042    1.308494
  C     -0.705263    1.042970   -0.319346
  H     -0.702784    1.005925   -1.415017
  C      0.722074    1.321859    0.189179
  H      0.704996    1.376406    1.286428
  C      1.640638    0.158888   -0.235634
  H      1.657422    0.086871   -1.329259
  C      1.050929   -1.156753    0.331813
  H      1.028593   -1.100591    1.434587
  O     -0.253595   -1.343803   -0.173055
  O      1.805464   -2.267412    0.029029
  O      2.976123    0.351872    0.136975
  O      1.204336    2.575453   -0.211824
  O     -1.604718    2.063807    0.017260
  O     -3.190530   -1.738138    0.309515
  H     -2.400434   -1.054430   -1.393196
  H     -3.157402    0.211674   -0.387854
  H      1.740634   -2.462793   -0.918690
  H      3.053803    0.427169    1.098581
  H      1.295933    2.609712   -1.174305
  H     -1.469612    2.341953    0.935031
  H     -3.419447   -1.452238    1.205394

 Total Charge           Charge          ....    0
 Multiplicity           Mult            ....    1
 Number of Electrons    NEL             ....   96
 Basis Dimension        Dim             ....  192

ORBITAL ENERGIES
----------------

  NO   OCC          E(Eh)            E(eV)
   0   2.0000     -18.775066      -510.8955
   1   2.0000     -18.763643      -510.5847
   2   2.0000     -18.761224      -510.5188
   3   2.0000     -18.756097      -510.3794
   4   2.0000     -18.755675      -510.3679
   5   2.0000     -18.747313      -510.1403
   6   2.0000      -9.991106      -271.8718
   7   2.0000      -9.953598      -270.8512
   8   2.0000      -9.951908      -270.8052
   9   2.0000      -9.949735      -270.7461
  10   2.0000      -9.947212      -270.6774
  11   2.0000      -9.931488      -270.2495
  12   2.0000      -0.986891       -26.8547
  13   2.0000      -0.951705       -25.8972
  14   2.0000      -0.939785       -25.5729
  15   2.0000      -0.926156       -25.2020
  16   2.0000      -0.921985       -25.0885
  17   2.0000      -0.914825       -24.8937
  18   2.0000      -0.709458       -19.3053
  19   2.0000      -0.694200       -18.8901
  20   2.0000      -0.617458       -16.8019
  21   2.0000      -0.591121       -16.0852
  22   2.0000      -0.575491       -15.6599
  23   2.0000      -0.559064       -15.2129
  24   2.0000      -0.507838       -13.8190
  25   2.0000      -0.492507       -13.4018
  26   2.0000      -0.469144       -12.7661
  27   2.0000      -0.466909       -12.7052
  28   2.0000      -0.447468       -12.1762
  29   2.0000      -0.435997       -11.8641
  30   2.0000      -0.423048       -11.5117
  31   2.0000      -0.415737       -11.3128
  32   2.0000      -0.389815       -10.6074
  33   2.0000      -0.379061       -10.3148
  34   2.0000      -0.359563        -9.7842
  35   2.0000      -0.352824        -9.6008
  36   2.0000      -0.325742        -8.8639
  37   2.0000      -0.314317        -8.5530
  38   2.0000      -0.310951        -8.4614
  39   2.0000      -0.293337        -7.9821
  40   2.0000      -0.288337        -7.8460
  41   2.0000      -0.276740        -7.5305
  42   2.0000      -0.264379        -7.1941
  43   2.0000      -0.248791        -6.7699
  44   2.0000      -0.242793        -6.6067
  45   2.0000      -0.225114        -6.1257
  46   2.0000      -0.206375        -5.6158
  47   2.0000      -0.203996        -5.5510
  48   0.0000       0.005922         0.1611
  49   0.0000       0.018170         0.4944
  50   0.0000       0.022418         0.6100
  51   0.0000       0.031472         0.8564
  52   0.0000       0.043437         1.1820

MULLIKEN ATOMIC CHARGES
-----------------------
   0 C :    0.091496
   1 C :    0.002004
   2 H :    0.023098
   3 C :    0.035025
   4 H :    0.055516
   5 C :    0.055364
   6 H :    0.033135
   7 C :    0.047138
   8 H :    0.041403
   9 C :    0.178651
  10 H :    0.036513
  11 O :   -0.292723
  12 O :   -0.363850
  13 O :   -0.393360
  14 O :   -0.394595
  15 O :   -0.398943
  16 O :   -0.427908
  17 H :    0.085026
  18 H :    0.086581
  19 H :    0.305160
  20 H :    0.298643
  21 H :    0.301615
  22 H :    0.301954
  23 H :    0.293053
Sum of atomic charges:   -0.0000000

LOEWDIN ATOMIC CHARGES
----------------------
   0 C :   -0.129821
   1 C :   -0.077599
   2 H :    0.090412
   3 C :   -0.083005
   4 H :    0.113895
   5 C :   -0.091399
   6 H :    0.102685
   7 C :   -0.103251
   8 H :    0.109616
   9 C :   -0.006472
  10 H :    0.090066
  11 O :   -0.149471
  12 O :   -0.281847
  13 O :   -0.302335
  14 O :   -0.307134
  15 O :   -0.303338
  16 O :   -0.330440
  17 H :    0.119817
  18 H :    0.104017
  19 H :    0.291010
  20 H :    0.287032
  21 H :    0.289037
  22 H :    0.287258
  23 H :    0.281268

  Mayer bond orders larger than 0.100000
B(  0-C ,  1-C ) :   1.0270 B(  0-C , 16-O ) :   1.0892 B(  0-C , 17-H ) :   0.9049
B(  0-C , 18-H ) :   0.9152 B(  1-C ,  2-H ) :   0.8695 B(  1-C ,  3-C ) :   0.9509
B(  1-C , 11-O ) :   0.9980 B(  3-C ,  4-H ) :   0.8692 B(  3-C ,  5-C ) :   0.9927
B(  3-C , 15-O ) :   1.0467 B(  5-C ,  6-H ) :   0.8619 B(  5-C ,  7-C ) :   0.9789
B(  5-C , 14-O ) :   1.0927 B(  7-C ,  8-H ) :   0.8570 B(  7-C ,  9-C ) :   0.9466
B(  7-C , 13-O ) :   1.0774 B(  9-C , 10-H ) :   0.8775 B(  9-C , 11-O ) :   1.0055
B(  9-C , 12-O ) :   1.1698 B( 12-O , 19-H ) :   0.8424 B( 13-O , 20-H ) :   0.8487
B( 14-O , 21-H ) :   0.8495 B( 15-O , 22-H ) :   0.8459 B( 16-O , 23-H ) :   0.8543

Dispersion correction           -0.023568440
FINAL SINGLE POINT ENERGY      -685.686598299084

DIPOLE MOMENT
-------------

Method             : SCF
Type of density    : Electron Density
Multiplicity       :   1
Irrep              :   0
Energy             :  -685.8147970843751864 Eh
Relativity type    :
Basis              : AO
                                X                 Y                 Z
Electronic contribution:      2.554917479      -1.002152330      -0.175296727
Nuclear contribution   :     -2.703108462       1.582655180       0.611592372
                        -----------------------------------------
Total Dipole Moment    :     -0.148190983       0.580502850       0.436295644
                        -----------------------------------------
Magnitude (a.u.)       :      0.741146420
Magnitude (Debye)      :      1.883844488

Rotational constants in cm-1:             0.039395             0.025256             0.016135
Rotational constants in MHz :          1181.044888           757.158841           483.706361

                             ****ORCA TERMINATED NORMALLY****
TOTAL RUN TIME: 0 days 0 hours 0 minutes 11 seconds 658 msec
