                         Program Version 6.0.0  -   RELEASE  -
|  1> ! r2scan-3c def2/J RI DEFGRID2 scfconv6 printgap
|  2> %output
|  3>     printlevel normal
|  4> end
|  5> * xyz 0 1
|  6> C 3.7094966315 -0.151504094 0.0824689758
|  7> C 2.2255875127 -0.1787778287 -0.0277694967
|  8> C 1.4659206826 0.9013252412 0.2094889186
|  9> C 0.0190382061 0.9374852398 0.0668174464
| 10> O -0.607396558 1.9664201112 0.3028479046
| 11> C -0.6281000495 -0.3368060083 -0.4484943753
| 12> H -0.504654936 -0.2878298929 -1.5403980179
| 13> C 0.1560880345 -1.551545821 0.0541787715
| 14> C 1.6023548456 -1.4788566921 -0.4205907801
| 15> C -2.1391430713 -0.4577520791 -0.1655317894
| 16> C -2.4727259405 -0.2632901173 1.3123896091
| 17> C -2.941731335 0.5193739341 -1.0240407994
| 18> H 4.1566380012 -0.5501009214 -0.8261325725
| 19> H 4.0270954761 -0.7873268502 0.9077933537
| 20> H 4.076924427 0.8558754701 0.2535065868
| 21> H 1.9139389955 1.8389740588 0.5102253537
| 22> H 0.1365704898 -1.5713930829 1.1454420692
| 23> H -0.3145226224 -2.4653809926 -0.3109596571
| 24> H 2.1823332792 -2.3083703346 -0.0139773669
| 25> H 1.6338656928 -1.5607803554 -1.5120132947
| 26> H -2.4335196408 -1.4760215452 -0.4491967149
| 27> H -2.2043293593 0.7413634367 1.6304873071
| 28> H -1.9411805812 -0.9800796175 1.9329963669
| 29> H -3.5396764223 -0.3978763596 1.472635382
| 30> H -4.0059559889 0.3980044255 -0.8367418233
| 31> H -2.7563599583 0.3460022474 -2.0821514771
| 32> H -2.6639069566 1.5428712675 -0.7859411428
| 33> *
| 34>
| 35>                          ****END OF INPUT****

CARTESIAN COORDINATES (ANGSTROEM)
---------------------------------
  C      3.709497   -0.151504    0.082469
  C      2.225588   -0.178778   -0.027769
  C      1.465921    0.901325    0.209489
  C      0.019038    0.937485    0.066817
  O     -0.607397    1.966420    0.302848
  C     -0.628100   -0.336806   -0.448494
  H     -0.504655   -0.287830   -1.540398
  C      0.156088   -1.551546    0.054179
  C      1.602355   -1.478857   -0.420591
  C     -2.139143   -0.457752   -0.165532
  C     -2.472726   -0.263290    1.312390
  C     -2.941731    0.519374   -1.024041
  H      4.156638   -0.550101   -0.826133
  H      4.027095   -0.787327    0.907793
  H      4.076924    0.855875    0.253507
  H      1.913939    1.838974    0.510225
  H      0.136570   -1.571393    1.145442
  H     -0.314523   -2.465381   -0.310960
  H      2.182333   -2.308370   -0.013977
  H      1.633866   -1.560780   -1.512013
  H     -2.433520   -1.476022   -0.449197
  H     -2.204329    0.741363    1.630487
  H     -1.941181   -0.980080    1.932996
  H     -3.539676   -0.397876    1.472635
  H     -4.005956    0.398004   -0.836742
  H     -2.756360    0.346002   -2.082151
  H     -2.663907    1.542871   -0.785941

 Total Charge           Charge          ....    0
 Multiplicity           Mult            ....    1
 Number of Electrons    NEL             ....   84
 Basis Dimension        Dim             ....  294

ORBITAL ENERGIES
----------------

  NO   OCC          E(Eh)            E(eV)
   0   2.0000     -18.923560      -514.9363
   1   2.0000     -10.106543      -275.0130
   2   2.0000     -10.069521      -274.0056
   3   2.0000     -10.048972      -273.4464
   4   2.0000     -10.042843      -273.2797
   5   2.0000     -10.040094      -273.2048
   6   2.0000     -10.039598      -273.1914
   7   2.0000     -10.032707      -273.0038
   8   2.0000     -10.030154      -272.9344
   9   2.0000     -10.005290      -272.2578
  10   2.0000     -10.001687      -272.1597
  11   2.0000      -0.988085       -26.8872
  12   2.0000      -0.826207       -22.4822
  13   2.0000      -0.776856       -21.1393
  14   2.0000      -0.728354       -19.8195
  15   2.0000      -0.701001       -19.0752
  16   2.0000      -0.662510       -18.0278
  17   2.0000      -0.640856       -17.4386
  18   2.0000      -0.588600       -16.0166
  19   2.0000      -0.558321       -15.1927
  20   2.0000      -0.526202       -14.3187
  21   2.0000      -0.484305       -13.1786
  22   2.0000      -0.453273       -12.3342
  23   2.0000      -0.437323       -11.9002
  24   2.0000      -0.421681       -11.4745
  25   2.0000      -0.415817       -11.3150
  26   2.0000      -0.398596       -10.8464
  27   2.0000      -0.395351       -10.7581
  28   2.0000      -0.388168       -10.5626
  29   2.0000      -0.376618       -10.2483
  30   2.0000      -0.363655        -9.8956
  31   2.0000      -0.361169        -9.8279
  32   2.0000      -0.348838        -9.4924
  33   2.0000      -0.339107        -9.2276
  34   2.0000      -0.333327        -9.0703
  35   2.0000      -0.315034        -8.5725
  36   2.0000      -0.311507        -8.4765
  37   2.0000      -0.294827        -8.0226
  38   2.0000      -0.287277        -7.8172
  39   2.0000      -0.279461        -7.6045
  40   2.0000      -0.242424        -6.5967
  41   2.0000      -0.201290        -5.4774
  42   0.0000      -0.077245        -2.1019
  43   0.0000       0.028147         0.7659
  44   0.0000       0.073779         2.0076
  45   0.0000       0.086539         2.3549
  46   0.0000       0.102768         2.7965

MULLIKEN ATOMIC CHARGES
-----------------------
   0 C :   -0.512003
   1 C :    0.196222
   2 C :   -0.301128
   3 C :    0.220435
   4 O :   -0.371696
   5 C :   -0.134702
   6 H :    0.173199
   7 C :   -0.359346
   8 C :   -0.321251
   9 C :    0.110620
  10 C :   -0.576507
  11 C :   -0.566894
  12 H :    0.158173
  13 H :    0.168200
  14 H :    0.160562
  15 H :    0.165884
  16 H :    0.173944
  17 H :    0.157255
  18 H :    0.159544
  19 H :    0.183340
  20 H :    0.147283
  21 H :    0.194842
  22 H :    0.145493
  23 H :    0.145064
  24 H :    0.143012
  25 H :    0.137828
  26 H :    0.202628
Sum of atomic charges:    0.0000000

LOEWDIN ATOMIC CHARGES
----------------------
   0 C :   -0.385104
   1 C :   -0.064641
   2 C :   -0.165020
   3 C :    0.235482
   4 O :   -0.498327
   5 C :   -0.190410
   6 H :    0.187005
   7 C :   -0.270338
   8 C :   -0.277417
   9 C :   -0.221090
  10 C :   -0.407569
  11 C :   -0.410554
  12 H :    0.167719
  13 H :    0.169500
  14 H :    0.163630
  15 H :    0.182977
  16 H :    0.166802
  17 H :    0.161007
  18 H :    0.166310
  19 H :    0.176376
  20 H :    0.156191
  21 H :    0.175560
  22 H :    0.149870
  23 H :    0.153427
  24 H :    0.150807
  25 H :    0.149373
  26 H :    0.178433

  Mayer bond orders larger than 0.100000
B(  0-C ,  1-C ) :   0.8374 B(  0-C , 12-H ) :   0.9630 B(  0-C , 13-H ) :   0.9656
B(  0-C , 14-H ) :   0.9930 B(  1-C ,  2-C ) :   1.6576 B(  1-C ,  8-C ) :   0.8615
B(  2-C ,  3-C ) :   1.1128 B(  2-C , 15-H ) :   0.9553 B(  3-C ,  4-O ) :   1.8955
B(  3-C ,  5-C ) :   0.9162 B(  5-C ,  6-H ) :   0.9481 B(  5-C ,  7-C ) :   0.8494
B(  5-C ,  9-C ) :   0.8777 B(  7-C ,  8-C ) :   0.9015 B(  7-C , 16-H ) :   0.9905
B(  7-C , 17-H ) :   0.9795 B(  8-C , 18-H ) :   0.9710 B(  8-C , 19-H ) :   0.9868
B(  9-C , 10-C ) :   0.8449 B(  9-C , 11-C ) :   0.8773 B(  9-C , 20-H ) :   0.9951
B( 10-C , 21-H ) :   0.9745 B( 10-C , 22-H ) :   0.9809 B( 10-C , 23-H ) :   0.9702
B( 11-C , 24-H ) :   0.9777 B( 11-C , 25-H ) :   0.9780 B( 11-C , 26-H ) :   0.9761

Dispersion correction           -0.009557964
FINAL SINGLE POINT ENERGY      -465.792689107191

DIPOLE MOMENT
-------------

Method             : SCF
Type of density    : Electron Density
Multiplicity       :   1
Irrep              :   0
Energy             :  -465.7947782712184335 Eh
Relativity type    :
Basis              : AO
                                X                 Y                 Z
Electronic contribution:      3.162119006       4.942278492       0.168287506
Nuclear contribution   :     -2.107441687      -6.220970703      -0.468744404
                        -----------------------------------------
Total Dipole Moment    :      1.054677319      -1.278692211      -0.300456898
                        -----------------------------------------
Magnitude (a.u.)       :      1.684539215
Magnitude (Debye)      :      4.281758407

Rotational constants in cm-1:             0.072685             0.023683             0.020550
Rotational constants in MHz :          2179.046573           710.012645           616.081720

                             ****ORCA TERMINATED NORMALLY****
TOTAL RUN TIME: 0 days 0 hours 0 minutes 39 seconds 947 msec
