                         Program Version 6.0.0  -   RELEASE  -
|  1> ! r2scan-3c def2/J RI DEFGRID2 scfconv6 printgap
|  2> %output
|  3>     printlevel normal
|  4> end
|  5> %cpcm
|  6>     smd true
|  7>     smdsolvent "water"
|  8> end
|  9> * xyz 0 1
| 10> C 3.7094966315 -0.151504094 0.0824689758
| 11> C 2.2255875127 -0.1787778287 -0.0277694967
| 12> C 1.4659206826 0.9013252412 0.2094889186
| 13> C 0.0190382061 0.9374852398 0.0668174464
| 14> O -0.607396558 1.9664201112 0.3028479046
| 15> C -0.6281000495 -0.3368060083 -0.4484943753
| 16> H -0.504654936 -0.2878298929 -1.5403980179
| 17> C 0.1560880345 -1.551545821 0.0541787715
| 18> C 1.6023548456 -1.4788566921 -0.4205907801
| 19> C -2.1391430713 -0.4577520791 -0.1655317894
| 20> C -2.4727259405 -0.2632901173 1.3123896091
| 21> C -2.941731335 0.5193739341 -1.0240407994
| 22> H 4.1566380012 -0.5501009214 -0.8261325725
| 23> H 4.0270954761 -0.7873268502 0.9077933537
| 24> H 4.076924427 0.8558754701 0.2535065868
| 25> H 1.9139389955 1.8389740588 0.5102253537
| 26> H 0.1365704898 -1.5713930829 1.1454420692
| 27> H -0.3145226224 -2.4653809926 -0.3109596571
| 28> H 2.1823332792 -2.3083703346 -0.0139773669
| 29> H 1.6338656928 -1.5607803554 -1.5120132947
| 30> H -2.4335196408 -1.4760215452 -0.4491967149
| 31> H -2.2043293593 0.7413634367 1.6304873071
| 32> H -1.9411805812 -0.9800796175 1.9329963669
| 33> H -3.5396764223 -0.3978763596 1.472635382
| 34> H -4.0059559889 0.3980044255 -0.8367418233
| 35> H -2.7563599583 0.3460022474 -2.0821514771
| 36> H -2.6639069566 1.5428712675 -0.7859411428
| 37> *
| 38>
| 39>                          ****END OF INPUT****

CARTESIAN COORDINATES (ANGSTROEM)
---------------------------------
  C      3.709497   -0.151504    0.082469
  C      2.225588   -0.178778   -0.027769
  C      1.465921    0.901325    0.209489
  C      0.019038    0.937485    0.066817
  O     -0.607397    1.966420    0.302848
  C     -0.628100   -0.336806   -0.448494
  H     -0.504655   -0.287830   -1.540398
  C      0.156088   -1.551546    0.054179
  C      1.602355   -1.478857   -0.420591
  C     -2.139143   -0.457752   -0.165532
  C     -2.472726   -0.263290    1.312390
  C     -2.941731    0.519374   -1.024041
  H      4.156638   -0.550101   -0.826133
  H      4.027095   -0.787327    0.907793
  H      4.076924    0.855875    0.253507
  H      1.913939    1.838974    0.510225
  H      0.136570   -1.571393    1.145442
  H     -0.314523   -2.465381   -0.310960
  H      2.182333   -2.308370   -0.013977
  H      1.633866   -1.560780   -1.512013
  H     -2.433520   -1.476022   -0.449197
  H     -2.204329    0.741363    1.630487
  H     -1.941181   -0.980080    1.932996
  H     -3.539676   -0.397876    1.472635
  H     -4.005956    0.398004   -0.836742
  H     -2.756360    0.346002   -2.082151
  H     -2.663907    1.542871   -0.785941

 Total Charge           Charge          ....    0
 Multiplicity           Mult            ....    1
 Number of Electrons    NEL             ....   84
 Basis Dimension        Dim             ....  294

ORBITAL ENERGIES
----------------

  NO   OCC          E(Eh)            E(eV)
   0   2.0000     -18.934941      -515.2459
   1   2.0000     -10.113367      -275.1987
   2   2.0000     -10.064040      -273.8565
   3   2.0000     -10.032792      -273.0061
   4   2.0000     -10.030727      -272.9500
   5   2.0000     -10.029116      -272.9061
   6   2.0000     -10.025393      -272.8048
   7   2.0000     -10.023399      -272.7506
   8   2.0000     -10.023363      -272.7496
   9   2.0000     -10.004675      -272.2411
  10   2.0000     -10.003278      -272.2030
  11   2.0000      -1.001586       -27.2545
  12   2.0000      -0.816296       -22.2125
  13   2.0000      -0.771066       -20.9818
  14   2.0000      -0.718622       -19.5547
  15   2.0000      -0.693278       -18.8651
  16   2.0000      -0.651163       -17.7190
  17   2.0000      -0.641282       -17.4502
  18   2.0000      -0.577662       -15.7190
  19   2.0000      -0.554520       -15.0893
  20   2.0000      -0.522324       -14.2132
  21   2.0000      -0.474790       -12.9197
  22   2.0000      -0.446662       -12.1543
  23   2.0000      -0.428835       -11.6692
  24   2.0000      -0.420677       -11.4472
  25   2.0000      -0.407876       -11.0989
  26   2.0000      -0.393760       -10.7148
  27   2.0000      -0.386715       -10.5230
  28   2.0000      -0.383118       -10.4252
  29   2.0000      -0.369543       -10.0558
  30   2.0000      -0.363814        -9.8999
  31   2.0000      -0.352090        -9.5809
  32   2.0000      -0.340900        -9.2764
  33   2.0000      -0.335611        -9.1324
  34   2.0000      -0.328376        -8.9356
  35   2.0000      -0.312105        -8.4928
  36   2.0000      -0.303080        -8.2472
  37   2.0000      -0.294334        -8.0092
  38   2.0000      -0.283845        -7.7238
  39   2.0000      -0.272666        -7.4196
  40   2.0000      -0.238776        -6.4974
  41   2.0000      -0.212120        -5.7721
  42   0.0000      -0.076802        -2.0899
  43   0.0000       0.031959         0.8696
  44   0.0000       0.088577         2.4103
  45   0.0000       0.091484         2.4894
  46   0.0000       0.112621         3.0646

MULLIKEN ATOMIC CHARGES
-----------------------
   0 C :   -0.547341
   1 C :    0.216366
   2 C :   -0.380359
   3 C :    0.251930
   4 O :   -0.470563
   5 C :   -0.106755
   6 H :    0.202016
   7 C :   -0.378352
   8 C :   -0.329215
   9 C :    0.106509
  10 C :   -0.607042
  11 C :   -0.604263
  12 H :    0.181888
  13 H :    0.191587
  14 H :    0.174957
  15 H :    0.183307
  16 H :    0.187507
  17 H :    0.171331
  18 H :    0.181339
  19 H :    0.207796
  20 H :    0.165971
  21 H :    0.176557
  22 H :    0.166850
  23 H :    0.159586
  24 H :    0.158278
  25 H :    0.159249
  26 H :    0.180868
Sum of atomic charges:    0.0000000

LOEWDIN ATOMIC CHARGES
----------------------
   0 C :   -0.387194
   1 C :   -0.033468
   2 C :   -0.192599
   3 C :    0.240532
   4 O :   -0.581678
   5 C :   -0.186216
   6 H :    0.198611
   7 C :   -0.267640
   8 C :   -0.273151
   9 C :   -0.219851
  10 C :   -0.415095
  11 C :   -0.419125
  12 H :    0.178420
  13 H :    0.180630
  14 H :    0.167495
  15 H :    0.186499
  16 H :    0.169985
  17 H :    0.167414
  18 H :    0.176306
  19 H :    0.187812
  20 H :    0.163857
  21 H :    0.167085
  22 H :    0.157267
  23 H :    0.156299
  24 H :    0.154181
  25 H :    0.155806
  26 H :    0.167820

  Mayer bond orders larger than 0.100000
B(  0-C ,  1-C ) :   0.8415 B(  0-C , 12-H ) :   0.9533 B(  0-C , 13-H ) :   0.9529
B(  0-C , 14-H ) :   0.9899 B(  1-C ,  2-C ) :   1.6421 B(  1-C ,  8-C ) :   0.8712
B(  2-C ,  3-C ) :   1.0935 B(  2-C , 15-H ) :   0.9579 B(  3-C ,  4-O ) :   1.8242
B(  3-C ,  5-C ) :   0.9219 B(  5-C ,  6-H ) :   0.9320 B(  5-C ,  7-C ) :   0.8469
B(  5-C ,  9-C ) :   0.8675 B(  7-C ,  8-C ) :   0.8849 B(  7-C , 16-H ) :   0.9920
B(  7-C , 17-H ) :   0.9712 B(  8-C , 18-H ) :   0.9662 B(  8-C , 19-H ) :   0.9792
B(  9-C , 10-C ) :   0.8493 B(  9-C , 11-C ) :   0.8669 B(  9-C , 20-H ) :   0.9881
B( 10-C , 21-H ) :   0.9776 B( 10-C , 22-H ) :   0.9743 B( 10-C , 23-H ) :   0.9701
B( 11-C , 24-H ) :   0.9762 B( 11-C , 25-H ) :   0.9753 B( 11-C , 26-H ) :   0.9825

Dispersion correction           -0.009557964
FINAL SINGLE POINT ENERGY      -465.799700042896

DIPOLE MOMENT
-------------

Method             : SCF
Type of density    : Electron Density
Multiplicity       :   1
Irrep              :   0
Energy             :  -465.8017892069237860 Eh
Relativity type    :
Basis              : AO
                                X                 Y                 Z
Electronic contribution:      3.682703588       4.093686134      -0.061402965
Nuclear contribution   :     -2.107441687      -6.220970703      -0.468744404
                        -----------------------------------------
Total Dipole Moment    :      1.575261901      -2.127284569      -0.530147369
                        -----------------------------------------
Magnitude (a.u.)       :      2.699601068
Magnitude (Debye)      :      6.861840596

Rotational constants in cm-1:             0.072685             0.023683             0.020550
Rotational constants in MHz :          2179.046573           710.012645           616.081720

                             ****ORCA TERMINATED NORMALLY****
TOTAL RUN TIME: 0 days 0 hours 0 minutes 51 seconds 15 msec
