                         Program Version 6.0.0  -   RELEASE  -
|  1> ! wb97x-v def2-tzvp def2/J RIJCOSX DEFGRID2 scfconv7 GCP(DFT/TZ) printgap
|  2> %output
|  3>     printlevel normal
|  4> end
|  5> * xyz 0 1
|  6> C 4.48912466707113 -0.3066999662997696 -0.022522709522978347
|  7> C 3.6665677404708963 -1.0869592376809731 0.7878202739427407
|  8> C 2.2956345876037796 -0.8555004085217787 0.8266176440689316
|  9> C 1.7585146185203384 0.15939513489642548 0.040062061251001896
| 10> C 2.5670580639252574 0.9451827493555653 -0.7744987018253889
| 11> C 3.9385938284780186 0.7099495045249666 -0.7987733471184238
| 12> N 0.3458575883672914 0.42712698000330035 0.08703703866609347
| 13> C -0.5693068427943733 -0.592762006714294 -0.26184247218666207
| 14> O -0.16256486878018012 -1.7104474523227375 -0.61776157998083
| 15> C -1.9332022930036412 -0.19077523886989586 -0.17083384976803315
| 16> C -2.311919639527753 1.09414375259915 0.17776175901229374
| 17> C -1.2422867422397232 2.0046531493583406 0.453399063902369
| 18> N 0.016685588373971848 1.685073928524037 0.4102069896916812
| 19> N -3.5803822641114467 1.5237473873902578 0.26789048762065043
| 20> Cl -3.145381953386931 -1.3801119841974698 -0.5586312696580479
| 21> H 5.558397284691171 -0.4898135713997601 -0.046866439446305065
| 22> H 4.092986345337717 -1.8744894245368153 1.4005635346082346
| 23> H 1.6494497307897014 -1.4483670708039276 1.4640612840037026
| 24> H 2.1264609845896145 1.7284400098603185 -1.381740028276849
| 25> H 4.574925463297911 1.320258785099279 -1.4311758073222953
| 26> H -1.4672044238988349 3.032194768359291 0.7244788747159662
| 27> H -3.7681425218566043 2.4844878112321496 0.5057380747909853
| 28> H -4.355464983288393 0.9158929283240863 0.05703966651715504
| 29> *
| 30>
| 31>                          ****END OF INPUT****

CARTESIAN COORDINATES (ANGSTROEM)
---------------------------------
  C      4.489125   -0.306700   -0.022523
  C      3.666568   -1.086959    0.787820
  C      2.295635   -0.855500    0.826618
  C      1.758515    0.159395    0.040062
  C      2.567058    0.945183   -0.774499
  C      3.938594    0.709950   -0.798773
  N      0.345858    0.427127    0.087037
  C     -0.569307   -0.592762   -0.261842
  O     -0.162565   -1.710447   -0.617762
  C     -1.933202   -0.190775   -0.170834
  C     -2.311920    1.094144    0.177762
  C     -1.242287    2.004653    0.453399
  N      0.016686    1.685074    0.410207
  N     -3.580382    1.523747    0.267890
  Cl    -3.145382   -1.380112   -0.558631
  H      5.558397   -0.489814   -0.046866
  H      4.092986   -1.874489    1.400564
  H      1.649450   -1.448367    1.464061
  H      2.126461    1.728440   -1.381740
  H      4.574925    1.320259   -1.431176
  H     -1.467204    3.032195    0.724479
  H     -3.768143    2.484488    0.505738
  H     -4.355465    0.915893    0.057040

 Total Charge           Charge          ....    0
 Multiplicity           Mult            ....    1
 Number of Electrons    NEL             ....  114
 Basis Dimension        Dim             ....  519

ORBITAL ENERGIES
----------------

  NO   OCC          E(Eh)            E(eV)
   0   2.0000    -107.152191     -2915.7593
   1   2.0000     -21.628868      -588.5514
   2   2.0000     -16.619502      -452.2396
   3   2.0000     -16.597167      -451.6319
   4   2.0000     -16.576679      -451.0744
   5   2.0000     -12.161231      -330.9239
   6   2.0000     -12.143355      -330.4375
   7   2.0000     -12.115803      -329.6878
   8   2.0000     -12.108986      -329.5023
   9   2.0000     -12.096611      -329.1655
  10   2.0000     -12.058544      -328.1297
  11   2.0000     -12.057019      -328.0882
  12   2.0000     -12.056303      -328.0687
  13   2.0000     -12.054973      -328.0325
  14   2.0000     -12.053337      -327.9880
  15   2.0000     -11.304855      -307.6207
  16   2.0000      -9.096547      -247.5296
  17   2.0000      -9.093757      -247.4537
  18   2.0000      -9.093706      -247.4523
  19   2.0000      -1.688145       -45.9368
  20   2.0000      -1.651276       -44.9335
  21   2.0000      -1.549183       -42.1554
  22   2.0000      -1.458502       -39.6878
  23   2.0000      -1.432318       -38.9753
  24   2.0000      -1.384355       -37.6702
  25   2.0000      -1.337864       -36.4051
  26   2.0000      -1.288762       -35.0690
  27   2.0000      -1.281183       -34.8628
  28   2.0000      -1.223446       -33.2917
  29   2.0000      -1.208633       -32.8886
  30   2.0000      -1.137290       -30.9472
  31   2.0000      -1.119277       -30.4571
  32   2.0000      -1.103230       -30.0204
  33   2.0000      -1.079379       -29.3714
  34   2.0000      -1.049066       -28.5465
  35   2.0000      -1.025826       -27.9142
  36   2.0000      -1.007000       -27.4019
  37   2.0000      -0.975401       -26.5420
  38   2.0000      -0.961963       -26.1764
  39   2.0000      -0.948144       -25.8003
  40   2.0000      -0.936262       -25.4770
  41   2.0000      -0.923314       -25.1246
  42   2.0000      -0.901467       -24.5302
  43   2.0000      -0.881461       -23.9858
  44   2.0000      -0.879235       -23.9252
  45   2.0000      -0.868381       -23.6298
  46   2.0000      -0.864748       -23.5310
  47   2.0000      -0.835707       -22.7407
  48   2.0000      -0.821946       -22.3663
  49   2.0000      -0.815238       -22.1838
  50   2.0000      -0.813775       -22.1440
  51   2.0000      -0.799578       -21.7576
  52   2.0000      -0.782508       -21.2931
  53   2.0000      -0.733714       -19.9654
  54   2.0000      -0.681781       -18.5522
  55   2.0000      -0.648125       -17.6364
  56   2.0000      -0.643243       -17.5035
  57   0.0000      -0.368901       -10.0383
  58   0.0000      -0.296044        -8.0558
  59   0.0000      -0.278501        -7.5784
  60   0.0000      -0.250959        -6.8289
  61   0.0000      -0.240148        -6.5348

MULLIKEN ATOMIC CHARGES
-----------------------
   0 C :   -0.129485
   1 C :   -0.079467
   2 C :   -0.215690
   3 C :    0.278452
   4 C :   -0.250754
   5 C :   -0.077718
   6 N :    0.100599
   7 C :    0.187579
   8 O :   -0.380100
   9 C :   -0.062824
  10 C :    0.243254
  11 C :   -0.170842
  12 N :   -0.154031
  13 N :   -0.431810
  14 Cl:   -0.081403
  15 H :    0.119487
  16 H :    0.120324
  17 H :    0.128380
  18 H :    0.121038
  19 H :    0.118912
  20 H :    0.120571
  21 H :    0.244058
  22 H :    0.251471
Sum of atomic charges:    0.0000000

LOEWDIN ATOMIC CHARGES
----------------------
   0 C :   -0.134922
   1 C :   -0.130300
   2 C :   -0.086561
   3 C :   -0.157580
   4 C :   -0.099252
   5 C :   -0.134309
   6 N :    0.227429
   7 C :   -0.412038
   8 O :    0.045108
   9 C :   -0.406397
  10 C :   -0.266312
  11 C :   -0.220957
  12 N :    0.129682
  13 N :    0.023703
  14 Cl:    0.408595
  15 H :    0.142366
  16 H :    0.143898
  17 H :    0.152838
  18 H :    0.148273
  19 H :    0.143015
  20 H :    0.141250
  21 H :    0.173582
  22 H :    0.168890

  Mayer bond orders larger than 0.100000
B(  0-C ,  1-C ) :   1.4109 B(  0-C ,  5-C ) :   1.4241 B(  0-C , 15-H ) :   0.9708
B(  1-C ,  2-C ) :   1.4520 B(  1-C , 16-H ) :   0.9727 B(  2-C ,  3-C ) :   1.4191
B(  2-C , 17-H ) :   0.9598 B(  3-C ,  4-C ) :   1.4287 B(  3-C ,  6-N ) :   0.8591
B(  4-C ,  5-C ) :   1.4390 B(  4-C , 18-H ) :   0.9654 B(  5-C , 19-H ) :   0.9726
B(  6-N ,  7-C ) :   1.1205 B(  6-N , 12-N ) :   1.0112 B(  7-C ,  8-O ) :   2.0924
B(  7-C ,  9-C ) :   1.1235 B(  9-C , 10-C ) :   1.4501 B(  9-C , 14-Cl) :   1.0817
B( 10-C , 11-C ) :   1.0727 B( 10-C , 13-N ) :   1.2382 B( 11-C , 12-N ) :   1.7991
B( 11-C , 20-H ) :   1.0011 B( 13-N , 21-H ) :   0.9164 B( 13-N , 22-H ) :   0.9009

FINAL SINGLE POINT ENERGY     -1085.525075607399

DIPOLE MOMENT
-------------

Method             : SCF
Type of density    : Electron Density
Multiplicity       :   1
Irrep              :   0
Energy             : -1085.5376602701994670 Eh
Relativity type    :
Basis              : AO
                                X                 Y                 Z
Electronic contribution:    -12.972380162      -5.245031099      -1.831746392
Nuclear contribution   :     12.055652406       7.083209231       2.364568194
                        -----------------------------------------
Total Dipole Moment    :     -0.916727756       1.838178132       0.532821802
                        -----------------------------------------
Magnitude (a.u.)       :      2.122071558
Magnitude (Debye)      :      5.393877241

Rotational constants in cm-1:             0.043572             0.010512             0.008987
Rotational constants in MHz :          1306.248263           315.135119           269.415494

                             ****ORCA TERMINATED NORMALLY****
TOTAL RUN TIME: 0 days 0 hours 7 minutes 40 seconds 492 msec
