                         Program Version 6.0.0  -   RELEASE  -
|  1> ! wb97x-v def2-tzvp def2/J RIJCOSX DEFGRID2 scfconv7 GCP(DFT/TZ) printgap
|  2> %output
|  3>     printlevel normal
|  4> end
|  5> %cpcm
|  6>     smd true
|  7>     smdsolvent "water"
|  8> end
|  9> * xyz 0 1
| 10> C 4.48912466707113 -0.3066999662997696 -0.022522709522978347
| 11> C 3.6665677404708963 -1.0869592376809731 0.7878202739427407
| 12> C 2.2956345876037796 -0.8555004085217787 0.8266176440689316
| 13> C 1.7585146185203384 0.15939513489642548 0.040062061251001896
| 14> C 2.5670580639252574 0.9451827493555653 -0.7744987018253889
| 15> C 3.9385938284780186 0.7099495045249666 -0.7987733471184238
| 16> N 0.3458575883672914 0.42712698000330035 0.08703703866609347
| 17> C -0.5693068427943733 -0.592762006714294 -0.26184247218666207
| 18> O -0.16256486878018012 -1.7104474523227375 -0.61776157998083
| 19> C -1.9332022930036412 -0.19077523886989586 -0.17083384976803315
| 20> C -2.311919639527753 1.09414375259915 0.17776175901229374
| 21> C -1.2422867422397232 2.0046531493583406 0.453399063902369
| 22> N 0.016685588373971848 1.685073928524037 0.4102069896916812
| 23> N -3.5803822641114467 1.5237473873902578 0.26789048762065043
| 24> Cl -3.145381953386931 -1.3801119841974698 -0.5586312696580479
| 25> H 5.558397284691171 -0.4898135713997601 -0.046866439446305065
| 26> H 4.092986345337717 -1.8744894245368153 1.4005635346082346
| 27> H 1.6494497307897014 -1.4483670708039276 1.4640612840037026
| 28> H 2.1264609845896145 1.7284400098603185 -1.381740028276849
| 29> H 4.574925463297911 1.320258785099279 -1.4311758073222953
| 30> H -1.4672044238988349 3.032194768359291 0.7244788747159662
| 31> H -3.7681425218566043 2.4844878112321496 0.5057380747909853
| 32> H -4.355464983288393 0.9158929283240863 0.05703966651715504
| 33> *
| 34>
| 35>                          ****END OF INPUT****

CARTESIAN COORDINATES (ANGSTROEM)
---------------------------------
  C      4.489125   -0.306700   -0.022523
  C      3.666568   -1.086959    0.787820
  C      2.295635   -0.855500    0.826618
  C      1.758515    0.159395    0.040062
  C      2.567058    0.945183   -0.774499
  C      3.938594    0.709950   -0.798773
  N      0.345858    0.427127    0.087037
  C     -0.569307   -0.592762   -0.261842
  O     -0.162565   -1.710447   -0.617762
  C     -1.933202   -0.190775   -0.170834
  C     -2.311920    1.094144    0.177762
  C     -1.242287    2.004653    0.453399
  N      0.016686    1.685074    0.410207
  N     -3.580382    1.523747    0.267890
  Cl    -3.145382   -1.380112   -0.558631
  H      5.558397   -0.489814   -0.046866
  H      4.092986   -1.874489    1.400564
  H      1.649450   -1.448367    1.464061
  H      2.126461    1.728440   -1.381740
  H      4.574925    1.320259   -1.431176
  H     -1.467204    3.032195    0.724479
  H     -3.768143    2.484488    0.505738
  H     -4.355465    0.915893    0.057040

 Total Charge           Charge          ....    0
 Multiplicity           Mult            ....    1
 Number of Electrons    NEL             ....  114
 Basis Dimension        Dim             ....  519

ORBITAL ENERGIES
----------------

  NO   OCC          E(Eh)            E(eV)
   0   2.0000    -107.156574     -2915.8786
   1   2.0000     -21.648412      -589.0832
   2   2.0000     -16.621913      -452.3052
   3   2.0000     -16.594683      -451.5643
   4   2.0000     -16.557222      -450.5449
   5   2.0000     -12.173975      -331.2707
   6   2.0000     -12.138509      -330.3056
   7   2.0000     -12.114083      -329.6409
   8   2.0000     -12.101934      -329.3104
   9   2.0000     -12.100170      -329.2624
  10   2.0000     -12.059346      -328.1515
  11   2.0000     -12.058830      -328.1374
  12   2.0000     -12.056383      -328.0709
  13   2.0000     -12.055494      -328.0467
  14   2.0000     -12.053448      -327.9910
  15   2.0000     -11.309399      -307.7444
  16   2.0000      -9.101081      -247.6530
  17   2.0000      -9.098326      -247.5780
  18   2.0000      -9.098298      -247.5773
  19   2.0000      -1.706725       -46.4423
  20   2.0000      -1.655624       -45.0518
  21   2.0000      -1.532006       -41.6880
  22   2.0000      -1.458508       -39.6880
  23   2.0000      -1.435292       -39.0563
  24   2.0000      -1.387091       -37.7447
  25   2.0000      -1.336733       -36.3744
  26   2.0000      -1.289694       -35.0944
  27   2.0000      -1.283336       -34.9214
  28   2.0000      -1.222355       -33.2620
  29   2.0000      -1.206346       -32.8263
  30   2.0000      -1.136504       -30.9259
  31   2.0000      -1.120044       -30.4779
  32   2.0000      -1.097035       -29.8518
  33   2.0000      -1.076650       -29.2971
  34   2.0000      -1.051087       -28.6015
  35   2.0000      -1.032028       -28.0829
  36   2.0000      -0.998754       -27.1775
  37   2.0000      -0.977792       -26.6071
  38   2.0000      -0.960354       -26.1326
  39   2.0000      -0.948070       -25.7983
  40   2.0000      -0.941531       -25.6204
  41   2.0000      -0.920276       -25.0420
  42   2.0000      -0.900817       -24.5125
  43   2.0000      -0.898194       -24.4411
  44   2.0000      -0.881407       -23.9843
  45   2.0000      -0.879303       -23.9270
  46   2.0000      -0.856095       -23.2955
  47   2.0000      -0.834555       -22.7094
  48   2.0000      -0.825383       -22.4598
  49   2.0000      -0.816684       -22.2231
  50   2.0000      -0.813750       -22.1433
  51   2.0000      -0.805195       -21.9105
  52   2.0000      -0.786629       -21.4053
  53   2.0000      -0.732911       -19.9435
  54   2.0000      -0.680732       -18.5237
  55   2.0000      -0.651938       -17.7401
  56   2.0000      -0.647004       -17.6059
  57   0.0000      -0.365994        -9.9592
  58   0.0000      -0.295232        -8.0337
  59   0.0000      -0.280619        -7.6360
  60   0.0000      -0.254051        -6.9131
  61   0.0000      -0.243738        -6.6324

MULLIKEN ATOMIC CHARGES
-----------------------
   0 C :   -0.170061
   1 C :   -0.110450
   2 C :   -0.290250
   3 C :    0.247305
   4 C :   -0.295125
   5 C :   -0.112535
   6 N :    0.143793
   7 C :    0.262266
   8 O :   -0.539483
   9 C :   -0.084827
  10 C :    0.222764
  11 C :   -0.154243
  12 N :   -0.192154
  13 N :   -0.432567
  14 Cl:   -0.104959
  15 H :    0.164704
  16 H :    0.165319
  17 H :    0.169734
  18 H :    0.167996
  19 H :    0.165145
  20 H :    0.186390
  21 H :    0.303570
  22 H :    0.287669
Sum of atomic charges:    0.0000000

LOEWDIN ATOMIC CHARGES
----------------------
   0 C :   -0.138687
   1 C :   -0.136673
   2 C :   -0.104239
   3 C :   -0.175303
   4 C :   -0.106606
   5 C :   -0.136821
   6 N :    0.228135
   7 C :   -0.409481
   8 O :   -0.050090
   9 C :   -0.414953
  10 C :   -0.248679
  11 C :   -0.184573
  12 N :    0.110523
  13 N :    0.055541
  14 Cl:    0.390826
  15 H :    0.153256
  16 H :    0.154450
  17 H :    0.160003
  18 H :    0.158973
  19 H :    0.154346
  20 H :    0.161628
  21 H :    0.196751
  22 H :    0.181672

  Mayer bond orders larger than 0.100000
B(  0-C ,  1-C ) :   1.3917 B(  0-C ,  5-C ) :   1.4015 B(  0-C , 15-H ) :   0.9729
B(  1-C ,  2-C ) :   1.4335 B(  1-C , 16-H ) :   0.9737 B(  2-C ,  3-C ) :   1.3733
B(  2-C , 17-H ) :   0.9719 B(  3-C ,  4-C ) :   1.3972 B(  3-C ,  6-N ) :   0.8787
B(  4-C ,  5-C ) :   1.4224 B(  4-C , 18-H ) :   0.9740 B(  5-C , 19-H ) :   0.9735
B(  6-N ,  7-C ) :   1.1524 B(  6-N , 12-N ) :   0.9924 B(  7-C ,  8-O ) :   1.9369
B(  7-C ,  9-C ) :   1.1719 B(  9-C , 10-C ) :   1.4116 B(  9-C , 14-Cl) :   1.0552
B( 10-C , 11-C ) :   1.1084 B( 10-C , 13-N ) :   1.3231 B( 11-C , 12-N ) :   1.8014
B( 11-C , 20-H ) :   0.9605 B( 13-N , 21-H ) :   0.8832 B( 13-N , 22-H ) :   0.8892

FINAL SINGLE POINT ENERGY     -1085.549703553824

DIPOLE MOMENT
-------------

Method             : SCF
Type of density    : Electron Density
Multiplicity       :   1
Irrep              :   0
Energy             : -1085.5622882166239833 Eh
Relativity type    :
Basis              : AO
                                X                 Y                 Z
Electronic contribution:    -13.532476493      -4.113476569      -1.531838417
Nuclear contribution   :     12.055652406       7.083209231       2.364568194
                        -----------------------------------------
Total Dipole Moment    :     -1.476824086       2.969732662       0.832729776
                        -----------------------------------------
Magnitude (a.u.)       :      3.419614064
Magnitude (Debye)      :      8.691968188

Rotational constants in cm-1:             0.043572             0.010512             0.008987
Rotational constants in MHz :          1306.248263           315.135119           269.415494

                             ****ORCA TERMINATED NORMALLY****
TOTAL RUN TIME: 0 days 0 hours 7 minutes 53 seconds 91 msec
