                         Program Version 6.0.0  -   RELEASE  -
|  1> ! pbe def2-sv(p) def2/J RI DEFGRID1 loosescf d4 GCP(DFT/SV(P)) printgap
|  2> %output
|  3>     printlevel normal
|  4> end
|  5> * xyz 0 1
|  6> C 1.7791987491 0.9102319513 0.6531501103
|  7> C 1.2658481778 0.069691714 -0.5098165593
|  8> C 1.511271936 -1.4200808733 -0.3030190974
|  9> O -0.1324018222 0.3412111209 -0.7796950414
| 10> C -1.0810291631 0.0801686021 0.1087510565
| 11> O -0.8916141928 -0.3877779159 1.212772077
| 12> C -2.4368377225 0.4310890046 -0.4357735316
| 13> H 1.5550464737 1.9607252958 0.4839690868
| 14> H 1.3108172168 0.594854468 1.5823151975
| 15> H 2.8539432606 0.7859080151 0.7380150559
| 16> H 1.7400806955 0.3973640266 -1.4412870842
| 17> H 1.0414331051 -1.7556280001 0.6183566743
| 18> H 2.5793876383 -1.6022556004 -0.2426722945
| 19> H 1.1005505136 -1.9866404273 -1.1353329409
| 20> H -2.9602453596 -0.491611916 -0.6760286436
| 21> H -2.3338465859 1.0366851458 -1.329360643
| 22> H -3.0070249487 0.9525068102 0.3273925158
| 23> *
| 24>
| 25>                          ****END OF INPUT****

CARTESIAN COORDINATES (ANGSTROEM)
---------------------------------
  C      1.779199    0.910232    0.653150
  C      1.265848    0.069692   -0.509817
  C      1.511272   -1.420081   -0.303019
  O     -0.132402    0.341211   -0.779695
  C     -1.081029    0.080169    0.108751
  O     -0.891614   -0.387778    1.212772
  C     -2.436838    0.431089   -0.435774
  H      1.555046    1.960725    0.483969
  H      1.310817    0.594854    1.582315
  H      2.853943    0.785908    0.738015
  H      1.740081    0.397364   -1.441287
  H      1.041433   -1.755628    0.618357
  H      2.579388   -1.602256   -0.242672
  H      1.100551   -1.986640   -1.135333
  H     -2.960245   -0.491612   -0.676029
  H     -2.333847    1.036685   -1.329361
  H     -3.007025    0.952507    0.327393

 Total Charge           Charge          ....    0
 Multiplicity           Mult            ....    1
 Number of Electrons    NEL             ....   56
 Basis Dimension        Dim             ....  118

ORBITAL ENERGIES
----------------

  NO   OCC          E(Eh)            E(eV)
   0   2.0000     -18.794159      -511.4151
   1   2.0000     -18.727050      -509.5889
   2   2.0000     -10.007204      -272.3099
   3   2.0000      -9.956534      -270.9311
   4   2.0000      -9.890473      -269.1334
   5   2.0000      -9.880131      -268.8520
   6   2.0000      -9.879865      -268.8448
   7   2.0000      -0.999370       -27.1942
   8   2.0000      -0.906854       -24.6768
   9   2.0000      -0.725581       -19.7441
  10   2.0000      -0.664811       -18.0904
  11   2.0000      -0.622614       -16.9422
  12   2.0000      -0.582150       -15.8411
  13   2.0000      -0.471609       -12.8331
  14   2.0000      -0.439196       -11.9511
  15   2.0000      -0.425093       -11.5674
  16   2.0000      -0.417646       -11.3647
  17   2.0000      -0.388221       -10.5640
  18   2.0000      -0.380665       -10.3584
  19   2.0000      -0.373947       -10.1756
  20   2.0000      -0.353250        -9.6124
  21   2.0000      -0.349769        -9.5177
  22   2.0000      -0.330790        -9.0013
  23   2.0000      -0.314800        -8.5661
  24   2.0000      -0.307742        -8.3741
  25   2.0000      -0.286974        -7.8090
  26   2.0000      -0.253370        -6.8945
  27   2.0000      -0.210411        -5.7256
  28   0.0000      -0.018929        -0.5151
  29   0.0000       0.037903         1.0314
  30   0.0000       0.062450         1.6994
  31   0.0000       0.077789         2.1167
  32   0.0000       0.088931         2.4199

MULLIKEN ATOMIC CHARGES
-----------------------
   0 C :   -0.270247
   1 C :    0.002300
   2 C :   -0.270937
   3 O :   -0.240342
   4 C :    0.094444
   5 O :   -0.214929
   6 C :   -0.251217
   7 H :    0.107539
   8 H :    0.133653
   9 H :    0.104167
  10 H :    0.081984
  11 H :    0.133428
  12 H :    0.104440
  13 H :    0.107173
  14 H :    0.133377
  15 H :    0.116591
  16 H :    0.128575
Sum of atomic charges:   -0.0000000

LOEWDIN ATOMIC CHARGES
----------------------
   0 C :   -0.350290
   1 C :   -0.037653
   2 C :   -0.350592
   3 O :   -0.064241
   4 C :    0.033090
   5 O :   -0.177267
   6 C :   -0.359672
   7 H :    0.123149
   8 H :    0.133199
   9 H :    0.126599
  10 H :    0.116015
  11 H :    0.133083
  12 H :    0.126765
  13 H :    0.122906
  14 H :    0.148153
  15 H :    0.133360
  16 H :    0.143396

  Mayer bond orders larger than 0.100000
B(  0-C ,  1-C ) :   1.1212 B(  0-C ,  7-H ) :   0.9440 B(  0-C ,  8-H ) :   0.9343
B(  0-C ,  9-H ) :   0.9421 B(  1-C ,  2-C ) :   1.1216 B(  1-C ,  3-O ) :   0.9023
B(  1-C , 10-H ) :   0.9221 B(  2-C , 11-H ) :   0.9341 B(  2-C , 12-H ) :   0.9421
B(  2-C , 13-H ) :   0.9440 B(  3-O ,  4-C ) :   1.2174 B(  4-C ,  5-O ) :   2.0261
B(  4-C ,  6-C ) :   1.0758 B(  6-C , 14-H ) :   0.9269 B(  6-C , 15-H ) :   0.9398
B(  6-C , 16-H ) :   0.9353

Dispersion correction           -0.012850342
FINAL SINGLE POINT ENERGY      -346.245185502728

DIPOLE MOMENT
-------------

Method             : SCF
Type of density    : Electron Density
Multiplicity       :   1
Irrep              :   0
Energy             :  -346.3096898998828124 Eh
Relativity type    :
Basis              : AO
                                X                 Y                 Z
Electronic contribution:     -3.371199082       0.286277719       0.392452873
Nuclear contribution   :      3.625039748      -0.102098947      -1.001764637
                        -----------------------------------------
Total Dipole Moment    :      0.253840666       0.184178773      -0.609311765
                        -----------------------------------------
Magnitude (a.u.)       :      0.685286605
Magnitude (Debye)      :      1.741860122

Rotational constants in cm-1:             0.153101             0.058712             0.058291
Rotational constants in MHz :          4589.842121          1760.154911          1747.534813

                             ****ORCA TERMINATED NORMALLY****
TOTAL RUN TIME: 0 days 0 hours 0 minutes 8 seconds 515 msec
