                         Program Version 6.0.0  -   RELEASE  -
|  1> ! r2scan-3c def2/J RI DEFGRID2 scfconv6 printgap
|  2> %output
|  3>     printlevel normal
|  4> end
|  5> * xyz 0 1
|  6> C -2.8345171761 0.0097225728 0.5200162576
|  7> C -1.4645119367 -0.0394484025 -0.0932012677
|  8> O -1.2910019616 -0.3813877475 -1.2463125041
|  9> C -0.3400530499 0.3559065255 0.8453523171
| 10> C 0.5368178425 1.4757285865 0.2625453015
| 11> C 1.396646517 1.0004877696 -0.9038308623
| 12> C 2.2613113472 -0.1829827196 -0.4825804623
| 13> C 1.3722794263 -1.3234710797 0.0022330092
| 14> C 0.5265701675 -0.8698391301 1.186645093
| 15> H -3.0541472933 1.0315700053 0.8207811087
| 16> H -3.5818576456 -0.3318141524 -0.1909044494
| 17> H -2.8560009621 -0.6138270992 1.4105376369
| 18> H -0.7915304635 0.7217817258 1.7720559829
| 19> H -0.0992755006 2.3034001576 -0.0596376267
| 20> H 1.1876809046 1.8409526557 1.060339732
| 21> H 0.7519096521 0.6983035751 -1.7309345107
| 22> H 2.0252520408 1.8237963561 -1.2490566065
| 23> H 2.868947848 -0.5174622019 -1.3250721774
| 24> H 2.9356479787 0.1227684614 0.3212294354
| 25> H 0.7190315319 -1.6402185024 -0.8134596046
| 26> H 1.98233415 -2.1792996035 0.2977048424
| 27> H -0.1141939301 -1.6882726615 1.5225288608
| 28> H 1.1859786087 -0.5953531752 2.0128710758
| 29> *
| 30>
| 31>                          ****END OF INPUT****

CARTESIAN COORDINATES (ANGSTROEM)
---------------------------------
  C     -2.834517    0.009723    0.520016
  C     -1.464512   -0.039448   -0.093201
  O     -1.291002   -0.381388   -1.246313
  C     -0.340053    0.355907    0.845352
  C      0.536818    1.475729    0.262545
  C      1.396647    1.000488   -0.903831
  C      2.261311   -0.182983   -0.482580
  C      1.372279   -1.323471    0.002233
  C      0.526570   -0.869839    1.186645
  H     -3.054147    1.031570    0.820781
  H     -3.581858   -0.331814   -0.190904
  H     -2.856001   -0.613827    1.410538
  H     -0.791530    0.721782    1.772056
  H     -0.099276    2.303400   -0.059638
  H      1.187681    1.840953    1.060340
  H      0.751910    0.698304   -1.730935
  H      2.025252    1.823796   -1.249057
  H      2.868948   -0.517462   -1.325072
  H      2.935648    0.122768    0.321229
  H      0.719032   -1.640219   -0.813460
  H      1.982334   -2.179300    0.297705
  H     -0.114194   -1.688273    1.522529
  H      1.185979   -0.595353    2.012871

 Total Charge           Charge          ....    0
 Multiplicity           Mult            ....    1
 Number of Electrons    NEL             ....   70
 Basis Dimension        Dim             ....  246

ORBITAL ENERGIES
----------------

  NO   OCC          E(Eh)            E(eV)
   0   2.0000     -18.937121      -515.3053
   1   2.0000     -10.116577      -275.2860
   2   2.0000     -10.041695      -273.2484
   3   2.0000     -10.033822      -273.0342
   4   2.0000     -10.033271      -273.0192
   5   2.0000     -10.030752      -272.9507
   6   2.0000     -10.017512      -272.5903
   7   2.0000     -10.017076      -272.5785
   8   2.0000     -10.014492      -272.5082
   9   2.0000      -1.004566       -27.3356
  10   2.0000      -0.804163       -21.8824
  11   2.0000      -0.737384       -20.0652
  12   2.0000      -0.709180       -19.2978
  13   2.0000      -0.697663       -18.9844
  14   2.0000      -0.592398       -16.1200
  15   2.0000      -0.574495       -15.6328
  16   2.0000      -0.534788       -14.5523
  17   2.0000      -0.481071       -13.0906
  18   2.0000      -0.454453       -12.3663
  19   2.0000      -0.430927       -11.7261
  20   2.0000      -0.429613       -11.6904
  21   2.0000      -0.412450       -11.2233
  22   2.0000      -0.396734       -10.7957
  23   2.0000      -0.393288       -10.7019
  24   2.0000      -0.374908       -10.2018
  25   2.0000      -0.351449        -9.5634
  26   2.0000      -0.346803        -9.4370
  27   2.0000      -0.342627        -9.3234
  28   2.0000      -0.329137        -8.9563
  29   2.0000      -0.322548        -8.7770
  30   2.0000      -0.309987        -8.4352
  31   2.0000      -0.292909        -7.9705
  32   2.0000      -0.268614        -7.3094
  33   2.0000      -0.267791        -7.2870
  34   2.0000      -0.206230        -5.6118
  35   0.0000      -0.045492        -1.2379
  36   0.0000       0.066430         1.8077
  37   0.0000       0.096819         2.6346
  38   0.0000       0.109058         2.9676
  39   0.0000       0.114467         3.1148

MULLIKEN ATOMIC CHARGES
-----------------------
   0 C :   -0.515685
   1 C :    0.251197
   2 O :   -0.359639
   3 C :    0.036959
   4 C :   -0.398345
   5 C :   -0.268625
   6 C :   -0.331497
   7 C :   -0.263781
   8 C :   -0.384437
   9 H :    0.166409
  10 H :    0.178156
  11 H :    0.161738
  12 H :    0.160233
  13 H :    0.145853
  14 H :    0.159888
  15 H :    0.188598
  16 H :    0.144762
  17 H :    0.150290
  18 H :    0.144088
  19 H :    0.181003
  20 H :    0.146512
  21 H :    0.145140
  22 H :    0.161181
Sum of atomic charges:    0.0000000

LOEWDIN ATOMIC CHARGES
----------------------
   0 C :   -0.382013
   1 C :    0.223784
   2 O :   -0.482842
   3 C :   -0.210585
   4 C :   -0.273104
   5 C :   -0.298996
   6 C :   -0.299315
   7 C :   -0.298454
   8 C :   -0.270966
   9 H :    0.174081
  10 H :    0.171938
  11 H :    0.172591
  12 H :    0.165989
  13 H :    0.161090
  14 H :    0.159417
  15 H :    0.177956
  16 H :    0.152630
  17 H :    0.156245
  18 H :    0.151045
  19 H :    0.175638
  20 H :    0.153502
  21 H :    0.159936
  22 H :    0.160433

  Mayer bond orders larger than 0.100000
B(  0-C ,  1-C ) :   0.9130 B(  0-C ,  9-H ) :   0.9498 B(  0-C , 10-H ) :   0.9983
B(  0-C , 11-H ) :   0.9464 B(  1-C ,  2-O ) :   1.8877 B(  1-C ,  3-C ) :   0.8491
B(  3-C ,  4-C ) :   0.9100 B(  3-C ,  8-C ) :   0.8941 B(  3-C , 12-H ) :   0.9305
B(  4-C ,  5-C ) :   0.9049 B(  4-C , 13-H ) :   0.9530 B(  4-C , 14-H ) :   0.9887
B(  5-C ,  6-C ) :   0.9057 B(  5-C , 15-H ) :   0.9778 B(  5-C , 16-H ) :   0.9399
B(  6-C ,  7-C ) :   0.9091 B(  6-C , 17-H ) :   0.9455 B(  6-C , 18-H ) :   1.0158
B(  7-C ,  8-C ) :   0.9157 B(  7-C , 19-H ) :   0.9731 B(  7-C , 20-H ) :   0.9388
B(  8-C , 21-H ) :   0.9489 B(  8-C , 22-H ) :   0.9879

Dispersion correction           -0.007561535
FINAL SINGLE POINT ENERGY      -388.405390627855

DIPOLE MOMENT
-------------

Method             : SCF
Type of density    : Electron Density
Multiplicity       :   1
Irrep              :   0
Energy             :  -388.4078638831034596 Eh
Relativity type    :
Basis              : AO
                                X                 Y                 Z
Electronic contribution:     -3.039748685      -0.640926388      -2.632888289
Nuclear contribution   :      2.945248445       0.910299072       3.592501599
                        -----------------------------------------
Total Dipole Moment    :     -0.094500240       0.269372684       0.959613310
                        -----------------------------------------
Magnitude (a.u.)       :      1.001174133
Magnitude (Debye)      :      2.544782408

Rotational constants in cm-1:             0.091711             0.041326             0.039200
Rotational constants in MHz :          2749.420396          1238.917396          1175.179241

                             ****ORCA TERMINATED NORMALLY****
TOTAL RUN TIME: 0 days 0 hours 0 minutes 35 seconds 920 msec
