                         Program Version 6.0.0  -   RELEASE  -
|  1> ! r2scan-3c def2/J RI DEFGRID2 scfconv6 printgap
|  2> %output
|  3>     printlevel normal
|  4> end
|  5> %cpcm
|  6>     smd true
|  7>     smdsolvent "water"
|  8> end
|  9> * xyz 0 1
| 10> C -2.8345171761 0.0097225728 0.5200162576
| 11> C -1.4645119367 -0.0394484025 -0.0932012677
| 12> O -1.2910019616 -0.3813877475 -1.2463125041
| 13> C -0.3400530499 0.3559065255 0.8453523171
| 14> C 0.5368178425 1.4757285865 0.2625453015
| 15> C 1.396646517 1.0004877696 -0.9038308623
| 16> C 2.2613113472 -0.1829827196 -0.4825804623
| 17> C 1.3722794263 -1.3234710797 0.0022330092
| 18> C 0.5265701675 -0.8698391301 1.186645093
| 19> H -3.0541472933 1.0315700053 0.8207811087
| 20> H -3.5818576456 -0.3318141524 -0.1909044494
| 21> H -2.8560009621 -0.6138270992 1.4105376369
| 22> H -0.7915304635 0.7217817258 1.7720559829
| 23> H -0.0992755006 2.3034001576 -0.0596376267
| 24> H 1.1876809046 1.8409526557 1.060339732
| 25> H 0.7519096521 0.6983035751 -1.7309345107
| 26> H 2.0252520408 1.8237963561 -1.2490566065
| 27> H 2.868947848 -0.5174622019 -1.3250721774
| 28> H 2.9356479787 0.1227684614 0.3212294354
| 29> H 0.7190315319 -1.6402185024 -0.8134596046
| 30> H 1.98233415 -2.1792996035 0.2977048424
| 31> H -0.1141939301 -1.6882726615 1.5225288608
| 32> H 1.1859786087 -0.5953531752 2.0128710758
| 33> *
| 34>
| 35>                          ****END OF INPUT****

CARTESIAN COORDINATES (ANGSTROEM)
---------------------------------
  C     -2.834517    0.009723    0.520016
  C     -1.464512   -0.039448   -0.093201
  O     -1.291002   -0.381388   -1.246313
  C     -0.340053    0.355907    0.845352
  C      0.536818    1.475729    0.262545
  C      1.396647    1.000488   -0.903831
  C      2.261311   -0.182983   -0.482580
  C      1.372279   -1.323471    0.002233
  C      0.526570   -0.869839    1.186645
  H     -3.054147    1.031570    0.820781
  H     -3.581858   -0.331814   -0.190904
  H     -2.856001   -0.613827    1.410538
  H     -0.791530    0.721782    1.772056
  H     -0.099276    2.303400   -0.059638
  H      1.187681    1.840953    1.060340
  H      0.751910    0.698304   -1.730935
  H      2.025252    1.823796   -1.249057
  H      2.868948   -0.517462   -1.325072
  H      2.935648    0.122768    0.321229
  H      0.719032   -1.640219   -0.813460
  H      1.982334   -2.179300    0.297705
  H     -0.114194   -1.688273    1.522529
  H      1.185979   -0.595353    2.012871

 Total Charge           Charge          ....    0
 Multiplicity           Mult            ....    1
 Number of Electrons    NEL             ....   70
 Basis Dimension        Dim             ....  246

ORBITAL ENERGIES
----------------

  NO   OCC          E(Eh)            E(eV)
   0   2.0000     -18.943044      -515.4664
   1   2.0000     -10.120182      -275.3842
   2   2.0000     -10.032725      -273.0043
   3   2.0000     -10.023599      -272.7560
   4   2.0000     -10.021596      -272.7015
   5   2.0000     -10.020942      -272.6837
   6   2.0000     -10.012849      -272.4635
   7   2.0000     -10.012387      -272.4509
   8   2.0000     -10.011487      -272.4264
   9   2.0000      -1.012912       -27.5627
  10   2.0000      -0.797374       -21.6977
  11   2.0000      -0.730483       -19.8774
  12   2.0000      -0.702407       -19.1135
  13   2.0000      -0.688901       -18.7460
  14   2.0000      -0.585275       -15.9262
  15   2.0000      -0.567866       -15.4524
  16   2.0000      -0.530187       -14.4271
  17   2.0000      -0.479661       -13.0522
  18   2.0000      -0.448876       -12.2145
  19   2.0000      -0.424755       -11.5582
  20   2.0000      -0.423620       -11.5273
  21   2.0000      -0.408611       -11.1189
  22   2.0000      -0.392600       -10.6832
  23   2.0000      -0.387014       -10.5312
  24   2.0000      -0.368881       -10.0377
  25   2.0000      -0.343960        -9.3596
  26   2.0000      -0.339681        -9.2432
  27   2.0000      -0.335418        -9.1272
  28   2.0000      -0.324839        -8.8393
  29   2.0000      -0.323078        -8.7914
  30   2.0000      -0.304717        -8.2918
  31   2.0000      -0.290355        -7.9010
  32   2.0000      -0.261210        -7.1079
  33   2.0000      -0.260997        -7.1021
  34   2.0000      -0.211175        -5.7464
  35   0.0000      -0.045749        -1.2449
  36   0.0000       0.078733         2.1424
  37   0.0000       0.105352         2.8668
  38   0.0000       0.116529         3.1709
  39   0.0000       0.124545         3.3891

MULLIKEN ATOMIC CHARGES
-----------------------
   0 C :   -0.549867
   1 C :    0.279669
   2 O :   -0.448035
   3 C :    0.064905
   4 C :   -0.419610
   5 C :   -0.285798
   6 C :   -0.340445
   7 C :   -0.283750
   8 C :   -0.401118
   9 H :    0.196512
  10 H :    0.177726
  11 H :    0.191867
  12 H :    0.181273
  13 H :    0.161263
  14 H :    0.174752
  15 H :    0.170149
  16 H :    0.154814
  17 H :    0.157315
  18 H :    0.156021
  19 H :    0.166322
  20 H :    0.157171
  21 H :    0.162843
  22 H :    0.176021
Sum of atomic charges:    0.0000000

LOEWDIN ATOMIC CHARGES
----------------------
   0 C :   -0.380397
   1 C :    0.239596
   2 O :   -0.549598
   3 C :   -0.202651
   4 C :   -0.273821
   5 C :   -0.303157
   6 C :   -0.303545
   7 C :   -0.301971
   8 C :   -0.270217
   9 H :    0.187410
  10 H :    0.170785
  11 H :    0.186046
  12 H :    0.176900
  13 H :    0.165131
  14 H :    0.165685
  15 H :    0.169045
  16 H :    0.155393
  17 H :    0.156358
  18 H :    0.156133
  19 H :    0.167956
  20 H :    0.156682
  21 H :    0.165551
  22 H :    0.166686

  Mayer bond orders larger than 0.100000
B(  0-C ,  1-C ) :   0.9287 B(  0-C ,  9-H ) :   0.9356 B(  0-C , 10-H ) :   0.9963
B(  0-C , 11-H ) :   0.9328 B(  1-C ,  2-O ) :   1.8209 B(  1-C ,  3-C ) :   0.8631
B(  3-C ,  4-C ) :   0.8984 B(  3-C ,  8-C ) :   0.8850 B(  3-C , 12-H ) :   0.9229
B(  4-C ,  5-C ) :   0.8988 B(  4-C , 13-H ) :   0.9544 B(  4-C , 14-H ) :   0.9829
B(  5-C ,  6-C ) :   0.9027 B(  5-C , 15-H ) :   0.9855 B(  5-C , 16-H ) :   0.9381
B(  6-C ,  7-C ) :   0.9056 B(  6-C , 17-H ) :   0.9481 B(  6-C , 18-H ) :   1.0087
B(  7-C ,  8-C ) :   0.9061 B(  7-C , 19-H ) :   0.9811 B(  7-C , 20-H ) :   0.9367
B(  8-C , 21-H ) :   0.9488 B(  8-C , 22-H ) :   0.9820

Dispersion correction           -0.007561535
FINAL SINGLE POINT ENERGY      -388.410295967374

DIPOLE MOMENT
-------------

Method             : SCF
Type of density    : Electron Density
Multiplicity       :   1
Irrep              :   0
Energy             :  -388.4127692226233535 Eh
Relativity type    :
Basis              : AO
                                X                 Y                 Z
Electronic contribution:     -3.065253433      -0.466818820      -2.029353936
Nuclear contribution   :      2.945248445       0.910299072       3.592501599
                        -----------------------------------------
Total Dipole Moment    :     -0.120004988       0.443480252       1.563147663
                        -----------------------------------------
Magnitude (a.u.)       :      1.629265647
Magnitude (Debye)      :      4.141264162

Rotational constants in cm-1:             0.091711             0.041326             0.039200
Rotational constants in MHz :          2749.420396          1238.917396          1175.179241

                             ****ORCA TERMINATED NORMALLY****
TOTAL RUN TIME: 0 days 0 hours 0 minutes 39 seconds 247 msec
