                         Program Version 6.0.0  -   RELEASE  -
|  1> ! pbe def2-sv(p) def2/J RI DEFGRID1 loosescf d4 GCP(DFT/SV(P)) printgap
|  2> %output
|  3>     printlevel normal
|  4> end
|  5> * xyz 0 1
|  6> C -3.321126842 0.4289000774 -0.3107851918
|  7> C -1.8593886993 0.50240407 -0.0227229426
|  8> C -1.0970943287 1.5739399389 -0.2063607881
|  9> C 0.3626690936 1.49237098 0.1048374222
| 10> C 0.9599205878 0.2458087495 -0.5794014621
| 11> H 0.9417859976 0.4391347106 -1.6561930182
| 12> C 0.1033261452 -1.0099810942 -0.3049995422
| 13> C -1.1677409886 -0.7236655102 0.5218212612
| 14> H -0.8706210684 -0.5087154939 1.5648262326
| 15> O -2.0449066038 -1.8314407587 0.5086585269
| 16> C 2.395716186 0.0164729235 -0.1743347261
| 17> C 3.3499948843 -0.1156487375 -1.0830085674
| 18> C 2.6937050821 -0.0589358103 1.2938472382
| 19> H -3.6833830583 1.3785749564 -0.6939580835
| 20> H -3.8662656788 0.1693211605 0.5952189067
| 21> H -3.5150844522 -0.3568267698 -1.0388278168
| 22> H -1.5018062182 2.4969974948 -0.5907006862
| 23> H 0.8910905918 2.3816826814 -0.2382012536
| 24> H 0.4964650972 1.4110033365 1.186419202
| 25> H -0.2245714459 -1.4416645415 -1.2522150604
| 26> H 0.6997879412 -1.7662330888 0.2096522226
| 27> H -1.5819172279 -2.6059796426 0.8526860777
| 28> H 4.3758857755 -0.2961424398 -0.8089231576
| 29> H 3.1466129912 -0.0472114934 -2.1383019689
| 30> H 3.6435093759 -0.5580694366 1.4657360815
| 31> H 2.7598346217 0.9451451787 1.7114698526
| 32> H 1.9109463084 -0.5931964812 1.8268760471
| 33> *
| 34>
| 35>                          ****END OF INPUT****

CARTESIAN COORDINATES (ANGSTROEM)
---------------------------------
  C     -3.321127    0.428900   -0.310785
  C     -1.859389    0.502404   -0.022723
  C     -1.097094    1.573940   -0.206361
  C      0.362669    1.492371    0.104837
  C      0.959921    0.245809   -0.579401
  H      0.941786    0.439135   -1.656193
  C      0.103326   -1.009981   -0.305000
  C     -1.167741   -0.723666    0.521821
  H     -0.870621   -0.508715    1.564826
  O     -2.044907   -1.831441    0.508659
  C      2.395716    0.016473   -0.174335
  C      3.349995   -0.115649   -1.083009
  C      2.693705   -0.058936    1.293847
  H     -3.683383    1.378575   -0.693958
  H     -3.866266    0.169321    0.595219
  H     -3.515084   -0.356827   -1.038828
  H     -1.501806    2.496997   -0.590701
  H      0.891091    2.381683   -0.238201
  H      0.496465    1.411003    1.186419
  H     -0.224571   -1.441665   -1.252215
  H      0.699788   -1.766233    0.209652
  H     -1.581917   -2.605980    0.852686
  H      4.375886   -0.296142   -0.808923
  H      3.146613   -0.047211   -2.138302
  H      3.643509   -0.558069    1.465736
  H      2.759835    0.945145    1.711470
  H      1.910946   -0.593196    1.826876

 Total Charge           Charge          ....    0
 Multiplicity           Mult            ....    1
 Number of Electrons    NEL             ....   84
 Basis Dimension        Dim             ....  186

ORBITAL ENERGIES
----------------

  NO   OCC          E(Eh)            E(eV)
   0   2.0000     -18.746701      -510.1237
   1   2.0000      -9.940990      -270.5081
   2   2.0000      -9.899584      -269.3814
   3   2.0000      -9.898348      -269.3478
   4   2.0000      -9.887530      -269.0534
   5   2.0000      -9.887445      -269.0511
   6   2.0000      -9.887305      -269.0472
   7   2.0000      -9.883384      -268.9406
   8   2.0000      -9.873919      -268.6830
   9   2.0000      -9.870747      -268.5967
  10   2.0000      -9.866395      -268.4782
  11   2.0000      -0.925308       -25.1789
  12   2.0000      -0.766449       -20.8561
  13   2.0000      -0.722798       -19.6683
  14   2.0000      -0.672466       -18.2987
  15   2.0000      -0.655496       -17.8370
  16   2.0000      -0.617714       -16.8089
  17   2.0000      -0.603906       -16.4331
  18   2.0000      -0.557813       -15.1789
  19   2.0000      -0.530138       -14.4258
  20   2.0000      -0.473691       -12.8898
  21   2.0000      -0.472006       -12.8439
  22   2.0000      -0.444047       -12.0831
  23   2.0000      -0.425152       -11.5690
  24   2.0000      -0.409510       -11.1433
  25   2.0000      -0.399134       -10.8610
  26   2.0000      -0.389499       -10.5988
  27   2.0000      -0.376227       -10.2377
  28   2.0000      -0.370097       -10.0709
  29   2.0000      -0.352618        -9.5952
  30   2.0000      -0.348008        -9.4698
  31   2.0000      -0.343701        -9.3526
  32   2.0000      -0.326895        -8.8953
  33   2.0000      -0.323990        -8.8162
  34   2.0000      -0.316413        -8.6100
  35   2.0000      -0.304947        -8.2980
  36   2.0000      -0.291595        -7.9347
  37   2.0000      -0.283426        -7.7124
  38   2.0000      -0.256303        -6.9744
  39   2.0000      -0.224804        -6.1172
  40   2.0000      -0.218490        -5.9454
  41   2.0000      -0.194676        -5.2974
  42   0.0000      -0.013880        -0.3777
  43   0.0000      -0.003700        -0.1007
  44   0.0000       0.023675         0.6442
  45   0.0000       0.039646         1.0788
  46   0.0000       0.053560         1.4574

MULLIKEN ATOMIC CHARGES
-----------------------
   0 C :   -0.182778
   1 C :   -0.092668
   2 C :   -0.213128
   3 C :   -0.016475
   4 C :   -0.146388
   5 H :    0.056872
   6 C :   -0.112814
   7 C :    0.090061
   8 H :    0.063590
   9 O :   -0.410293
  10 C :   -0.045724
  11 C :   -0.227451
  12 C :   -0.230877
  13 H :    0.091344
  14 H :    0.107744
  15 H :    0.112598
  16 H :    0.039646
  17 H :    0.083189
  18 H :    0.085797
  19 H :    0.082590
  20 H :    0.077241
  21 H :    0.300440
  22 H :    0.077209
  23 H :    0.082921
  24 H :    0.102415
  25 H :    0.123577
  26 H :    0.101365
Sum of atomic charges:    0.0000000

LOEWDIN ATOMIC CHARGES
----------------------
   0 C :   -0.320126
   1 C :   -0.066776
   2 C :   -0.160735
   3 C :   -0.213478
   4 C :   -0.121892
   5 H :    0.124141
   6 C :   -0.223405
   7 C :   -0.041143
   8 H :    0.103702
   9 O :   -0.320295
  10 C :   -0.051984
  11 C :   -0.268689
  12 C :   -0.326526
  13 H :    0.120814
  14 H :    0.131312
  15 H :    0.132498
  16 H :    0.116892
  17 H :    0.124126
  18 H :    0.123752
  19 H :    0.125850
  20 H :    0.113674
  21 H :    0.286621
  22 H :    0.114698
  23 H :    0.116458
  24 H :    0.127222
  25 H :    0.133663
  26 H :    0.119627

  Mayer bond orders larger than 0.100000
B(  0-C ,  1-C ) :   1.1537 B(  0-C , 13-H ) :   0.9396 B(  0-C , 14-H ) :   0.9266
B(  0-C , 15-H ) :   0.9243 B(  1-C ,  2-C ) :   1.8741 B(  1-C ,  7-C ) :   1.0252
B(  2-C ,  3-C ) :   1.0835 B(  2-C , 16-H ) :   0.9504 B(  3-C ,  4-C ) :   1.1240
B(  3-C , 17-H ) :   0.9120 B(  3-C , 18-H ) :   0.8538 B(  4-C ,  5-H ) :   0.8771
B(  4-C ,  6-C ) :   1.0379 B(  4-C , 10-C ) :   1.0009 B(  6-C ,  7-C ) :   1.1037
B(  6-C , 19-H ) :   0.8936 B(  6-C , 20-H ) :   0.9039 B(  7-C ,  8-H ) :   0.8661
B(  7-C ,  9-O ) :   1.0974 B(  9-O , 21-H ) :   0.8486 B( 10-C , 11-C ) :   2.0391
B( 10-C , 12-C ) :   1.1095 B( 11-C , 22-H ) :   0.9075 B( 11-C , 23-H ) :   0.9097
B( 12-C , 24-H ) :   0.9353 B( 12-C , 25-H ) :   0.9241 B( 12-C , 26-H ) :   0.9271

Dispersion correction           -0.028458411
FINAL SINGLE POINT ENERGY      -464.785552746668

DIPOLE MOMENT
-------------

Method             : SCF
Type of density    : Electron Density
Multiplicity       :   1
Irrep              :   0
Energy             :  -464.8756106199806482 Eh
Relativity type    :
Basis              : AO
                                X                 Y                 Z
Electronic contribution:     -3.044284573      -1.150934911      -0.610350702
Nuclear contribution   :      3.367968650       0.955871766       0.941547227
                        -----------------------------------------
Total Dipole Moment    :      0.323684077      -0.195063144       0.331196525
                        -----------------------------------------
Magnitude (a.u.)       :      0.502505871
Magnitude (Debye)      :      1.277268417

Rotational constants in cm-1:             0.070856             0.022540             0.019835
Rotational constants in MHz :          2124.201198           675.723665           594.632961

                             ****ORCA TERMINATED NORMALLY****
TOTAL RUN TIME: 0 days 0 hours 0 minutes 12 seconds 324 msec
