                         Program Version 6.0.0  -   RELEASE  -
|  1> ! r2scan-3c def2/J RI DEFGRID2 scfconv6 printgap
|  2> %output
|  3>     printlevel normal
|  4> end
|  5> * xyz 0 1
|  6> C -1.1986688703 -1.2016474847 0.0088524467
|  7> C 0.1807417539 -1.2040223365 0.002426736
|  8> C 0.8640054352 3.0911e-06 -3.68384e-05
|  9> C 0.1807475164 1.2040297482 0.0025045663
| 10> C -1.1986644539 1.201654965 0.0088150925
| 11> C -1.9174204226 1.5416e-06 0.0106301575
| 12> N -3.2815453964 -6.3117e-06 -0.0478164778
| 13> Cl 2.6138763378 -3.5951e-06 -0.0033183878
| 14> H -1.7319575361 -2.1396823228 0.0103356968
| 15> H 0.7260536264 -2.1344630868 0.0019806998
| 16> H 0.7260512899 2.1344467577 0.0017793616
| 17> H -1.7319429535 2.139672894 0.010276269
| 18> H -3.7571169057 -0.8553455025 0.180669118
| 19> H -3.7571313251 0.8553527642 0.1806318551
| 20> *
| 21>
| 22>                          ****END OF INPUT****

CARTESIAN COORDINATES (ANGSTROEM)
---------------------------------
  C     -1.198669   -1.201647    0.008852
  C      0.180742   -1.204022    0.002427
  C      0.864005    0.000003   -0.000037
  C      0.180748    1.204030    0.002505
  C     -1.198664    1.201655    0.008815
  C     -1.917420    0.000002    0.010630
  N     -3.281545   -0.000006   -0.047816
  Cl     2.613876   -0.000004   -0.003318
  H     -1.731958   -2.139682    0.010336
  H      0.726054   -2.134463    0.001981
  H      0.726051    2.134447    0.001779
  H     -1.731943    2.139673    0.010276
  H     -3.757117   -0.855346    0.180669
  H     -3.757131    0.855353    0.180632

 Total Charge           Charge          ....    0
 Multiplicity           Mult            ....    1
 Number of Electrons    NEL             ....   66
 Basis Dimension        Dim             ....  195

ORBITAL ENERGIES
----------------

  NO   OCC          E(Eh)            E(eV)
   0   2.0000    -101.206619     -2753.9721
   1   2.0000     -14.178207      -385.8086
   2   2.0000     -10.083883      -274.3964
   3   2.0000     -10.083635      -274.3897
   4   2.0000     -10.043123      -273.2873
   5   2.0000     -10.043115      -273.2870
   6   2.0000     -10.038025      -273.1485
   7   2.0000     -10.038019      -273.1484
   8   2.0000      -9.362381      -254.7633
   9   2.0000      -7.108542      -193.4333
  10   2.0000      -7.098569      -193.1619
  11   2.0000      -7.098358      -193.1561
  12   2.0000      -0.904654       -24.6169
  13   2.0000      -0.845485       -23.0068
  14   2.0000      -0.785384       -21.3714
  15   2.0000      -0.727303       -19.7909
  16   2.0000      -0.683349       -18.5949
  17   2.0000      -0.598212       -16.2782
  18   2.0000      -0.570427       -15.5221
  19   2.0000      -0.506133       -13.7726
  20   2.0000      -0.500468       -13.6184
  21   2.0000      -0.449820       -12.2402
  22   2.0000      -0.417848       -11.3702
  23   2.0000      -0.412154       -11.2153
  24   2.0000      -0.399723       -10.8770
  25   2.0000      -0.377262       -10.2658
  26   2.0000      -0.350970        -9.5504
  27   2.0000      -0.330599        -8.9960
  28   2.0000      -0.325803        -8.8656
  29   2.0000      -0.274945        -7.4816
  30   2.0000      -0.269020        -7.3204
  31   2.0000      -0.245094        -6.6693
  32   2.0000      -0.185092        -5.0366
  33   0.0000      -0.039482        -1.0744
  34   0.0000      -0.017958        -0.4887
  35   0.0000       0.018713         0.5092
  36   0.0000       0.066391         1.8066
  37   0.0000       0.104013         2.8303

MULLIKEN ATOMIC CHARGES
-----------------------
   0 C :   -0.362129
   1 C :   -0.191723
   2 C :    0.159926
   3 C :   -0.191725
   4 C :   -0.362125
   5 C :    0.535050
   6 N :   -0.521106
   7 Cl:   -0.175969
   8 H :    0.139632
   9 H :    0.160738
  10 H :    0.160735
  11 H :    0.139629
  12 H :    0.254532
  13 H :    0.254535
Sum of atomic charges:   -0.0000000

LOEWDIN ATOMIC CHARGES
----------------------
   0 C :   -0.156906
   1 C :   -0.162015
   2 C :   -0.192532
   3 C :   -0.162013
   4 C :   -0.156905
   5 C :    0.126087
   6 N :   -0.596060
   7 Cl:    0.097800
   8 H :    0.170423
   9 H :    0.178013
  10 H :    0.178010
  11 H :    0.170419
  12 H :    0.252835
  13 H :    0.252842

  Mayer bond orders larger than 0.100000
B(  0-C ,  1-C ) :   1.4102 B(  0-C ,  5-C ) :   1.3167 B(  0-C ,  8-H ) :   0.9501
B(  1-C ,  2-C ) :   1.4015 B(  1-C ,  9-H ) :   0.9352 B(  2-C ,  3-C ) :   1.4015
B(  2-C ,  7-Cl) :   0.8903 B(  3-C ,  4-C ) :   1.4101 B(  3-C , 10-H ) :   0.9353
B(  4-C ,  5-C ) :   1.3167 B(  4-C , 11-H ) :   0.9501 B(  5-C ,  6-N ) :   0.9536
B(  6-N , 12-H ) :   0.9297 B(  6-N , 13-H ) :   0.9297

Dispersion correction           -0.004857864
FINAL SINGLE POINT ENERGY      -747.108951354477

DIPOLE MOMENT
-------------

Method             : SCF
Type of density    : Electron Density
Multiplicity       :   1
Irrep              :   0
Energy             :  -747.1108459067986587 Eh
Relativity type    :
Basis              : AO
                                X                 Y                 Z
Electronic contribution:     10.970219635       0.000024468      -0.116706850
Nuclear contribution   :    -12.463470537      -0.000012562       0.366019390
                        -----------------------------------------
Total Dipole Moment    :     -1.493250903       0.000011906       0.249312540
                        -----------------------------------------
Magnitude (a.u.)       :      1.513920408
Magnitude (Debye)      :      3.848079865

Rotational constants in cm-1:             0.188349             0.032597             0.027797
Rotational constants in MHz :          5646.555244           977.227848           833.333999

                             ****ORCA TERMINATED NORMALLY****
TOTAL RUN TIME: 0 days 0 hours 0 minutes 21 seconds 191 msec
