                         Program Version 6.0.0  -   RELEASE  -
|  1> ! r2scan-3c def2/J RI DEFGRID2 scfconv6 printgap
|  2> %output
|  3>     printlevel normal
|  4> end
|  5> %cpcm
|  6>     smd true
|  7>     smdsolvent "water"
|  8> end
|  9> * xyz 0 1
| 10> C -1.1986688703 -1.2016474847 0.0088524467
| 11> C 0.1807417539 -1.2040223365 0.002426736
| 12> C 0.8640054352 3.0911e-06 -3.68384e-05
| 13> C 0.1807475164 1.2040297482 0.0025045663
| 14> C -1.1986644539 1.201654965 0.0088150925
| 15> C -1.9174204226 1.5416e-06 0.0106301575
| 16> N -3.2815453964 -6.3117e-06 -0.0478164778
| 17> Cl 2.6138763378 -3.5951e-06 -0.0033183878
| 18> H -1.7319575361 -2.1396823228 0.0103356968
| 19> H 0.7260536264 -2.1344630868 0.0019806998
| 20> H 0.7260512899 2.1344467577 0.0017793616
| 21> H -1.7319429535 2.139672894 0.010276269
| 22> H -3.7571169057 -0.8553455025 0.180669118
| 23> H -3.7571313251 0.8553527642 0.1806318551
| 24> *
| 25>
| 26>                          ****END OF INPUT****

CARTESIAN COORDINATES (ANGSTROEM)
---------------------------------
  C     -1.198669   -1.201647    0.008852
  C      0.180742   -1.204022    0.002427
  C      0.864005    0.000003   -0.000037
  C      0.180748    1.204030    0.002505
  C     -1.198664    1.201655    0.008815
  C     -1.917420    0.000002    0.010630
  N     -3.281545   -0.000006   -0.047816
  Cl     2.613876   -0.000004   -0.003318
  H     -1.731958   -2.139682    0.010336
  H      0.726054   -2.134463    0.001981
  H      0.726051    2.134447    0.001779
  H     -1.731943    2.139673    0.010276
  H     -3.757117   -0.855346    0.180669
  H     -3.757131    0.855353    0.180632

 Total Charge           Charge          ....    0
 Multiplicity           Mult            ....    1
 Number of Electrons    NEL             ....   66
 Basis Dimension        Dim             ....  195

ORBITAL ENERGIES
----------------

  NO   OCC          E(Eh)            E(eV)
   0   2.0000    -101.215386     -2754.2107
   1   2.0000     -14.160650      -385.3309
   2   2.0000     -10.084322      -274.4083
   3   2.0000     -10.077908      -274.2338
   4   2.0000     -10.041039      -273.2306
   5   2.0000     -10.041031      -273.2304
   6   2.0000     -10.031719      -272.9770
   7   2.0000     -10.031712      -272.9768
   8   2.0000      -9.371352      -255.0075
   9   2.0000      -7.117302      -193.6716
  10   2.0000      -7.107637      -193.4086
  11   2.0000      -7.107406      -193.4023
  12   2.0000      -0.891326       -24.2542
  13   2.0000      -0.847938       -23.0736
  14   2.0000      -0.786066       -21.3900
  15   2.0000      -0.723819       -19.6961
  16   2.0000      -0.680044       -18.5049
  17   2.0000      -0.592028       -16.1099
  18   2.0000      -0.564289       -15.3551
  19   2.0000      -0.497297       -13.5321
  20   2.0000      -0.485060       -13.1992
  21   2.0000      -0.446248       -12.1430
  22   2.0000      -0.409501       -11.1431
  23   2.0000      -0.406356       -11.0575
  24   2.0000      -0.392688       -10.6856
  25   2.0000      -0.377716       -10.2782
  26   2.0000      -0.349577        -9.5125
  27   2.0000      -0.331908        -9.0317
  28   2.0000      -0.318967        -8.6795
  29   2.0000      -0.283226        -7.7070
  30   2.0000      -0.270885        -7.3712
  31   2.0000      -0.245098        -6.6695
  32   2.0000      -0.182009        -4.9527
  33   0.0000      -0.038439        -1.0460
  34   0.0000      -0.017286        -0.4704
  35   0.0000       0.014664         0.3990
  36   0.0000       0.089229         2.4280
  37   0.0000       0.111490         3.0338

MULLIKEN ATOMIC CHARGES
-----------------------
   0 C :   -0.386960
   1 C :   -0.211496
   2 C :    0.142149
   3 C :   -0.211499
   4 C :   -0.386951
   5 C :    0.461814
   6 N :   -0.576430
   7 Cl:   -0.199771
   8 H :    0.182979
   9 H :    0.191147
  10 H :    0.191144
  11 H :    0.182976
  12 H :    0.310447
  13 H :    0.310451
Sum of atomic charges:   -0.0000000

LOEWDIN ATOMIC CHARGES
----------------------
   0 C :   -0.161576
   1 C :   -0.175158
   2 C :   -0.215822
   3 C :   -0.175155
   4 C :   -0.161574
   5 C :    0.119020
   6 N :   -0.584348
   7 Cl:    0.075212
   8 H :    0.185952
   9 H :    0.187028
  10 H :    0.187024
  11 H :    0.185948
  12 H :    0.266720
  13 H :    0.266728

  Mayer bond orders larger than 0.100000
B(  0-C ,  1-C ) :   1.4002 B(  0-C ,  5-C ) :   1.2982 B(  0-C ,  8-H ) :   0.9625
B(  1-C ,  2-C ) :   1.3425 B(  1-C ,  9-H ) :   0.9426 B(  2-C ,  3-C ) :   1.3425
B(  2-C ,  7-Cl) :   0.8772 B(  3-C ,  4-C ) :   1.4002 B(  3-C , 10-H ) :   0.9426
B(  4-C ,  5-C ) :   1.2982 B(  4-C , 11-H ) :   0.9625 B(  5-C ,  6-N ) :   0.9690
B(  6-N , 12-H ) :   0.9041 B(  6-N , 13-H ) :   0.9041

Dispersion correction           -0.004857864
FINAL SINGLE POINT ENERGY      -747.118583383241

DIPOLE MOMENT
-------------

Method             : SCF
Type of density    : Electron Density
Multiplicity       :   1
Irrep              :   0
Energy             :  -747.1204779355622350 Eh
Relativity type    :
Basis              : AO
                                X                 Y                 Z
Electronic contribution:     10.392661673       0.000028236      -0.028138545
Nuclear contribution   :    -12.463470537      -0.000012562       0.366019390
                        -----------------------------------------
Total Dipole Moment    :     -2.070808864       0.000015674       0.337880845
                        -----------------------------------------
Magnitude (a.u.)       :      2.098192751
Magnitude (Debye)      :      5.333182137

Rotational constants in cm-1:             0.188349             0.032597             0.027797
Rotational constants in MHz :          5646.555244           977.227848           833.333999

                             ****ORCA TERMINATED NORMALLY****
TOTAL RUN TIME: 0 days 0 hours 0 minutes 25 seconds 105 msec
