                         Program Version 6.0.0  -   RELEASE  -
|  1> ! wb97x-v def2-tzvp def2/J RIJCOSX DEFGRID2 scfconv7 GCP(DFT/TZ) printgap
|  2> %output
|  3>     printlevel normal
|  4> end
|  5> * xyz 0 1
|  6> C -0.8700085650883064 -0.00019953700462210964 0.00020519845448295019
|  7> F -1.3232330322205164 -0.5114431165921607 1.1431975508374856
|  8> F -1.3233428735926358 1.245283006954743 -0.12843223673080145
|  9> F -1.3229420167804529 -0.7342850429094606 -1.0142739751158263
| 10> Br 1.0900940923678686 0.000378269810619683 -0.0005028120798032564
| 11> *
| 12>
| 13>                          ****END OF INPUT****

CARTESIAN COORDINATES (ANGSTROEM)
---------------------------------
  C     -0.870009   -0.000200    0.000205
  F     -1.323233   -0.511443    1.143198
  F     -1.323343    1.245283   -0.128432
  F     -1.322942   -0.734285   -1.014274
  Br     1.090094    0.000378   -0.000503

 Total Charge           Charge          ....    0
 Multiplicity           Mult            ....    1
 Number of Electrons    NEL             ....   68
 Basis Dimension        Dim             ....  172

ORBITAL ENERGIES
----------------

  NO   OCC          E(Eh)            E(eV)
   0   2.0000    -494.756682    -13463.0138
   1   2.0000     -66.926283     -1821.1567
   2   2.0000     -60.983210     -1659.4375
   3   2.0000     -60.981391     -1659.3880
   4   2.0000     -60.981390     -1659.3880
   5   2.0000     -27.633169      -751.9368
   6   2.0000     -27.633125      -751.9356
   7   2.0000     -27.632980      -751.9316
   8   2.0000     -12.367538      -336.5378
   9   2.0000     -10.678268      -290.5704
  10   2.0000      -8.458473      -230.1667
  11   2.0000      -8.450914      -229.9611
  12   2.0000      -8.450913      -229.9610
  13   2.0000      -4.443746      -120.9205
  14   2.0000      -4.440636      -120.8358
  15   2.0000      -4.440635      -120.8358
  16   2.0000      -4.432412      -120.6121
  17   2.0000      -4.432408      -120.6120
  18   2.0000      -2.102241       -57.2049
  19   2.0000      -2.050881       -55.8073
  20   2.0000      -2.050833       -55.8060
  21   2.0000      -1.429082       -38.8873
  22   2.0000      -1.351965       -36.7888
  23   2.0000      -1.298090       -35.3228
  24   2.0000      -1.298041       -35.3215
  25   2.0000      -1.221647       -33.2427
  26   2.0000      -1.197658       -32.5899
  27   2.0000      -1.197645       -32.5896
  28   2.0000      -1.184262       -32.2254
  29   2.0000      -1.184238       -32.2247
  30   2.0000      -1.180396       -32.1202
  31   2.0000      -0.933469       -25.4010
  32   2.0000      -0.768276       -20.9059
  33   2.0000      -0.768273       -20.9058
  34   0.0000      -0.400401       -10.8955
  35   0.0000      -0.271250        -7.3811
  36   0.0000      -0.245063        -6.6685
  37   0.0000      -0.244983        -6.6663
  38   0.0000       0.059611         1.6221

MULLIKEN ATOMIC CHARGES
-----------------------
   0 C :    0.395532
   1 F :   -0.122914
   2 F :   -0.122961
   3 F :   -0.122924
   4 Br:   -0.026733
Sum of atomic charges:    0.0000000

LOEWDIN ATOMIC CHARGES
----------------------
   0 C :   -0.932533
   1 F :    0.210281
   2 F :    0.210183
   3 F :    0.210248
   4 Br:    0.301821

  Mayer bond orders larger than 0.100000
B(  0-C ,  1-F ) :   1.1759 B(  0-C ,  2-F ) :   1.1757 B(  0-C ,  3-F ) :   1.1758
B(  0-C ,  4-Br) :   1.1305

FINAL SINGLE POINT ENERGY     -2911.575646437240

DIPOLE MOMENT
-------------

Method             : SCF
Type of density    : Electron Density
Multiplicity       :   1
Irrep              :   0
Energy             : -2911.5947139909399084 Eh
Relativity type    :
Basis              : AO
                                X                 Y                 Z
Electronic contribution:      6.491008532       0.001285561      -0.001811277
Nuclear contribution   :     -6.343497174      -0.001530380       0.001914319
                        -----------------------------------------
Total Dipole Moment    :      0.147511359      -0.000244819       0.000103041
                        -----------------------------------------
Magnitude (a.u.)       :      0.147511598
Magnitude (Debye)      :      0.374944684

Rotational constants in cm-1:             0.188650             0.067842             0.067838
Rotational constants in MHz :          5655.578462          2033.853525          2033.739438

                             ****ORCA TERMINATED NORMALLY****
TOTAL RUN TIME: 0 days 0 hours 0 minutes 46 seconds 117 msec
