                         Program Version 6.0.0  -   RELEASE  -
|  1> ! wb97x-v def2-tzvp def2/J RIJCOSX DEFGRID2 scfconv7 GCP(DFT/TZ) printgap
|  2> %output
|  3>     printlevel normal
|  4> end
|  5> %cpcm
|  6>     smd true
|  7>     smdsolvent "water"
|  8> end
|  9> * xyz 0 1
| 10> C -0.8700085650883064 -0.00019953700462210964 0.00020519845448295019
| 11> F -1.3232330322205164 -0.5114431165921607 1.1431975508374856
| 12> F -1.3233428735926358 1.245283006954743 -0.12843223673080145
| 13> F -1.3229420167804529 -0.7342850429094606 -1.0142739751158263
| 14> Br 1.0900940923678686 0.000378269810619683 -0.0005028120798032564
| 15> *
| 16>
| 17>                          ****END OF INPUT****

CARTESIAN COORDINATES (ANGSTROEM)
---------------------------------
  C     -0.870009   -0.000200    0.000205
  F     -1.323233   -0.511443    1.143198
  F     -1.323343    1.245283   -0.128432
  F     -1.322942   -0.734285   -1.014274
  Br     1.090094    0.000378   -0.000503

 Total Charge           Charge          ....    0
 Multiplicity           Mult            ....    1
 Number of Electrons    NEL             ....   68
 Basis Dimension        Dim             ....  172

ORBITAL ENERGIES
----------------

  NO   OCC          E(Eh)            E(eV)
   0   2.0000    -494.755585    -13462.9839
   1   2.0000     -66.925177     -1821.1267
   2   2.0000     -60.982106     -1659.4075
   3   2.0000     -60.980283     -1659.3579
   4   2.0000     -60.980283     -1659.3579
   5   2.0000     -27.631570      -751.8932
   6   2.0000     -27.631538      -751.8924
   7   2.0000     -27.631389      -751.8883
   8   2.0000     -12.366129      -336.4995
   9   2.0000     -10.677161      -290.5403
  10   2.0000      -8.457359      -230.1364
  11   2.0000      -8.449804      -229.9309
  12   2.0000      -8.449803      -229.9308
  13   2.0000      -4.442635      -120.8903
  14   2.0000      -4.439525      -120.8056
  15   2.0000      -4.439524      -120.8056
  16   2.0000      -4.431306      -120.5820
  17   2.0000      -4.431302      -120.5819
  18   2.0000      -2.100549       -57.1589
  19   2.0000      -2.049288       -55.7640
  20   2.0000      -2.049239       -55.7626
  21   2.0000      -1.427739       -38.8508
  22   2.0000      -1.350704       -36.7545
  23   2.0000      -1.296699       -35.2850
  24   2.0000      -1.296649       -35.2836
  25   2.0000      -1.220119       -33.2011
  26   2.0000      -1.196107       -32.5477
  27   2.0000      -1.196095       -32.5474
  28   2.0000      -1.182702       -32.1829
  29   2.0000      -1.182674       -32.1822
  30   2.0000      -1.178845       -32.0780
  31   2.0000      -0.932196       -25.3663
  32   2.0000      -0.767199       -20.8765
  33   2.0000      -0.767195       -20.8764
  34   0.0000      -0.398922       -10.8552
  35   0.0000      -0.269022        -7.3205
  36   0.0000      -0.243545        -6.6272
  37   0.0000      -0.243467        -6.6251
  38   0.0000       0.060762         1.6534

MULLIKEN ATOMIC CHARGES
-----------------------
   0 C :    0.403936
   1 F :   -0.125599
   2 F :   -0.125687
   3 F :   -0.125665
   4 Br:   -0.026985
Sum of atomic charges:    0.0000000

LOEWDIN ATOMIC CHARGES
----------------------
   0 C :   -0.929600
   1 F :    0.209251
   2 F :    0.209121
   3 F :    0.209176
   4 Br:    0.302051

  Mayer bond orders larger than 0.100000
B(  0-C ,  1-F ) :   1.1730 B(  0-C ,  2-F ) :   1.1728 B(  0-C ,  3-F ) :   1.1729
B(  0-C ,  4-Br) :   1.1298

FINAL SINGLE POINT ENERGY     -2911.572154611747

DIPOLE MOMENT
-------------

Method             : SCF
Type of density    : Electron Density
Multiplicity       :   1
Irrep              :   0
Energy             : -2911.5912221654475616 Eh
Relativity type    :
Basis              : AO
                                X                 Y                 Z
Electronic contribution:      6.491362002       0.001165488      -0.001515283
Nuclear contribution   :     -6.343497174      -0.001530380       0.001914319
                        -----------------------------------------
Total Dipole Moment    :      0.147864828      -0.000364892       0.000399036
                        -----------------------------------------
Magnitude (a.u.)       :      0.147865817
Magnitude (Debye)      :      0.375845038

Rotational constants in cm-1:             0.188650             0.067842             0.067838
Rotational constants in MHz :          5655.578462          2033.853525          2033.739438

                             ****ORCA TERMINATED NORMALLY****
TOTAL RUN TIME: 0 days 0 hours 0 minutes 48 seconds 46 msec
