                         Program Version 6.0.0  -   RELEASE  -
|  1> ! wb97x-v def2-tzvp def2/J RIJCOSX DEFGRID2 scfconv7 GCP(DFT/TZ) printgap
|  2> %output
|  3>     printlevel normal
|  4> end
|  5> * xyz 0 1
|  6> C -3.4359724597504813 0.5744370386308686 0.05651249209132196
|  7> C -1.939418970896838 0.4790011644183306 0.06899340988305533
|  8> C -1.142281925810758 1.5053675280322805 -0.25050020612887697
|  9> C 0.3549171562541048 1.4465057465152782 -0.28898963745850337
| 10> C 0.877041642451472 0.0009333117257839168 -0.2937189291409236
| 11> H 0.6236036626156907 -0.4358980169819971 -1.2682868976982802
| 12> C 0.12968003514507628 -0.7854028294464737 0.7883982134507238
| 13> C -1.3645525083679253 -0.8496187260197403 0.49071669481997876
| 14> H -1.8952104721868515 -1.1794255367986701 1.397133569188124
| 15> O -1.6561915540252474 -1.8003161237065528 -0.5710555237794761
| 16> C 2.379439066109776 -0.05459886597039722 -0.1398865170499064
| 17> C 3.1635481069535873 -0.34421942839112557 -1.1837800991343927
| 18> C 2.9506350077350265 0.23064491525566663 1.2194371204282142
| 19> H -3.8725081331641626 -0.17104276674399674 -0.6185065450718581
| 20> H -3.770648631587041 1.5646242119494966 -0.26419242285096484
| 21> H -3.8470881480093864 0.37353024724194217 1.0538870225262198
| 22> H -1.5980307756073366 2.461825921232706 -0.5063225815071648
| 23> H 0.7187715810999629 1.973674836206763 -1.179729910316701
| 24> H 0.7630556032122812 1.9958823327178052 0.5723312688473736
| 25> H 0.5211248031881098 -1.8063977404807907 0.8764526952181948
| 26> H 0.266412708628886 -0.2981074916500125 1.7624849635808337
| 27> H -1.4321460159070316 -2.6764603058157705 -0.2300860932834752
| 28> H 4.246590311745799 -0.3651359213760356 -1.0907170393751946
| 29> H 2.7414272152956967 -0.5635110513193009 -2.161629014836965
| 30> H 2.570444473263049 1.1740634912003827 1.6278667230591453
| 31> H 2.667388486490779 -0.5536495929290091 1.9314922903705045
| 32> H 4.041714679896331 0.28212372967068755 1.1852668619922484
| 33> *
| 34>
| 35>                          ****END OF INPUT****

CARTESIAN COORDINATES (ANGSTROEM)
---------------------------------
  C     -3.435972    0.574437    0.056512
  C     -1.939419    0.479001    0.068993
  C     -1.142282    1.505368   -0.250500
  C      0.354917    1.446506   -0.288990
  C      0.877042    0.000933   -0.293719
  H      0.623604   -0.435898   -1.268287
  C      0.129680   -0.785403    0.788398
  C     -1.364553   -0.849619    0.490717
  H     -1.895210   -1.179426    1.397134
  O     -1.656192   -1.800316   -0.571056
  C      2.379439   -0.054599   -0.139887
  C      3.163548   -0.344219   -1.183780
  C      2.950635    0.230645    1.219437
  H     -3.872508   -0.171043   -0.618507
  H     -3.770649    1.564624   -0.264192
  H     -3.847088    0.373530    1.053887
  H     -1.598031    2.461826   -0.506323
  H      0.718772    1.973675   -1.179730
  H      0.763056    1.995882    0.572331
  H      0.521125   -1.806398    0.876453
  H      0.266413   -0.298107    1.762485
  H     -1.432146   -2.676460   -0.230086
  H      4.246590   -0.365136   -1.090717
  H      2.741427   -0.563511   -2.161629
  H      2.570444    1.174063    1.627867
  H      2.667388   -0.553650    1.931492
  H      4.041715    0.282124    1.185267

 Total Charge           Charge          ....    0
 Multiplicity           Mult            ....    1
 Number of Electrons    NEL             ....   84
 Basis Dimension        Dim             ....  437

ORBITAL ENERGIES
----------------

  NO   OCC          E(Eh)            E(eV)
   0   2.0000     -21.669100      -589.6462
   1   2.0000     -12.099490      -329.2439
   2   2.0000     -12.054924      -328.0312
   3   2.0000     -12.049251      -327.8768
   4   2.0000     -12.047754      -327.8361
   5   2.0000     -12.045623      -327.7781
   6   2.0000     -12.044899      -327.7584
   7   2.0000     -12.041283      -327.6600
   8   2.0000     -12.041069      -327.6542
   9   2.0000     -12.033998      -327.4617
  10   2.0000     -12.029343      -327.3351
  11   2.0000      -1.665703       -45.3261
  12   2.0000      -1.364007       -37.1165
  13   2.0000      -1.324995       -36.0549
  14   2.0000      -1.267722       -34.4965
  15   2.0000      -1.256246       -34.1842
  16   2.0000      -1.187667       -32.3181
  17   2.0000      -1.182872       -32.1876
  18   2.0000      -1.135237       -30.8914
  19   2.0000      -1.098743       -29.8983
  20   2.0000      -1.029034       -28.0014
  21   2.0000      -1.004849       -27.3433
  22   2.0000      -0.979321       -26.6487
  23   2.0000      -0.940263       -25.5858
  24   2.0000      -0.928378       -25.2625
  25   2.0000      -0.910961       -24.7885
  26   2.0000      -0.898221       -24.4418
  27   2.0000      -0.893311       -24.3082
  28   2.0000      -0.876690       -23.8559
  29   2.0000      -0.855363       -23.2756
  30   2.0000      -0.836600       -22.7651
  31   2.0000      -0.832979       -22.6665
  32   2.0000      -0.827514       -22.5178
  33   2.0000      -0.814415       -22.1613
  34   2.0000      -0.813141       -22.1267
  35   2.0000      -0.805334       -21.9142
  36   2.0000      -0.801375       -21.8065
  37   2.0000      -0.775057       -21.0904
  38   2.0000      -0.768895       -20.9227
  39   2.0000      -0.759489       -20.6667
  40   2.0000      -0.644783       -17.5454
  41   2.0000      -0.639400       -17.3990
  42   0.0000      -0.222617        -6.0577
  43   0.0000      -0.199359        -5.4248
  44   0.0000      -0.116146        -3.1605
  45   0.0000      -0.058308        -1.5866
  46   0.0000      -0.048775        -1.3272

MULLIKEN ATOMIC CHARGES
-----------------------
   0 C :   -0.359480
   1 C :    0.004376
   2 C :   -0.196838
   3 C :   -0.145441
   4 C :    0.044011
   5 H :    0.081447
   6 C :   -0.289114
   7 C :    0.117687
   8 H :    0.082472
   9 O :   -0.439303
  10 C :    0.028296
  11 C :   -0.294292
  12 C :   -0.384647
  13 H :    0.136112
  14 H :    0.109648
  15 H :    0.106317
  16 H :    0.108207
  17 H :    0.110545
  18 H :    0.089168
  19 H :    0.108561
  20 H :    0.103079
  21 H :    0.293401
  22 H :    0.106898
  23 H :    0.115104
  24 H :    0.118318
  25 H :    0.128382
  26 H :    0.117085
Sum of atomic charges:   -0.0000000

LOEWDIN ATOMIC CHARGES
----------------------
   0 C :   -0.256767
   1 C :   -0.180019
   2 C :   -0.130066
   3 C :   -0.210491
   4 C :   -0.205787
   5 H :    0.164890
   6 C :   -0.206114
   7 C :   -0.288013
   8 H :    0.138214
   9 O :   -0.033069
  10 C :   -0.205318
  11 C :   -0.193424
  12 C :   -0.255101
  13 H :    0.130084
  14 H :    0.122796
  15 H :    0.122434
  16 H :    0.140042
  17 H :    0.144425
  18 H :    0.141452
  19 H :    0.136683
  20 H :    0.144818
  21 H :    0.165142
  22 H :    0.117842
  23 H :    0.120850
  24 H :    0.122673
  25 H :    0.126679
  26 H :    0.125144

  Mayer bond orders larger than 0.100000
B(  0-C ,  1-C ) :   0.9584 B(  0-C , 13-H ) :   0.9751 B(  0-C , 14-H ) :   0.9901
B(  0-C , 15-H ) :   0.9725 B(  1-C ,  2-C ) :   1.8944 B(  1-C ,  7-C ) :   0.9757
B(  2-C ,  3-C ) :   0.9858 B(  2-C , 16-H ) :   0.9610 B(  3-C ,  4-C ) :   1.0282
B(  3-C , 17-H ) :   0.9712 B(  3-C , 18-H ) :   0.9468 B(  4-C ,  5-H ) :   0.9830
B(  4-C ,  6-C ) :   0.9409 B(  4-C , 10-C ) :   0.8760 B(  6-C ,  7-C ) :   1.0033
B(  6-C , 19-H ) :   0.9803 B(  6-C , 20-H ) :   0.9527 B(  7-C ,  8-H ) :   0.9828
B(  7-C ,  9-O ) :   1.1138 B(  9-O , 21-H ) :   0.9055 B( 10-C , 11-C ) :   1.9375
B( 10-C , 12-C ) :   0.9568 B( 11-C , 22-H ) :   0.9660 B( 11-C , 23-H ) :   0.9696
B( 12-C , 24-H ) :   0.9765 B( 12-C , 25-H ) :   0.9720 B( 12-C , 26-H ) :   0.9831

FINAL SINGLE POINT ENERGY      -465.919006125210

DIPOLE MOMENT
-------------

Method             : SCF
Type of density    : Electron Density
Multiplicity       :   1
Irrep              :   0
Energy             :  -465.9367380453102214 Eh
Relativity type    :
Basis              : AO
                                X                 Y                 Z
Electronic contribution:     -2.419393068      -1.782077534      -2.252865182
Nuclear contribution   :      2.553907905       1.694159958       2.928869624
                        -----------------------------------------
Total Dipole Moment    :      0.134514837      -0.087917576       0.676004443
                        -----------------------------------------
Magnitude (a.u.)       :      0.694842247
Magnitude (Debye)      :      1.766148634

Rotational constants in cm-1:             0.070691             0.022140             0.019988
Rotational constants in MHz :          2119.248486           663.752034           599.216351

                             ****ORCA TERMINATED NORMALLY****
TOTAL RUN TIME: 0 days 0 hours 5 minutes 27 seconds 38 msec
