                         Program Version 6.0.0  -   RELEASE  -
|  1> ! wb97x-v def2-tzvp def2/J RIJCOSX DEFGRID2 scfconv7 GCP(DFT/TZ) printgap
|  2> %output
|  3>     printlevel normal
|  4> end
|  5> %cpcm
|  6>     smd true
|  7>     smdsolvent "water"
|  8> end
|  9> * xyz 0 1
| 10> C -3.4359724597504813 0.5744370386308686 0.05651249209132196
| 11> C -1.939418970896838 0.4790011644183306 0.06899340988305533
| 12> C -1.142281925810758 1.5053675280322805 -0.25050020612887697
| 13> C 0.3549171562541048 1.4465057465152782 -0.28898963745850337
| 14> C 0.877041642451472 0.0009333117257839168 -0.2937189291409236
| 15> H 0.6236036626156907 -0.4358980169819971 -1.2682868976982802
| 16> C 0.12968003514507628 -0.7854028294464737 0.7883982134507238
| 17> C -1.3645525083679253 -0.8496187260197403 0.49071669481997876
| 18> H -1.8952104721868515 -1.1794255367986701 1.397133569188124
| 19> O -1.6561915540252474 -1.8003161237065528 -0.5710555237794761
| 20> C 2.379439066109776 -0.05459886597039722 -0.1398865170499064
| 21> C 3.1635481069535873 -0.34421942839112557 -1.1837800991343927
| 22> C 2.9506350077350265 0.23064491525566663 1.2194371204282142
| 23> H -3.8725081331641626 -0.17104276674399674 -0.6185065450718581
| 24> H -3.770648631587041 1.5646242119494966 -0.26419242285096484
| 25> H -3.8470881480093864 0.37353024724194217 1.0538870225262198
| 26> H -1.5980307756073366 2.461825921232706 -0.5063225815071648
| 27> H 0.7187715810999629 1.973674836206763 -1.179729910316701
| 28> H 0.7630556032122812 1.9958823327178052 0.5723312688473736
| 29> H 0.5211248031881098 -1.8063977404807907 0.8764526952181948
| 30> H 0.266412708628886 -0.2981074916500125 1.7624849635808337
| 31> H -1.4321460159070316 -2.6764603058157705 -0.2300860932834752
| 32> H 4.246590311745799 -0.3651359213760356 -1.0907170393751946
| 33> H 2.7414272152956967 -0.5635110513193009 -2.161629014836965
| 34> H 2.570444473263049 1.1740634912003827 1.6278667230591453
| 35> H 2.667388486490779 -0.5536495929290091 1.9314922903705045
| 36> H 4.041714679896331 0.28212372967068755 1.1852668619922484
| 37> *
| 38>
| 39>                          ****END OF INPUT****

CARTESIAN COORDINATES (ANGSTROEM)
---------------------------------
  C     -3.435972    0.574437    0.056512
  C     -1.939419    0.479001    0.068993
  C     -1.142282    1.505368   -0.250500
  C      0.354917    1.446506   -0.288990
  C      0.877042    0.000933   -0.293719
  H      0.623604   -0.435898   -1.268287
  C      0.129680   -0.785403    0.788398
  C     -1.364553   -0.849619    0.490717
  H     -1.895210   -1.179426    1.397134
  O     -1.656192   -1.800316   -0.571056
  C      2.379439   -0.054599   -0.139887
  C      3.163548   -0.344219   -1.183780
  C      2.950635    0.230645    1.219437
  H     -3.872508   -0.171043   -0.618507
  H     -3.770649    1.564624   -0.264192
  H     -3.847088    0.373530    1.053887
  H     -1.598031    2.461826   -0.506323
  H      0.718772    1.973675   -1.179730
  H      0.763056    1.995882    0.572331
  H      0.521125   -1.806398    0.876453
  H      0.266413   -0.298107    1.762485
  H     -1.432146   -2.676460   -0.230086
  H      4.246590   -0.365136   -1.090717
  H      2.741427   -0.563511   -2.161629
  H      2.570444    1.174063    1.627867
  H      2.667388   -0.553650    1.931492
  H      4.041715    0.282124    1.185267

 Total Charge           Charge          ....    0
 Multiplicity           Mult            ....    1
 Number of Electrons    NEL             ....   84
 Basis Dimension        Dim             ....  437

ORBITAL ENERGIES
----------------

  NO   OCC          E(Eh)            E(eV)
   0   2.0000     -21.671140      -589.7017
   1   2.0000     -12.093148      -329.0713
   2   2.0000     -12.053397      -327.9896
   3   2.0000     -12.045131      -327.7647
   4   2.0000     -12.043684      -327.7253
   5   2.0000     -12.038957      -327.5967
   6   2.0000     -12.037586      -327.5594
   7   2.0000     -12.033909      -327.4593
   8   2.0000     -12.030387      -327.3635
   9   2.0000     -12.030158      -327.3572
  10   2.0000     -12.025106      -327.2198
  11   2.0000      -1.668097       -45.3912
  12   2.0000      -1.359531       -36.9947
  13   2.0000      -1.321942       -35.9719
  14   2.0000      -1.262715       -34.3602
  15   2.0000      -1.250708       -34.0335
  16   2.0000      -1.180983       -32.1362
  17   2.0000      -1.179445       -32.0943
  18   2.0000      -1.131144       -30.7800
  19   2.0000      -1.093645       -29.7596
  20   2.0000      -1.028487       -27.9866
  21   2.0000      -1.002473       -27.2787
  22   2.0000      -0.977315       -26.5941
  23   2.0000      -0.938725       -25.5440
  24   2.0000      -0.925481       -25.1836
  25   2.0000      -0.908067       -24.7098
  26   2.0000      -0.893719       -24.3193
  27   2.0000      -0.889869       -24.2146
  28   2.0000      -0.872424       -23.7399
  29   2.0000      -0.848958       -23.1013
  30   2.0000      -0.829997       -22.5854
  31   2.0000      -0.824857       -22.4455
  32   2.0000      -0.821838       -22.3633
  33   2.0000      -0.809245       -22.0207
  34   2.0000      -0.807496       -21.9731
  35   2.0000      -0.798074       -21.7167
  36   2.0000      -0.796198       -21.6657
  37   2.0000      -0.769060       -20.9272
  38   2.0000      -0.761415       -20.7192
  39   2.0000      -0.753420       -20.5016
  40   2.0000      -0.643403       -17.5079
  41   2.0000      -0.637856       -17.3569
  42   0.0000      -0.220406        -5.9975
  43   0.0000      -0.197881        -5.3846
  44   0.0000      -0.112159        -3.0520
  45   0.0000      -0.045324        -1.2333
  46   0.0000      -0.040495        -1.1019

MULLIKEN ATOMIC CHARGES
-----------------------
   0 C :   -0.388516
   1 C :   -0.049885
   2 C :   -0.245476
   3 C :   -0.157657
   4 C :    0.059027
   5 H :    0.078291
   6 C :   -0.300161
   7 C :    0.148271
   8 H :    0.117719
   9 O :   -0.556716
  10 C :   -0.022857
  11 C :   -0.389186
  12 C :   -0.424781
  13 H :    0.131128
  14 H :    0.135440
  15 H :    0.133881
  16 H :    0.147336
  17 H :    0.122931
  18 H :    0.119736
  19 H :    0.133788
  20 H :    0.124688
  21 H :    0.356255
  22 H :    0.147515
  23 H :    0.148886
  24 H :    0.142962
  25 H :    0.149310
  26 H :    0.138067
Sum of atomic charges:   -0.0000000

LOEWDIN ATOMIC CHARGES
----------------------
   0 C :   -0.264451
   1 C :   -0.195191
   2 C :   -0.137165
   3 C :   -0.211286
   4 C :   -0.209034
   5 H :    0.161074
   6 C :   -0.201946
   7 C :   -0.281617
   8 H :    0.148772
   9 O :   -0.073948
  10 C :   -0.208868
  11 C :   -0.219053
  12 C :   -0.257464
  13 H :    0.126972
  14 H :    0.127845
  15 H :    0.128967
  16 H :    0.147303
  17 H :    0.146525
  18 H :    0.149337
  19 H :    0.144301
  20 H :    0.151306
  21 H :    0.188056
  22 H :    0.123529
  23 H :    0.125119
  24 H :    0.129779
  25 H :    0.132763
  26 H :    0.128375

  Mayer bond orders larger than 0.100000
B(  0-C ,  1-C ) :   0.9637 B(  0-C , 13-H ) :   0.9675 B(  0-C , 14-H ) :   0.9882
B(  0-C , 15-H ) :   0.9716 B(  1-C ,  2-C ) :   1.8879 B(  1-C ,  7-C ) :   0.9644
B(  2-C ,  3-C ) :   0.9847 B(  2-C , 16-H ) :   0.9632 B(  3-C ,  4-C ) :   1.0113
B(  3-C , 17-H ) :   0.9661 B(  3-C , 18-H ) :   0.9422 B(  4-C ,  5-H ) :   0.9833
B(  4-C ,  6-C ) :   0.9264 B(  4-C , 10-C ) :   0.8716 B(  6-C ,  7-C ) :   1.0053
B(  6-C , 19-H ) :   0.9769 B(  6-C , 20-H ) :   0.9528 B(  7-C ,  8-H ) :   0.9899
B(  7-C ,  9-O ) :   1.0503 B(  9-O , 21-H ) :   0.8702 B( 10-C , 11-C ) :   1.9177
B( 10-C , 12-C ) :   0.9687 B( 11-C , 22-H ) :   0.9688 B( 11-C , 23-H ) :   0.9684
B( 12-C , 24-H ) :   0.9698 B( 12-C , 25-H ) :   0.9653 B( 12-C , 26-H ) :   0.9793

FINAL SINGLE POINT ENERGY      -465.927167682721

DIPOLE MOMENT
-------------

Method             : SCF
Type of density    : Electron Density
Multiplicity       :   1
Irrep              :   0
Energy             :  -465.9448996028210672 Eh
Relativity type    :
Basis              : AO
                                X                 Y                 Z
Electronic contribution:     -2.355890810      -1.771911469      -1.785579802
Nuclear contribution   :      2.553907905       1.694159958       2.928869624
                        -----------------------------------------
Total Dipole Moment    :      0.198017095      -0.077751511       1.143289823
                        -----------------------------------------
Magnitude (a.u.)       :      1.162913447
Magnitude (Debye)      :      2.955891075

Rotational constants in cm-1:             0.070691             0.022140             0.019988
Rotational constants in MHz :          2119.248486           663.752034           599.216351

                             ****ORCA TERMINATED NORMALLY****
TOTAL RUN TIME: 0 days 0 hours 5 minutes 35 seconds 938 msec
