                         Program Version 6.0.0  -   RELEASE  -
|  1> ! pbe def2-sv(p) def2/J RI DEFGRID1 loosescf d4 GCP(DFT/SV(P)) printgap
|  2> %output
|  3>     printlevel normal
|  4> end
|  5> * xyz 0 1
|  6> C 0.7200708787 -1.4487017462 -0.1170377932
|  7> C 0.4373027685 -0.0131974916 0.3303550195
|  8> C 1.6081379589 0.905308296 -0.0060305773
|  9> O -0.7076811635 0.5410181208 -0.3143923662
| 10> C -1.9464272606 0.0270515936 0.1169335378
| 11> H 0.8100954903 -1.4821381078 -1.2000392919
| 12> H 1.6493262939 -1.7903780506 0.3282067919
| 13> H -0.0774908792 -2.1200263535 0.1905678777
| 14> H 0.2616226591 -0.0017806259 1.4200624996
| 15> H 2.5034003084 0.5731356422 0.5096878992
| 16> H 1.3758234639 1.9231207231 0.294275374
| 17> H 1.7825592779 0.8933999081 -1.0781840549
| 18> H -2.0878234701 -1.012095559 -0.1958110076
| 19> H -2.7070269649 0.6494078554 -0.349317551
| 20> H -2.0375109716 0.0896306798 1.2075698257
| 21> *
| 22>
| 23>                          ****END OF INPUT****

CARTESIAN COORDINATES (ANGSTROEM)
---------------------------------
  C      0.720071   -1.448702   -0.117038
  C      0.437303   -0.013197    0.330355
  C      1.608138    0.905308   -0.006031
  O     -0.707681    0.541018   -0.314392
  C     -1.946427    0.027052    0.116934
  H      0.810095   -1.482138   -1.200039
  H      1.649326   -1.790378    0.328207
  H     -0.077491   -2.120026    0.190568
  H      0.261623   -0.001781    1.420062
  H      2.503400    0.573136    0.509688
  H      1.375823    1.923121    0.294275
  H      1.782559    0.893400   -1.078184
  H     -2.087823   -1.012096   -0.195811
  H     -2.707027    0.649408   -0.349318
  H     -2.037511    0.089631    1.207570

 Total Charge           Charge          ....    0
 Multiplicity           Mult            ....    1
 Number of Electrons    NEL             ....   42
 Basis Dimension        Dim             ....   90

ORBITAL ENERGIES
----------------

  NO   OCC          E(Eh)            E(eV)
   0   2.0000     -18.744148      -510.0542
   1   2.0000      -9.936895      -270.3967
   2   2.0000      -9.920269      -269.9442
   3   2.0000      -9.873866      -268.6816
   4   2.0000      -9.870703      -268.5955
   5   2.0000      -0.924830       -25.1659
   6   2.0000      -0.701918       -19.1002
   7   2.0000      -0.618957       -16.8427
   8   2.0000      -0.598860       -16.2958
   9   2.0000      -0.510129       -13.8813
  10   2.0000      -0.443864       -12.0781
  11   2.0000      -0.412622       -11.2280
  12   2.0000      -0.402516       -10.9530
  13   2.0000      -0.376924       -10.2566
  14   2.0000      -0.352258        -9.5854
  15   2.0000      -0.343125        -9.3369
  16   2.0000      -0.333567        -9.0768
  17   2.0000      -0.305563        -8.3148
  18   2.0000      -0.300893        -8.1877
  19   2.0000      -0.255557        -6.9541
  20   2.0000      -0.200268        -5.4496
  21   0.0000       0.035790         0.9739
  22   0.0000       0.065628         1.7858
  23   0.0000       0.074596         2.0299
  24   0.0000       0.093147         2.5347
  25   0.0000       0.101786         2.7697

MULLIKEN ATOMIC CHARGES
-----------------------
   0 C :   -0.264444
   1 C :   -0.010015
   2 C :   -0.236853
   3 O :   -0.335680
   4 C :   -0.102907
   5 H :    0.102871
   6 H :    0.098523
   7 H :    0.105070
   8 H :    0.056343
   9 H :    0.096036
  10 H :    0.106209
  11 H :    0.101907
  12 H :    0.088935
  13 H :    0.112740
  14 H :    0.081268
Sum of atomic charges:    0.0000000

LOEWDIN ATOMIC CHARGES
----------------------
   0 C :   -0.351227
   1 C :   -0.051426
   2 C :   -0.339614
   3 O :   -0.179341
   4 C :   -0.208439
   5 H :    0.123232
   6 H :    0.123821
   7 H :    0.117677
   8 H :    0.093441
   9 H :    0.121320
  10 H :    0.122771
  11 H :    0.122806
  12 H :    0.094410
  13 H :    0.115162
  14 H :    0.095406

  Mayer bond orders larger than 0.100000
B(  0-C ,  1-C ) :   1.1023 B(  0-C ,  5-H ) :   0.9425 B(  0-C ,  6-H ) :   0.9435
B(  0-C ,  7-H ) :   0.9437 B(  1-C ,  2-C ) :   1.1151 B(  1-C ,  3-O ) :   1.0155
B(  1-C ,  8-H ) :   0.9039 B(  2-C ,  9-H ) :   0.9465 B(  2-C , 10-H ) :   0.9468
B(  2-C , 11-H ) :   0.9477 B(  3-O ,  4-C ) :   1.0261 B(  4-C , 12-H ) :   0.9404
B(  4-C , 13-H ) :   0.9640 B(  4-C , 14-H ) :   0.9398

Dispersion correction           -0.009453337
FINAL SINGLE POINT ENERGY      -233.088596019570

DIPOLE MOMENT
-------------

Method             : SCF
Type of density    : Electron Density
Multiplicity       :   1
Irrep              :   0
Energy             :  -233.1470564456713248 Eh
Relativity type    :
Basis              : AO
                                X                 Y                 Z
Electronic contribution:     -1.405892413       1.813718554      -0.749745479
Nuclear contribution   :      1.371369681      -2.128842948       1.052656948
                        -----------------------------------------
Total Dipole Moment    :     -0.034522732      -0.315124394       0.302911469
                        -----------------------------------------
Magnitude (a.u.)       :      0.438463865
Magnitude (Debye)      :      1.114486576

Rotational constants in cm-1:             0.255209             0.125823             0.093640
Rotational constants in MHz :          7650.962979          3772.086989          2807.252637

                             ****ORCA TERMINATED NORMALLY****
TOTAL RUN TIME: 0 days 0 hours 0 minutes 5 seconds 821 msec
