                         Program Version 6.0.0  -   RELEASE  -
|  1> ! r2scan-3c def2/J RI DEFGRID2 scfconv6 printgap
|  2> %output
|  3>     printlevel normal
|  4> end
|  5> * xyz 0 1
|  6> C -3.1823089029 -0.1755281736 0.0065381271
|  7> O -1.9635363522 -0.8900687993 -0.0041999039
|  8> C -0.7891104091 -0.1808976435 -0.0018387585
|  9> C -0.7004868653 1.2059020483 0.0032069286
| 10> C 0.5542434107 1.797419128 0.0008296761
| 11> C 1.7051307148 1.0412365934 -0.0071854253
| 12> C 1.6261677162 -0.3563843122 -0.0109842838
| 13> C 0.3675051354 -0.9516075057 -0.0113469279
| 14> N 2.7635523155 -1.1239870932 0.0535988331
| 15> H -3.281472467 0.4521468246 -0.8834955367
| 16> H -3.27186189 0.4414400079 0.9049042256
| 17> H -3.9604258823 -0.9357757711 0.006154527
| 18> H -1.5812773192 1.8263113013 0.0077800007
| 19> H 0.6243408187 2.8752709704 0.0023291561
| 20> H 2.672650646 1.5198645692 -0.0081344922
| 21> H 0.2663232666 -2.026115898 -0.0153067223
| 22> H 3.6198822037 -0.6790062277 -0.2307664911
| 23> H 2.6676429352 -2.0890245461 -0.2140136144
| 24> *
| 25>
| 26>                          ****END OF INPUT****

CARTESIAN COORDINATES (ANGSTROEM)
---------------------------------
  C     -3.182309   -0.175528    0.006538
  O     -1.963536   -0.890069   -0.004200
  C     -0.789110   -0.180898   -0.001839
  C     -0.700487    1.205902    0.003207
  C      0.554243    1.797419    0.000830
  C      1.705131    1.041237   -0.007185
  C      1.626168   -0.356384   -0.010984
  C      0.367505   -0.951608   -0.011347
  N      2.763552   -1.123987    0.053599
  H     -3.281472    0.452147   -0.883496
  H     -3.271862    0.441440    0.904904
  H     -3.960426   -0.935776    0.006155
  H     -1.581277    1.826311    0.007780
  H      0.624341    2.875271    0.002329
  H      2.672651    1.519865   -0.008134
  H      0.266323   -2.026116   -0.015307
  H      3.619882   -0.679006   -0.230766
  H      2.667643   -2.089025   -0.214014

 Total Charge           Charge          ....    0
 Multiplicity           Mult            ....    1
 Number of Electrons    NEL             ....   66
 Basis Dimension        Dim             ....  226

ORBITAL ENERGIES
----------------

  NO   OCC          E(Eh)            E(eV)
   0   2.0000     -18.977132      -516.3940
   1   2.0000     -14.166327      -385.4854
   2   2.0000     -10.086343      -274.4633
   3   2.0000     -10.080306      -274.2991
   4   2.0000     -10.070517      -274.0327
   5   2.0000     -10.028459      -272.8882
   6   2.0000     -10.016032      -272.5501
   7   2.0000     -10.015772      -272.5430
   8   2.0000     -10.015464      -272.5346
   9   2.0000      -1.023153       -27.8414
  10   2.0000      -0.889906       -24.2156
  11   2.0000      -0.800639       -21.7865
  12   2.0000      -0.719359       -19.5748
  13   2.0000      -0.691326       -18.8119
  14   2.0000      -0.657654       -17.8957
  15   2.0000      -0.577266       -15.7082
  16   2.0000      -0.558871       -15.2077
  17   2.0000      -0.503609       -13.7039
  18   2.0000      -0.487677       -13.2704
  19   2.0000      -0.450945       -12.2708
  20   2.0000      -0.436654       -11.8819
  21   2.0000      -0.430445       -11.7130
  22   2.0000      -0.426072       -11.5940
  23   2.0000      -0.386524       -10.5179
  24   2.0000      -0.374195       -10.1824
  25   2.0000      -0.358719        -9.7612
  26   2.0000      -0.333539        -9.0761
  27   2.0000      -0.328418        -8.9367
  28   2.0000      -0.309563        -8.4236
  29   2.0000      -0.290713        -7.9107
  30   2.0000      -0.267503        -7.2791
  31   2.0000      -0.199060        -5.4167
  32   2.0000      -0.180155        -4.9023
  33   0.0000      -0.017694        -0.4815
  34   0.0000       0.002971         0.0809
  35   0.0000       0.071718         1.9515
  36   0.0000       0.074148         2.0177
  37   0.0000       0.094379         2.5682

MULLIKEN ATOMIC CHARGES
-----------------------
   0 C :   -0.334292
   1 O :   -0.193368
   2 C :    0.347142
   3 C :   -0.325328
   4 C :   -0.137852
   5 C :   -0.400954
   6 C :    0.576097
   7 C :   -0.544840
   8 N :   -0.528086
   9 H :    0.151939
  10 H :    0.152525
  11 H :    0.151769
  12 H :    0.146391
  13 H :    0.144465
  14 H :    0.136980
  15 H :    0.147819
  16 H :    0.254429
  17 H :    0.255164
Sum of atomic charges:   -0.0000000

LOEWDIN ATOMIC CHARGES
----------------------
   0 C :   -0.057965
   1 O :   -0.687704
   2 C :    0.198257
   3 C :   -0.211705
   4 C :   -0.144078
   5 C :   -0.188002
   6 C :    0.133304
   7 C :   -0.136876
   8 N :   -0.602755
   9 H :    0.163839
  10 H :    0.164189
  11 H :    0.178621
  12 H :    0.172725
  13 H :    0.167078
  14 H :    0.166687
  15 H :    0.181073
  16 H :    0.251626
  17 H :    0.251686

  Mayer bond orders larger than 0.100000
B(  0-C ,  1-O ) :   0.8600 B(  0-C ,  9-H ) :   0.9648 B(  0-C , 10-H ) :   0.9647
B(  0-C , 11-H ) :   0.9686 B(  1-O ,  2-C ) :   1.0243 B(  2-C ,  3-C ) :   1.3825
B(  2-C ,  7-C ) :   1.4498 B(  3-C ,  4-C ) :   1.4031 B(  3-C , 12-H ) :   0.9262
B(  4-C ,  5-C ) :   1.4586 B(  4-C , 13-H ) :   0.9476 B(  5-C ,  6-C ) :   1.3019
B(  5-C , 14-H ) :   0.9449 B(  6-C ,  7-C ) :   1.2558 B(  6-C ,  8-N ) :   0.9338
B(  7-C , 15-H ) :   0.9362 B(  8-N , 16-H ) :   0.9283 B(  8-N , 17-H ) :   0.9280

Dispersion correction           -0.005701448
FINAL SINGLE POINT ENERGY      -402.030716122317

DIPOLE MOMENT
-------------

Method             : SCF
Type of density    : Electron Density
Multiplicity       :   1
Irrep              :   0
Energy             :  -402.0349161104326754 Eh
Relativity type    :
Basis              : AO
                                X                 Y                 Z
Electronic contribution:      2.271692281      -1.300288907       0.113705250
Nuclear contribution   :     -2.119370276       1.280114977      -0.403696093
                        -----------------------------------------
Total Dipole Moment    :      0.152322004      -0.020173930      -0.289990843
                        -----------------------------------------
Magnitude (a.u.)       :      0.328182372
Magnitude (Debye)      :      0.834173297

Rotational constants in cm-1:             0.121369             0.037845             0.029024
Rotational constants in MHz :          3638.538657          1134.556034           870.107475

                             ****ORCA TERMINATED NORMALLY****
TOTAL RUN TIME: 0 days 0 hours 0 minutes 28 seconds 139 msec
