                         Program Version 6.0.0  -   RELEASE  -
|  1> ! r2scan-3c def2/J RI DEFGRID2 scfconv6 printgap
|  2> %output
|  3>     printlevel normal
|  4> end
|  5> %cpcm
|  6>     smd true
|  7>     smdsolvent "water"
|  8> end
|  9> * xyz 0 1
| 10> C -3.1823089029 -0.1755281736 0.0065381271
| 11> O -1.9635363522 -0.8900687993 -0.0041999039
| 12> C -0.7891104091 -0.1808976435 -0.0018387585
| 13> C -0.7004868653 1.2059020483 0.0032069286
| 14> C 0.5542434107 1.797419128 0.0008296761
| 15> C 1.7051307148 1.0412365934 -0.0071854253
| 16> C 1.6261677162 -0.3563843122 -0.0109842838
| 17> C 0.3675051354 -0.9516075057 -0.0113469279
| 18> N 2.7635523155 -1.1239870932 0.0535988331
| 19> H -3.281472467 0.4521468246 -0.8834955367
| 20> H -3.27186189 0.4414400079 0.9049042256
| 21> H -3.9604258823 -0.9357757711 0.006154527
| 22> H -1.5812773192 1.8263113013 0.0077800007
| 23> H 0.6243408187 2.8752709704 0.0023291561
| 24> H 2.672650646 1.5198645692 -0.0081344922
| 25> H 0.2663232666 -2.026115898 -0.0153067223
| 26> H 3.6198822037 -0.6790062277 -0.2307664911
| 27> H 2.6676429352 -2.0890245461 -0.2140136144
| 28> *
| 29>
| 30>                          ****END OF INPUT****

CARTESIAN COORDINATES (ANGSTROEM)
---------------------------------
  C     -3.182309   -0.175528    0.006538
  O     -1.963536   -0.890069   -0.004200
  C     -0.789110   -0.180898   -0.001839
  C     -0.700487    1.205902    0.003207
  C      0.554243    1.797419    0.000830
  C      1.705131    1.041237   -0.007185
  C      1.626168   -0.356384   -0.010984
  C      0.367505   -0.951608   -0.011347
  N      2.763552   -1.123987    0.053599
  H     -3.281472    0.452147   -0.883496
  H     -3.271862    0.441440    0.904904
  H     -3.960426   -0.935776    0.006155
  H     -1.581277    1.826311    0.007780
  H      0.624341    2.875271    0.002329
  H      2.672651    1.519865   -0.008134
  H      0.266323   -2.026116   -0.015307
  H      3.619882   -0.679006   -0.230766
  H      2.667643   -2.089025   -0.214014

 Total Charge           Charge          ....    0
 Multiplicity           Mult            ....    1
 Number of Electrons    NEL             ....   66
 Basis Dimension        Dim             ....  226

ORBITAL ENERGIES
----------------

  NO   OCC          E(Eh)            E(eV)
   0   2.0000     -18.984613      -516.5976
   1   2.0000     -14.158138      -385.2625
   2   2.0000     -10.093068      -274.6463
   3   2.0000     -10.073934      -274.1257
   4   2.0000     -10.071144      -274.0498
   5   2.0000     -10.032350      -272.9941
   6   2.0000     -10.019739      -272.6510
   7   2.0000     -10.019441      -272.6429
   8   2.0000     -10.018564      -272.6190
   9   2.0000      -1.029907       -28.0252
  10   2.0000      -0.885663       -24.1001
  11   2.0000      -0.804945       -21.9037
  12   2.0000      -0.722917       -19.6716
  13   2.0000      -0.693594       -18.8737
  14   2.0000      -0.656156       -17.8549
  15   2.0000      -0.579111       -15.7584
  16   2.0000      -0.557417       -15.1681
  17   2.0000      -0.502952       -13.6860
  18   2.0000      -0.482286       -13.1237
  19   2.0000      -0.450356       -12.2548
  20   2.0000      -0.435508       -11.8508
  21   2.0000      -0.429695       -11.6926
  22   2.0000      -0.424150       -11.5417
  23   2.0000      -0.387954       -10.5568
  24   2.0000      -0.372012       -10.1230
  25   2.0000      -0.363574        -9.8933
  26   2.0000      -0.334316        -9.0972
  27   2.0000      -0.328643        -8.9428
  28   2.0000      -0.311542        -8.4775
  29   2.0000      -0.294921        -8.0252
  30   2.0000      -0.273563        -7.4440
  31   2.0000      -0.207046        -5.6340
  32   2.0000      -0.184369        -5.0169
  33   0.0000      -0.025119        -0.6835
  34   0.0000      -0.003611        -0.0983
  35   0.0000       0.071798         1.9537
  36   0.0000       0.086957         2.3662
  37   0.0000       0.101258         2.7554

MULLIKEN ATOMIC CHARGES
-----------------------
   0 C :   -0.337552
   1 O :   -0.237351
   2 C :    0.347765
   3 C :   -0.342825
   4 C :   -0.178486
   5 C :   -0.423768
   6 C :    0.478582
   7 C :   -0.567810
   8 N :   -0.586894
   9 H :    0.169417
  10 H :    0.169488
  11 H :    0.171526
  12 H :    0.182457
  13 H :    0.177362
  14 H :    0.175874
  15 H :    0.181876
  16 H :    0.310271
  17 H :    0.310068
Sum of atomic charges:   -0.0000000

LOEWDIN ATOMIC CHARGES
----------------------
   0 C :   -0.053856
   1 O :   -0.717027
   2 C :    0.181528
   3 C :   -0.223872
   4 C :   -0.158863
   5 C :   -0.199626
   6 C :    0.121885
   7 C :   -0.153138
   8 N :   -0.596542
   9 H :    0.172981
  10 H :    0.173079
  11 H :    0.186308
  12 H :    0.185458
  13 H :    0.178276
  14 H :    0.180442
  15 H :    0.192208
  16 H :    0.265489
  17 H :    0.265269

  Mayer bond orders larger than 0.100000
B(  0-C ,  1-O ) :   0.8524 B(  0-C ,  9-H ) :   0.9572 B(  0-C , 10-H ) :   0.9572
B(  0-C , 11-H ) :   0.9605 B(  1-O ,  2-C ) :   1.0029 B(  2-C ,  3-C ) :   1.3472
B(  2-C ,  7-C ) :   1.3738 B(  3-C ,  4-C ) :   1.3548 B(  3-C , 12-H ) :   0.9373
B(  4-C ,  5-C ) :   1.4113 B(  4-C , 13-H ) :   0.9648 B(  5-C ,  6-C ) :   1.2735
B(  5-C , 14-H ) :   0.9643 B(  6-C ,  7-C ) :   1.2804 B(  6-C ,  8-N ) :   0.9510
B(  7-C , 15-H ) :   0.9534 B(  8-N , 16-H ) :   0.9032 B(  8-N , 17-H ) :   0.9032

Dispersion correction           -0.005701448
FINAL SINGLE POINT ENERGY      -402.041094964065

DIPOLE MOMENT
-------------

Method             : SCF
Type of density    : Electron Density
Multiplicity       :   1
Irrep              :   0
Energy             :  -402.0452949521808819 Eh
Relativity type    :
Basis              : AO
                                X                 Y                 Z
Electronic contribution:      2.392926904      -1.240795147       0.008052041
Nuclear contribution   :     -2.119370276       1.280114977      -0.403696093
                        -----------------------------------------
Total Dipole Moment    :      0.273556628       0.039319830      -0.395644052
                        -----------------------------------------
Magnitude (a.u.)       :      0.482611121
Magnitude (Debye)      :      1.226699981

Rotational constants in cm-1:             0.121369             0.037845             0.029024
Rotational constants in MHz :          3638.538657          1134.556034           870.107475

                             ****ORCA TERMINATED NORMALLY****
TOTAL RUN TIME: 0 days 0 hours 0 minutes 34 seconds 277 msec
