                         Program Version 6.0.0  -   RELEASE  -
|  1> ! pbe def2-sv(p) def2/J RI DEFGRID1 loosescf d4 GCP(DFT/SV(P)) printgap
|  2> %output
|  3>     printlevel normal
|  4> end
|  5> * xyz 0 1
|  6> C -2.3083547202 -0.6452646638 -0.8232065216
|  7> C -1.1279276202 -0.5345830855 0.142695185
|  8> H -1.421474477 -0.9720634165 1.110130746
|  9> C -0.718306913 0.9250468813 0.4210793149
| 10> H -1.5474872662 1.5845586665 0.1288426985
| 11> C 0.5281149353 1.2772779993 -0.4208893175
| 12> H 0.8268913614 2.3113618393 -0.2182386357
| 13> C 1.703096758 0.3623546865 -0.0257767105
| 14> H 2.3729251208 0.2737812007 -0.894264854
| 15> C 1.1598140037 -1.048881451 0.2904905301
| 16> H 0.9609840238 -1.116141637 1.3780065795
| 17> O -0.051479646 -1.2764558109 -0.407692069
| 18> O 2.0881539169 -1.9830382483 -0.1246591922
| 19> O 2.3710919246 0.937547603 1.0634776831
| 20> O 0.2561024822 1.2117986899 -1.7965940759
| 21> O -0.4680551392 1.0323880516 1.8011461805
| 22> O -3.4558234867 -0.1636101314 -0.1660997879
| 23> H -2.4177495097 -1.701473276 -1.0979648077
| 24> H -2.097509685 -0.0568228854 -1.7240481173
| 25> H 1.7068890777 -2.8735735355 -0.0750179951
| 26> H 3.1560405303 0.4139815317 1.2786112653
| 27> H 0.1808599559 0.2788713966 -2.0512829304
| 28> H -0.1513303204 1.9222870353 2.0118414993
| 29> H -4.2163599317 -0.236735507 -0.7605713531
| 30> *
| 31>
| 32>                          ****END OF INPUT****

CARTESIAN COORDINATES (ANGSTROEM)
---------------------------------
  C     -2.308355   -0.645265   -0.823207
  C     -1.127928   -0.534583    0.142695
  H     -1.421474   -0.972063    1.110131
  C     -0.718307    0.925047    0.421079
  H     -1.547487    1.584559    0.128843
  C      0.528115    1.277278   -0.420889
  H      0.826891    2.311362   -0.218239
  C      1.703097    0.362355   -0.025777
  H      2.372925    0.273781   -0.894265
  C      1.159814   -1.048881    0.290491
  H      0.960984   -1.116142    1.378007
  O     -0.051480   -1.276456   -0.407692
  O      2.088154   -1.983038   -0.124659
  O      2.371092    0.937548    1.063478
  O      0.256102    1.211799   -1.796594
  O     -0.468055    1.032388    1.801146
  O     -3.455823   -0.163610   -0.166100
  H     -2.417750   -1.701473   -1.097965
  H     -2.097510   -0.056823   -1.724048
  H      1.706889   -2.873574   -0.075018
  H      3.156041    0.413982    1.278611
  H      0.180860    0.278871   -2.051283
  H     -0.151330    1.922287    2.011841
  H     -4.216360   -0.236736   -0.760571

 Total Charge           Charge          ....    0
 Multiplicity           Mult            ....    1
 Number of Electrons    NEL             ....   96
 Basis Dimension        Dim             ....  192

ORBITAL ENERGIES
----------------

  NO   OCC          E(Eh)            E(eV)
   0   2.0000     -18.777651      -510.9659
   1   2.0000     -18.764189      -510.5995
   2   2.0000     -18.754385      -510.3328
   3   2.0000     -18.751988      -510.2675
   4   2.0000     -18.747262      -510.1389
   5   2.0000     -18.746614      -510.1213
   6   2.0000      -9.982524      -271.6383
   7   2.0000      -9.943143      -270.5667
   8   2.0000      -9.937837      -270.4223
   9   2.0000      -9.936304      -270.3806
  10   2.0000      -9.935629      -270.3622
  11   2.0000      -9.934069      -270.3198
  12   2.0000      -0.987045       -26.8589
  13   2.0000      -0.937323       -25.5058
  14   2.0000      -0.931718       -25.3533
  15   2.0000      -0.926103       -25.2005
  16   2.0000      -0.919370       -25.0173
  17   2.0000      -0.913605       -24.8605
  18   2.0000      -0.697080       -18.9685
  19   2.0000      -0.685906       -18.6645
  20   2.0000      -0.615544       -16.7498
  21   2.0000      -0.590221       -16.0607
  22   2.0000      -0.555429       -15.1140
  23   2.0000      -0.516280       -14.0487
  24   2.0000      -0.503218       -13.6933
  25   2.0000      -0.487189       -13.2571
  26   2.0000      -0.473927       -12.8962
  27   2.0000      -0.466457       -12.6930
  28   2.0000      -0.443052       -12.0561
  29   2.0000      -0.430003       -11.7010
  30   2.0000      -0.418275       -11.3818
  31   2.0000      -0.401069       -10.9136
  32   2.0000      -0.380837       -10.3631
  33   2.0000      -0.374770       -10.1980
  34   2.0000      -0.353515        -9.6196
  35   2.0000      -0.341585        -9.2950
  36   2.0000      -0.322591        -8.7781
  37   2.0000      -0.314344        -8.5537
  38   2.0000      -0.297941        -8.1074
  39   2.0000      -0.296381        -8.0649
  40   2.0000      -0.286227        -7.7886
  41   2.0000      -0.271887        -7.3984
  42   2.0000      -0.258355        -7.0302
  43   2.0000      -0.238468        -6.4890
  44   2.0000      -0.230218        -6.2645
  45   2.0000      -0.219626        -5.9763
  46   2.0000      -0.206394        -5.6163
  47   2.0000      -0.200677        -5.4607
  48   0.0000       0.019458         0.5295
  49   0.0000       0.024169         0.6577
  50   0.0000       0.030463         0.8289
  51   0.0000       0.040653         1.1062
  52   0.0000       0.052395         1.4257

MULLIKEN ATOMIC CHARGES
-----------------------
   0 C :    0.055869
   1 C :    0.009741
   2 H :    0.087290
   3 C :    0.032097
   4 H :    0.080805
   5 C :    0.021802
   6 H :    0.071045
   7 C :    0.078593
   8 H :    0.066763
   9 C :    0.152257
  10 H :    0.058046
  11 O :   -0.326453
  12 O :   -0.382258
  13 O :   -0.415149
  14 O :   -0.418335
  15 O :   -0.404831
  16 O :   -0.431699
  17 H :    0.078539
  18 H :    0.060790
  19 H :    0.305584
  20 H :    0.305463
  21 H :    0.305219
  22 H :    0.302980
  23 H :    0.305840
Sum of atomic charges:    0.0000000

LOEWDIN ATOMIC CHARGES
----------------------
   0 C :   -0.127554
   1 C :   -0.058866
   2 H :    0.116768
   3 C :   -0.076681
   4 H :    0.107937
   5 C :   -0.070083
   6 H :    0.115316
   7 C :   -0.084151
   8 H :    0.108468
   9 C :   -0.008348
  10 H :    0.089457
  11 O :   -0.162895
  12 O :   -0.298969
  13 O :   -0.315732
  14 O :   -0.311614
  15 O :   -0.311545
  16 O :   -0.336731
  17 H :    0.100158
  18 H :    0.095729
  19 H :    0.288698
  20 H :    0.290030
  21 H :    0.273175
  22 H :    0.286862
  23 H :    0.290571

  Mayer bond orders larger than 0.100000
B(  0-C ,  1-C ) :   1.0687 B(  0-C , 16-O ) :   1.0920 B(  0-C , 17-H ) :   0.9100
B(  0-C , 18-H ) :   0.8978 B(  1-C ,  2-H ) :   0.8889 B(  1-C ,  3-C ) :   0.9690
B(  1-C , 11-O ) :   0.9761 B(  3-C ,  4-H ) :   0.8961 B(  3-C ,  5-C ) :   0.9943
B(  3-C , 15-O ) :   1.0664 B(  5-C ,  6-H ) :   0.8901 B(  5-C ,  7-C ) :   0.9741
B(  5-C , 14-O ) :   1.0541 B(  7-C ,  8-H ) :   0.8847 B(  7-C ,  9-C ) :   1.0029
B(  7-C , 13-O ) :   1.0726 B(  9-C , 10-H ) :   0.8724 B(  9-C , 11-O ) :   1.0210
B(  9-C , 12-O ) :   1.1656 B( 12-O , 19-H ) :   0.8395 B( 13-O , 20-H ) :   0.8454
B( 14-O , 21-H ) :   0.8212 B( 15-O , 22-H ) :   0.8427 B( 16-O , 23-H ) :   0.8494

Dispersion correction           -0.024860382
FINAL SINGLE POINT ENERGY      -685.688528953791

DIPOLE MOMENT
-------------

Method             : SCF
Type of density    : Electron Density
Multiplicity       :   1
Irrep              :   0
Energy             :  -685.8189691606286260 Eh
Relativity type    :
Basis              : AO
                                X                 Y                 Z
Electronic contribution:      2.263880775      -0.480300536       0.692709164
Nuclear contribution   :     -2.472674992      -0.164911561      -0.851970998
                        -----------------------------------------
Total Dipole Moment    :     -0.208794216      -0.645212098      -0.159261834
                        -----------------------------------------
Magnitude (a.u.)       :      0.696604628
Magnitude (Debye)      :      1.770628250

Rotational constants in cm-1:             0.045197             0.024192             0.021428
Rotational constants in MHz :          1354.963339           725.254599           642.383770

                             ****ORCA TERMINATED NORMALLY****
TOTAL RUN TIME: 0 days 0 hours 0 minutes 12 seconds 249 msec
