                         Program Version 6.0.0  -   RELEASE  -
|  1> ! pbe def2-sv(p) def2/J RI DEFGRID1 loosescf d4 GCP(DFT/SV(P)) printgap
|  2> %output
|  3>     printlevel normal
|  4> end
|  5> * xyz 0 1
|  6> C -2.4530030049 0.1795996059 1.4744701178
|  7> O -1.1891908053 0.1079798422 0.8103994499
|  8> C -1.1990938453 -0.1975766993 -0.4784229534
|  9> O -2.2313417897 -0.4107209018 -1.0872531668
| 10> C 0.1638229019 -0.2604272092 -1.1303141066
| 11> C 1.05177269 -1.3567071171 -0.5201306226
| 12> C 1.6248727959 -0.9717617376 0.8397419396
| 13> C 2.386630569 0.345799619 0.7443922449
| 14> C 1.4552441362 1.4505729879 0.2571998223
| 15> C 0.8805854922 1.0992463417 -1.1110525439
| 16> H -3.0794446639 0.937695835 1.0029945997
| 17> H -2.2311434282 0.4410528095 2.5043503355
| 18> H -2.9605789039 -0.7838358941 1.4145607758
| 19> H -0.0463690254 -0.5257636037 -2.172764532
| 20> H 0.4791134429 -2.2834398004 -0.440834931
| 21> H 1.8758813283 -1.5321115735 -1.2145346007
| 22> H 0.81829021 -0.8697602114 1.565934843
| 23> H 2.2903722129 -1.7661076606 1.1824253261
| 24> H 2.7961287186 0.6092325949 1.720579765
| 25> H 3.219793236 0.2363894679 0.0466465607
| 26> H 0.6461377343 1.5825524146 0.9757550177
| 27> H 1.9988942838 2.3940691566 0.1825602829
| 28> H 0.1891950083 1.8772358386 -1.4423840217
| 29> H 1.6964267703 1.0475585701 -1.8348123298
| 30> *
| 31>
| 32>                          ****END OF INPUT****

CARTESIAN COORDINATES (ANGSTROEM)
---------------------------------
  C     -2.453003    0.179600    1.474470
  O     -1.189191    0.107980    0.810399
  C     -1.199094   -0.197577   -0.478423
  O     -2.231342   -0.410721   -1.087253
  C      0.163823   -0.260427   -1.130314
  C      1.051773   -1.356707   -0.520131
  C      1.624873   -0.971762    0.839742
  C      2.386631    0.345800    0.744392
  C      1.455244    1.450573    0.257200
  C      0.880585    1.099246   -1.111053
  H     -3.079445    0.937696    1.002995
  H     -2.231143    0.441053    2.504350
  H     -2.960579   -0.783836    1.414561
  H     -0.046369   -0.525764   -2.172765
  H      0.479113   -2.283440   -0.440835
  H      1.875881   -1.532112   -1.214535
  H      0.818290   -0.869760    1.565935
  H      2.290372   -1.766108    1.182425
  H      2.796129    0.609233    1.720580
  H      3.219793    0.236389    0.046647
  H      0.646138    1.582552    0.975755
  H      1.998894    2.394069    0.182560
  H      0.189195    1.877236   -1.442384
  H      1.696427    1.047559   -1.834812

 Total Charge           Charge          ....    0
 Multiplicity           Mult            ....    1
 Number of Electrons    NEL             ....   78
 Basis Dimension        Dim             ....  168

ORBITAL ENERGIES
----------------

  NO   OCC          E(Eh)            E(eV)
   0   2.0000     -18.802506      -511.6422
   1   2.0000     -18.730726      -509.6890
   2   2.0000     -10.002373      -272.1784
   3   2.0000      -9.943495      -270.5763
   4   2.0000      -9.902918      -269.4721
   5   2.0000      -9.890203      -269.1261
   6   2.0000      -9.890190      -269.1258
   7   2.0000      -9.880774      -268.8695
   8   2.0000      -9.879354      -268.8309
   9   2.0000      -9.879263      -268.8284
  10   2.0000      -1.009572       -27.4719
  11   2.0000      -0.906432       -24.6653
  12   2.0000      -0.761361       -20.7177
  13   2.0000      -0.689772       -18.7697
  14   2.0000      -0.668874       -18.2010
  15   2.0000      -0.655271       -17.8308
  16   2.0000      -0.560729       -15.2582
  17   2.0000      -0.544324       -14.8118
  18   2.0000      -0.517155       -14.0725
  19   2.0000      -0.497988       -13.5509
  20   2.0000      -0.441089       -12.0027
  21   2.0000      -0.440276       -11.9805
  22   2.0000      -0.428080       -11.6487
  23   2.0000      -0.407000       -11.0750
  24   2.0000      -0.394686       -10.7400
  25   2.0000      -0.391687       -10.6583
  26   2.0000      -0.377261       -10.2658
  27   2.0000      -0.355944        -9.6857
  28   2.0000      -0.343668        -9.3517
  29   2.0000      -0.336172        -9.1477
  30   2.0000      -0.326352        -8.8805
  31   2.0000      -0.326153        -8.8751
  32   2.0000      -0.310316        -8.4441
  33   2.0000      -0.302236        -8.2243
  34   2.0000      -0.269377        -7.3301
  35   2.0000      -0.263789        -7.1781
  36   2.0000      -0.262966        -7.1557
  37   2.0000      -0.257602        -7.0097
  38   2.0000      -0.212032        -5.7697
  39   0.0000      -0.018550        -0.5048
  40   0.0000       0.029479         0.8022
  41   0.0000       0.040521         1.1026
  42   0.0000       0.067701         1.8422
  43   0.0000       0.074419         2.0250

MULLIKEN ATOMIC CHARGES
-----------------------
   0 C :   -0.107740
   1 O :   -0.236165
   2 C :    0.117768
   3 O :   -0.210159
   4 C :   -0.118207
   5 C :   -0.139277
   6 C :   -0.144526
   7 C :   -0.161914
   8 C :   -0.144513
   9 C :   -0.138863
  10 H :    0.121157
  11 H :    0.120746
  12 H :    0.121051
  13 H :    0.079509
  14 H :    0.091540
  15 H :    0.080776
  16 H :    0.089425
  17 H :    0.082438
  18 H :    0.082739
  19 H :    0.070232
  20 H :    0.089295
  21 H :    0.082511
  22 H :    0.091459
  23 H :    0.080720
Sum of atomic charges:   -0.0000000

LOEWDIN ATOMIC CHARGES
----------------------
   0 C :   -0.203366
   1 O :   -0.060443
   2 C :    0.042713
   3 O :   -0.170328
   4 C :   -0.160002
   5 C :   -0.209470
   6 C :   -0.234513
   7 C :   -0.224866
   8 C :   -0.234487
   9 C :   -0.209274
  10 H :    0.120811
  11 H :    0.119537
  12 H :    0.120785
  13 H :    0.133889
  14 H :    0.119623
  15 H :    0.118994
  16 H :    0.116849
  17 H :    0.115747
  18 H :    0.115866
  19 H :    0.110791
  20 H :    0.116811
  21 H :    0.115749
  22 H :    0.119635
  23 H :    0.118950

  Mayer bond orders larger than 0.100000
B(  0-C ,  1-O ) :   0.9334 B(  0-C , 10-H ) :   0.9523 B(  0-C , 11-H ) :   0.9568
B(  0-C , 12-H ) :   0.9525 B(  1-O ,  2-C ) :   1.1937 B(  2-C ,  3-O ) :   2.0605
B(  2-C ,  4-C ) :   0.9778 B(  4-C ,  5-C ) :   1.0714 B(  4-C ,  9-C ) :   1.0718
B(  4-C , 13-H ) :   0.8720 B(  5-C ,  6-C ) :   1.1278 B(  5-C , 14-H ) :   0.9197
B(  5-C , 15-H ) :   0.9096 B(  6-C ,  7-C ) :   1.1307 B(  6-C , 16-H ) :   0.9053
B(  6-C , 17-H ) :   0.9159 B(  7-C ,  8-C ) :   1.1312 B(  7-C , 18-H ) :   0.9190
B(  7-C , 19-H ) :   0.9180 B(  8-C ,  9-C ) :   1.1278 B(  8-C , 20-H ) :   0.9053
B(  8-C , 21-H ) :   0.9159 B(  9-C , 22-H ) :   0.9195 B(  9-C , 23-H ) :   0.9097

Dispersion correction           -0.023908288
FINAL SINGLE POINT ENERGY      -462.703159343021

DIPOLE MOMENT
-------------

Method             : SCF
Type of density    : Electron Density
Multiplicity       :   1
Irrep              :   0
Energy             :  -462.7911570261256884 Eh
Relativity type    :
Basis              : AO
                                X                 Y                 Z
Electronic contribution:     -6.811818213      -1.099715897      -2.626000868
Nuclear contribution   :      7.166321678       1.275891926       3.270546251
                        -----------------------------------------
Total Dipole Moment    :      0.354503465       0.176176029       0.644545383
                        -----------------------------------------
Magnitude (a.u.)       :      0.756405612
Magnitude (Debye)      :      1.922630273

Rotational constants in cm-1:             0.069816             0.033482             0.031263
Rotational constants in MHz :          2093.035527          1003.769996           937.239852

                             ****ORCA TERMINATED NORMALLY****
TOTAL RUN TIME: 0 days 0 hours 0 minutes 12 seconds 505 msec
