                         Program Version 6.0.0  -   RELEASE  -
|  1> ! r2scan-3c def2/J RI DEFGRID2 scfconv6 printgap
|  2> %output
|  3>     printlevel normal
|  4> end
|  5> * xyz 0 1
|  6> C -1.0119620237 -1.8042719179 -6.4171e-06
|  7> C 0.3582999876 -1.6170664772 3.77067e-05
|  8> C 0.8747968825 -0.3205542038 -1.64728e-05
|  9> C 0.0115541095 0.7776167856 1.33149e-05
| 10> C -1.3614778084 0.5836574126 6.26398e-05
| 11> C -1.8682946383 -0.7185564272 -1.82731e-05
| 12> O -2.2446964874 1.6067384052 -1.72204e-05
| 13> C 2.3154354389 -0.1025997785 1.05739e-05
| 14> O 2.8670651091 0.9802685981 -2.16647e-05
| 15> H -1.4207706817 -2.8021054877 -0.0001459111
| 16> H 1.0299199986 -2.460918261 -7.32326e-05
| 17> H 0.4434321092 1.7682302675 4.19352e-05
| 18> H -2.9384712562 -0.8500887932 -0.0001218614
| 19> H -1.788482869 2.4623103227 -6.9637e-05
| 20> H 2.9178876462 -1.0292096878 -3.9518e-06
| 21> *
| 22>
| 23>                          ****END OF INPUT****

CARTESIAN COORDINATES (ANGSTROEM)
---------------------------------
  C     -1.011962   -1.804272   -0.000006
  C      0.358300   -1.617066    0.000038
  C      0.874797   -0.320554   -0.000016
  C      0.011554    0.777617    0.000013
  C     -1.361478    0.583657    0.000063
  C     -1.868295   -0.718556   -0.000018
  O     -2.244696    1.606738   -0.000017
  C      2.315435   -0.102600    0.000011
  O      2.867065    0.980269   -0.000022
  H     -1.420771   -2.802105   -0.000146
  H      1.029920   -2.460918   -0.000073
  H      0.443432    1.768230    0.000042
  H     -2.938471   -0.850089   -0.000122
  H     -1.788483    2.462310   -0.000070
  H      2.917888   -1.029210   -0.000004

 Total Charge           Charge          ....    0
 Multiplicity           Mult            ....    1
 Number of Electrons    NEL             ....   64
 Basis Dimension        Dim             ....  211

ORBITAL ENERGIES
----------------

  NO   OCC          E(Eh)            E(eV)
   0   2.0000     -19.001537      -517.0581
   1   2.0000     -18.948078      -515.6034
   2   2.0000     -10.119482      -275.3651
   3   2.0000     -10.117113      -275.3007
   4   2.0000     -10.059065      -273.7211
   5   2.0000     -10.056689      -273.6564
   6   2.0000     -10.054937      -273.6087
   7   2.0000     -10.054012      -273.5836
   8   2.0000     -10.052890      -273.5530
   9   2.0000      -1.048098       -28.5202
  10   2.0000      -1.009784       -27.4776
  11   2.0000      -0.844310       -22.9748
  12   2.0000      -0.750804       -20.4304
  13   2.0000      -0.731303       -19.8998
  14   2.0000      -0.640556       -17.4304
  15   2.0000      -0.606730       -16.5100
  16   2.0000      -0.553058       -15.0495
  17   2.0000      -0.531844       -14.4722
  18   2.0000      -0.485017       -13.1980
  19   2.0000      -0.453137       -12.3305
  20   2.0000      -0.436942       -11.8898
  21   2.0000      -0.417094       -11.3497
  22   2.0000      -0.405538       -11.0352
  23   2.0000      -0.402209       -10.9447
  24   2.0000      -0.375017       -10.2047
  25   2.0000      -0.374739       -10.1972
  26   2.0000      -0.347824        -9.4648
  27   2.0000      -0.333538        -9.0760
  28   2.0000      -0.325395        -8.8545
  29   2.0000      -0.256577        -6.9818
  30   2.0000      -0.227644        -6.1945
  31   2.0000      -0.227148        -6.1810
  32   0.0000      -0.100683        -2.7397
  33   0.0000      -0.038477        -1.0470
  34   0.0000       0.006105         0.1661
  35   0.0000       0.046254         1.2586
  36   0.0000       0.077056         2.0968

MULLIKEN ATOMIC CHARGES
-----------------------
   0 C :   -0.126957
   1 C :   -0.241357
   2 C :    0.235008
   3 C :   -0.384436
   4 C :    0.440046
   5 C :   -0.250813
   6 O :   -0.402474
   7 C :    0.014471
   8 O :   -0.349468
   9 H :    0.150696
  10 H :    0.154301
  11 H :    0.173001
  12 H :    0.162131
  13 H :    0.320623
  14 H :    0.105227
Sum of atomic charges:    0.0000000

LOEWDIN ATOMIC CHARGES
----------------------
   0 C :   -0.146772
   1 C :   -0.155201
   2 C :   -0.090442
   3 C :   -0.112939
   4 C :    0.184416
   5 C :   -0.114210
   6 O :   -0.484328
   7 C :    0.215252
   8 O :   -0.460696
   9 H :    0.171606
  10 H :    0.173621
  11 H :    0.189660
  12 H :    0.182895
  13 H :    0.289146
  14 H :    0.157991

  Mayer bond orders larger than 0.100000
B(  0-C ,  1-C ) :   1.4150 B(  0-C ,  5-C ) :   1.4124 B(  0-C ,  9-H ) :   0.9537
B(  1-C ,  2-C ) :   1.3682 B(  1-C , 10-H ) :   0.9311 B(  2-C ,  3-C ) :   1.3945
B(  2-C ,  7-C ) :   0.8260 B(  2-C ,  8-O ) :  -0.1144 B(  2-C , 14-H ) :  -0.1207
B(  3-C ,  4-C ) :   1.2960 B(  3-C , 11-H ) :   0.9591 B(  4-C ,  5-C ) :   1.3922
B(  4-C ,  6-O ) :   0.9334 B(  5-C , 12-H ) :   0.9408 B(  6-O , 13-H ) :   0.8783
B(  7-C ,  8-O ) :   1.9497 B(  7-C , 14-H ) :   1.0453

Dispersion correction           -0.004936212
FINAL SINGLE POINT ENERGY      -420.711708727626

DIPOLE MOMENT
-------------

Method             : SCF
Type of density    : Electron Density
Multiplicity       :   1
Irrep              :   0
Energy             :  -420.7116979711832414 Eh
Relativity type    :
Basis              : AO
                                X                 Y                 Z
Electronic contribution:      0.855478727       2.220153374       0.000254221
Nuclear contribution   :     -1.638663617      -2.693409134      -0.000350196
                        -----------------------------------------
Total Dipole Moment    :     -0.783184889      -0.473255760      -0.000095975
                        -----------------------------------------
Magnitude (a.u.)       :      0.915068082
Magnitude (Debye)      :      2.325918220

Rotational constants in cm-1:             0.098479             0.043497             0.030171
Rotational constants in MHz :          2952.321004          1304.015541           904.503775

                             ****ORCA TERMINATED NORMALLY****
TOTAL RUN TIME: 0 days 0 hours 0 minutes 23 seconds 597 msec
