                         Program Version 6.0.0  -   RELEASE  -
|  1> ! r2scan-3c def2/J RI DEFGRID2 scfconv6 printgap
|  2> %output
|  3>     printlevel normal
|  4> end
|  5> * xyz 0 1
|  6> C -2.5667037781 -0.6686942093 -0.2865091461
|  7> C -1.1718825238 -0.2950649894 0.2270323457
|  8> H -1.2011477828 -0.212316334 1.3244118439
|  9> C -0.7075299844 1.0434640054 -0.3592738551
| 10> H -0.7010755248 0.9529999763 -1.4592219996
| 11> C 0.7169867075 1.3370655225 0.1289319032
| 12> H 0.6914890131 1.5041104317 1.2124475281
| 13> C 1.6573870489 0.1587938808 -0.1614425326
| 14> H 1.822900273 0.0671341106 -1.2469532989
| 15> C 1.0384896724 -1.1652296775 0.3139104569
| 16> H 1.0400169634 -1.1620814376 1.4230666652
| 17> O -0.283431087 -1.3304940055 -0.1534102773
| 18> O 1.7970053308 -2.1946716551 -0.1964396881
| 19> O 2.8785627678 0.3134118433 0.5124041602
| 20> O 1.2124282193 2.536474852 -0.4165788508
| 21> O -1.6007708074 2.0495059034 0.0390254076
| 22> O -3.1108119021 -1.7733531101 0.3836594624
| 23> H -2.5013889644 -0.8576952774 -1.3647781406
| 24> H -3.2368268533 0.1721030332 -0.1023261508
| 25> H 1.4237570828 -3.0504287199 0.0669704829
| 26> H 3.2280450673 1.1996427321 0.3254077365
| 27> H 1.2770566735 2.4586827563 -1.3808655575
| 28> H -1.168245874 2.9118108581 -0.0733330119
| 29> H -2.5366541681 -2.5381329728 0.2346525881
| 30> *
| 31>
| 32>                          ****END OF INPUT****

CARTESIAN COORDINATES (ANGSTROEM)
---------------------------------
  C     -2.566704   -0.668694   -0.286509
  C     -1.171883   -0.295065    0.227032
  H     -1.201148   -0.212316    1.324412
  C     -0.707530    1.043464   -0.359274
  H     -0.701076    0.953000   -1.459222
  C      0.716987    1.337066    0.128932
  H      0.691489    1.504110    1.212448
  C      1.657387    0.158794   -0.161443
  H      1.822900    0.067134   -1.246953
  C      1.038490   -1.165230    0.313910
  H      1.040017   -1.162081    1.423067
  O     -0.283431   -1.330494   -0.153410
  O      1.797005   -2.194672   -0.196440
  O      2.878563    0.313412    0.512404
  O      1.212428    2.536475   -0.416579
  O     -1.600771    2.049506    0.039025
  O     -3.110812   -1.773353    0.383659
  H     -2.501389   -0.857695   -1.364778
  H     -3.236827    0.172103   -0.102326
  H      1.423757   -3.050429    0.066970
  H      3.228045    1.199643    0.325408
  H      1.277057    2.458683   -1.380866
  H     -1.168246    2.911811   -0.073333
  H     -2.536654   -2.538133    0.234653

 Total Charge           Charge          ....    0
 Multiplicity           Mult            ....    1
 Number of Electrons    NEL             ....   96
 Basis Dimension        Dim             ....  318

ORBITAL ENERGIES
----------------

  NO   OCC          E(Eh)            E(eV)
   0   2.0000     -18.984686      -516.5996
   1   2.0000     -18.976934      -516.3886
   2   2.0000     -18.970262      -516.2071
   3   2.0000     -18.966056      -516.0926
   4   2.0000     -18.961804      -515.9769
   5   2.0000     -18.951473      -515.6958
   6   2.0000     -10.145943      -276.0851
   7   2.0000     -10.102420      -274.9008
   8   2.0000     -10.099576      -274.8234
   9   2.0000     -10.098129      -274.7841
  10   2.0000     -10.095854      -274.7221
  11   2.0000     -10.079643      -274.2810
  12   2.0000      -1.056722       -28.7549
  13   2.0000      -1.030165       -28.0322
  14   2.0000      -1.007427       -27.4135
  15   2.0000      -0.995774       -27.0964
  16   2.0000      -0.993921       -27.0460
  17   2.0000      -0.982305       -26.7299
  18   2.0000      -0.759588       -20.6694
  19   2.0000      -0.742206       -20.1964
  20   2.0000      -0.664868       -18.0920
  21   2.0000      -0.623132       -16.9563
  22   2.0000      -0.599295       -16.3076
  23   2.0000      -0.569114       -15.4864
  24   2.0000      -0.531225       -14.4554
  25   2.0000      -0.516343       -14.0504
  26   2.0000      -0.507811       -13.8182
  27   2.0000      -0.486927       -13.2500
  28   2.0000      -0.468666       -12.7531
  29   2.0000      -0.459725       -12.5097
  30   2.0000      -0.454714       -12.3734
  31   2.0000      -0.436274       -11.8716
  32   2.0000      -0.409444       -11.1415
  33   2.0000      -0.399632       -10.8745
  34   2.0000      -0.389458       -10.5977
  35   2.0000      -0.382269       -10.4021
  36   2.0000      -0.350892        -9.5483
  37   2.0000      -0.338589        -9.2135
  38   2.0000      -0.332469        -9.0469
  39   2.0000      -0.325644        -8.8612
  40   2.0000      -0.316232        -8.6051
  41   2.0000      -0.298341        -8.1183
  42   2.0000      -0.284054        -7.7295
  43   2.0000      -0.274552        -7.4710
  44   2.0000      -0.264695        -7.2027
  45   2.0000      -0.246198        -6.6994
  46   2.0000      -0.240664        -6.5488
  47   2.0000      -0.234578        -6.3832
  48   0.0000       0.020565         0.5596
  49   0.0000       0.048078         1.3083
  50   0.0000       0.054809         1.4914
  51   0.0000       0.066270         1.8033
  52   0.0000       0.077340         2.1045

MULLIKEN ATOMIC CHARGES
-----------------------
   0 C :   -0.295413
   1 C :   -0.038247
   2 H :    0.187018
   3 C :    0.050398
   4 H :    0.163835
   5 C :   -0.137923
   6 H :    0.182204
   7 C :    0.076672
   8 H :    0.164831
   9 C :   -0.089434
  10 H :    0.147238
  11 O :   -0.203214
  12 O :   -0.378315
  13 O :   -0.415093
  14 O :   -0.429841
  15 O :   -0.432865
  16 O :   -0.408182
  17 H :    0.143034
  18 H :    0.171248
  19 H :    0.306661
  20 H :    0.309171
  21 H :    0.304856
  22 H :    0.313859
  23 H :    0.307500
Sum of atomic charges:    0.0000000

LOEWDIN ATOMIC CHARGES
----------------------
   0 C :    0.044365
   1 C :    0.116627
   2 H :    0.189202
   3 C :    0.102558
   4 H :    0.176752
   5 C :    0.092937
   6 H :    0.204985
   7 C :    0.117080
   8 H :    0.184579
   9 C :    0.308167
  10 H :    0.183213
  11 O :   -0.686194
  12 O :   -0.480257
  13 O :   -0.562410
  14 O :   -0.579568
  15 O :   -0.583917
  16 O :   -0.588590
  17 H :    0.168791
  18 H :    0.198784
  19 H :    0.282555
  20 H :    0.281535
  21 H :    0.273725
  22 H :    0.283147
  23 H :    0.271934

  Mayer bond orders larger than 0.100000
B(  0-C ,  1-C ) :   0.9158 B(  0-C , 16-O ) :   1.0154 B(  0-C , 17-H ) :   0.9973
B(  0-C , 18-H ) :   0.9650 B(  1-C ,  2-H ) :   0.9586 B(  1-C ,  3-C ) :   0.8409
B(  1-C , 11-O ) :   0.7878 B(  3-C ,  4-H ) :   0.9574 B(  3-C ,  5-C ) :   0.8885
B(  3-C , 15-O ) :   0.8490 B(  5-C ,  6-H ) :   0.9749 B(  5-C ,  7-C ) :   0.8772
B(  5-C , 14-O ) :   1.0559 B(  7-C ,  8-H ) :   0.9548 B(  7-C ,  9-C ) :   0.8567
B(  7-C , 13-O ) :   0.8786 B(  9-C , 10-H ) :   1.0138 B(  9-C , 11-O ) :   0.9149
B(  9-C , 12-O ) :   1.0889 B( 12-O , 19-H ) :   0.8819 B( 13-O , 20-H ) :   0.8777
B( 14-O , 21-H ) :   0.8850 B( 15-O , 22-H ) :   0.8732 B( 16-O , 23-H ) :   0.8820

Dispersion correction           -0.007954325
FINAL SINGLE POINT ENERGY      -687.074676835031

DIPOLE MOMENT
-------------

Method             : SCF
Type of density    : Electron Density
Multiplicity       :   1
Irrep              :   0
Energy             :  -687.0859607246466112 Eh
Relativity type    :
Basis              : AO
                                X                 Y                 Z
Electronic contribution:      2.141077626      -0.997183744       0.410567303
Nuclear contribution   :     -1.733713191       1.350520859      -0.973687389
                        -----------------------------------------
Total Dipole Moment    :      0.407364435       0.353337115      -0.563120087
                        -----------------------------------------
Magnitude (a.u.)       :      0.779677582
Magnitude (Debye)      :      1.981782918

Rotational constants in cm-1:             0.039250             0.025852             0.016394
Rotational constants in MHz :          1176.671867           775.026835           491.488716

                             ****ORCA TERMINATED NORMALLY****
TOTAL RUN TIME: 0 days 0 hours 0 minutes 47 seconds 904 msec
