                         Program Version 6.0.0  -   RELEASE  -
|  1> ! r2scan-3c def2/J RI DEFGRID2 scfconv6 printgap
|  2> %output
|  3>     printlevel normal
|  4> end
|  5> %cpcm
|  6>     smd true
|  7>     smdsolvent "water"
|  8> end
|  9> * xyz 0 1
| 10> C -2.5667037781 -0.6686942093 -0.2865091461
| 11> C -1.1718825238 -0.2950649894 0.2270323457
| 12> H -1.2011477828 -0.212316334 1.3244118439
| 13> C -0.7075299844 1.0434640054 -0.3592738551
| 14> H -0.7010755248 0.9529999763 -1.4592219996
| 15> C 0.7169867075 1.3370655225 0.1289319032
| 16> H 0.6914890131 1.5041104317 1.2124475281
| 17> C 1.6573870489 0.1587938808 -0.1614425326
| 18> H 1.822900273 0.0671341106 -1.2469532989
| 19> C 1.0384896724 -1.1652296775 0.3139104569
| 20> H 1.0400169634 -1.1620814376 1.4230666652
| 21> O -0.283431087 -1.3304940055 -0.1534102773
| 22> O 1.7970053308 -2.1946716551 -0.1964396881
| 23> O 2.8785627678 0.3134118433 0.5124041602
| 24> O 1.2124282193 2.536474852 -0.4165788508
| 25> O -1.6007708074 2.0495059034 0.0390254076
| 26> O -3.1108119021 -1.7733531101 0.3836594624
| 27> H -2.5013889644 -0.8576952774 -1.3647781406
| 28> H -3.2368268533 0.1721030332 -0.1023261508
| 29> H 1.4237570828 -3.0504287199 0.0669704829
| 30> H 3.2280450673 1.1996427321 0.3254077365
| 31> H 1.2770566735 2.4586827563 -1.3808655575
| 32> H -1.168245874 2.9118108581 -0.0733330119
| 33> H -2.5366541681 -2.5381329728 0.2346525881
| 34> *
| 35>
| 36>                          ****END OF INPUT****

CARTESIAN COORDINATES (ANGSTROEM)
---------------------------------
  C     -2.566704   -0.668694   -0.286509
  C     -1.171883   -0.295065    0.227032
  H     -1.201148   -0.212316    1.324412
  C     -0.707530    1.043464   -0.359274
  H     -0.701076    0.953000   -1.459222
  C      0.716987    1.337066    0.128932
  H      0.691489    1.504110    1.212448
  C      1.657387    0.158794   -0.161443
  H      1.822900    0.067134   -1.246953
  C      1.038490   -1.165230    0.313910
  H      1.040017   -1.162081    1.423067
  O     -0.283431   -1.330494   -0.153410
  O      1.797005   -2.194672   -0.196440
  O      2.878563    0.313412    0.512404
  O      1.212428    2.536475   -0.416579
  O     -1.600771    2.049506    0.039025
  O     -3.110812   -1.773353    0.383659
  H     -2.501389   -0.857695   -1.364778
  H     -3.236827    0.172103   -0.102326
  H      1.423757   -3.050429    0.066970
  H      3.228045    1.199643    0.325408
  H      1.277057    2.458683   -1.380866
  H     -1.168246    2.911811   -0.073333
  H     -2.536654   -2.538133    0.234653

 Total Charge           Charge          ....    0
 Multiplicity           Mult            ....    1
 Number of Electrons    NEL             ....   96
 Basis Dimension        Dim             ....  318

ORBITAL ENERGIES
----------------

  NO   OCC          E(Eh)            E(eV)
   0   2.0000     -18.974030      -516.3096
   1   2.0000     -18.969467      -516.1854
   2   2.0000     -18.964905      -516.0613
   3   2.0000     -18.961203      -515.9606
   4   2.0000     -18.960497      -515.9413
   5   2.0000     -18.956549      -515.8339
   6   2.0000     -10.138601      -275.8854
   7   2.0000     -10.088173      -274.5131
   8   2.0000     -10.087868      -274.5048
   9   2.0000     -10.087714      -274.5006
  10   2.0000     -10.086737      -274.4741
  11   2.0000     -10.076035      -274.1829
  12   2.0000      -1.053381       -28.6640
  13   2.0000      -1.015579       -27.6353
  14   2.0000      -1.004085       -27.3225
  15   2.0000      -0.995414       -27.0866
  16   2.0000      -0.986201       -26.8359
  17   2.0000      -0.981801       -26.7162
  18   2.0000      -0.748813       -20.3762
  19   2.0000      -0.735107       -20.0033
  20   2.0000      -0.657897       -17.9023
  21   2.0000      -0.612331       -16.6624
  22   2.0000      -0.593216       -16.1422
  23   2.0000      -0.558057       -15.1855
  24   2.0000      -0.523153       -14.2357
  25   2.0000      -0.507195       -13.8015
  26   2.0000      -0.500297       -13.6138
  27   2.0000      -0.483035       -13.1440
  28   2.0000      -0.457182       -12.4405
  29   2.0000      -0.452423       -12.3110
  30   2.0000      -0.446130       -12.1398
  31   2.0000      -0.429158       -11.6780
  32   2.0000      -0.405233       -11.0269
  33   2.0000      -0.396446       -10.7878
  34   2.0000      -0.384263       -10.4563
  35   2.0000      -0.378114       -10.2890
  36   2.0000      -0.348108        -9.4725
  37   2.0000      -0.339227        -9.2308
  38   2.0000      -0.326045        -8.8721
  39   2.0000      -0.322433        -8.7739
  40   2.0000      -0.313541        -8.5319
  41   2.0000      -0.297650        -8.0995
  42   2.0000      -0.279098        -7.5946
  43   2.0000      -0.271025        -7.3750
  44   2.0000      -0.261041        -7.1033
  45   2.0000      -0.246991        -6.7210
  46   2.0000      -0.237901        -6.4736
  47   2.0000      -0.229850        -6.2545
  48   0.0000       0.040330         1.0974
  49   0.0000       0.065352         1.7783
  50   0.0000       0.078639         2.1399
  51   0.0000       0.085234         2.3193
  52   0.0000       0.093805         2.5526

MULLIKEN ATOMIC CHARGES
-----------------------
   0 C :   -0.291763
   1 C :   -0.030910
   2 H :    0.201795
   3 C :    0.020378
   4 H :    0.190525
   5 C :   -0.106879
   6 H :    0.195741
   7 C :    0.079114
   8 H :    0.185440
   9 C :   -0.078314
  10 H :    0.167858
  11 O :   -0.242351
  12 O :   -0.449401
  13 O :   -0.492566
  14 O :   -0.479296
  15 O :   -0.500444
  16 O :   -0.484276
  17 H :    0.163571
  18 H :    0.175601
  19 H :    0.359777
  20 H :    0.351571
  21 H :    0.356202
  22 H :    0.352246
  23 H :    0.356380
Sum of atomic charges:    0.0000000

LOEWDIN ATOMIC CHARGES
----------------------
   0 C :    0.040693
   1 C :    0.117382
   2 H :    0.195586
   3 C :    0.108156
   4 H :    0.189662
   5 C :    0.099729
   6 H :    0.209098
   7 C :    0.118191
   8 H :    0.194810
   9 C :    0.306376
  10 H :    0.193209
  11 O :   -0.696587
  12 O :   -0.511482
  13 O :   -0.596196
  14 O :   -0.588821
  15 O :   -0.610032
  16 O :   -0.622660
  17 H :    0.177952
  18 H :    0.198728
  19 H :    0.301660
  20 H :    0.296972
  21 H :    0.293262
  22 H :    0.296204
  23 H :    0.288107

  Mayer bond orders larger than 0.100000
B(  0-C ,  1-C ) :   0.9115 B(  0-C , 16-O ) :   0.9963 B(  0-C , 17-H ) :   0.9850
B(  0-C , 18-H ) :   0.9661 B(  1-C ,  2-H ) :   0.9488 B(  1-C ,  3-C ) :   0.8611
B(  1-C , 11-O ) :   0.7848 B(  3-C ,  4-H ) :   0.9570 B(  3-C ,  5-C ) :   0.8884
B(  3-C , 15-O ) :   0.8425 B(  5-C ,  6-H ) :   0.9719 B(  5-C ,  7-C ) :   0.8924
B(  5-C , 14-O ) :   1.0384 B(  7-C ,  8-H ) :   0.9380 B(  7-C ,  9-C ) :   0.8624
B(  7-C , 13-O ) :   0.8656 B(  9-C , 10-H ) :   1.0029 B(  9-C , 11-O ) :   0.9351
B(  9-C , 12-O ) :   1.0678 B( 12-O , 19-H ) :   0.8556 B( 13-O , 20-H ) :   0.8583
B( 14-O , 21-H ) :   0.8606 B( 15-O , 22-H ) :   0.8553 B( 16-O , 23-H ) :   0.8569

Dispersion correction           -0.007954325
FINAL SINGLE POINT ENERGY      -687.111586009190

DIPOLE MOMENT
-------------

Method             : SCF
Type of density    : Electron Density
Multiplicity       :   1
Irrep              :   0
Energy             :  -687.1228698988047654 Eh
Relativity type    :
Basis              : AO
                                X                 Y                 Z
Electronic contribution:      2.244103671      -0.823089111       0.135604387
Nuclear contribution   :     -1.733713191       1.350520859      -0.973687389
                        -----------------------------------------
Total Dipole Moment    :      0.510390480       0.527431748      -0.838083002
                        -----------------------------------------
Magnitude (a.u.)       :      1.114031332
Magnitude (Debye)      :      2.831642613

Rotational constants in cm-1:             0.039250             0.025852             0.016394
Rotational constants in MHz :          1176.671867           775.026835           491.488716

                             ****ORCA TERMINATED NORMALLY****
TOTAL RUN TIME: 0 days 0 hours 0 minutes 56 seconds 407 msec
