                         Program Version 6.0.0  -   RELEASE  -
|  1> ! pbe def2-sv(p) def2/J RI DEFGRID1 loosescf d4 GCP(DFT/SV(P)) printgap
|  2> %output
|  3>     printlevel normal
|  4> end
|  5> * xyz 0 1
|  6> C -1.8194455922 -0.1009926394 0.3528183664
|  7> C -0.6055994308 0.5126269429 -0.3349457675
|  8> C 0.5883803115 -0.4548771921 -0.4044311375
|  9> N 1.7084167018 0.0569895928 0.3782786911
| 10> H -2.1666026814 -0.9755809287 -0.1929811501
| 11> H -1.5655140257 -0.402082402 1.3657091188
| 12> H -2.6322657005 0.6197900148 0.3995972967
| 13> H -0.2931595603 1.3974474543 0.2214032028
| 14> H -0.885493257 0.8311212879 -1.3405822382
| 15> H 0.3074592067 -1.4178567322 0.0298589063
| 16> H 0.8604935888 -0.6371093733 -1.4582200474
| 17> H 2.0484295497 0.9176265158 -0.0382459389
| 18> H 2.4717909596 -0.6100163436 0.3630408327
| 19> *
| 20>
| 21>                          ****END OF INPUT****

CARTESIAN COORDINATES (ANGSTROEM)
---------------------------------
  C     -1.819446   -0.100993    0.352818
  C     -0.605599    0.512627   -0.334946
  C      0.588380   -0.454877   -0.404431
  N      1.708417    0.056990    0.378279
  H     -2.166603   -0.975581   -0.192981
  H     -1.565514   -0.402082    1.365709
  H     -2.632266    0.619790    0.399597
  H     -0.293160    1.397447    0.221403
  H     -0.885493    0.831121   -1.340582
  H      0.307459   -1.417857    0.029859
  H      0.860494   -0.637109   -1.458220
  H      2.048430    0.917627   -0.038246
  H      2.471791   -0.610016    0.363041

 Total Charge           Charge          ....    0
 Multiplicity           Mult            ....    1
 Number of Electrons    NEL             ....   34
 Basis Dimension        Dim             ....   74

ORBITAL ENERGIES
----------------

  NO   OCC          E(Eh)            E(eV)
   0   2.0000     -13.953647      -379.6981
   1   2.0000      -9.901857      -269.4432
   2   2.0000      -9.877153      -268.7710
   3   2.0000      -9.868828      -268.5445
   4   2.0000      -0.789311       -21.4782
   5   2.0000      -0.683578       -18.6011
   6   2.0000      -0.583398       -15.8751
   7   2.0000      -0.516431       -14.0528
   8   2.0000      -0.429758       -11.6943
   9   2.0000      -0.416517       -11.3340
  10   2.0000      -0.385680       -10.4949
  11   2.0000      -0.359533        -9.7834
  12   2.0000      -0.334751        -9.1090
  13   2.0000      -0.299061        -8.1379
  14   2.0000      -0.289235        -7.8705
  15   2.0000      -0.285360        -7.7650
  16   2.0000      -0.177406        -4.8275
  17   0.0000       0.037101         1.0096
  18   0.0000       0.057953         1.5770
  19   0.0000       0.079594         2.1659
  20   0.0000       0.087090         2.3698
  21   0.0000       0.119395         3.2489

MULLIKEN ATOMIC CHARGES
-----------------------
   0 C :   -0.304203
   1 C :   -0.175277
   2 C :   -0.073722
   3 N :   -0.470923
   4 H :    0.101999
   5 H :    0.111674
   6 H :    0.100224
   7 H :    0.086786
   8 H :    0.081764
   9 H :    0.079266
  10 H :    0.061925
  11 H :    0.201168
  12 H :    0.199318
Sum of atomic charges:    0.0000000

LOEWDIN ATOMIC CHARGES
----------------------
   0 C :   -0.340396
   1 C :   -0.245060
   2 C :   -0.175180
   3 N :   -0.418197
   4 H :    0.115033
   5 H :    0.120647
   6 H :    0.116588
   7 H :    0.117953
   8 H :    0.112671
   9 H :    0.108223
  10 H :    0.087193
  11 H :    0.199423
  12 H :    0.201100

  Mayer bond orders larger than 0.100000
B(  0-C ,  1-C ) :   1.1676 B(  0-C ,  4-H ) :   0.9563 B(  0-C ,  5-H ) :   0.9539
B(  0-C ,  6-H ) :   0.9537 B(  1-C ,  2-C ) :   1.0870 B(  1-C ,  7-H ) :   0.9326
B(  1-C ,  8-H ) :   0.9326 B(  2-C ,  3-N ) :   1.1005 B(  2-C ,  9-H ) :   0.9434
B(  2-C , 10-H ) :   0.9239 B(  3-N , 11-H ) :   0.9043 B(  3-N , 12-H ) :   0.9056

Dispersion correction           -0.007131354
FINAL SINGLE POINT ENERGY      -174.026814209839

DIPOLE MOMENT
-------------

Method             : SCF
Type of density    : Electron Density
Multiplicity       :   1
Irrep              :   0
Energy             :  -174.0767176445701523 Eh
Relativity type    :
Basis              : AO
                                X                 Y                 Z
Electronic contribution:      1.992064948       0.210534527       0.160198340
Nuclear contribution   :     -1.730767483      -0.259240983      -0.608121618
                        -----------------------------------------
Total Dipole Moment    :      0.261297465      -0.048706456      -0.447923278
                        -----------------------------------------
Magnitude (a.u.)       :      0.520849256
Magnitude (Debye)      :      1.323893597

Rotational constants in cm-1:             0.636110             0.131158             0.130362
Rotational constants in MHz :         19070.095155          3932.004984          3908.149821

                             ****ORCA TERMINATED NORMALLY****
TOTAL RUN TIME: 0 days 0 hours 0 minutes 4 seconds 972 msec
