                         Program Version 6.0.0  -   RELEASE  -
|  1> ! r2scan-3c def2/J RI DEFGRID2 scfconv6 printgap
|  2> %output
|  3>     printlevel normal
|  4> end
|  5> %cpcm
|  6>     smd true
|  7>     smdsolvent "water"
|  8> end
|  9> * xyz 0 1
| 10> C -0.7616464782 -1.7226082745 -8.152e-07
| 11> C 0.5525045932 -1.3007734354 -3.67279e-05
| 12> C 0.8395536763 0.0676084267 -6.89348e-05
| 13> C -0.1974177436 0.9980912941 -9.87738e-05
| 14> C -1.5193896136 0.5676723858 -6.71377e-05
| 15> C -1.7947997523 -0.7993310694 7.0531e-05
| 16> O -2.4933283007 1.5057033797 4.72875e-05
| 17> C 2.222752913 0.5273100826 3.64915e-05
| 18> O 3.2057815938 -0.1863030874 2.79026e-05
| 19> H -0.9904942686 -2.7765568973 0.0001472349
| 20> H 1.3730234688 -2.0012237724 0.0005026992
| 21> H 0.0082291762 2.0570100955 3.39831e-05
| 22> H -2.8191820588 -1.1411162725 0.0001422074
| 23> H -3.3729404955 1.0966362985 0.0002152185
| 24> H 2.3384117274 1.6268810037 -0.0002643321
| 25> *
| 26>
| 27>                          ****END OF INPUT****

CARTESIAN COORDINATES (ANGSTROEM)
---------------------------------
  C     -0.761646   -1.722608   -0.000001
  C      0.552505   -1.300773   -0.000037
  C      0.839554    0.067608   -0.000069
  C     -0.197418    0.998091   -0.000099
  C     -1.519390    0.567672   -0.000067
  C     -1.794800   -0.799331    0.000071
  O     -2.493328    1.505703    0.000047
  C      2.222753    0.527310    0.000036
  O      3.205782   -0.186303    0.000028
  H     -0.990494   -2.776557    0.000147
  H      1.373023   -2.001224    0.000503
  H      0.008229    2.057010    0.000034
  H     -2.819182   -1.141116    0.000142
  H     -3.372940    1.096636    0.000215
  H      2.338412    1.626881   -0.000264

 Total Charge           Charge          ....    0
 Multiplicity           Mult            ....    1
 Number of Electrons    NEL             ....   64
 Basis Dimension        Dim             ....  211

ORBITAL ENERGIES
----------------

  NO   OCC          E(Eh)            E(eV)
   0   2.0000     -18.988401      -516.7007
   1   2.0000     -18.956461      -515.8315
   2   2.0000     -10.123502      -275.4745
   3   2.0000     -10.108645      -275.0702
   4   2.0000     -10.052334      -273.5379
   5   2.0000     -10.047025      -273.3934
   6   2.0000     -10.046829      -273.3881
   7   2.0000     -10.045315      -273.3469
   8   2.0000     -10.040306      -273.2106
   9   2.0000      -1.034980       -28.1632
  10   2.0000      -1.020553       -27.7707
  11   2.0000      -0.836732       -22.7686
  12   2.0000      -0.743873       -20.2418
  13   2.0000      -0.721936       -19.6449
  14   2.0000      -0.633221       -17.2308
  15   2.0000      -0.586438       -15.9578
  16   2.0000      -0.566950       -15.4275
  17   2.0000      -0.502304       -13.6684
  18   2.0000      -0.474897       -12.9226
  19   2.0000      -0.454933       -12.3794
  20   2.0000      -0.435547       -11.8518
  21   2.0000      -0.411002       -11.1839
  22   2.0000      -0.401452       -10.9241
  23   2.0000      -0.400836       -10.9073
  24   2.0000      -0.378851       -10.3091
  25   2.0000      -0.362934        -9.8759
  26   2.0000      -0.343509        -9.3473
  27   2.0000      -0.320209        -8.7133
  28   2.0000      -0.320176        -8.7124
  29   2.0000      -0.254915        -6.9366
  30   2.0000      -0.236653        -6.4396
  31   2.0000      -0.218089        -5.9345
  32   0.0000      -0.099149        -2.6980
  33   0.0000      -0.034300        -0.9333
  34   0.0000       0.012254         0.3334
  35   0.0000       0.079870         2.1734
  36   0.0000       0.093139         2.5344

MULLIKEN ATOMIC CHARGES
-----------------------
   0 C :   -0.172686
   1 C :   -0.233032
   2 C :    0.240898
   3 C :   -0.374893
   4 C :    0.340793
   5 C :   -0.266387
   6 O :   -0.441583
   7 C :    0.059114
   8 O :   -0.439848
   9 H :    0.185674
  10 H :    0.193669
  11 H :    0.197830
  12 H :    0.193287
  13 H :    0.375750
  14 H :    0.141413
Sum of atomic charges:    0.0000000

LOEWDIN ATOMIC CHARGES
----------------------
   0 C :   -0.147871
   1 C :   -0.142216
   2 C :   -0.102473
   3 C :   -0.108433
   4 C :    0.176863
   5 C :   -0.129121
   6 O :   -0.498325
   7 C :    0.233595
   8 O :   -0.530305
   9 H :    0.183641
  10 H :    0.189120
  11 H :    0.197686
  12 H :    0.191296
  13 H :    0.310159
  14 H :    0.176384

  Mayer bond orders larger than 0.100000
B(  0-C ,  1-C ) :   1.4180 B(  0-C ,  5-C ) :   1.3550 B(  0-C ,  9-H ) :   0.9593
B(  1-C ,  2-C ) :   1.2752 B(  1-C , 10-H ) :   0.9642 B(  2-C ,  3-C ) :   1.3754
B(  2-C ,  7-C ) :   0.8880 B(  2-C ,  8-O ) :  -0.1104 B(  3-C ,  4-C ) :   1.4113
B(  3-C , 11-H ) :   0.9154 B(  4-C ,  5-C ) :   1.3470 B(  4-C ,  6-O ) :   0.9371
B(  5-C , 12-H ) :   0.9408 B(  6-O , 13-H ) :   0.8473 B(  7-C ,  8-O ) :   1.8842
B(  7-C , 14-H ) :   1.0140

Dispersion correction           -0.004928312
FINAL SINGLE POINT ENERGY      -420.724248751852

DIPOLE MOMENT
-------------

Method             : SCF
Type of density    : Electron Density
Multiplicity       :   1
Irrep              :   0
Energy             :  -420.7242463915828239 Eh
Relativity type    :
Basis              : AO
                                X                 Y                 Z
Electronic contribution:      0.664340788       1.060085399      -0.000321659
Nuclear contribution   :     -3.238292704      -1.048430237       0.000730087
                        -----------------------------------------
Total Dipole Moment    :     -2.573951917       0.011655162       0.000408427
                        -----------------------------------------
Magnitude (a.u.)       :      2.573978337
Magnitude (Debye)      :      6.542532989

Rotational constants in cm-1:             0.124236             0.038108             0.029163
Rotational constants in MHz :          3724.505268          1142.452351           874.277145

                             ****ORCA TERMINATED NORMALLY****
TOTAL RUN TIME: 0 days 0 hours 0 minutes 26 seconds 228 msec
