                         Program Version 6.0.0  -   RELEASE  -
|  1> ! pbe def2-sv(p) def2/J RI DEFGRID1 loosescf d4 GCP(DFT/SV(P)) printgap
|  2> %output
|  3>     printlevel normal
|  4> end
|  5> * xyz 0 1
|  6> C 1.99632671 -0.7959139641 -0.3607607552
|  7> O 1.1354027452 0.3378877555 -0.4087736817
|  8> S -0.3687361105 0.0517060846 0.0908242477
|  9> O -0.3214977058 -0.3451472435 1.4807586943
| 10> O -0.96903811 -0.9191772232 -0.7972378774
| 11> C -1.0624132264 1.6678195279 -0.1196807244
| 12> H 2.9647525369 -0.462719099 -0.7245273531
| 13> H 1.5887949864 -1.5847765095 -0.9947425243
| 14> H 2.0646461354 -1.1529956785 0.6678417663
| 15> H -0.4969538162 2.3329390215 0.5164583812
| 16> H -0.9550407107 1.9164667862 -1.1654489069
| 17> H -2.1020372743 1.6221393143 0.1749369677
| 18> *
| 19>
| 20>                          ****END OF INPUT****

CARTESIAN COORDINATES (ANGSTROEM)
---------------------------------
  C      1.996327   -0.795914   -0.360761
  O      1.135403    0.337888   -0.408774
  S     -0.368736    0.051706    0.090824
  O     -0.321498   -0.345147    1.480759
  O     -0.969038   -0.919177   -0.797238
  C     -1.062413    1.667820   -0.119681
  H      2.964753   -0.462719   -0.724527
  H      1.588795   -1.584777   -0.994743
  H      2.064646   -1.152996    0.667842
  H     -0.496954    2.332939    0.516458
  H     -0.955041    1.916467   -1.165449
  H     -2.102037    1.622139    0.174937

 Total Charge           Charge          ....    0
 Multiplicity           Mult            ....    1
 Number of Electrons    NEL             ....   58
 Basis Dimension        Dim             ....  100

ORBITAL ENERGIES
----------------

  NO   OCC          E(Eh)            E(eV)
   0   2.0000     -88.251781     -2401.4531
   1   2.0000     -18.803142      -511.6595
   2   2.0000     -18.739500      -509.9277
   3   2.0000     -18.739371      -509.9242
   4   2.0000      -9.949264      -270.7332
   5   2.0000      -9.935533      -270.3596
   6   2.0000      -7.866256      -214.0517
   7   2.0000      -5.894791      -160.4054
   8   2.0000      -5.891425      -160.3138
   9   2.0000      -5.890564      -160.2904
  10   2.0000      -1.051317       -28.6078
  11   2.0000      -0.945954       -25.7407
  12   2.0000      -0.902195       -24.5500
  13   2.0000      -0.729375       -19.8473
  14   2.0000      -0.653837       -17.7918
  15   2.0000      -0.541626       -14.7384
  16   2.0000      -0.488781       -13.3004
  17   2.0000      -0.450757       -12.2657
  18   2.0000      -0.440443       -11.9851
  19   2.0000      -0.419774       -11.4226
  20   2.0000      -0.410455       -11.1691
  21   2.0000      -0.396789       -10.7972
  22   2.0000      -0.376676       -10.2499
  23   2.0000      -0.347980        -9.4690
  24   2.0000      -0.289698        -7.8831
  25   2.0000      -0.286432        -7.7942
  26   2.0000      -0.274980        -7.4826
  27   2.0000      -0.259905        -7.0724
  28   2.0000      -0.232195        -6.3183
  29   0.0000       0.017466         0.4753
  30   0.0000       0.032812         0.8929
  31   0.0000       0.051317         1.3964
  32   0.0000       0.059524         1.6197
  33   0.0000       0.062613         1.7038

MULLIKEN ATOMIC CHARGES
-----------------------
   0 C :   -0.121968
   1 O :   -0.403126
   2 S :    0.769077
   3 O :   -0.412456
   4 O :   -0.412279
   5 C :   -0.308127
   6 H :    0.135493
   7 H :    0.128559
   8 H :    0.128696
   9 H :    0.160955
  10 H :    0.161036
  11 H :    0.174142
Sum of atomic charges:    0.0000000

LOEWDIN ATOMIC CHARGES
----------------------
   0 C :   -0.227533
   1 O :   -0.302159
   2 S :    1.121777
   3 O :   -0.474874
   4 O :   -0.474840
   5 C :   -0.461028
   6 H :    0.128137
   7 H :    0.117733
   8 H :    0.117769
   9 H :    0.149853
  10 H :    0.149908
  11 H :    0.155257

  Mayer bond orders larger than 0.100000
B(  0-C ,  1-O ) :   0.9206 B(  0-C ,  6-H ) :   0.9575 B(  0-C ,  7-H ) :   0.9468
B(  0-C ,  8-H ) :   0.9469 B(  1-O ,  2-S ) :   0.9518 B(  2-S ,  3-O ) :   1.7488
B(  2-S ,  4-O ) :   1.7493 B(  2-S ,  5-C ) :   0.9136 B(  5-C ,  9-H ) :   0.9237
B(  5-C , 10-H ) :   0.9237 B(  5-C , 11-H ) :   0.9293

Dispersion correction           -0.010054311
FINAL SINGLE POINT ENERGY      -702.678362707051

DIPOLE MOMENT
-------------

Method             : SCF
Type of density    : Electron Density
Multiplicity       :   1
Irrep              :   0
Energy             :  -702.7286276692670981 Eh
Relativity type    :
Basis              : AO
                                X                 Y                 Z
Electronic contribution:     -2.427081227      -1.465013537       1.044452612
Nuclear contribution   :      2.882989075       2.490695060      -1.429697779
                        -----------------------------------------
Total Dipole Moment    :      0.455907849       1.025681523      -0.385245167
                        -----------------------------------------
Magnitude (a.u.)       :      1.186713272
Magnitude (Debye)      :      3.016385422

Rotational constants in cm-1:             0.152231             0.087689             0.083645
Rotational constants in MHz :          4563.763689          2628.848482          2507.620891

                             ****ORCA TERMINATED NORMALLY****
TOTAL RUN TIME: 0 days 0 hours 0 minutes 5 seconds 714 msec
