                         Program Version 6.0.0  -   RELEASE  -
|  1> ! r2scan-3c def2/J RI DEFGRID2 scfconv6 printgap
|  2> %output
|  3>     printlevel normal
|  4> end
|  5> * xyz 0 1
|  6> C 3.7240317247 0.1857581768 0.042722153
|  7> C 2.2459590452 0.3315457833 -0.3090707868
|  8> H 2.1595360186 0.5519502377 -1.3790528412
|  9> C 1.6000782878 1.471347672 0.4764177491
| 10> C 0.119476303 1.5947219909 0.1325782239
| 11> C -0.6463270652 0.2995104784 0.4264697179
| 12> H -0.5226603011 0.0700375187 1.4925923089
| 13> C 0.001172768 -0.8447303887 -0.37455807
| 14> H -0.0914453517 -0.6368665674 -1.4454568976
| 15> C 1.4872611631 -0.9613004413 -0.0180830017
| 16> O -0.6466041886 -2.0922481325 -0.1977938674
| 17> C -2.1587649189 0.4938247946 0.1731555493
| 18> C -2.5372713219 0.4367719183 -1.3055329875
| 19> C -3.0040654346 -0.5128286116 0.9541437726
| 20> H 4.1749212443 -0.6220417968 -0.5284916376
| 21> H 4.259673819 1.1055137613 -0.1790524285
| 22> H 3.8424400782 -0.0336941278 1.101536906
| 23> H 1.7121502513 1.279921823 1.5461560212
| 24> H 2.1074747911 2.4111256644 0.2505551943
| 25> H -0.3208032293 2.4102672063 0.7099210342
| 26> H 0.0176988333 1.8429851318 -0.9257347213
| 27> H 1.5807778257 -1.2008596915 1.0451037821
| 28> H 1.9167256271 -1.7879966261 -0.5885846306
| 29> H -0.4955167631 -2.3859054838 0.7113509523
| 30> H -2.4083742969 1.4950205477 0.546972889
| 31> H -3.5824077232 0.7120559322 -1.4276736413
| 32> H -2.4043935159 -0.5708578163 -1.6913294597
| 33> H -1.9347360011 1.12331187 -1.8947069513
| 34> H -2.8307703255 -1.5187361125 0.5824941152
| 35> H -4.0603910447 -0.2815546089 0.8358038086
| 36> H -2.765176863 -0.4793853016 2.014949802
| 37> *
| 38>
| 39>                          ****END OF INPUT****

CARTESIAN COORDINATES (ANGSTROEM)
---------------------------------
  C      3.724032    0.185758    0.042722
  C      2.245959    0.331546   -0.309071
  H      2.159536    0.551950   -1.379053
  C      1.600078    1.471348    0.476418
  C      0.119476    1.594722    0.132578
  C     -0.646327    0.299510    0.426470
  H     -0.522660    0.070038    1.492592
  C      0.001173   -0.844730   -0.374558
  H     -0.091445   -0.636867   -1.445457
  C      1.487261   -0.961300   -0.018083
  O     -0.646604   -2.092248   -0.197794
  C     -2.158765    0.493825    0.173156
  C     -2.537271    0.436772   -1.305533
  C     -3.004065   -0.512829    0.954144
  H      4.174921   -0.622042   -0.528492
  H      4.259674    1.105514   -0.179052
  H      3.842440   -0.033694    1.101537
  H      1.712150    1.279922    1.546156
  H      2.107475    2.411126    0.250555
  H     -0.320803    2.410267    0.709921
  H      0.017699    1.842985   -0.925735
  H      1.580778   -1.200860    1.045104
  H      1.916726   -1.787997   -0.588585
  H     -0.495517   -2.385905    0.711351
  H     -2.408374    1.495021    0.546973
  H     -3.582408    0.712056   -1.427674
  H     -2.404394   -0.570858   -1.691329
  H     -1.934736    1.123312   -1.894707
  H     -2.830770   -1.518736    0.582494
  H     -4.060391   -0.281555    0.835804
  H     -2.765177   -0.479385    2.014950

 Total Charge           Charge          ....    0
 Multiplicity           Mult            ....    1
 Number of Electrons    NEL             ....   88
 Basis Dimension        Dim             ....  314

ORBITAL ENERGIES
----------------

  NO   OCC          E(Eh)            E(eV)
   0   2.0000     -18.944522      -515.5066
   1   2.0000     -10.075689      -274.1734
   2   2.0000     -10.034459      -273.0515
   3   2.0000     -10.028549      -272.8907
   4   2.0000     -10.028293      -272.8837
   5   2.0000     -10.024533      -272.7814
   6   2.0000     -10.023645      -272.7573
   7   2.0000     -10.023246      -272.7464
   8   2.0000     -10.017236      -272.5828
   9   2.0000     -10.009250      -272.3655
  10   2.0000     -10.004663      -272.2407
  11   2.0000      -0.984005       -26.7762
  12   2.0000      -0.806927       -21.9576
  13   2.0000      -0.766271       -20.8513
  14   2.0000      -0.713485       -19.4149
  15   2.0000      -0.697710       -18.9857
  16   2.0000      -0.643249       -17.5037
  17   2.0000      -0.641756       -17.4631
  18   2.0000      -0.583880       -15.8882
  19   2.0000      -0.566182       -15.4066
  20   2.0000      -0.531680       -14.4677
  21   2.0000      -0.522612       -14.2210
  22   2.0000      -0.456950       -12.4342
  23   2.0000      -0.436920       -11.8892
  24   2.0000      -0.433650       -11.8002
  25   2.0000      -0.419001       -11.4016
  26   2.0000      -0.411671       -11.2022
  27   2.0000      -0.385691       -10.4952
  28   2.0000      -0.381978       -10.3941
  29   2.0000      -0.375809       -10.2263
  30   2.0000      -0.366701        -9.9784
  31   2.0000      -0.351296        -9.5593
  32   2.0000      -0.344309        -9.3691
  33   2.0000      -0.337939        -9.1958
  34   2.0000      -0.331729        -9.0268
  35   2.0000      -0.317671        -8.6443
  36   2.0000      -0.314151        -8.5485
  37   2.0000      -0.302376        -8.2281
  38   2.0000      -0.296614        -8.0713
  39   2.0000      -0.292211        -7.9515
  40   2.0000      -0.282121        -7.6769
  41   2.0000      -0.274112        -7.4590
  42   2.0000      -0.262711        -7.1487
  43   2.0000      -0.222244        -6.0476
  44   0.0000       0.056635         1.5411
  45   0.0000       0.081767         2.2250
  46   0.0000       0.088920         2.4196
  47   0.0000       0.095098         2.5878
  48   0.0000       0.115394         3.1400

MULLIKEN ATOMIC CHARGES
-----------------------
   0 C :   -0.499561
   1 C :   -0.036957
   2 H :    0.162608
   3 C :   -0.336854
   4 C :   -0.343912
   5 C :   -0.118359
   6 H :    0.169614
   7 C :   -0.144306
   8 H :    0.171497
   9 C :   -0.352842
  10 O :   -0.396595
  11 C :    0.112730
  12 C :   -0.574840
  13 C :   -0.572136
  14 H :    0.148614
  15 H :    0.148208
  16 H :    0.149098
  17 H :    0.155860
  18 H :    0.147119
  19 H :    0.147880
  20 H :    0.157176
  21 H :    0.148723
  22 H :    0.161198
  23 H :    0.292798
  24 H :    0.146327
  25 H :    0.148912
  26 H :    0.175528
  27 H :    0.155344
  28 H :    0.192061
  29 H :    0.143657
  30 H :    0.141411
Sum of atomic charges:    0.0000000

LOEWDIN ATOMIC CHARGES
----------------------
   0 C :   -0.412035
   1 C :   -0.232482
   2 H :    0.159433
   3 C :   -0.293694
   4 C :   -0.287042
   5 C :   -0.200134
   6 H :    0.165936
   7 C :    0.061610
   8 H :    0.188104
   9 C :   -0.268356
  10 O :   -0.607909
  11 C :   -0.229013
  12 C :   -0.413301
  13 C :   -0.418276
  14 H :    0.153933
  15 H :    0.153502
  16 H :    0.153728
  17 H :    0.158045
  18 H :    0.158377
  19 H :    0.159346
  20 H :    0.160382
  21 H :    0.159846
  22 H :    0.168019
  23 H :    0.267472
  24 H :    0.157237
  25 H :    0.154059
  26 H :    0.162593
  27 H :    0.151088
  28 H :    0.169381
  29 H :    0.150463
  30 H :    0.149685

  Mayer bond orders larger than 0.100000
B(  0-C ,  1-C ) :   0.8846 B(  0-C , 14-H ) :   0.9773 B(  0-C , 15-H ) :   0.9767
B(  0-C , 16-H ) :   0.9965 B(  1-C ,  2-H ) :   0.9566 B(  1-C ,  3-C ) :   0.9104
B(  1-C ,  9-C ) :   0.8907 B(  3-C ,  4-C ) :   0.8754 B(  3-C , 17-H ) :   1.0196
B(  3-C , 18-H ) :   0.9459 B(  4-C ,  5-C ) :   0.9216 B(  4-C , 19-H ) :   0.9458
B(  4-C , 20-H ) :   0.9937 B(  5-C ,  6-H ) :   1.0143 B(  5-C ,  7-C ) :   0.8919
B(  5-C , 11-C ) :   0.8492 B(  7-C ,  8-H ) :   0.9743 B(  7-C ,  9-C ) :   0.9231
B(  7-C , 10-O ) :   0.9607 B(  9-C , 21-H ) :   1.0118 B(  9-C , 22-H ) :   0.9484
B( 10-O , 23-H ) :   0.8912 B( 11-C , 12-C ) :   0.8375 B( 11-C , 13-C ) :   0.8649
B( 11-C , 24-H ) :   0.9917 B( 12-C , 25-H ) :   0.9679 B( 12-C , 26-H ) :   0.9730
B( 12-C , 27-H ) :   0.9892 B( 13-C , 28-H ) :   0.9847 B( 13-C , 29-H ) :   0.9761
B( 13-C , 30-H ) :   0.9845

Dispersion correction           -0.010901074
FINAL SINGLE POINT ENERGY      -468.208088957883

DIPOLE MOMENT
-------------

Method             : SCF
Type of density    : Electron Density
Multiplicity       :   1
Irrep              :   0
Energy             :  -468.2124547969488049 Eh
Relativity type    :
Basis              : AO
                                X                 Y                 Z
Electronic contribution:      0.044351217      -2.899745708      -0.365579543
Nuclear contribution   :      0.323194657       3.237794852       0.726350738
                        -----------------------------------------
Total Dipole Moment    :      0.367545873       0.338049144       0.360771195
                        -----------------------------------------
Magnitude (a.u.)       :      0.616054420
Magnitude (Debye)      :      1.565885893

Rotational constants in cm-1:             0.065549             0.022754             0.019533
Rotational constants in MHz :          1965.111614           682.155970           585.571797

                             ****ORCA TERMINATED NORMALLY****
TOTAL RUN TIME: 0 days 0 hours 0 minutes 48 seconds 368 msec
