                         Program Version 6.0.0  -   RELEASE  -
|  1> ! r2scan-3c def2/J RI DEFGRID2 scfconv6 printgap
|  2> %output
|  3>     printlevel normal
|  4> end
|  5> %cpcm
|  6>     smd true
|  7>     smdsolvent "water"
|  8> end
|  9> * xyz 0 1
| 10> C 3.7240317247 0.1857581768 0.042722153
| 11> C 2.2459590452 0.3315457833 -0.3090707868
| 12> H 2.1595360186 0.5519502377 -1.3790528412
| 13> C 1.6000782878 1.471347672 0.4764177491
| 14> C 0.119476303 1.5947219909 0.1325782239
| 15> C -0.6463270652 0.2995104784 0.4264697179
| 16> H -0.5226603011 0.0700375187 1.4925923089
| 17> C 0.001172768 -0.8447303887 -0.37455807
| 18> H -0.0914453517 -0.6368665674 -1.4454568976
| 19> C 1.4872611631 -0.9613004413 -0.0180830017
| 20> O -0.6466041886 -2.0922481325 -0.1977938674
| 21> C -2.1587649189 0.4938247946 0.1731555493
| 22> C -2.5372713219 0.4367719183 -1.3055329875
| 23> C -3.0040654346 -0.5128286116 0.9541437726
| 24> H 4.1749212443 -0.6220417968 -0.5284916376
| 25> H 4.259673819 1.1055137613 -0.1790524285
| 26> H 3.8424400782 -0.0336941278 1.101536906
| 27> H 1.7121502513 1.279921823 1.5461560212
| 28> H 2.1074747911 2.4111256644 0.2505551943
| 29> H -0.3208032293 2.4102672063 0.7099210342
| 30> H 0.0176988333 1.8429851318 -0.9257347213
| 31> H 1.5807778257 -1.2008596915 1.0451037821
| 32> H 1.9167256271 -1.7879966261 -0.5885846306
| 33> H -0.4955167631 -2.3859054838 0.7113509523
| 34> H -2.4083742969 1.4950205477 0.546972889
| 35> H -3.5824077232 0.7120559322 -1.4276736413
| 36> H -2.4043935159 -0.5708578163 -1.6913294597
| 37> H -1.9347360011 1.12331187 -1.8947069513
| 38> H -2.8307703255 -1.5187361125 0.5824941152
| 39> H -4.0603910447 -0.2815546089 0.8358038086
| 40> H -2.765176863 -0.4793853016 2.014949802
| 41> *
| 42>
| 43>                          ****END OF INPUT****

CARTESIAN COORDINATES (ANGSTROEM)
---------------------------------
  C      3.724032    0.185758    0.042722
  C      2.245959    0.331546   -0.309071
  H      2.159536    0.551950   -1.379053
  C      1.600078    1.471348    0.476418
  C      0.119476    1.594722    0.132578
  C     -0.646327    0.299510    0.426470
  H     -0.522660    0.070038    1.492592
  C      0.001173   -0.844730   -0.374558
  H     -0.091445   -0.636867   -1.445457
  C      1.487261   -0.961300   -0.018083
  O     -0.646604   -2.092248   -0.197794
  C     -2.158765    0.493825    0.173156
  C     -2.537271    0.436772   -1.305533
  C     -3.004065   -0.512829    0.954144
  H      4.174921   -0.622042   -0.528492
  H      4.259674    1.105514   -0.179052
  H      3.842440   -0.033694    1.101537
  H      1.712150    1.279922    1.546156
  H      2.107475    2.411126    0.250555
  H     -0.320803    2.410267    0.709921
  H      0.017699    1.842985   -0.925735
  H      1.580778   -1.200860    1.045104
  H      1.916726   -1.787997   -0.588585
  H     -0.495517   -2.385905    0.711351
  H     -2.408374    1.495021    0.546973
  H     -3.582408    0.712056   -1.427674
  H     -2.404394   -0.570858   -1.691329
  H     -1.934736    1.123312   -1.894707
  H     -2.830770   -1.518736    0.582494
  H     -4.060391   -0.281555    0.835804
  H     -2.765177   -0.479385    2.014950

 Total Charge           Charge          ....    0
 Multiplicity           Mult            ....    1
 Number of Electrons    NEL             ....   88
 Basis Dimension        Dim             ....  314

ORBITAL ENERGIES
----------------

  NO   OCC          E(Eh)            E(eV)
   0   2.0000     -18.945191      -515.5249
   1   2.0000     -10.068604      -273.9806
   2   2.0000     -10.022970      -272.7389
   3   2.0000     -10.022403      -272.7234
   4   2.0000     -10.018334      -272.6127
   5   2.0000     -10.013001      -272.4676
   6   2.0000     -10.012232      -272.4467
   7   2.0000     -10.011553      -272.4282
   8   2.0000     -10.006380      -272.2875
   9   2.0000     -10.004687      -272.2414
  10   2.0000     -10.001265      -272.1483
  11   2.0000      -0.983497       -26.7623
  12   2.0000      -0.796751       -21.6807
  13   2.0000      -0.758571       -20.6418
  14   2.0000      -0.704598       -19.1731
  15   2.0000      -0.688536       -18.7360
  16   2.0000      -0.639193       -17.3933
  17   2.0000      -0.632523       -17.2118
  18   2.0000      -0.576092       -15.6763
  19   2.0000      -0.557168       -15.1613
  20   2.0000      -0.520121       -14.1532
  21   2.0000      -0.516470       -14.0539
  22   2.0000      -0.449977       -12.2445
  23   2.0000      -0.428597       -11.6627
  24   2.0000      -0.425351       -11.5744
  25   2.0000      -0.411256       -11.1908
  26   2.0000      -0.404130       -10.9969
  27   2.0000      -0.377139       -10.2625
  28   2.0000      -0.375060       -10.2059
  29   2.0000      -0.368543       -10.0286
  30   2.0000      -0.359134        -9.7725
  31   2.0000      -0.344346        -9.3701
  32   2.0000      -0.341238        -9.2856
  33   2.0000      -0.330465        -8.9924
  34   2.0000      -0.323899        -8.8138
  35   2.0000      -0.310384        -8.4460
  36   2.0000      -0.304436        -8.2841
  37   2.0000      -0.297570        -8.0973
  38   2.0000      -0.287179        -7.8145
  39   2.0000      -0.283561        -7.7161
  40   2.0000      -0.273482        -7.4418
  41   2.0000      -0.265649        -7.2287
  42   2.0000      -0.255959        -6.9650
  43   2.0000      -0.220755        -6.0070
  44   0.0000       0.071651         1.9497
  45   0.0000       0.092781         2.5247
  46   0.0000       0.100662         2.7392
  47   0.0000       0.105227         2.8634
  48   0.0000       0.124026         3.3749

MULLIKEN ATOMIC CHARGES
-----------------------
   0 C :   -0.550341
   1 C :   -0.017555
   2 H :    0.169731
   3 C :   -0.356323
   4 C :   -0.366752
   5 C :   -0.102009
   6 H :    0.182159
   7 C :   -0.112977
   8 H :    0.177649
   9 C :   -0.382592
  10 O :   -0.479566
  11 C :    0.087887
  12 C :   -0.601491
  13 C :   -0.594096
  14 H :    0.158556
  15 H :    0.158835
  16 H :    0.162541
  17 H :    0.165315
  18 H :    0.154438
  19 H :    0.155820
  20 H :    0.168719
  21 H :    0.171693
  22 H :    0.158362
  23 H :    0.346173
  24 H :    0.156867
  25 H :    0.160592
  26 H :    0.167304
  27 H :    0.171286
  28 H :    0.178551
  29 H :    0.154741
  30 H :    0.156486
Sum of atomic charges:    0.0000000

LOEWDIN ATOMIC CHARGES
----------------------
   0 C :   -0.421325
   1 C :   -0.229868
   2 H :    0.161981
   3 C :   -0.296344
   4 C :   -0.288923
   5 C :   -0.196496
   6 H :    0.172172
   7 C :    0.061803
   8 H :    0.190204
   9 C :   -0.269315
  10 O :   -0.642259
  11 C :   -0.229488
  12 C :   -0.420911
  13 C :   -0.424931
  14 H :    0.155678
  15 H :    0.155556
  16 H :    0.156481
  17 H :    0.160751
  18 H :    0.159871
  19 H :    0.161158
  20 H :    0.163520
  21 H :    0.167687
  22 H :    0.166377
  23 H :    0.284672
  24 H :    0.160559
  25 H :    0.155762
  26 H :    0.158606
  27 H :    0.156442
  28 H :    0.164045
  29 H :    0.151782
  30 H :    0.154752

  Mayer bond orders larger than 0.100000
B(  0-C ,  1-C ) :   0.8680 B(  0-C , 14-H ) :   0.9756 B(  0-C , 15-H ) :   0.9750
B(  0-C , 16-H ) :   0.9948 B(  1-C ,  2-H ) :   0.9544 B(  1-C ,  3-C ) :   0.9117
B(  1-C ,  9-C ) :   0.8937 B(  3-C ,  4-C ) :   0.8786 B(  3-C , 17-H ) :   1.0157
B(  3-C , 18-H ) :   0.9463 B(  4-C ,  5-C ) :   0.9205 B(  4-C , 19-H ) :   0.9462
B(  4-C , 20-H ) :   0.9904 B(  5-C ,  6-H ) :   1.0091 B(  5-C ,  7-C ) :   0.8980
B(  5-C , 11-C ) :   0.8433 B(  7-C ,  8-H ) :   0.9740 B(  7-C ,  9-C ) :   0.9180
B(  7-C , 10-O ) :   0.9367 B(  9-C , 21-H ) :   1.0082 B(  9-C , 22-H ) :   0.9466
B( 10-O , 23-H ) :   0.8655 B( 11-C , 12-C ) :   0.8423 B( 11-C , 13-C ) :   0.8714
B( 11-C , 24-H ) :   0.9905 B( 12-C , 25-H ) :   0.9681 B( 12-C , 26-H ) :   0.9728
B( 12-C , 27-H ) :   0.9831 B( 13-C , 28-H ) :   0.9851 B( 13-C , 29-H ) :   0.9771
B( 13-C , 30-H ) :   0.9796

Dispersion correction           -0.010901074
FINAL SINGLE POINT ENERGY      -468.212277918727

DIPOLE MOMENT
-------------

Method             : SCF
Type of density    : Electron Density
Multiplicity       :   1
Irrep              :   0
Energy             :  -468.2166437577931788 Eh
Relativity type    :
Basis              : AO
                                X                 Y                 Z
Electronic contribution:      0.175491194      -2.712805361      -0.132426954
Nuclear contribution   :      0.323194657       3.237794852       0.726350738
                        -----------------------------------------
Total Dipole Moment    :      0.498685851       0.524989491       0.593923785
                        -----------------------------------------
Magnitude (a.u.)       :      0.936507878
Magnitude (Debye)      :      2.380413851

Rotational constants in cm-1:             0.065549             0.022754             0.019533
Rotational constants in MHz :          1965.111614           682.155970           585.571797

                             ****ORCA TERMINATED NORMALLY****
TOTAL RUN TIME: 0 days 0 hours 0 minutes 59 seconds 794 msec
