                         Program Version 6.0.0  -   RELEASE  -
|  1> ! pbe def2-sv(p) def2/J RI DEFGRID1 loosescf d4 GCP(DFT/SV(P)) printgap
|  2> %output
|  3>     printlevel normal
|  4> end
|  5> * xyz 0 1
|  6> C -2.6327240289 0.6060545663 0.7598941452
|  7> C -1.8479771513 0.5831526273 -0.5533768623
|  8> C -0.3811905994 0.3886646413 -0.2943208731
|  9> C 0.4874892957 1.4651145323 -0.2190406469
| 10> C 1.8345097389 1.2895869892 0.0507049096
| 11> C 2.3302327801 0.0142963162 0.2495172668
| 12> C 1.4813886197 -1.0762244802 0.1794273955
| 13> C 0.1300286328 -0.8978100764 -0.0867435253
| 14> O -0.7304719134 -1.9528372304 -0.1583429569
| 15> H -3.690952164 0.7606178847 0.5654322509
| 16> H -2.2731072693 1.4075299523 1.4015020609
| 17> H -2.5098257375 -0.3387224343 1.2836652874
| 18> H -2.0030441078 1.5221043735 -1.0873270362
| 19> H -2.2152732116 -0.2373399578 -1.1724742934
| 20> H 0.097229751 2.4598594596 -0.3779710027
| 21> H 2.4917536394 2.1438548641 0.103535244
| 22> H 3.3781972776 -0.1374775388 0.4590985355
| 23> H 1.8698271699 -2.0731070351 0.3341407998
| 24> H -0.2538384357 -2.7847266445 -0.0216527346
| 25> *
| 26>
| 27>                          ****END OF INPUT****

CARTESIAN COORDINATES (ANGSTROEM)
---------------------------------
  C     -2.632724    0.606055    0.759894
  C     -1.847977    0.583153   -0.553377
  C     -0.381191    0.388665   -0.294321
  C      0.487489    1.465115   -0.219041
  C      1.834510    1.289587    0.050705
  C      2.330233    0.014296    0.249517
  C      1.481389   -1.076224    0.179427
  C      0.130029   -0.897810   -0.086744
  O     -0.730472   -1.952837   -0.158343
  H     -3.690952    0.760618    0.565432
  H     -2.273107    1.407530    1.401502
  H     -2.509826   -0.338722    1.283665
  H     -2.003044    1.522104   -1.087327
  H     -2.215273   -0.237340   -1.172474
  H      0.097230    2.459859   -0.377971
  H      2.491754    2.143855    0.103535
  H      3.378197   -0.137478    0.459099
  H      1.869827   -2.073107    0.334141
  H     -0.253838   -2.784727   -0.021653

 Total Charge           Charge          ....    0
 Multiplicity           Mult            ....    1
 Number of Electrons    NEL             ....   66
 Basis Dimension        Dim             ....  146

ORBITAL ENERGIES
----------------

  NO   OCC          E(Eh)            E(eV)
   0   2.0000     -18.782159      -511.0885
   1   2.0000      -9.947569      -270.6871
   2   2.0000      -9.892381      -269.1854
   3   2.0000      -9.888818      -269.0884
   4   2.0000      -9.888336      -269.0753
   5   2.0000      -9.886418      -269.0231
   6   2.0000      -9.883101      -268.9328
   7   2.0000      -9.881513      -268.8896
   8   2.0000      -9.870177      -268.5812
   9   2.0000      -0.963227       -26.2107
  10   2.0000      -0.771102       -20.9828
  11   2.0000      -0.706619       -19.2281
  12   2.0000      -0.660474       -17.9724
  13   2.0000      -0.643489       -17.5102
  14   2.0000      -0.564933       -15.3726
  15   2.0000      -0.559028       -15.2119
  16   2.0000      -0.513103       -13.9622
  17   2.0000      -0.487576       -13.2676
  18   2.0000      -0.436302       -11.8724
  19   2.0000      -0.425931       -11.5902
  20   2.0000      -0.390816       -10.6346
  21   2.0000      -0.380229       -10.3465
  22   2.0000      -0.373895       -10.1742
  23   2.0000      -0.363144        -9.8817
  24   2.0000      -0.346126        -9.4186
  25   2.0000      -0.324959        -8.8426
  26   2.0000      -0.318092        -8.6557
  27   2.0000      -0.314032        -8.5452
  28   2.0000      -0.295330        -8.0363
  29   2.0000      -0.287897        -7.8341
  30   2.0000      -0.279535        -7.6065
  31   2.0000      -0.219645        -5.9769
  32   2.0000      -0.191137        -5.2011
  33   0.0000      -0.029332        -0.7982
  34   0.0000      -0.015461        -0.4207
  35   0.0000       0.020454         0.5566
  36   0.0000       0.049599         1.3497
  37   0.0000       0.059003         1.6056

MULLIKEN ATOMIC CHARGES
-----------------------
   0 C :   -0.272744
   1 C :   -0.108755
   2 C :   -0.007250
   3 C :   -0.143474
   4 C :   -0.043607
   5 C :   -0.050763
   6 C :   -0.163017
   7 C :    0.180809
   8 O :   -0.338361
   9 H :    0.102099
  10 H :    0.096598
  11 H :    0.109095
  12 H :    0.077938
  13 H :    0.094178
  14 H :    0.035441
  15 H :    0.044338
  16 H :    0.049556
  17 H :    0.020088
  18 H :    0.317831
Sum of atomic charges:   -0.0000000

LOEWDIN ATOMIC CHARGES
----------------------
   0 C :   -0.333606
   1 C :   -0.216033
   2 C :   -0.061046
   3 C :   -0.116563
   4 C :   -0.146719
   5 C :   -0.122851
   6 C :   -0.175772
   7 C :    0.024475
   8 O :   -0.235132
   9 H :    0.117164
  10 H :    0.117044
  11 H :    0.121002
  12 H :    0.119181
  13 H :    0.126063
  14 H :    0.121799
  15 H :    0.121524
  16 H :    0.122737
  17 H :    0.118248
  18 H :    0.298486

  Mayer bond orders larger than 0.100000
B(  0-C ,  1-C ) :   1.1481 B(  0-C ,  9-H ) :   0.9503 B(  0-C , 10-H ) :   0.9549
B(  0-C , 11-H ) :   0.9542 B(  1-C ,  2-C ) :   1.0820 B(  1-C , 12-H ) :   0.9057
B(  1-C , 13-H ) :   0.9015 B(  2-C ,  3-C ) :   1.4219 B(  2-C ,  7-C ) :   1.3832
B(  3-C ,  4-C ) :   1.3429 B(  3-C , 14-H ) :   0.9624 B(  4-C ,  5-C ) :   1.3766
B(  4-C , 15-H ) :   0.9671 B(  5-C ,  6-C ) :   1.3601 B(  5-C , 16-H ) :   0.9625
B(  6-C ,  7-C ) :   1.3265 B(  6-C , 17-H ) :   0.9564 B(  7-C ,  8-O ) :   1.1902
B(  8-O , 18-H ) :   0.8400

Dispersion correction           -0.019161256
FINAL SINGLE POINT ENERGY      -385.236551805223

DIPOLE MOMENT
-------------

Method             : SCF
Type of density    : Electron Density
Multiplicity       :   1
Irrep              :   0
Energy             :  -385.2962635911371194 Eh
Relativity type    :
Basis              : AO
                                X                 Y                 Z
Electronic contribution:      5.003755300      -2.992721280      -1.317684429
Nuclear contribution   :     -4.803960698       2.525310358       1.393600668
                        -----------------------------------------
Total Dipole Moment    :      0.199794602      -0.467410922       0.075916239
                        -----------------------------------------
Magnitude (a.u.)       :      0.513959267
Magnitude (Debye)      :      1.306380638

Rotational constants in cm-1:             0.088924             0.048699             0.034131
Rotational constants in MHz :          2665.880728          1459.965910          1023.210966

                             ****ORCA TERMINATED NORMALLY****
TOTAL RUN TIME: 0 days 0 hours 0 minutes 8 seconds 998 msec
