                         Program Version 6.0.0  -   RELEASE  -
|  1> ! pbe def2-sv(p) def2/J RI DEFGRID1 loosescf d4 GCP(DFT/SV(P)) printgap
|  2> %output
|  3>     printlevel normal
|  4> end
|  5> * xyz 0 1
|  6> C -1.037778864 -0.7350826226 -0.2199245278
|  7> C -1.0423549118 0.7262889323 0.2251905956
|  8> C 0.3771833732 1.1585453134 -0.1395635324
|  9> O 1.2067667866 0.0073341263 0.0077335938
| 10> C 0.3900630639 -1.1571963132 0.1270131378
| 11> H -1.1987950759 -0.8020250957 -1.2958753403
| 12> H -1.7782868873 -1.3423490181 0.2927382219
| 13> H -1.7945975863 1.3263781639 -0.2787600935
| 14> H -1.1897619314 0.7924810664 1.3031150863
| 15> H 0.4310377315 1.4956775632 -1.1831877858
| 16> H 0.7733944915 1.9450769508 0.5065440494
| 17> H 0.7900387504 -1.9231775737 -0.541533168
| 18> H 0.4560425376 -1.5197675048 1.1610017851
| 19> *
| 20>
| 21>                          ****END OF INPUT****

CARTESIAN COORDINATES (ANGSTROEM)
---------------------------------
  C     -1.037779   -0.735083   -0.219925
  C     -1.042355    0.726289    0.225191
  C      0.377183    1.158545   -0.139564
  O      1.206767    0.007334    0.007734
  C      0.390063   -1.157196    0.127013
  H     -1.198795   -0.802025   -1.295875
  H     -1.778287   -1.342349    0.292738
  H     -1.794598    1.326378   -0.278760
  H     -1.189762    0.792481    1.303115
  H      0.431038    1.495678   -1.183188
  H      0.773394    1.945077    0.506544
  H      0.790039   -1.923178   -0.541533
  H      0.456043   -1.519768    1.161002

 Total Charge           Charge          ....    0
 Multiplicity           Mult            ....    1
 Number of Electrons    NEL             ....   40
 Basis Dimension        Dim             ....   86

ORBITAL ENERGIES
----------------

  NO   OCC          E(Eh)            E(eV)
   0   2.0000     -18.740325      -509.9502
   1   2.0000      -9.924785      -270.0671
   2   2.0000      -9.924733      -270.0657
   3   2.0000      -9.891472      -269.1606
   4   2.0000      -9.891358      -269.1575
   5   2.0000      -0.926948       -25.2235
   6   2.0000      -0.706647       -19.2288
   7   2.0000      -0.659952       -17.9582
   8   2.0000      -0.532928       -14.5017
   9   2.0000      -0.521037       -14.1781
  10   2.0000      -0.451938       -12.2979
  11   2.0000      -0.438127       -11.9220
  12   2.0000      -0.381267       -10.3748
  13   2.0000      -0.379622       -10.3300
  14   2.0000      -0.356222        -9.6933
  15   2.0000      -0.315797        -8.5933
  16   2.0000      -0.307976        -8.3804
  17   2.0000      -0.293981        -7.9996
  18   2.0000      -0.263479        -7.1696
  19   2.0000      -0.190102        -5.1729
  20   0.0000       0.032523         0.8850
  21   0.0000       0.057673         1.5694
  22   0.0000       0.080493         2.1903
  23   0.0000       0.097057         2.6410
  24   0.0000       0.098398         2.6776

MULLIKEN ATOMIC CHARGES
-----------------------
   0 C :   -0.216792
   1 C :   -0.214984
   2 C :    0.039112
   3 O :   -0.365367
   4 C :    0.040709
   5 H :    0.095927
   6 H :    0.100728
   7 H :    0.100402
   8 H :    0.096234
   9 H :    0.074620
  10 H :    0.087394
  11 H :    0.086459
  12 H :    0.075559
Sum of atomic charges:    0.0000000

LOEWDIN ATOMIC CHARGES
----------------------
   0 C :   -0.245649
   1 C :   -0.245479
   2 C :   -0.106852
   3 O :   -0.197323
   4 C :   -0.106746
   5 H :    0.121727
   6 H :    0.124518
   7 H :    0.124364
   8 H :    0.121876
   9 H :    0.097059
  10 H :    0.107597
  11 H :    0.106987
  12 H :    0.097919

  Mayer bond orders larger than 0.100000
B(  0-C ,  1-C ) :   1.1233 B(  0-C ,  4-C ) :   1.1177 B(  0-C ,  5-H ) :   0.9235
B(  0-C ,  6-H ) :   0.9256 B(  1-C ,  2-C ) :   1.1176 B(  1-C ,  7-H ) :   0.9254
B(  1-C ,  8-H ) :   0.9230 B(  2-C ,  3-O ) :   1.0184 B(  2-C ,  9-H ) :   0.9280
B(  2-C , 10-H ) :   0.9321 B(  3-O ,  4-C ) :   1.0182 B(  4-C , 11-H ) :   0.9320
B(  4-C , 12-H ) :   0.9288

Dispersion correction           -0.008785477
FINAL SINGLE POINT ENERGY      -231.907492468346

DIPOLE MOMENT
-------------

Method             : SCF
Type of density    : Electron Density
Multiplicity       :   1
Irrep              :   0
Energy             :  -231.9587372680747421 Eh
Relativity type    :
Basis              : AO
                                X                 Y                 Z
Electronic contribution:      2.607820581       0.021602489       0.027612974
Nuclear contribution   :     -3.275913769      -0.025883445      -0.033619115
                        -----------------------------------------
Total Dipole Moment    :     -0.668093188      -0.004280956      -0.006006141
                        -----------------------------------------
Magnitude (a.u.)       :      0.668133900
Magnitude (Debye)      :      1.698261410

Rotational constants in cm-1:             0.238980             0.233255             0.134017
Rotational constants in MHz :          7164.427851          6992.806319          4017.720240

                             ****ORCA TERMINATED NORMALLY****
TOTAL RUN TIME: 0 days 0 hours 0 minutes 5 seconds 366 msec
