                         Program Version 6.0.0  -   RELEASE  -
|  1> ! r2scan-3c def2/J RI DEFGRID2 scfconv6 printgap
|  2> %output
|  3>     printlevel normal
|  4> end
|  5> * xyz 0 1
|  6> C -2.8614190499 0.6870665231 -0.3682121946
|  7> C -1.7187352708 0.258540659 0.5634106124
|  8> H -2.1610759699 -4.52173e-05 1.5322844193
|  9> C -0.6798914893 1.3669091538 0.7579353983
| 10> C 0.1718344458 1.5887064184 -0.4846092857
| 11> C 0.9104358478 0.3039965207 -0.885923127
| 12> H 1.4153936089 0.4860354113 -1.8409929703
| 13> C -0.106666263 -0.8232238453 -1.1105664624
| 14> C -1.1015230929 -1.0006940929 0.0006830443
| 15> O -1.4559871748 -2.1042597038 0.3795822822
| 16> C 1.9800692797 -0.0414349395 0.1247217838
| 17> C 1.7978327505 -0.8770298798 1.1348566454
| 18> C 3.2908184716 0.6533759099 -0.0958574669
| 19> H -2.48846193 0.966546493 -1.3486475329
| 20> H -3.5708060193 -0.1291107771 -0.487604057
| 21> H -3.3811514196 1.5379417243 0.0640868362
| 22> H -1.196053688 2.2905427828 1.02457219
| 23> H -0.0277853545 1.0941359301 1.5904082467
| 24> H -0.4545082905 1.9144118742 -1.3153418084
| 25> H 0.8943518499 2.3809585655 -0.2852702038
| 26> H -0.6934236347 -0.5853778313 -2.002014791
| 27> H 0.3985763875 -1.7747646503 -1.2865949319
| 28> H 2.5834665568 -1.0838495519 1.8425064722
| 29> H 0.8729963357 -1.4016421758 1.3032766989
| 30> H 3.9776061349 0.4572085215 0.7223009321
| 31> H 3.7442506751 0.30309599 -1.0223276576
| 32> H 3.1458006089 1.7283213229 -0.1836242471
| 33> *
| 34>
| 35>                          ****END OF INPUT****

CARTESIAN COORDINATES (ANGSTROEM)
---------------------------------
  C     -2.861419    0.687067   -0.368212
  C     -1.718735    0.258541    0.563411
  H     -2.161076   -0.000045    1.532284
  C     -0.679891    1.366909    0.757935
  C      0.171834    1.588706   -0.484609
  C      0.910436    0.303997   -0.885923
  H      1.415394    0.486035   -1.840993
  C     -0.106666   -0.823224   -1.110566
  C     -1.101523   -1.000694    0.000683
  O     -1.455987   -2.104260    0.379582
  C      1.980069   -0.041435    0.124722
  C      1.797833   -0.877030    1.134857
  C      3.290818    0.653376   -0.095857
  H     -2.488462    0.966546   -1.348648
  H     -3.570806   -0.129111   -0.487604
  H     -3.381151    1.537942    0.064087
  H     -1.196054    2.290543    1.024572
  H     -0.027785    1.094136    1.590408
  H     -0.454508    1.914412   -1.315342
  H      0.894352    2.380959   -0.285270
  H     -0.693424   -0.585378   -2.002015
  H      0.398576   -1.774765   -1.286595
  H      2.583467   -1.083850    1.842506
  H      0.872996   -1.401642    1.303277
  H      3.977606    0.457209    0.722301
  H      3.744251    0.303096   -1.022328
  H      3.145801    1.728321   -0.183624

 Total Charge           Charge          ....    0
 Multiplicity           Mult            ....    1
 Number of Electrons    NEL             ....   84
 Basis Dimension        Dim             ....  294

ORBITAL ENERGIES
----------------

  NO   OCC          E(Eh)            E(eV)
   0   2.0000     -18.930239      -515.1180
   1   2.0000     -10.112113      -275.1646
   2   2.0000     -10.051895      -273.5260
   3   2.0000     -10.044667      -273.3293
   4   2.0000     -10.042258      -273.2637
   5   2.0000     -10.039042      -273.1762
   6   2.0000     -10.037738      -273.1407
   7   2.0000     -10.033252      -273.0187
   8   2.0000     -10.032362      -272.9944
   9   2.0000     -10.029877      -272.9268
  10   2.0000     -10.015670      -272.5402
  11   2.0000      -0.996462       -27.1151
  12   2.0000      -0.823173       -22.3997
  13   2.0000      -0.775426       -21.1004
  14   2.0000      -0.728823       -19.8323
  15   2.0000      -0.708375       -19.2759
  16   2.0000      -0.660028       -17.9603
  17   2.0000      -0.646980       -17.6052
  18   2.0000      -0.593318       -16.1450
  19   2.0000      -0.568298       -15.4642
  20   2.0000      -0.509136       -13.8543
  21   2.0000      -0.476029       -12.9534
  22   2.0000      -0.458330       -12.4718
  23   2.0000      -0.440826       -11.9955
  24   2.0000      -0.434682       -11.8283
  25   2.0000      -0.416586       -11.3359
  26   2.0000      -0.414166       -11.2700
  27   2.0000      -0.390377       -10.6227
  28   2.0000      -0.387107       -10.5337
  29   2.0000      -0.381997       -10.3947
  30   2.0000      -0.370037       -10.0692
  31   2.0000      -0.369315       -10.0496
  32   2.0000      -0.361443        -9.8354
  33   2.0000      -0.340194        -9.2571
  34   2.0000      -0.337655        -9.1880
  35   2.0000      -0.322788        -8.7835
  36   2.0000      -0.311283        -8.4704
  37   2.0000      -0.302049        -8.2192
  38   2.0000      -0.291811        -7.9406
  39   2.0000      -0.284287        -7.7358
  40   2.0000      -0.231606        -6.3023
  41   2.0000      -0.203904        -5.5485
  42   0.0000      -0.046648        -1.2693
  43   0.0000      -0.013997        -0.3809
  44   0.0000       0.062614         1.7038
  45   0.0000       0.089335         2.4309
  46   0.0000       0.092300         2.5116

MULLIKEN ATOMIC CHARGES
-----------------------
   0 C :   -0.532240
   1 C :    0.039859
   2 H :    0.177879
   3 C :   -0.325705
   4 C :   -0.392161
   5 C :    0.079619
   6 H :    0.161301
   7 C :   -0.390282
   8 C :    0.085553
   9 O :   -0.329808
  10 C :   -0.003837
  11 C :   -0.323666
  12 C :   -0.520511
  13 H :    0.155853
  14 H :    0.168430
  15 H :    0.155353
  16 H :    0.152529
  17 H :    0.178443
  18 H :    0.168629
  19 H :    0.154062
  20 H :    0.182922
  21 H :    0.189859
  22 H :    0.141310
  23 H :    0.160712
  24 H :    0.152785
  25 H :    0.164195
  26 H :    0.148916
Sum of atomic charges:   -0.0000000

LOEWDIN ATOMIC CHARGES
----------------------
   0 C :   -0.387197
   1 C :   -0.204639
   2 H :    0.181245
   3 C :   -0.282892
   4 C :   -0.276902
   5 C :   -0.196069
   6 H :    0.168991
   7 C :   -0.251550
   8 C :    0.217053
   9 O :   -0.468635
  10 C :   -0.124227
  11 C :   -0.307475
  12 C :   -0.390991
  13 H :    0.152565
  14 H :    0.164777
  15 H :    0.158401
  16 H :    0.160937
  17 H :    0.172295
  18 H :    0.159140
  19 H :    0.162497
  20 H :    0.184999
  21 H :    0.188710
  22 H :    0.158824
  23 H :    0.177363
  24 H :    0.160176
  25 H :    0.163117
  26 H :    0.159486

  Mayer bond orders larger than 0.100000
B(  0-C ,  1-C ) :   0.8899 B(  0-C , 13-H ) :   0.9752 B(  0-C , 14-H ) :   0.9679
B(  0-C , 15-H ) :   0.9683 B(  1-C ,  2-H ) :   0.9513 B(  1-C ,  3-C ) :   0.8710
B(  1-C ,  8-C ) :   0.8901 B(  3-C ,  4-C ) :   0.8744 B(  3-C , 16-H ) :   0.9511
B(  3-C , 17-H ) :   0.9584 B(  4-C ,  5-C ) :   0.8635 B(  4-C , 18-H ) :   1.0087
B(  4-C , 19-H ) :   0.9517 B(  5-C ,  6-H ) :   0.9556 B(  5-C ,  7-C ) :   0.8957
B(  5-C , 10-C ) :   0.8759 B(  7-C ,  8-C ) :   0.8937 B(  7-C , 20-H ) :   0.9510
B(  7-C , 21-H ) :   0.9528 B(  8-C ,  9-O ) :   1.9810 B( 10-C , 11-C ) :   1.8677
B( 10-C , 12-C ) :   0.8731 B( 11-C , 22-H ) :   0.9724 B( 11-C , 23-H ) :   0.9483
B( 12-C , 24-H ) :   0.9897 B( 12-C , 25-H ) :   0.9762 B( 12-C , 26-H ) :   0.9683

Dispersion correction           -0.010227715
FINAL SINGLE POINT ENERGY      -465.779004915331

DIPOLE MOMENT
-------------

Method             : SCF
Type of density    : Electron Density
Multiplicity       :   1
Irrep              :   0
Energy             :  -465.7800224771477815 Eh
Relativity type    :
Basis              : AO
                                X                 Y                 Z
Electronic contribution:     -2.439872195      -6.376300788       1.104222867
Nuclear contribution   :      2.848425933       7.647134576      -1.582670715
                        -----------------------------------------
Total Dipole Moment    :      0.408553739       1.270833788      -0.478447848
                        -----------------------------------------
Magnitude (a.u.)       :      1.418043377
Magnitude (Debye)      :      3.604379819

Rotational constants in cm-1:             0.061260             0.028774             0.024067
Rotational constants in MHz :          1836.517151           862.617605           721.525157

                             ****ORCA TERMINATED NORMALLY****
TOTAL RUN TIME: 0 days 0 hours 0 minutes 55 seconds 317 msec
