                         Program Version 6.0.0  -   RELEASE  -
|  1> ! r2scan-3c def2/J RI DEFGRID2 scfconv6 printgap
|  2> %output
|  3>     printlevel normal
|  4> end
|  5> %cpcm
|  6>     smd true
|  7>     smdsolvent "water"
|  8> end
|  9> * xyz 0 1
| 10> C -2.8614190499 0.6870665231 -0.3682121946
| 11> C -1.7187352708 0.258540659 0.5634106124
| 12> H -2.1610759699 -4.52173e-05 1.5322844193
| 13> C -0.6798914893 1.3669091538 0.7579353983
| 14> C 0.1718344458 1.5887064184 -0.4846092857
| 15> C 0.9104358478 0.3039965207 -0.885923127
| 16> H 1.4153936089 0.4860354113 -1.8409929703
| 17> C -0.106666263 -0.8232238453 -1.1105664624
| 18> C -1.1015230929 -1.0006940929 0.0006830443
| 19> O -1.4559871748 -2.1042597038 0.3795822822
| 20> C 1.9800692797 -0.0414349395 0.1247217838
| 21> C 1.7978327505 -0.8770298798 1.1348566454
| 22> C 3.2908184716 0.6533759099 -0.0958574669
| 23> H -2.48846193 0.966546493 -1.3486475329
| 24> H -3.5708060193 -0.1291107771 -0.487604057
| 25> H -3.3811514196 1.5379417243 0.0640868362
| 26> H -1.196053688 2.2905427828 1.02457219
| 27> H -0.0277853545 1.0941359301 1.5904082467
| 28> H -0.4545082905 1.9144118742 -1.3153418084
| 29> H 0.8943518499 2.3809585655 -0.2852702038
| 30> H -0.6934236347 -0.5853778313 -2.002014791
| 31> H 0.3985763875 -1.7747646503 -1.2865949319
| 32> H 2.5834665568 -1.0838495519 1.8425064722
| 33> H 0.8729963357 -1.4016421758 1.3032766989
| 34> H 3.9776061349 0.4572085215 0.7223009321
| 35> H 3.7442506751 0.30309599 -1.0223276576
| 36> H 3.1458006089 1.7283213229 -0.1836242471
| 37> *
| 38>
| 39>                          ****END OF INPUT****

CARTESIAN COORDINATES (ANGSTROEM)
---------------------------------
  C     -2.861419    0.687067   -0.368212
  C     -1.718735    0.258541    0.563411
  H     -2.161076   -0.000045    1.532284
  C     -0.679891    1.366909    0.757935
  C      0.171834    1.588706   -0.484609
  C      0.910436    0.303997   -0.885923
  H      1.415394    0.486035   -1.840993
  C     -0.106666   -0.823224   -1.110566
  C     -1.101523   -1.000694    0.000683
  O     -1.455987   -2.104260    0.379582
  C      1.980069   -0.041435    0.124722
  C      1.797833   -0.877030    1.134857
  C      3.290818    0.653376   -0.095857
  H     -2.488462    0.966546   -1.348648
  H     -3.570806   -0.129111   -0.487604
  H     -3.381151    1.537942    0.064087
  H     -1.196054    2.290543    1.024572
  H     -0.027785    1.094136    1.590408
  H     -0.454508    1.914412   -1.315342
  H      0.894352    2.380959   -0.285270
  H     -0.693424   -0.585378   -2.002015
  H      0.398576   -1.774765   -1.286595
  H      2.583467   -1.083850    1.842506
  H      0.872996   -1.401642    1.303277
  H      3.977606    0.457209    0.722301
  H      3.744251    0.303096   -1.022328
  H      3.145801    1.728321   -0.183624

 Total Charge           Charge          ....    0
 Multiplicity           Mult            ....    1
 Number of Electrons    NEL             ....   84
 Basis Dimension        Dim             ....  294

ORBITAL ENERGIES
----------------

  NO   OCC          E(Eh)            E(eV)
   0   2.0000     -18.944823      -515.5148
   1   2.0000     -10.120614      -275.3959
   2   2.0000     -10.040127      -273.2057
   3   2.0000     -10.039336      -273.1842
   4   2.0000     -10.036257      -273.1004
   5   2.0000     -10.030335      -272.9393
   6   2.0000     -10.023084      -272.7420
   7   2.0000     -10.021394      -272.6960
   8   2.0000     -10.019494      -272.6443
   9   2.0000     -10.015907      -272.5467
  10   2.0000     -10.008318      -272.3402
  11   2.0000      -1.012062       -27.5396
  12   2.0000      -0.813767       -22.1437
  13   2.0000      -0.767074       -20.8731
  14   2.0000      -0.719512       -19.5789
  15   2.0000      -0.698955       -19.0195
  16   2.0000      -0.650596       -17.7036
  17   2.0000      -0.636402       -17.3174
  18   2.0000      -0.584704       -15.9106
  19   2.0000      -0.559539       -15.2258
  20   2.0000      -0.502358       -13.6698
  21   2.0000      -0.467448       -12.7199
  22   2.0000      -0.452486       -12.3128
  23   2.0000      -0.434946       -11.8355
  24   2.0000      -0.427546       -11.6341
  25   2.0000      -0.414489       -11.2788
  26   2.0000      -0.408546       -11.1171
  27   2.0000      -0.386395       -10.5144
  28   2.0000      -0.378118       -10.2891
  29   2.0000      -0.371365       -10.1054
  30   2.0000      -0.365381        -9.9425
  31   2.0000      -0.358442        -9.7537
  32   2.0000      -0.349940        -9.5224
  33   2.0000      -0.331372        -9.0171
  34   2.0000      -0.326742        -8.8911
  35   2.0000      -0.322370        -8.7721
  36   2.0000      -0.300873        -8.1872
  37   2.0000      -0.293684        -7.9916
  38   2.0000      -0.282507        -7.6874
  39   2.0000      -0.275656        -7.5010
  40   2.0000      -0.226925        -6.1750
  41   2.0000      -0.216272        -5.8851
  42   0.0000      -0.051738        -1.4079
  43   0.0000      -0.008864        -0.2412
  44   0.0000       0.077937         2.1208
  45   0.0000       0.096771         2.6333
  46   0.0000       0.104439         2.8419

MULLIKEN ATOMIC CHARGES
-----------------------
   0 C :   -0.554588
   1 C :    0.039324
   2 H :    0.181324
   3 C :   -0.347624
   4 C :   -0.404876
   5 C :    0.098978
   6 H :    0.181981
   7 C :   -0.405320
   8 C :    0.126333
   9 O :   -0.437338
  10 C :   -0.008182
  11 C :   -0.396441
  12 C :   -0.558293
  13 H :    0.181888
  14 H :    0.168268
  15 H :    0.173163
  16 H :    0.168345
  17 H :    0.176299
  18 H :    0.187159
  19 H :    0.172787
  20 H :    0.218399
  21 H :    0.188741
  22 H :    0.167722
  23 H :    0.161765
  24 H :    0.167011
  25 H :    0.181302
  26 H :    0.171873
Sum of atomic charges:   -0.0000000

LOEWDIN ATOMIC CHARGES
----------------------
   0 C :   -0.387907
   1 C :   -0.202155
   2 H :    0.182280
   3 C :   -0.281468
   4 C :   -0.275176
   5 C :   -0.190382
   6 H :    0.178556
   7 C :   -0.249543
   8 C :    0.230489
   9 O :   -0.546672
  10 C :   -0.117938
  11 C :   -0.338131
  12 C :   -0.397360
  13 H :    0.162719
  14 H :    0.163798
  15 H :    0.164812
  16 H :    0.167410
  17 H :    0.170419
  18 H :    0.167052
  19 H :    0.168729
  20 H :    0.202146
  21 H :    0.187219
  22 H :    0.164998
  23 H :    0.174772
  24 H :    0.163280
  25 H :    0.169712
  26 H :    0.168338

  Mayer bond orders larger than 0.100000
B(  0-C ,  1-C ) :   0.8832 B(  0-C , 13-H ) :   0.9670 B(  0-C , 14-H ) :   0.9649
B(  0-C , 15-H ) :   0.9638 B(  1-C ,  2-H ) :   0.9501 B(  1-C ,  3-C ) :   0.8646
B(  1-C ,  8-C ) :   0.9066 B(  3-C ,  4-C ) :   0.8779 B(  3-C , 16-H ) :   0.9465
B(  3-C , 17-H ) :   0.9594 B(  4-C ,  5-C ) :   0.8629 B(  4-C , 18-H ) :   1.0003
B(  4-C , 19-H ) :   0.9503 B(  5-C ,  6-H ) :   0.9488 B(  5-C ,  7-C ) :   0.8896
B(  5-C , 10-C ) :   0.8669 B(  7-C ,  8-C ) :   0.9175 B(  7-C , 20-H ) :   0.9272
B(  7-C , 21-H ) :   0.9559 B(  8-C ,  9-O ) :   1.8974 B( 10-C , 11-C ) :   1.8380
B( 10-C , 12-C ) :   0.8786 B( 11-C , 22-H ) :   0.9686 B( 11-C , 23-H ) :   0.9551
B( 12-C , 24-H ) :   0.9869 B( 12-C , 25-H ) :   0.9685 B( 12-C , 26-H ) :   0.9610

Dispersion correction           -0.010227715
FINAL SINGLE POINT ENERGY      -465.786490403333

DIPOLE MOMENT
-------------

Method             : SCF
Type of density    : Electron Density
Multiplicity       :   1
Irrep              :   0
Energy             :  -465.7875079651500414 Eh
Relativity type    :
Basis              : AO
                                X                 Y                 Z
Electronic contribution:     -2.293805025      -5.669065268       0.725467054
Nuclear contribution   :      2.848425933       7.647134576      -1.582670715
                        -----------------------------------------
Total Dipole Moment    :      0.554620908       1.978069308      -0.857203660
                        -----------------------------------------
Magnitude (a.u.)       :      2.226019015
Magnitude (Debye)      :      5.658090679

Rotational constants in cm-1:             0.061260             0.028774             0.024067
Rotational constants in MHz :          1836.517151           862.617605           721.525157

                             ****ORCA TERMINATED NORMALLY****
TOTAL RUN TIME: 0 days 0 hours 1 minutes 5 seconds 853 msec
