                         Program Version 6.0.0  -   RELEASE  -
|  1> ! pbe def2-sv(p) def2/J RI DEFGRID1 loosescf d4 GCP(DFT/SV(P)) printgap
|  2> %output
|  3>     printlevel normal
|  4> end
|  5> * xyz 0 1
|  6> C -2.5535192608 -0.898247331 0.2916355539
|  7> C -1.1218007409 -0.4492974117 0.6197657475
|  8> H -1.0015495552 -0.3938744413 1.7115313228
|  9> C -0.8400262569 0.941773424 0.0326723892
| 10> H -1.1103886242 0.9244130542 -1.0363193439
| 11> C 0.6484754948 1.2879333803 0.1804472024
| 12> H 0.8665170406 1.4503644507 1.2428246148
| 13> C 1.540215888 0.1486344543 -0.332659595
| 14> H 1.3966205786 0.0360051476 -1.4215647052
| 15> C 1.1203089675 -1.169816603 0.345939404
| 16> H 1.2889489173 -1.0801950865 1.4307307115
| 17> O -0.2447987289 -1.4189532289 0.0779145678
| 18> O 1.8492742387 -2.2604639056 -0.0625222397
| 19> O 2.8924445133 0.388717201 -0.044998328
| 20> O 0.9650806343 2.5068465377 -0.450805101
| 21> O -1.6435227527 1.8646935961 0.7237221176
| 22> O -2.7543381591 -1.0612110295 -1.0872277883
| 23> H -3.2425869123 -0.1196686348 0.6217378163
| 24> H -2.7630941529 -1.8295096092 0.8293525058
| 25> H 1.729171926 -2.409685173 -1.0139504797
| 26> H 3.0859961246 1.323996254 -0.2211216625
| 27> H 0.7663300683 2.4490613428 -1.3981436234
| 28> H -1.3630207158 2.7627260948 0.4874754398
| 29> H -2.1692426834 -1.7685442932 -1.3952296826
| 30> *
| 31>
| 32>                          ****END OF INPUT****

CARTESIAN COORDINATES (ANGSTROEM)
---------------------------------
  C     -2.553519   -0.898247    0.291636
  C     -1.121801   -0.449297    0.619766
  H     -1.001550   -0.393874    1.711531
  C     -0.840026    0.941773    0.032672
  H     -1.110389    0.924413   -1.036319
  C      0.648475    1.287933    0.180447
  H      0.866517    1.450364    1.242825
  C      1.540216    0.148634   -0.332660
  H      1.396621    0.036005   -1.421565
  C      1.120309   -1.169817    0.345939
  H      1.288949   -1.080195    1.430731
  O     -0.244799   -1.418953    0.077915
  O      1.849274   -2.260464   -0.062522
  O      2.892445    0.388717   -0.044998
  O      0.965081    2.506847   -0.450805
  O     -1.643523    1.864694    0.723722
  O     -2.754338   -1.061211   -1.087228
  H     -3.242587   -0.119669    0.621738
  H     -2.763094   -1.829510    0.829353
  H      1.729172   -2.409685   -1.013950
  H      3.085996    1.323996   -0.221122
  H      0.766330    2.449061   -1.398144
  H     -1.363021    2.762726    0.487475
  H     -2.169243   -1.768544   -1.395230

 Total Charge           Charge          ....    0
 Multiplicity           Mult            ....    1
 Number of Electrons    NEL             ....   96
 Basis Dimension        Dim             ....  192

ORBITAL ENERGIES
----------------

  NO   OCC          E(Eh)            E(eV)
   0   2.0000     -18.778724      -510.9950
   1   2.0000     -18.778223      -510.9814
   2   2.0000     -18.761672      -510.5310
   3   2.0000     -18.758220      -510.4371
   4   2.0000     -18.754197      -510.3277
   5   2.0000     -18.750532      -510.2279
   6   2.0000      -9.991645      -271.8865
   7   2.0000      -9.951614      -270.7972
   8   2.0000      -9.947703      -270.6908
   9   2.0000      -9.947476      -270.6846
  10   2.0000      -9.946430      -270.6561
  11   2.0000      -9.930845      -270.2320
  12   2.0000      -0.988600       -26.9012
  13   2.0000      -0.961255       -26.1571
  14   2.0000      -0.939110       -25.5545
  15   2.0000      -0.927631       -25.2421
  16   2.0000      -0.924410       -25.1545
  17   2.0000      -0.914762       -24.8919
  18   2.0000      -0.708139       -19.2694
  19   2.0000      -0.694533       -18.8992
  20   2.0000      -0.621032       -16.8991
  21   2.0000      -0.589523       -16.0417
  22   2.0000      -0.573348       -15.6016
  23   2.0000      -0.545491       -14.8436
  24   2.0000      -0.498361       -13.5611
  25   2.0000      -0.495533       -13.4841
  26   2.0000      -0.476542       -12.9674
  27   2.0000      -0.458299       -12.4709
  28   2.0000      -0.451332       -12.2814
  29   2.0000      -0.436124       -11.8675
  30   2.0000      -0.432028       -11.7561
  31   2.0000      -0.425468       -11.5776
  32   2.0000      -0.379043       -10.3143
  33   2.0000      -0.373993       -10.1769
  34   2.0000      -0.367574       -10.0022
  35   2.0000      -0.361657        -9.8412
  36   2.0000      -0.322826        -8.7845
  37   2.0000      -0.315449        -8.5838
  38   2.0000      -0.311579        -8.4785
  39   2.0000      -0.294224        -8.0062
  40   2.0000      -0.291024        -7.9192
  41   2.0000      -0.280521        -7.6334
  42   2.0000      -0.267320        -7.2741
  43   2.0000      -0.243571        -6.6279
  44   2.0000      -0.238892        -6.5006
  45   2.0000      -0.227226        -6.1831
  46   2.0000      -0.217332        -5.9139
  47   2.0000      -0.213322        -5.8048
  48   0.0000       0.000221         0.0060
  49   0.0000       0.022010         0.5989
  50   0.0000       0.035003         0.9525
  51   0.0000       0.044736         1.2173
  52   0.0000       0.048947         1.3319

MULLIKEN ATOMIC CHARGES
-----------------------
   0 C :    0.093021
   1 C :   -0.011044
   2 H :    0.060139
   3 C :    0.060894
   4 H :    0.038360
   5 C :    0.025900
   6 H :    0.070707
   7 C :    0.044010
   8 H :    0.020925
   9 C :    0.205485
  10 H :    0.057036
  11 O :   -0.318267
  12 O :   -0.361069
  13 O :   -0.402143
  14 O :   -0.419910
  15 O :   -0.414713
  16 O :   -0.439248
  17 H :    0.098698
  18 H :    0.083261
  19 H :    0.301602
  20 H :    0.302887
  21 H :    0.301488
  22 H :    0.304457
  23 H :    0.297525
Sum of atomic charges:    0.0000000

LOEWDIN ATOMIC CHARGES
----------------------
   0 C :   -0.122557
   1 C :   -0.069688
   2 H :    0.109752
   3 C :   -0.079661
   4 H :    0.096927
   5 C :   -0.094616
   6 H :    0.120732
   7 C :   -0.098627
   8 H :    0.088550
   9 C :    0.007141
  10 H :    0.103717
  11 O :   -0.159481
  12 O :   -0.275840
  13 O :   -0.315894
  14 O :   -0.313267
  15 O :   -0.317565
  16 O :   -0.330863
  17 H :    0.125060
  18 H :    0.102796
  19 H :    0.287872
  20 H :    0.283307
  21 H :    0.285711
  22 H :    0.285820
  23 H :    0.280670

  Mayer bond orders larger than 0.100000
B(  0-C ,  1-C ) :   1.0407 B(  0-C , 16-O ) :   1.0608 B(  0-C , 17-H ) :   0.9130
B(  0-C , 18-H ) :   0.9190 B(  1-C ,  2-H ) :   0.8698 B(  1-C ,  3-C ) :   1.0054
B(  1-C , 11-O ) :   0.9926 B(  3-C ,  4-H ) :   0.8567 B(  3-C ,  5-C ) :   1.0167
B(  3-C , 15-O ) :   1.0622 B(  5-C ,  6-H ) :   0.8632 B(  5-C ,  7-C ) :   1.0104
B(  5-C , 14-O ) :   1.0154 B(  7-C ,  8-H ) :   0.8521 B(  7-C ,  9-C ) :   0.9785
B(  7-C , 13-O ) :   1.0973 B(  9-C , 10-H ) :   0.8787 B(  9-C , 11-O ) :   0.9913
B(  9-C , 12-O ) :   1.1720 B( 12-O , 19-H ) :   0.8423 B( 13-O , 20-H ) :   0.8332
B( 14-O , 21-H ) :   0.8453 B( 15-O , 22-H ) :   0.8347 B( 16-O , 23-H ) :   0.8443

Dispersion correction           -0.023919262
FINAL SINGLE POINT ENERGY      -685.700991541098

DIPOLE MOMENT
-------------

Method             : SCF
Type of density    : Electron Density
Multiplicity       :   1
Irrep              :   0
Energy             :  -685.8308607106051795 Eh
Relativity type    :
Basis              : AO
                                X                 Y                 Z
Electronic contribution:      2.465804409      -0.708309140      -0.621719078
Nuclear contribution   :     -2.344950892       1.262213202      -0.165120979
                        -----------------------------------------
Total Dipole Moment    :      0.120853518       0.553904061      -0.786840057
                        -----------------------------------------
Magnitude (a.u.)       :      0.969810578
Magnitude (Debye)      :      2.465062587

Rotational constants in cm-1:             0.038721             0.027116             0.017800
Rotational constants in MHz :          1160.824443           812.904963           533.623935

                             ****ORCA TERMINATED NORMALLY****
TOTAL RUN TIME: 0 days 0 hours 0 minutes 12 seconds 40 msec
