                         Program Version 6.0.0  -   RELEASE  -
|  1> ! r2scan-3c def2/J RI DEFGRID2 scfconv6 printgap
|  2> %output
|  3>     printlevel normal
|  4> end
|  5> * xyz 0 1
|  6> C -1.7383849581 -1.2635630153 -0.1399517987
|  7> C -1.1169575769 2.5051e-06 0.4146765531
|  8> C -1.7383853721 1.2635618074 -0.1399530458
|  9> Br 0.8485921604 -3.81e-08 -0.018363114
| 10> H -1.6680882397 -1.2808561925 -1.2254672678
| 11> H -1.2443893089 -2.1484328466 0.2547513986
| 12> H -2.7883405416 -1.2955796204 0.1427743762
| 13> H -1.1302768837 3.44841e-05 1.5057287531
| 14> H -1.6680858396 1.2807765542 -1.225460317
| 15> H -1.2444138117 2.1484797019 0.254695103
| 16> H -2.7883469349 1.2955654852 0.1427411403
| 17> *
| 18>
| 19>                          ****END OF INPUT****

CARTESIAN COORDINATES (ANGSTROEM)
---------------------------------
  C     -1.738385   -1.263563   -0.139952
  C     -1.116958    0.000003    0.414677
  C     -1.738385    1.263562   -0.139953
  Br     0.848592   -0.000000   -0.018363
  H     -1.668088   -1.280856   -1.225467
  H     -1.244389   -2.148433    0.254751
  H     -2.788341   -1.295580    0.142774
  H     -1.130277    0.000034    1.505729
  H     -1.668086    1.280777   -1.225460
  H     -1.244414    2.148480    0.254695
  H     -2.788347    1.295565    0.142741

 Total Charge           Charge          ....    0
 Multiplicity           Mult            ....    1
 Number of Electrons    NEL             ....   60
 Basis Dimension        Dim             ....  128

ORBITAL ENERGIES
----------------

  NO   OCC          E(Eh)            E(eV)
   0   2.0000    -482.206610    -13121.5089
   1   2.0000     -62.278500     -1694.6841
   2   2.0000     -56.058900     -1525.4402
   3   2.0000     -56.056350     -1525.3708
   4   2.0000     -56.056215     -1525.3672
   5   2.0000     -10.102784      -274.9107
   6   2.0000     -10.037850      -273.1438
   7   2.0000     -10.037843      -273.1436
   8   2.0000      -8.610269      -234.2973
   9   2.0000      -6.417282      -174.6231
  10   2.0000      -6.404339      -174.2709
  11   2.0000      -6.404229      -174.2679
  12   2.0000      -2.514910       -68.4342
  13   2.0000      -2.511747       -68.3481
  14   2.0000      -2.511672       -68.3461
  15   2.0000      -2.502055       -68.0844
  16   2.0000      -2.502044       -68.0841
  17   2.0000      -0.798156       -21.7189
  18   2.0000      -0.699124       -19.0241
  19   2.0000      -0.673840       -18.3361
  20   2.0000      -0.556424       -15.1411
  21   2.0000      -0.447306       -12.1718
  22   2.0000      -0.425902       -11.5894
  23   2.0000      -0.399891       -10.8816
  24   2.0000      -0.374053       -10.1785
  25   2.0000      -0.339435        -9.2365
  26   2.0000      -0.336539        -9.1577
  27   2.0000      -0.314998        -8.5715
  28   2.0000      -0.247927        -6.7464
  29   2.0000      -0.247557        -6.7364
  30   0.0000      -0.032410        -0.8819
  31   0.0000       0.088054         2.3961
  32   0.0000       0.120471         3.2782
  33   0.0000       0.125769         3.4223
  34   0.0000       0.139178         3.7872

MULLIKEN ATOMIC CHARGES
-----------------------
   0 C :   -0.441916
   1 C :   -0.004062
   2 C :   -0.441910
   3 Br:   -0.209117
   4 H :    0.158835
   5 H :    0.164323
   6 H :    0.142770
   7 H :    0.165154
   8 H :    0.158831
   9 H :    0.164322
  10 H :    0.142770
Sum of atomic charges:   -0.0000000

LOEWDIN ATOMIC CHARGES
----------------------
   0 C :   -0.432277
   1 C :   -0.306811
   2 C :   -0.432278
   3 Br:    0.047569
   4 H :    0.161345
   5 H :    0.162053
   6 H :    0.159089
   7 H :    0.158825
   8 H :    0.161343
   9 H :    0.162054
  10 H :    0.159088

  Mayer bond orders larger than 0.100000
B(  0-C ,  1-C ) :   0.9337 B(  0-C ,  4-H ) :   0.9750 B(  0-C ,  5-H ) :   0.9655
B(  0-C ,  6-H ) :   0.9543 B(  1-C ,  2-C ) :   0.9337 B(  1-C ,  3-Br) :   0.9439
B(  1-C ,  7-H ) :   0.9455 B(  2-C ,  8-H ) :   0.9750 B(  2-C ,  9-H ) :   0.9655
B(  2-C , 10-H ) :   0.9543

Dispersion correction           -0.002416349
FINAL SINGLE POINT ENERGY     -2692.637145075182

DIPOLE MOMENT
-------------

Method             : SCF
Type of density    : Electron Density
Multiplicity       :   1
Irrep              :   0
Energy             : -2692.6402083213533842 Eh
Relativity type    :
Basis              : AO
                                X                 Y                 Z
Electronic contribution:     18.631229792       0.000004908       0.111834937
Nuclear contribution   :    -19.636463331      -0.000011312       0.029554980
                        -----------------------------------------
Total Dipole Moment    :     -1.005233539      -0.000006403       0.141389917
                        -----------------------------------------
Magnitude (a.u.)       :      1.015128355
Magnitude (Debye)      :      2.580251223

Rotational constants in cm-1:             0.270165             0.094252             0.074870
Rotational constants in MHz :          8099.342527          2825.614323          2244.546465

                             ****ORCA TERMINATED NORMALLY****
TOTAL RUN TIME: 0 days 0 hours 0 minutes 9 seconds 55 msec
