                         Program Version 6.0.0  -   RELEASE  -
|  1> ! pbe def2-sv(p) def2/J RI DEFGRID1 loosescf d4 GCP(DFT/SV(P)) printgap
|  2> %output
|  3>     printlevel normal
|  4> end
|  5> * xyz 0 1
|  6> C -3.4559844877 -0.5066899095 -0.2805694366
|  7> O -2.212475108 0.0528792709 -0.7130482183
|  8> C -1.2026686515 0.0467282806 0.151923461
|  9> O -1.3011288234 -0.3936888948 1.2777643637
| 10> C 0.05639934 0.6054122816 -0.4690073175
| 11> C 0.813122564 -0.5745008186 -1.119115418
| 12> C 1.7072665628 -1.2486023331 -0.0862309829
| 13> C 2.8434899153 -0.3058148261 0.3304629985
| 14> C 2.405562481 1.1618504521 0.2582117206
| 15> C 0.9242293887 1.2995555218 0.590199896
| 16> H -3.8040459516 0.0085439308 0.6153759601
| 17> H -3.3292836203 -1.5659292543 -0.053910946
| 18> H -4.1444282495 -0.3637546343 -1.1072245493
| 19> H -0.2498802728 1.3013748759 -1.2531786589
| 20> H 0.0962032571 -1.2861760727 -1.5331896998
| 21> H 1.4226674311 -0.2007246212 -1.9416420185
| 22> H 1.0983932165 -1.5122144977 0.781140076
| 23> H 2.1195626317 -2.1728345473 -0.4925474498
| 24> H 3.1537079224 -0.5499859435 1.3472324125
| 25> H 3.7058935928 -0.4541016495 -0.3211031146
| 26> H 2.9943636687 1.7577871234 0.9559619465
| 27> H 2.5814770291 1.5591107843 -0.7425516855
| 28> H 0.7259074057 0.8409442188 1.5615587896
| 29> H 0.6475627419 2.3524442485 0.6573866329
| 30> *
| 31>
| 32>                          ****END OF INPUT****

CARTESIAN COORDINATES (ANGSTROEM)
---------------------------------
  C     -3.455984   -0.506690   -0.280569
  O     -2.212475    0.052879   -0.713048
  C     -1.202669    0.046728    0.151923
  O     -1.301129   -0.393689    1.277764
  C      0.056399    0.605412   -0.469007
  C      0.813123   -0.574501   -1.119115
  C      1.707267   -1.248602   -0.086231
  C      2.843490   -0.305815    0.330463
  C      2.405562    1.161850    0.258212
  C      0.924229    1.299556    0.590200
  H     -3.804046    0.008544    0.615376
  H     -3.329284   -1.565929   -0.053911
  H     -4.144428   -0.363755   -1.107225
  H     -0.249880    1.301375   -1.253179
  H      0.096203   -1.286176   -1.533190
  H      1.422667   -0.200725   -1.941642
  H      1.098393   -1.512214    0.781140
  H      2.119563   -2.172835   -0.492547
  H      3.153708   -0.549986    1.347232
  H      3.705894   -0.454102   -0.321103
  H      2.994364    1.757787    0.955962
  H      2.581477    1.559111   -0.742552
  H      0.725907    0.840944    1.561559
  H      0.647563    2.352444    0.657387

 Total Charge           Charge          ....    0
 Multiplicity           Mult            ....    1
 Number of Electrons    NEL             ....   78
 Basis Dimension        Dim             ....  168

ORBITAL ENERGIES
----------------

  NO   OCC          E(Eh)            E(eV)
   0   2.0000     -18.797500      -511.5060
   1   2.0000     -18.735644      -509.8228
   2   2.0000     -10.002026      -272.1690
   3   2.0000      -9.940908      -270.5058
   4   2.0000      -9.901851      -269.4431
   5   2.0000      -9.890899      -269.1450
   6   2.0000      -9.880999      -268.8757
   7   2.0000      -9.880844      -268.8714
   8   2.0000      -9.879607      -268.8378
   9   2.0000      -9.879238      -268.8277
  10   2.0000      -1.004955       -27.3462
  11   2.0000      -0.910171       -24.7670
  12   2.0000      -0.760428       -20.6923
  13   2.0000      -0.691664       -18.8211
  14   2.0000      -0.663926       -18.0663
  15   2.0000      -0.649744       -17.6804
  16   2.0000      -0.559858       -15.2345
  17   2.0000      -0.552210       -15.0264
  18   2.0000      -0.505412       -13.7530
  19   2.0000      -0.471527       -12.8309
  20   2.0000      -0.455316       -12.3898
  21   2.0000      -0.441083       -12.0025
  22   2.0000      -0.429167       -11.6782
  23   2.0000      -0.414669       -11.2837
  24   2.0000      -0.411560       -11.1991
  25   2.0000      -0.378000       -10.2859
  26   2.0000      -0.369014       -10.0414
  27   2.0000      -0.349059        -9.4984
  28   2.0000      -0.334587        -9.1046
  29   2.0000      -0.333135        -9.0651
  30   2.0000      -0.327023        -8.8987
  31   2.0000      -0.317201        -8.6315
  32   2.0000      -0.315560        -8.5868
  33   2.0000      -0.301554        -8.2057
  34   2.0000      -0.270894        -7.3714
  35   2.0000      -0.262372        -7.1395
  36   2.0000      -0.260978        -7.1016
  37   2.0000      -0.255905        -6.9635
  38   2.0000      -0.217470        -5.9177
  39   0.0000      -0.019432        -0.5288
  40   0.0000       0.030390         0.8269
  41   0.0000       0.051842         1.4107
  42   0.0000       0.058694         1.5971
  43   0.0000       0.078205         2.1281

MULLIKEN ATOMIC CHARGES
-----------------------
   0 C :   -0.106718
   1 O :   -0.238713
   2 C :    0.126294
   3 O :   -0.206547
   4 C :   -0.159836
   5 C :   -0.135710
   6 C :   -0.159052
   7 C :   -0.155734
   8 C :   -0.151175
   9 C :   -0.113803
  10 H :    0.119992
  11 H :    0.117692
  12 H :    0.121086
  13 H :    0.077899
  14 H :    0.093972
  15 H :    0.085042
  16 H :    0.097024
  17 H :    0.085079
  18 H :    0.083402
  19 H :    0.078789
  20 H :    0.085325
  21 H :    0.073323
  22 H :    0.097735
  23 H :    0.084633
Sum of atomic charges:   -0.0000000

LOEWDIN ATOMIC CHARGES
----------------------
   0 C :   -0.203313
   1 O :   -0.072658
   2 C :    0.045423
   3 O :   -0.165604
   4 C :   -0.163409
   5 C :   -0.207071
   6 C :   -0.233387
   7 C :   -0.228297
   8 C :   -0.228780
   9 C :   -0.219378
  10 H :    0.120098
  11 H :    0.118842
  12 H :    0.120372
  13 H :    0.128014
  14 H :    0.119533
  15 H :    0.118677
  16 H :    0.122208
  17 H :    0.118292
  18 H :    0.118030
  19 H :    0.114835
  20 H :    0.119477
  21 H :    0.112913
  22 H :    0.125471
  23 H :    0.119711

  Mayer bond orders larger than 0.100000
B(  0-C ,  1-O ) :   0.9390 B(  0-C , 10-H ) :   0.9510 B(  0-C , 11-H ) :   0.9529
B(  0-C , 12-H ) :   0.9593 B(  1-O ,  2-C ) :   1.2209 B(  2-C ,  3-O ) :   2.0352
B(  2-C ,  4-C ) :   0.9490 B(  4-C ,  5-C ) :   1.0837 B(  4-C ,  9-C ) :   1.0916
B(  4-C , 13-H ) :   0.8766 B(  5-C ,  6-C ) :   1.1792 B(  5-C , 14-H ) :   0.9148
B(  5-C , 15-H ) :   0.9043 B(  6-C ,  7-C ) :   1.1417 B(  6-C , 16-H ) :   0.8995
B(  6-C , 17-H ) :   0.9206 B(  7-C ,  8-C ) :   1.1438 B(  7-C , 18-H ) :   0.9217
B(  7-C , 19-H ) :   0.9215 B(  8-C ,  9-C ) :   1.1916 B(  8-C , 20-H ) :   0.9204
B(  8-C , 21-H ) :   0.9055 B(  9-C , 22-H ) :   0.8899 B(  9-C , 23-H ) :   0.9171

Dispersion correction           -0.023094032
FINAL SINGLE POINT ENERGY      -462.698549815603

DIPOLE MOMENT
-------------

Method             : SCF
Type of density    : Electron Density
Multiplicity       :   1
Irrep              :   0
Energy             :  -462.7866451099938558 Eh
Relativity type    :
Basis              : AO
                                X                 Y                 Z
Electronic contribution:     -6.758470281       0.343688790       0.817077967
Nuclear contribution   :      6.532057846      -0.272914726      -1.423919915
                        -----------------------------------------
Total Dipole Moment    :     -0.226412435       0.070774064      -0.606841948
                        -----------------------------------------
Magnitude (a.u.)       :      0.651558676
Magnitude (Debye)      :      1.656130541

Rotational constants in cm-1:             0.100957             0.025892             0.024757
Rotational constants in MHz :          3026.603848           776.219990           742.190632

                             ****ORCA TERMINATED NORMALLY****
TOTAL RUN TIME: 0 days 0 hours 0 minutes 12 seconds 255 msec
