                         Program Version 6.0.0  -   RELEASE  -
|  1> ! pbe def2-sv(p) def2/J RI DEFGRID1 loosescf d4 GCP(DFT/SV(P)) printgap
|  2> %output
|  3>     printlevel normal
|  4> end
|  5> * xyz 0 1
|  6> C -3.3378431171 0.4921742623 -0.1992291423
|  7> C -1.8726421497 0.4733301228 0.0929515044
|  8> C -1.1106005799 1.5517802465 0.2312092412
|  9> C 0.3476419893 1.3865771115 0.5116299301
| 10> C 0.9865384998 0.3710805329 -0.4660567764
| 11> H 1.1058759506 0.8832099898 -1.4250229348
| 12> C 0.0716720586 -0.848997777 -0.6899527529
| 13> C -1.1659295568 -0.8567580343 0.2280981527
| 14> H -0.8384414023 -0.9781801206 1.2694415613
| 15> O -1.9819567957 -1.9831790151 -0.010319438
| 16> C 2.3625673555 -0.0016891654 0.0407982777
| 17> C 2.5456137632 -0.8420295551 1.0472720183
| 18> C 3.5051041206 0.6782483896 -0.6491002003
| 19> H -3.5254325372 0.2209596933 -1.2382937736
| 20> H -3.7458133566 1.4839049367 -0.0253119118
| 21> H -3.8519061229 -0.2284275252 0.4343479765
| 22> H -1.5159678134 2.548435208 0.1466858685
| 23> H 0.8713599762 2.3396620381 0.4398717237
| 24> H 0.4800416516 1.0089777617 1.5304502933
| 25> H -0.290267677 -0.8451639825 -1.7209310069
| 26> H 0.6264322233 -1.775558079 -0.5381883084
| 27> H -2.2648568291 -1.9741981237 -0.9350850858
| 28> H 3.529428007 -1.0843391787 1.411565422
| 29> H 1.7246879384 -1.3272000662 1.5475149615
| 30> H 4.4536212257 0.4126392011 -0.1910322903
| 31> H 3.5300745588 0.3923477133 -1.699864486
| 32> H 3.3811687795 1.7591641395 -0.6015067127
| 33> *
| 34>
| 35>                          ****END OF INPUT****

CARTESIAN COORDINATES (ANGSTROEM)
---------------------------------
  C     -3.337843    0.492174   -0.199229
  C     -1.872642    0.473330    0.092952
  C     -1.110601    1.551780    0.231209
  C      0.347642    1.386577    0.511630
  C      0.986538    0.371081   -0.466057
  H      1.105876    0.883210   -1.425023
  C      0.071672   -0.848998   -0.689953
  C     -1.165930   -0.856758    0.228098
  H     -0.838441   -0.978180    1.269442
  O     -1.981957   -1.983179   -0.010319
  C      2.362567   -0.001689    0.040798
  C      2.545614   -0.842030    1.047272
  C      3.505104    0.678248   -0.649100
  H     -3.525433    0.220960   -1.238294
  H     -3.745813    1.483905   -0.025312
  H     -3.851906   -0.228428    0.434348
  H     -1.515968    2.548435    0.146686
  H      0.871360    2.339662    0.439872
  H      0.480042    1.008978    1.530450
  H     -0.290268   -0.845164   -1.720931
  H      0.626432   -1.775558   -0.538188
  H     -2.264857   -1.974198   -0.935085
  H      3.529428   -1.084339    1.411565
  H      1.724688   -1.327200    1.547515
  H      4.453621    0.412639   -0.191032
  H      3.530075    0.392348   -1.699864
  H      3.381169    1.759164   -0.601507

 Total Charge           Charge          ....    0
 Multiplicity           Mult            ....    1
 Number of Electrons    NEL             ....   84
 Basis Dimension        Dim             ....  186

ORBITAL ENERGIES
----------------

  NO   OCC          E(Eh)            E(eV)
   0   2.0000     -18.744604      -510.0666
   1   2.0000      -9.938058      -270.4283
   2   2.0000      -9.900575      -269.4084
   3   2.0000      -9.897286      -269.3189
   4   2.0000      -9.889254      -269.1003
   5   2.0000      -9.887806      -269.0609
   6   2.0000      -9.884925      -268.9825
   7   2.0000      -9.881049      -268.8770
   8   2.0000      -9.880764      -268.8693
   9   2.0000      -9.876454      -268.7520
  10   2.0000      -9.867041      -268.4958
  11   2.0000      -0.923869       -25.1398
  12   2.0000      -0.766343       -20.8533
  13   2.0000      -0.722920       -19.6717
  14   2.0000      -0.674801       -18.3623
  15   2.0000      -0.654767       -17.8171
  16   2.0000      -0.615625       -16.7520
  17   2.0000      -0.610051       -16.6003
  18   2.0000      -0.558445       -15.1961
  19   2.0000      -0.533523       -14.5179
  20   2.0000      -0.488384       -13.2896
  21   2.0000      -0.459456       -12.5024
  22   2.0000      -0.442540       -12.0421
  23   2.0000      -0.423489       -11.5237
  24   2.0000      -0.402558       -10.9542
  25   2.0000      -0.401244       -10.9184
  26   2.0000      -0.388438       -10.5699
  27   2.0000      -0.378694       -10.3048
  28   2.0000      -0.369883       -10.0650
  29   2.0000      -0.361295        -9.8313
  30   2.0000      -0.351214        -9.5570
  31   2.0000      -0.347008        -9.4426
  32   2.0000      -0.329213        -8.9583
  33   2.0000      -0.325921        -8.8688
  34   2.0000      -0.313412        -8.5284
  35   2.0000      -0.308041        -8.3822
  36   2.0000      -0.297714        -8.1012
  37   2.0000      -0.276036        -7.5113
  38   2.0000      -0.262919        -7.1544
  39   2.0000      -0.216696        -5.8966
  40   2.0000      -0.214790        -5.8447
  41   2.0000      -0.202355        -5.5064
  42   0.0000      -0.019790        -0.5385
  43   0.0000      -0.003983        -0.1084
  44   0.0000       0.022204         0.6042
  45   0.0000       0.034159         0.9295
  46   0.0000       0.053953         1.4681

MULLIKEN ATOMIC CHARGES
-----------------------
   0 C :   -0.223066
   1 C :   -0.083699
   2 C :   -0.195498
   3 C :   -0.020969
   4 C :   -0.147787
   5 H :    0.051174
   6 C :   -0.079639
   7 C :    0.069667
   8 H :    0.080944
   9 O :   -0.411873
  10 C :   -0.047591
  11 C :   -0.247058
  12 C :   -0.211271
  13 H :    0.100118
  14 H :    0.101420
  15 H :    0.118471
  16 H :    0.038652
  17 H :    0.077472
  18 H :    0.092540
  19 H :    0.056080
  20 H :    0.096296
  21 H :    0.294832
  22 H :    0.083350
  23 H :    0.093428
  24 H :    0.096273
  25 H :    0.109870
  26 H :    0.107866
Sum of atomic charges:    0.0000000

LOEWDIN ATOMIC CHARGES
----------------------
   0 C :   -0.327879
   1 C :   -0.080082
   2 C :   -0.160724
   3 C :   -0.206420
   4 C :   -0.125955
   5 H :    0.119293
   6 C :   -0.220411
   7 C :   -0.044885
   8 H :    0.121606
   9 O :   -0.313506
  10 C :   -0.047541
  11 C :   -0.271803
  12 C :   -0.321483
  13 H :    0.123253
  14 H :    0.126608
  15 H :    0.131629
  16 H :    0.114715
  17 H :    0.121856
  18 H :    0.129229
  19 H :    0.113402
  20 H :    0.124435
  21 H :    0.280943
  22 H :    0.118685
  23 H :    0.116658
  24 H :    0.122765
  25 H :    0.128610
  26 H :    0.127001

  Mayer bond orders larger than 0.100000
B(  0-C ,  1-C ) :   1.1414 B(  0-C , 13-H ) :   0.9280 B(  0-C , 14-H ) :   0.9387
B(  0-C , 15-H ) :   0.9277 B(  1-C ,  2-C ) :   1.8707 B(  1-C ,  7-C ) :   0.9945
B(  2-C ,  3-C ) :   1.0893 B(  2-C , 16-H ) :   0.9463 B(  3-C ,  4-C ) :   1.1114
B(  3-C , 17-H ) :   0.9092 B(  3-C , 18-H ) :   0.8701 B(  4-C ,  5-H ) :   0.8813
B(  4-C ,  6-C ) :   1.0566 B(  4-C , 10-C ) :   0.9818 B(  6-C ,  7-C ) :   1.1130
B(  6-C , 19-H ) :   0.8938 B(  6-C , 20-H ) :   0.9034 B(  7-C ,  8-H ) :   0.8564
B(  7-C ,  9-O ) :   1.0707 B(  9-O , 21-H ) :   0.8472 B( 10-C , 11-C ) :   2.0423
B( 10-C , 12-C ) :   1.1331 B( 11-C , 22-H ) :   0.9040 B( 11-C , 23-H ) :   0.9028
B( 12-C , 24-H ) :   0.9411 B( 12-C , 25-H ) :   0.9273 B( 12-C , 26-H ) :   0.9297

Dispersion correction           -0.028467984
FINAL SINGLE POINT ENERGY      -464.783350007023

DIPOLE MOMENT
-------------

Method             : SCF
Type of density    : Electron Density
Multiplicity       :   1
Irrep              :   0
Energy             :  -464.8734319202474126 Eh
Relativity type    :
Basis              : AO
                                X                 Y                 Z
Electronic contribution:     -3.359519791      -2.211596016       0.915061611
Nuclear contribution   :      3.413685519       2.631451367      -1.496865190
                        -----------------------------------------
Total Dipole Moment    :      0.054165728       0.419855351      -0.581803579
                        -----------------------------------------
Magnitude (a.u.)       :      0.719519177
Magnitude (Debye)      :      1.828872406

Rotational constants in cm-1:             0.072126             0.022720             0.019312
Rotational constants in MHz :          2162.271857           681.135945           578.967384

                             ****ORCA TERMINATED NORMALLY****
TOTAL RUN TIME: 0 days 0 hours 0 minutes 12 seconds 365 msec
