                         Program Version 6.0.0  -   RELEASE  -
|  1> ! pbe def2-sv(p) def2/J RI DEFGRID1 loosescf d4 GCP(DFT/SV(P)) printgap
|  2> %output
|  3>     printlevel normal
|  4> end
|  5> * xyz 0 1
|  6> C -1.314337381 -0.9285059382 -0.1379497838
|  7> C -0.4188270113 0.2973831991 -0.3127344003
|  8> C -1.1131169751 1.5436908474 0.2304836248
|  9> C 0.9287842222 0.108737878 0.3985164109
| 10> O 1.7617808092 -0.8598181954 -0.2026004371
| 11> H -1.489208785 -1.1212601838 0.9187303553
| 12> H -0.866812906 -1.8117863307 -0.5872534576
| 13> H -2.2743244102 -0.7599769544 -0.6192740082
| 14> H -0.2128433354 0.4376681911 -1.379495807
| 15> H -0.495471359 2.4255225583 0.0798943803
| 16> H -1.3033551723 1.4341439571 1.2958458881
| 17> H -2.0625116175 1.6969944186 -0.2756786529
| 18> H 1.5016490594 1.0385884046 0.3538774962
| 19> H 0.7585915771 -0.1394282607 1.455438543
| 20> H 1.3280211899 -1.7222608635 -0.1509671975
| 21> *
| 22>
| 23>                          ****END OF INPUT****

CARTESIAN COORDINATES (ANGSTROEM)
---------------------------------
  C     -1.314337   -0.928506   -0.137950
  C     -0.418827    0.297383   -0.312734
  C     -1.113117    1.543691    0.230484
  C      0.928784    0.108738    0.398516
  O      1.761781   -0.859818   -0.202600
  H     -1.489209   -1.121260    0.918730
  H     -0.866813   -1.811786   -0.587253
  H     -2.274324   -0.759977   -0.619274
  H     -0.212843    0.437668   -1.379496
  H     -0.495471    2.425523    0.079894
  H     -1.303355    1.434144    1.295846
  H     -2.062512    1.696994   -0.275679
  H      1.501649    1.038588    0.353877
  H      0.758592   -0.139428    1.455439
  H      1.328021   -1.722261   -0.150967

 Total Charge           Charge          ....    0
 Multiplicity           Mult            ....    1
 Number of Electrons    NEL             ....   42
 Basis Dimension        Dim             ....   90

ORBITAL ENERGIES
----------------

  NO   OCC          E(Eh)            E(eV)
   0   2.0000     -18.738152      -509.8910
   1   2.0000      -9.924054      -270.0472
   2   2.0000      -9.894213      -269.2352
   3   2.0000      -9.880842      -268.8714
   4   2.0000      -9.876793      -268.7612
   5   2.0000      -0.914547       -24.8861
   6   2.0000      -0.722636       -19.6639
   7   2.0000      -0.618397       -16.8274
   8   2.0000      -0.599802       -16.3215
   9   2.0000      -0.508324       -13.8322
  10   2.0000      -0.460356       -12.5269
  11   2.0000      -0.406774       -11.0689
  12   2.0000      -0.395166       -10.7530
  13   2.0000      -0.384010       -10.4495
  14   2.0000      -0.348619        -9.4864
  15   2.0000      -0.335719        -9.1354
  16   2.0000      -0.326257        -8.8779
  17   2.0000      -0.297801        -8.1036
  18   2.0000      -0.292938        -7.9713
  19   2.0000      -0.266428        -7.2499
  20   2.0000      -0.209789        -5.7086
  21   0.0000       0.023468         0.6386
  22   0.0000       0.047805         1.3008
  23   0.0000       0.069372         1.8877
  24   0.0000       0.082082         2.2336
  25   0.0000       0.098015         2.6671

MULLIKEN ATOMIC CHARGES
-----------------------
   0 C :   -0.269938
   1 C :   -0.190125
   2 C :   -0.258559
   3 C :    0.037924
   4 O :   -0.434067
   5 H :    0.095840
   6 H :    0.089114
   7 H :    0.106855
   8 H :    0.080154
   9 H :    0.103859
  10 H :    0.095068
  11 H :    0.102349
  12 H :    0.084135
  13 H :    0.062786
  14 H :    0.294603
Sum of atomic charges:    0.0000000

LOEWDIN ATOMIC CHARGES
----------------------
   0 C :   -0.336289
   1 C :   -0.182832
   2 C :   -0.329015
   3 C :   -0.115671
   4 O :   -0.340199
   5 H :    0.116730
   6 H :    0.109567
   7 H :    0.122423
   8 H :    0.118198
   9 H :    0.118983
  10 H :    0.116773
  11 H :    0.119554
  12 H :    0.110887
  13 H :    0.092179
  14 H :    0.278712

  Mayer bond orders larger than 0.100000
B(  0-C ,  1-C ) :   1.0961 B(  0-C ,  5-H ) :   0.9502 B(  0-C ,  6-H ) :   0.9435
B(  0-C ,  7-H ) :   0.9518 B(  1-C ,  2-C ) :   1.0934 B(  1-C ,  3-C ) :   1.0489
B(  1-C ,  8-H ) :   0.8986 B(  2-C ,  9-H ) :   0.9506 B(  2-C , 10-H ) :   0.9503
B(  2-C , 11-H ) :   0.9501 B(  3-C ,  4-O ) :   1.0809 B(  3-C , 12-H ) :   0.9313
B(  3-C , 13-H ) :   0.9200 B(  4-O , 14-H ) :   0.8504

Dispersion correction           -0.009710987
FINAL SINGLE POINT ENERGY      -233.088944168023

DIPOLE MOMENT
-------------

Method             : SCF
Type of density    : Electron Density
Multiplicity       :   1
Irrep              :   0
Energy             :  -233.1485261321988673 Eh
Relativity type    :
Basis              : AO
                                X                 Y                 Z
Electronic contribution:      4.201242017      -1.523096610      -0.852653967
Nuclear contribution   :     -4.773711312       1.374011470       1.020639859
                        -----------------------------------------
Total Dipole Moment    :     -0.572469296      -0.149085140       0.167985892
                        -----------------------------------------
Magnitude (a.u.)       :      0.614952627
Magnitude (Debye)      :      1.563085357

Rotational constants in cm-1:             0.252349             0.116402             0.088160
Rotational constants in MHz :          7565.235168          3489.634056          2642.970255

                             ****ORCA TERMINATED NORMALLY****
TOTAL RUN TIME: 0 days 0 hours 0 minutes 5 seconds 457 msec
