                         Program Version 6.0.0  -   RELEASE  -
|  1> ! pbe def2-sv(p) def2/J RI DEFGRID1 loosescf d4 GCP(DFT/SV(P)) printgap
|  2> %output
|  3>     printlevel normal
|  4> end
|  5> * xyz 0 1
|  6> C -3.9757846769 -0.4947494405 -0.0014952485
|  7> C -2.5313265379 -0.0925697715 0.000504398
|  8> C -2.1687131625 1.267578099 0.0004901843
|  9> C -0.8564741835 1.6496735194 0.0003819885
| 10> C 0.175981674 0.6901029847 0.0002109182
| 11> C 1.5398156302 1.0488022986 -0.0005255278
| 12> C 2.5288673402 0.1012267303 -0.0009442569
| 13> C 2.1659752271 -1.2623866948 -0.0002277835
| 14> C 0.8562674999 -1.6449214726 0.00045723
| 15> C -0.1777568199 -0.6837626749 0.000523367
| 16> C -1.5391904592 -1.0412254102 0.0006429788
| 17> C 3.9802315026 0.4719452165 0.0002094288
| 18> H -4.6226397719 0.3780453546 0.0221799087
| 19> H -4.2050697058 -1.0740087521 -0.8945580383
| 20> H -4.1968023271 -1.1169015387 0.8641548925
| 21> H -2.9482245538 2.0162305347 0.000630718
| 22> H -0.5917620258 2.6976084151 0.0004706391
| 23> H 1.7938421523 2.1000395358 -0.0010105028
| 24> H 2.94926191 -2.0069325789 -0.0003696168
| 25> H 0.5906078347 -2.6925855585 0.0006952932
| 26> H -1.7970867138 -2.0915090515 0.000828493
| 27> H 4.1060883453 1.5507788237 -0.0317821764
| 28> H 4.4649802786 0.0894905977 0.8973666184
| 29> H 4.4819129887 0.0339912109 -0.8613194232
| 30> *
| 31>
| 32>                          ****END OF INPUT****

CARTESIAN COORDINATES (ANGSTROEM)
---------------------------------
  C     -3.975785   -0.494749   -0.001495
  C     -2.531327   -0.092570    0.000504
  C     -2.168713    1.267578    0.000490
  C     -0.856474    1.649674    0.000382
  C      0.175982    0.690103    0.000211
  C      1.539816    1.048802   -0.000526
  C      2.528867    0.101227   -0.000944
  C      2.165975   -1.262387   -0.000228
  C      0.856267   -1.644921    0.000457
  C     -0.177757   -0.683763    0.000523
  C     -1.539190   -1.041225    0.000643
  C      3.980232    0.471945    0.000209
  H     -4.622640    0.378045    0.022180
  H     -4.205070   -1.074009   -0.894558
  H     -4.196802   -1.116902    0.864155
  H     -2.948225    2.016231    0.000631
  H     -0.591762    2.697608    0.000471
  H      1.793842    2.100040   -0.001011
  H      2.949262   -2.006933   -0.000370
  H      0.590608   -2.692586    0.000695
  H     -1.797087   -2.091509    0.000828
  H      4.106088    1.550779   -0.031782
  H      4.464980    0.089491    0.897367
  H      4.481913    0.033991   -0.861319

 Total Charge           Charge          ....    0
 Multiplicity           Mult            ....    1
 Number of Electrons    NEL             ....   84
 Basis Dimension        Dim             ....  192

ORBITAL ENERGIES
----------------

  NO   OCC          E(Eh)            E(eV)
   0   2.0000      -9.898899      -269.3627
   1   2.0000      -9.898806      -269.3602
   2   2.0000      -9.897724      -269.3308
   3   2.0000      -9.897390      -269.3217
   4   2.0000      -9.888744      -269.0864
   5   2.0000      -9.888067      -269.0680
   6   2.0000      -9.886904      -269.0363
   7   2.0000      -9.886817      -269.0340
   8   2.0000      -9.886158      -269.0160
   9   2.0000      -9.885590      -269.0006
  10   2.0000      -9.882540      -268.9176
  11   2.0000      -9.882337      -268.9121
  12   2.0000      -0.792250       -21.5582
  13   2.0000      -0.750415       -20.4198
  14   2.0000      -0.695886       -18.9360
  15   2.0000      -0.695380       -18.9223
  16   2.0000      -0.646721       -17.5982
  17   2.0000      -0.639685       -17.4067
  18   2.0000      -0.589977       -16.0541
  19   2.0000      -0.555438       -15.1142
  20   2.0000      -0.534905       -14.5555
  21   2.0000      -0.516781       -14.0623
  22   2.0000      -0.454817       -12.3762
  23   2.0000      -0.451689       -12.2911
  24   2.0000      -0.426710       -11.6114
  25   2.0000      -0.393554       -10.7092
  26   2.0000      -0.385601       -10.4927
  27   2.0000      -0.383531       -10.4364
  28   2.0000      -0.380630       -10.3575
  29   2.0000      -0.375921       -10.2293
  30   2.0000      -0.366706        -9.9786
  31   2.0000      -0.344755        -9.3813
  32   2.0000      -0.339216        -9.2305
  33   2.0000      -0.339138        -9.2284
  34   2.0000      -0.333158        -9.0657
  35   2.0000      -0.312149        -8.4940
  36   2.0000      -0.290748        -7.9117
  37   2.0000      -0.283416        -7.7122
  38   2.0000      -0.279648        -7.6096
  39   2.0000      -0.252037        -6.8583
  40   2.0000      -0.213742        -5.8162
  41   2.0000      -0.188798        -5.1375
  42   0.0000      -0.063306        -1.7226
  43   0.0000      -0.034066        -0.9270
  44   0.0000      -0.001576        -0.0429
  45   0.0000       0.049592         1.3495
  46   0.0000       0.053079         1.4443

MULLIKEN ATOMIC CHARGES
-----------------------
   0 C :   -0.223230
   1 C :    0.069427
   2 C :   -0.102821
   3 C :   -0.125955
   4 C :    0.170115
   5 C :   -0.212361
   6 C :    0.071544
   7 C :   -0.098053
   8 C :   -0.122676
   9 C :    0.163905
  10 C :   -0.207976
  11 C :   -0.222015
  12 H :    0.099509
  13 H :    0.116416
  14 H :    0.115621
  15 H :    0.035081
  16 H :    0.033970
  17 H :    0.021391
  18 H :    0.033877
  19 H :    0.034914
  20 H :    0.019776
  21 H :    0.101233
  22 H :    0.114746
  23 H :    0.113561
Sum of atomic charges:    0.0000000

LOEWDIN ATOMIC CHARGES
----------------------
   0 C :   -0.323066
   1 C :   -0.051297
   2 C :   -0.124705
   3 C :   -0.111598
   4 C :   -0.026905
   5 C :   -0.117577
   6 C :   -0.051554
   7 C :   -0.121966
   8 C :   -0.110810
   9 C :   -0.026686
  10 C :   -0.114105
  11 C :   -0.321765
  12 H :    0.123108
  13 H :    0.132873
  14 H :    0.132442
  15 H :    0.121025
  16 H :    0.122543
  17 H :    0.120000
  18 H :    0.121048
  19 H :    0.122456
  20 H :    0.119609
  21 H :    0.124017
  22 H :    0.131790
  23 H :    0.131123

  Mayer bond orders larger than 0.100000
B(  0-C ,  1-C ) :   1.0909 B(  0-C , 12-H ) :   0.9447 B(  0-C , 13-H ) :   0.9371
B(  0-C , 14-H ) :   0.9378 B(  1-C ,  2-C ) :   1.2871 B(  1-C , 10-C ) :   1.4340
B(  2-C ,  3-C ) :   1.4405 B(  2-C , 15-H ) :   0.9566 B(  3-C ,  4-C ) :   1.2345
B(  3-C , 16-H ) :   0.9650 B(  4-C ,  5-C ) :   1.2154 B(  4-C ,  9-C ) :   1.2542
B(  5-C ,  6-C ) :   1.4647 B(  5-C , 17-H ) :   0.9617 B(  6-C ,  7-C ) :   1.2552
B(  6-C , 11-C ) :   1.0961 B(  7-C ,  8-C ) :   1.4631 B(  7-C , 18-H ) :   0.9646
B(  8-C ,  9-C ) :   1.2186 B(  8-C , 19-H ) :   0.9655 B(  9-C , 10-C ) :   1.2361
B( 10-C , 20-H ) :   0.9691 B( 11-C , 21-H ) :   0.9461 B( 11-C , 22-H ) :   0.9341
B( 11-C , 23-H ) :   0.9348

Dispersion correction           -0.028584296
FINAL SINGLE POINT ENERGY      -463.487449884489

DIPOLE MOMENT
-------------

Method             : SCF
Type of density    : Electron Density
Multiplicity       :   1
Irrep              :   0
Energy             :  -463.5475049104420577 Eh
Relativity type    :
Basis              : AO
                                X                 Y                 Z
Electronic contribution:     -0.017417344       0.057263440       0.002938785
Nuclear contribution   :      0.023555938      -0.108595907      -0.002545436
                        -----------------------------------------
Total Dipole Moment    :      0.006138594      -0.051332467       0.000393350
                        -----------------------------------------
Magnitude (a.u.)       :      0.051699703
Magnitude (Debye)      :      0.131410201

Rotational constants in cm-1:             0.090240             0.019503             0.016133
Rotational constants in MHz :          2705.323214           584.682748           483.647434

                             ****ORCA TERMINATED NORMALLY****
TOTAL RUN TIME: 0 days 0 hours 0 minutes 19 seconds 898 msec
