                         Program Version 6.0.0  -   RELEASE  -
|  1> ! pbe def2-sv(p) def2/J RI DEFGRID1 loosescf d4 GCP(DFT/SV(P)) printgap
|  2> %output
|  3>     printlevel normal
|  4> end
|  5> * xyz 0 1
|  6> C -1.690535164 -1.3708079242 -0.5480772359
|  7> C -1.1347741614 -0.4878085852 0.5876883602
|  8> H -1.8673273992 -0.4365577092 1.4016844812
|  9> C -0.8651941457 0.9603204422 0.1001116676
| 10> H -1.1651899755 1.038744664 -0.9534741652
| 11> C 0.6349166342 1.275471289 0.2098335737
| 12> H 0.8769210219 1.3860958514 1.2737189859
| 13> C 1.4392860645 0.1097050777 -0.3852570874
| 14> H 1.1128391916 -0.0891422253 -1.4131881523
| 15> C 1.176171501 -1.162302601 0.4496314582
| 16> H 1.9728143017 -1.2663088014 1.2011640946
| 17> O -0.0029128498 -1.0768771092 1.2150144342
| 18> O 1.1656718233 -2.2534575331 -0.4157801407
| 19> O 2.8079163875 0.3941165162 -0.4808033175
| 20> O 0.9786339544 2.5014790399 -0.3719297352
| 21> O -1.5570709028 1.9098975573 0.8779086393
| 22> O -2.8819540024 -0.8470849558 -1.0794071834
| 23> H -1.830916837 -2.3877906394 -0.1684845938
| 24> H -0.9736331242 -1.4091504608 -1.3712575952
| 25> H 1.2011887189 -3.0839166478 0.0829557046
| 26> H 3.1014931874 0.878962738 0.3047467683
| 27> H 0.7974357018 2.4806349764 -1.3230899494
| 28> H -2.4648738627 2.0027389228 0.5582719225
| 29> H -3.6160458083 -1.0354359191 -0.4779747966
| 30> *
| 31>
| 32>                          ****END OF INPUT****

CARTESIAN COORDINATES (ANGSTROEM)
---------------------------------
  C     -1.690535   -1.370808   -0.548077
  C     -1.134774   -0.487809    0.587688
  H     -1.867327   -0.436558    1.401684
  C     -0.865194    0.960320    0.100112
  H     -1.165190    1.038745   -0.953474
  C      0.634917    1.275471    0.209834
  H      0.876921    1.386096    1.273719
  C      1.439286    0.109705   -0.385257
  H      1.112839   -0.089142   -1.413188
  C      1.176172   -1.162303    0.449631
  H      1.972814   -1.266309    1.201164
  O     -0.002913   -1.076877    1.215014
  O      1.165672   -2.253458   -0.415780
  O      2.807916    0.394117   -0.480803
  O      0.978634    2.501479   -0.371930
  O     -1.557071    1.909898    0.877909
  O     -2.881954   -0.847085   -1.079407
  H     -1.830917   -2.387791   -0.168485
  H     -0.973633   -1.409150   -1.371258
  H      1.201189   -3.083917    0.082956
  H      3.101493    0.878963    0.304747
  H      0.797436    2.480635   -1.323090
  H     -2.464874    2.002739    0.558272
  H     -3.616046   -1.035436   -0.477975

 Total Charge           Charge          ....    0
 Multiplicity           Mult            ....    1
 Number of Electrons    NEL             ....   96
 Basis Dimension        Dim             ....  192

ORBITAL ENERGIES
----------------

  NO   OCC          E(Eh)            E(eV)
   0   2.0000     -18.767188      -510.6811
   1   2.0000     -18.763298      -510.5753
   2   2.0000     -18.761251      -510.5196
   3   2.0000     -18.747860      -510.1552
   4   2.0000     -18.747835      -510.1545
   5   2.0000     -18.746655      -510.1224
   6   2.0000      -9.983937      -271.6767
   7   2.0000      -9.941052      -270.5098
   8   2.0000      -9.940707      -270.5004
   9   2.0000      -9.940607      -270.4977
  10   2.0000      -9.940562      -270.4964
  11   2.0000      -9.932612      -270.2801
  12   2.0000      -0.978658       -26.6306
  13   2.0000      -0.940512       -25.5926
  14   2.0000      -0.936258       -25.4769
  15   2.0000      -0.926462       -25.2103
  16   2.0000      -0.911764       -24.8104
  17   2.0000      -0.911221       -24.7956
  18   2.0000      -0.701438       -19.0871
  19   2.0000      -0.688178       -18.7263
  20   2.0000      -0.623652       -16.9704
  21   2.0000      -0.578711       -15.7475
  22   2.0000      -0.572991       -15.5919
  23   2.0000      -0.526756       -14.3338
  24   2.0000      -0.499801       -13.6003
  25   2.0000      -0.494651       -13.4601
  26   2.0000      -0.474694       -12.9171
  27   2.0000      -0.468612       -12.7516
  28   2.0000      -0.434804       -11.8316
  29   2.0000      -0.427047       -11.6205
  30   2.0000      -0.407500       -11.0886
  31   2.0000      -0.393467       -10.7068
  32   2.0000      -0.387058       -10.5324
  33   2.0000      -0.385991       -10.5033
  34   2.0000      -0.358517        -9.7557
  35   2.0000      -0.344309        -9.3691
  36   2.0000      -0.333087        -9.0638
  37   2.0000      -0.308082        -8.3833
  38   2.0000      -0.293143        -7.9768
  39   2.0000      -0.284821        -7.7504
  40   2.0000      -0.277550        -7.5525
  41   2.0000      -0.270130        -7.3506
  42   2.0000      -0.260872        -7.0987
  43   2.0000      -0.247335        -6.7303
  44   2.0000      -0.231600        -6.3022
  45   2.0000      -0.223949        -6.0940
  46   2.0000      -0.211140        -5.7454
  47   2.0000      -0.198721        -5.4075
  48   0.0000       0.009992         0.2719
  49   0.0000       0.022637         0.6160
  50   0.0000       0.031498         0.8571
  51   0.0000       0.034979         0.9518
  52   0.0000       0.043325         1.1789

MULLIKEN ATOMIC CHARGES
-----------------------
   0 C :    0.001950
   1 C :    0.038457
   2 H :    0.052544
   3 C :    0.031887
   4 H :    0.054686
   5 C :    0.068904
   6 H :    0.063596
   7 C :   -0.000516
   8 H :    0.064419
   9 C :    0.221426
  10 H :    0.051124
  11 O :   -0.310027
  12 O :   -0.386216
  13 O :   -0.402890
  14 O :   -0.401004
  15 O :   -0.400894
  16 O :   -0.431478
  17 H :    0.075734
  18 H :    0.112153
  19 H :    0.301852
  20 H :    0.302238
  21 H :    0.295404
  22 H :    0.298331
  23 H :    0.298320
Sum of atomic charges:    0.0000000

LOEWDIN ATOMIC CHARGES
----------------------
   0 C :   -0.146726
   1 C :   -0.076850
   2 H :    0.111347
   3 C :   -0.076761
   4 H :    0.103302
   5 C :   -0.078075
   6 H :    0.119685
   7 C :   -0.089929
   8 H :    0.114214
   9 C :   -0.008635
  10 H :    0.097417
  11 O :   -0.148540
  12 O :   -0.301970
  13 O :   -0.305044
  14 O :   -0.303723
  15 O :   -0.317814
  16 O :   -0.334243
  17 H :    0.099008
  18 H :    0.116261
  19 H :    0.286068
  20 H :    0.285986
  21 H :    0.284304
  22 H :    0.285302
  23 H :    0.285414

  Mayer bond orders larger than 0.100000
B(  0-C ,  1-C ) :   1.0101 B(  0-C , 16-O ) :   1.0407 B(  0-C , 17-H ) :   0.9185
B(  0-C , 18-H ) :   0.9104 B(  1-C ,  2-H ) :   0.8895 B(  1-C ,  3-C ) :   0.9641
B(  1-C , 11-O ) :   1.0302 B(  3-C ,  4-H ) :   0.8850 B(  3-C ,  5-C ) :   1.0066
B(  3-C , 15-O ) :   1.1079 B(  5-C ,  6-H ) :   0.8530 B(  5-C ,  7-C ) :   0.9932
B(  5-C , 14-O ) :   1.0754 B(  7-C ,  8-H ) :   0.8713 B(  7-C ,  9-C ) :   0.9530
B(  7-C , 13-O ) :   1.0780 B(  9-C , 10-H ) :   0.8878 B(  9-C , 11-O ) :   1.0476
B(  9-C , 12-O ) :   1.1346 B( 12-O , 19-H ) :   0.8405 B( 13-O , 20-H ) :   0.8452
B( 14-O , 21-H ) :   0.8498 B( 15-O , 22-H ) :   0.8490 B( 16-O , 23-H ) :   0.8531

Dispersion correction           -0.024512598
FINAL SINGLE POINT ENERGY      -685.683791418409

DIPOLE MOMENT
-------------

Method             : SCF
Type of density    : Electron Density
Multiplicity       :   1
Irrep              :   0
Energy             :  -685.8124780587061196 Eh
Relativity type    :
Basis              : AO
                                X                 Y                 Z
Electronic contribution:      1.844035325       1.082042556       1.118877032
Nuclear contribution   :     -2.671192734      -1.793037713      -0.833990000
                        -----------------------------------------
Total Dipole Moment    :     -0.827157409      -0.710995157       0.284887031
                        -----------------------------------------
Magnitude (a.u.)       :      1.127326090
Magnitude (Debye)      :      2.865435200

Rotational constants in cm-1:             0.036698             0.029023             0.019452
Rotational constants in MHz :          1100.190669           870.084468           583.161022

                             ****ORCA TERMINATED NORMALLY****
TOTAL RUN TIME: 0 days 0 hours 0 minutes 12 seconds 36 msec
