                         Program Version 6.0.0  -   RELEASE  -
|  1> ! pbe def2-sv(p) def2/J RI DEFGRID1 loosescf d4 GCP(DFT/SV(P)) printgap
|  2> %output
|  3>     printlevel normal
|  4> end
|  5> * xyz 0 1
|  6> C -3.2871970816 0.6973711624 0.4061587631
|  7> C -2.4496173862 -0.3871925268 -0.2629885131
|  8> C -0.9582060306 -0.2098570742 -0.1397456248
|  9> C -0.1308718107 -1.3180923138 -0.2990284322
| 10> C 1.2427001799 -1.2034077627 -0.2189591305
| 11> C 1.8420337749 0.0271554935 0.027022672
| 12> C 1.0190402745 1.1318562016 0.1869521992
| 13> C -0.3586917054 1.017602106 0.1031831081
| 14> C 3.3328991417 0.1410266653 0.129559278
| 15> H -4.3386091698 0.4214495842 0.3741140407
| 16> H -3.1749139837 1.6513521776 -0.1028621076
| 17> H -2.9941693012 0.8187068549 1.4465785132
| 18> H -2.7035816147 -0.4276510311 -1.3273815458
| 19> H -2.7145630306 -1.3574829913 0.1650153461
| 20> H -0.5740850761 -2.2856565369 -0.4903693355
| 21> H 1.8619447454 -2.0800322662 -0.3470159856
| 22> H 1.4589554847 2.100524618 0.3789985387
| 23> H -0.9623684759 1.9024789504 0.2302863541
| 24> H 3.6782336614 -0.2987230309 1.0648899849
| 25> H 3.8140613011 -0.3928654252 -0.6873778715
| 26> H 3.6449826885 1.1817471988 0.1036313231
| 27> *
| 28>
| 29>                          ****END OF INPUT****

CARTESIAN COORDINATES (ANGSTROEM)
---------------------------------
  C     -3.287197    0.697371    0.406159
  C     -2.449617   -0.387193   -0.262989
  C     -0.958206   -0.209857   -0.139746
  C     -0.130872   -1.318092   -0.299028
  C      1.242700   -1.203408   -0.218959
  C      1.842034    0.027155    0.027023
  C      1.019040    1.131856    0.186952
  C     -0.358692    1.017602    0.103183
  C      3.332899    0.141027    0.129559
  H     -4.338609    0.421450    0.374114
  H     -3.174914    1.651352   -0.102862
  H     -2.994169    0.818707    1.446579
  H     -2.703582   -0.427651   -1.327382
  H     -2.714563   -1.357483    0.165015
  H     -0.574085   -2.285657   -0.490369
  H      1.861945   -2.080032   -0.347016
  H      1.458955    2.100525    0.378999
  H     -0.962368    1.902479    0.230286
  H      3.678234   -0.298723    1.064890
  H      3.814061   -0.392865   -0.687378
  H      3.644983    1.181747    0.103631

 Total Charge           Charge          ....    0
 Multiplicity           Mult            ....    1
 Number of Electrons    NEL             ....   66
 Basis Dimension        Dim             ....  150

ORBITAL ENERGIES
----------------

  NO   OCC          E(Eh)            E(eV)
   0   2.0000      -9.893968      -269.2285
   1   2.0000      -9.893405      -269.2132
   2   2.0000      -9.889053      -269.0948
   3   2.0000      -9.882334      -268.9120
   4   2.0000      -9.882026      -268.9036
   5   2.0000      -9.881875      -268.8995
   6   2.0000      -9.881593      -268.8918
   7   2.0000      -9.879289      -268.8291
   8   2.0000      -9.876543      -268.7544
   9   2.0000      -0.774473       -21.0745
  10   2.0000      -0.714987       -19.4558
  11   2.0000      -0.668271       -18.1846
  12   2.0000      -0.661889       -18.0109
  13   2.0000      -0.608107       -16.5474
  14   2.0000      -0.555627       -15.1194
  15   2.0000      -0.533872       -14.5274
  16   2.0000      -0.504289       -13.7224
  17   2.0000      -0.441901       -12.0248
  18   2.0000      -0.417565       -11.3625
  19   2.0000      -0.401844       -10.9347
  20   2.0000      -0.391880       -10.6636
  21   2.0000      -0.374583       -10.1929
  22   2.0000      -0.373216       -10.1557
  23   2.0000      -0.364188        -9.9100
  24   2.0000      -0.344109        -9.3637
  25   2.0000      -0.327436        -8.9100
  26   2.0000      -0.321719        -8.7544
  27   2.0000      -0.313295        -8.5252
  28   2.0000      -0.297446        -8.0939
  29   2.0000      -0.286177        -7.7873
  30   2.0000      -0.283863        -7.7243
  31   2.0000      -0.221757        -6.0343
  32   2.0000      -0.205400        -5.5892
  33   0.0000      -0.028406        -0.7730
  34   0.0000      -0.024753        -0.6736
  35   0.0000       0.046128         1.2552
  36   0.0000       0.053955         1.4682
  37   0.0000       0.067158         1.8275

MULLIKEN ATOMIC CHARGES
-----------------------
   0 C :   -0.279852
   1 C :   -0.143118
   2 C :    0.078367
   3 C :   -0.115177
   4 C :   -0.105045
   5 C :    0.055366
   6 C :   -0.109339
   7 C :   -0.128419
   8 C :   -0.223483
   9 H :    0.103067
  10 H :    0.111610
  11 H :    0.107652
  12 H :    0.103688
  13 H :    0.089778
  14 H :    0.032817
  15 H :    0.030871
  16 H :    0.030498
  17 H :    0.033841
  18 H :    0.116764
  19 H :    0.109502
  20 H :    0.100611
Sum of atomic charges:    0.0000000

LOEWDIN ATOMIC CHARGES
----------------------
   0 C :   -0.340609
   1 C :   -0.220469
   2 C :   -0.047157
   3 C :   -0.120441
   4 C :   -0.122016
   5 C :   -0.053600
   6 C :   -0.124410
   7 C :   -0.127213
   8 C :   -0.323104
   9 H :    0.121621
  10 H :    0.118997
  11 H :    0.121447
  12 H :    0.130357
  13 H :    0.123666
  14 H :    0.119076
  15 H :    0.119057
  16 H :    0.118883
  17 H :    0.121232
  18 H :    0.132521
  19 H :    0.128651
  20 H :    0.123512

  Mayer bond orders larger than 0.100000
B(  0-C ,  1-C ) :   1.1805 B(  0-C ,  9-H ) :   0.9480 B(  0-C , 10-H ) :   0.9396
B(  0-C , 11-H ) :   0.9551 B(  1-C ,  2-C ) :   1.0553 B(  1-C , 12-H ) :   0.8993
B(  1-C , 13-H ) :   0.9135 B(  2-C ,  3-C ) :   1.3743 B(  2-C ,  7-C ) :   1.4042
B(  3-C ,  4-C ) :   1.3814 B(  3-C , 14-H ) :   0.9631 B(  4-C ,  5-C ) :   1.3703
B(  4-C , 15-H ) :   0.9655 B(  5-C ,  6-C ) :   1.4059 B(  5-C ,  8-C ) :   1.0968
B(  6-C ,  7-C ) :   1.3442 B(  6-C , 16-H ) :   0.9582 B(  7-C , 17-H ) :   0.9552
B(  8-C , 18-H ) :   0.9340 B(  8-C , 19-H ) :   0.9395 B(  8-C , 20-H ) :   0.9453

Dispersion correction           -0.020576758
FINAL SINGLE POINT ENERGY      -349.371626684160

DIPOLE MOMENT
-------------

Method             : SCF
Type of density    : Electron Density
Multiplicity       :   1
Irrep              :   0
Energy             :  -349.4311677116517671 Eh
Relativity type    :
Basis              : AO
                                X                 Y                 Z
Electronic contribution:      2.793185296      -1.189172153      -0.770884957
Nuclear contribution   :     -2.818359615       1.157555634       0.758514866
                        -----------------------------------------
Total Dipole Moment    :     -0.025174320      -0.031616519      -0.012370091
                        -----------------------------------------
Magnitude (a.u.)       :      0.042265468
Magnitude (Debye)      :      0.107430283

Rotational constants in cm-1:             0.152661             0.031874             0.026931
Rotational constants in MHz :          4576.658737           955.544700           807.361867

                             ****ORCA TERMINATED NORMALLY****
TOTAL RUN TIME: 0 days 0 hours 0 minutes 9 seconds 573 msec
