                         Program Version 6.0.0  -   RELEASE  -
|  1> ! r2scan-3c def2/J RI DEFGRID2 scfconv6 printgap
|  2> %output
|  3>     printlevel normal
|  4> end
|  5> * xyz 0 1
|  6> C -3.2380701733 -0.7197940583 0.8848071076
|  7> N -2.0160679378 -0.0696055138 0.446747804
|  8> C -1.4523116685 0.9402198752 1.3142979191
|  9> C -1.5929796372 -0.3315668598 -0.8046812607
| 10> O -2.2774998252 -0.973415175 -1.6083692453
| 11> N -0.3815819761 0.2039445545 -1.2066671476
| 12> C 0.8292313571 0.1802111634 -0.4994117804
| 13> C 1.8696506325 1.0006596514 -0.9312250203
| 14> C 3.077270788 1.0047191618 -0.259888686
| 15> C 3.2663543217 0.1921229703 0.8463499309
| 16> C 2.2424072765 -0.6403387137 1.2647516226
| 17> C 1.0319155006 -0.6552708321 0.5958442855
| 18> H -3.0671885656 -1.788847512 1.0239214869
| 19> H -4.0152691444 -0.6013645114 0.1280523962
| 20> H -3.5614398137 -0.2793669539 1.8216823587
| 21> H -0.7849734842 1.5875163314 0.75278986
| 22> H -0.8952433869 0.4876589718 2.1376074419
| 23> H -2.2622499424 1.5446920518 1.7225092497
| 24> H -0.2833648819 0.2101503923 -2.2138392915
| 25> H 1.7225586218 1.6319615664 -1.7942915129
| 26> H 3.8745496067 1.6468037818 -0.6019452796
| 27> H 4.2088619532 0.1997001073 1.3709788988
| 28> H 2.3880316539 -1.293373633 2.1117937775
| 29> H 0.2487056856 -1.3312601033 0.9028365251
| 30> *
| 31>
| 32>                          ****END OF INPUT****

CARTESIAN COORDINATES (ANGSTROEM)
---------------------------------
  C     -3.238070   -0.719794    0.884807
  N     -2.016068   -0.069606    0.446748
  C     -1.452312    0.940220    1.314298
  C     -1.592980   -0.331567   -0.804681
  O     -2.277500   -0.973415   -1.608369
  N     -0.381582    0.203945   -1.206667
  C      0.829231    0.180211   -0.499412
  C      1.869651    1.000660   -0.931225
  C      3.077271    1.004719   -0.259889
  C      3.266354    0.192123    0.846350
  C      2.242407   -0.640339    1.264752
  C      1.031916   -0.655271    0.595844
  H     -3.067189   -1.788848    1.023921
  H     -4.015269   -0.601365    0.128052
  H     -3.561440   -0.279367    1.821682
  H     -0.784973    1.587516    0.752790
  H     -0.895243    0.487659    2.137607
  H     -2.262250    1.544692    1.722509
  H     -0.283365    0.210150   -2.213839
  H      1.722559    1.631962   -1.794292
  H      3.874550    1.646804   -0.601945
  H      4.208862    0.199700    1.370979
  H      2.388032   -1.293374    2.111794
  H      0.248706   -1.331260    0.902837

 Total Charge           Charge          ....    0
 Multiplicity           Mult            ....    1
 Number of Electrons    NEL             ....   88
 Basis Dimension        Dim             ....  303

ORBITAL ENERGIES
----------------

  NO   OCC          E(Eh)            E(eV)
   0   2.0000     -18.899189      -514.2731
   1   2.0000     -14.194688      -386.2571
   2   2.0000     -14.189155      -386.1065
   3   2.0000     -10.145596      -276.0757
   4   2.0000     -10.085925      -274.4520
   5   2.0000     -10.068143      -273.9681
   6   2.0000     -10.061246      -273.7804
   7   2.0000     -10.041878      -273.2534
   8   2.0000     -10.041807      -273.2515
   9   2.0000     -10.039657      -273.1929
  10   2.0000     -10.038864      -273.1714
  11   2.0000     -10.034508      -273.0528
  12   2.0000      -1.008182       -27.4340
  13   2.0000      -0.908673       -24.7263
  14   2.0000      -0.898836       -24.4586
  15   2.0000      -0.822074       -22.3698
  16   2.0000      -0.726011       -19.7558
  17   2.0000      -0.717370       -19.5206
  18   2.0000      -0.696105       -18.9420
  19   2.0000      -0.670040       -18.2327
  20   2.0000      -0.595341       -16.2000
  21   2.0000      -0.588015       -16.0007
  22   2.0000      -0.536976       -14.6118
  23   2.0000      -0.517096       -14.0709
  24   2.0000      -0.487810       -13.2740
  25   2.0000      -0.463618       -12.6157
  26   2.0000      -0.451548       -12.2872
  27   2.0000      -0.439759       -11.9664
  28   2.0000      -0.420588       -11.4448
  29   2.0000      -0.412162       -11.2155
  30   2.0000      -0.398143       -10.8340
  31   2.0000      -0.393692       -10.7129
  32   2.0000      -0.381659       -10.3855
  33   2.0000      -0.372683       -10.1412
  34   2.0000      -0.368249       -10.0206
  35   2.0000      -0.351265        -9.5584
  36   2.0000      -0.342804        -9.3282
  37   2.0000      -0.334874        -9.1124
  38   2.0000      -0.321241        -8.7414
  39   2.0000      -0.280507        -7.6330
  40   2.0000      -0.244679        -6.6581
  41   2.0000      -0.227587        -6.1930
  42   2.0000      -0.213633        -5.8133
  43   2.0000      -0.199848        -5.4381
  44   0.0000      -0.040124        -1.0918
  45   0.0000      -0.034581        -0.9410
  46   0.0000       0.021237         0.5779
  47   0.0000       0.062840         1.7100
  48   0.0000       0.078125         2.1259

MULLIKEN ATOMIC CHARGES
-----------------------
   0 C :   -0.377771
   1 N :    0.040545
   2 C :   -0.436732
   3 C :    0.151552
   4 O :   -0.460898
   5 N :   -0.110719
   6 C :    0.230993
   7 C :   -0.340162
   8 C :   -0.119007
   9 C :   -0.172136
  10 C :   -0.154220
  11 C :   -0.242339
  12 H :    0.159167
  13 H :    0.182739
  14 H :    0.137373
  15 H :    0.181057
  16 H :    0.170967
  17 H :    0.143052
  18 H :    0.266191
  19 H :    0.145450
  20 H :    0.148107
  21 H :    0.147447
  22 H :    0.146799
  23 H :    0.162543
Sum of atomic charges:    0.0000000

LOEWDIN ATOMIC CHARGES
----------------------
   0 C :   -0.102797
   1 N :   -0.809510
   2 C :   -0.100861
   3 C :    0.425504
   4 O :   -0.439626
   5 N :   -0.571432
   6 C :    0.136712
   7 C :   -0.144635
   8 C :   -0.153229
   9 C :   -0.184092
  10 C :   -0.155104
  11 C :   -0.143932
  12 H :    0.178445
  13 H :    0.191607
  14 H :    0.175792
  15 H :    0.200263
  16 H :    0.173415
  17 H :    0.174600
  18 H :    0.287714
  19 H :    0.173612
  20 H :    0.168558
  21 H :    0.167049
  22 H :    0.168520
  23 H :    0.183426

  Mayer bond orders larger than 0.100000
B(  0-C ,  1-N ) :   0.9118 B(  0-C , 12-H ) :   0.9546 B(  0-C , 13-H ) :   0.9544
B(  0-C , 14-H ) :   0.9611 B(  1-N ,  2-C ) :   0.9135 B(  1-N ,  3-C ) :   1.2213
B(  2-C , 15-H ) :   0.9532 B(  2-C , 16-H ) :   0.9488 B(  2-C , 17-H ) :   0.9568
B(  3-C ,  4-O ) :   1.8814 B(  3-C ,  5-N ) :   1.0783 B(  5-N ,  6-C ) :   0.8729
B(  5-N , 18-H ) :   0.9084 B(  6-C ,  7-C ) :   1.3681 B(  6-C , 11-C ) :   1.3739
B(  7-C ,  8-C ) :   1.4037 B(  7-C , 19-H ) :   0.9499 B(  8-C ,  9-C ) :   1.4126
B(  8-C , 20-H ) :   0.9444 B(  9-C , 10-C ) :   1.4167 B(  9-C , 21-H ) :   0.9493
B( 10-C , 11-C ) :   1.3916 B( 10-C , 22-H ) :   0.9534 B( 11-C , 23-H ) :   0.9476

Dispersion correction           -0.009215217
FINAL SINGLE POINT ENERGY      -534.786415113110

DIPOLE MOMENT
-------------

Method             : SCF
Type of density    : Electron Density
Multiplicity       :   1
Irrep              :   0
Energy             :  -534.7963787179575093 Eh
Relativity type    :
Basis              : AO
                                X                 Y                 Z
Electronic contribution:      2.793622154      -1.168403217      -5.841192701
Nuclear contribution   :     -2.323856665       1.876041334       6.878894360
                        -----------------------------------------
Total Dipole Moment    :      0.469765489       0.707638117       1.037701660
                        -----------------------------------------
Magnitude (a.u.)       :      1.340990699
Magnitude (Debye)      :      3.408527476

Rotational constants in cm-1:             0.068798             0.019496             0.017373
Rotational constants in MHz :          2062.510650           584.464120           520.830035

                             ****ORCA TERMINATED NORMALLY****
TOTAL RUN TIME: 0 days 0 hours 0 minutes 40 seconds 336 msec
