                         Program Version 6.0.0  -   RELEASE  -
|  1> ! r2scan-3c def2/J RI DEFGRID2 scfconv6 printgap
|  2> %output
|  3>     printlevel normal
|  4> end
|  5> %cpcm
|  6>     smd true
|  7>     smdsolvent "water"
|  8> end
|  9> * xyz 0 1
| 10> C -3.2380701733 -0.7197940583 0.8848071076
| 11> N -2.0160679378 -0.0696055138 0.446747804
| 12> C -1.4523116685 0.9402198752 1.3142979191
| 13> C -1.5929796372 -0.3315668598 -0.8046812607
| 14> O -2.2774998252 -0.973415175 -1.6083692453
| 15> N -0.3815819761 0.2039445545 -1.2066671476
| 16> C 0.8292313571 0.1802111634 -0.4994117804
| 17> C 1.8696506325 1.0006596514 -0.9312250203
| 18> C 3.077270788 1.0047191618 -0.259888686
| 19> C 3.2663543217 0.1921229703 0.8463499309
| 20> C 2.2424072765 -0.6403387137 1.2647516226
| 21> C 1.0319155006 -0.6552708321 0.5958442855
| 22> H -3.0671885656 -1.788847512 1.0239214869
| 23> H -4.0152691444 -0.6013645114 0.1280523962
| 24> H -3.5614398137 -0.2793669539 1.8216823587
| 25> H -0.7849734842 1.5875163314 0.75278986
| 26> H -0.8952433869 0.4876589718 2.1376074419
| 27> H -2.2622499424 1.5446920518 1.7225092497
| 28> H -0.2833648819 0.2101503923 -2.2138392915
| 29> H 1.7225586218 1.6319615664 -1.7942915129
| 30> H 3.8745496067 1.6468037818 -0.6019452796
| 31> H 4.2088619532 0.1997001073 1.3709788988
| 32> H 2.3880316539 -1.293373633 2.1117937775
| 33> H 0.2487056856 -1.3312601033 0.9028365251
| 34> *
| 35>
| 36>                          ****END OF INPUT****

CARTESIAN COORDINATES (ANGSTROEM)
---------------------------------
  C     -3.238070   -0.719794    0.884807
  N     -2.016068   -0.069606    0.446748
  C     -1.452312    0.940220    1.314298
  C     -1.592980   -0.331567   -0.804681
  O     -2.277500   -0.973415   -1.608369
  N     -0.381582    0.203945   -1.206667
  C      0.829231    0.180211   -0.499412
  C      1.869651    1.000660   -0.931225
  C      3.077271    1.004719   -0.259889
  C      3.266354    0.192123    0.846350
  C      2.242407   -0.640339    1.264752
  C      1.031916   -0.655271    0.595844
  H     -3.067189   -1.788848    1.023921
  H     -4.015269   -0.601365    0.128052
  H     -3.561440   -0.279367    1.821682
  H     -0.784973    1.587516    0.752790
  H     -0.895243    0.487659    2.137607
  H     -2.262250    1.544692    1.722509
  H     -0.283365    0.210150   -2.213839
  H      1.722559    1.631962   -1.794292
  H      3.874550    1.646804   -0.601945
  H      4.208862    0.199700    1.370979
  H      2.388032   -1.293374    2.111794
  H      0.248706   -1.331260    0.902837

 Total Charge           Charge          ....    0
 Multiplicity           Mult            ....    1
 Number of Electrons    NEL             ....   88
 Basis Dimension        Dim             ....  303

ORBITAL ENERGIES
----------------

  NO   OCC          E(Eh)            E(eV)
   0   2.0000     -18.919075      -514.8142
   1   2.0000     -14.194885      -386.2624
   2   2.0000     -14.187511      -386.0618
   3   2.0000     -10.155671      -276.3499
   4   2.0000     -10.082078      -274.3473
   5   2.0000     -10.053867      -273.5796
   6   2.0000     -10.051566      -273.5170
   7   2.0000     -10.035176      -273.0710
   8   2.0000     -10.035066      -273.0680
   9   2.0000     -10.033127      -273.0153
  10   2.0000     -10.032746      -273.0049
  11   2.0000     -10.028488      -272.8890
  12   2.0000      -1.021494       -27.7963
  13   2.0000      -0.914306       -24.8795
  14   2.0000      -0.895829       -24.3768
  15   2.0000      -0.818437       -22.2708
  16   2.0000      -0.720102       -19.5950
  17   2.0000      -0.713773       -19.4228
  18   2.0000      -0.686745       -18.6873
  19   2.0000      -0.664603       -18.0848
  20   2.0000      -0.590552       -16.0697
  21   2.0000      -0.582031       -15.8379
  22   2.0000      -0.530656       -14.4399
  23   2.0000      -0.510985       -13.9046
  24   2.0000      -0.483039       -13.1442
  25   2.0000      -0.458259       -12.4699
  26   2.0000      -0.447592       -12.1796
  27   2.0000      -0.435276       -11.8445
  28   2.0000      -0.416856       -11.3432
  29   2.0000      -0.403556       -10.9813
  30   2.0000      -0.394766       -10.7421
  31   2.0000      -0.388999       -10.5852
  32   2.0000      -0.381597       -10.3838
  33   2.0000      -0.369253       -10.0479
  34   2.0000      -0.363683        -9.8963
  35   2.0000      -0.349101        -9.4995
  36   2.0000      -0.339836        -9.2474
  37   2.0000      -0.327889        -8.9223
  38   2.0000      -0.312924        -8.5151
  39   2.0000      -0.284190        -7.7332
  40   2.0000      -0.246056        -6.6955
  41   2.0000      -0.241545        -6.5728
  42   2.0000      -0.220959        -6.0126
  43   2.0000      -0.199949        -5.4409
  44   0.0000      -0.035904        -0.9770
  45   0.0000      -0.033005        -0.8981
  46   0.0000       0.015669         0.4264
  47   0.0000       0.070208         1.9105
  48   0.0000       0.091002         2.4763

MULLIKEN ATOMIC CHARGES
-----------------------
   0 C :   -0.418446
   1 N :    0.060642
   2 C :   -0.458527
   3 C :    0.184504
   4 O :   -0.575490
   5 N :   -0.129013
   6 C :    0.203570
   7 C :   -0.350181
   8 C :   -0.156951
   9 C :   -0.210056
  10 C :   -0.199304
  11 C :   -0.255967
  12 H :    0.177834
  13 H :    0.176367
  14 H :    0.174150
  15 H :    0.191999
  16 H :    0.188396
  17 H :    0.171516
  18 H :    0.314775
  19 H :    0.180481
  20 H :    0.180938
  21 H :    0.178843
  22 H :    0.178969
  23 H :    0.190951
Sum of atomic charges:    0.0000000

LOEWDIN ATOMIC CHARGES
----------------------
   0 C :   -0.103227
   1 N :   -0.793495
   2 C :   -0.095477
   3 C :    0.425022
   4 O :   -0.529485
   5 N :   -0.562337
   6 C :    0.131629
   7 C :   -0.144793
   8 C :   -0.165212
   9 C :   -0.196662
  10 C :   -0.165056
  11 C :   -0.147495
  12 H :    0.183022
  13 H :    0.187757
  14 H :    0.191136
  15 H :    0.202202
  16 H :    0.181955
  17 H :    0.187376
  18 H :    0.299264
  19 H :    0.186463
  20 H :    0.179149
  21 H :    0.176633
  22 H :    0.179380
  23 H :    0.192252

  Mayer bond orders larger than 0.100000
B(  0-C ,  1-N ) :   0.8959 B(  0-C , 12-H ) :   0.9535 B(  0-C , 13-H ) :   0.9539
B(  0-C , 14-H ) :   0.9523 B(  1-N ,  2-C ) :   0.9047 B(  1-N ,  3-C ) :   1.2690
B(  2-C , 15-H ) :   0.9480 B(  2-C , 16-H ) :   0.9418 B(  2-C , 17-H ) :   0.9466
B(  3-C ,  4-O ) :   1.7959 B(  3-C ,  5-N ) :   1.1062 B(  5-N ,  6-C ) :   0.8771
B(  5-N , 18-H ) :   0.8860 B(  6-C ,  7-C ) :   1.3453 B(  6-C , 11-C ) :   1.3330
B(  7-C ,  8-C ) :   1.3756 B(  7-C , 19-H ) :   0.9579 B(  8-C ,  9-C ) :   1.3704
B(  8-C , 20-H ) :   0.9525 B(  9-C , 10-C ) :   1.3804 B(  9-C , 21-H ) :   0.9573
B( 10-C , 11-C ) :   1.3696 B( 10-C , 22-H ) :   0.9626 B( 11-C , 23-H ) :   0.9514

Dispersion correction           -0.009215217
FINAL SINGLE POINT ENERGY      -534.800646589736

DIPOLE MOMENT
-------------

Method             : SCF
Type of density    : Electron Density
Multiplicity       :   1
Irrep              :   0
Energy             :  -534.8106101945837736 Eh
Relativity type    :
Basis              : AO
                                X                 Y                 Z
Electronic contribution:      2.995460125      -0.817890568      -5.325271475
Nuclear contribution   :     -2.323856665       1.876041334       6.878894360
                        -----------------------------------------
Total Dipole Moment    :      0.671603460       1.058150765       1.553622885
                        -----------------------------------------
Magnitude (a.u.)       :      1.996115808
Magnitude (Debye)      :      5.073723169

Rotational constants in cm-1:             0.068798             0.019496             0.017373
Rotational constants in MHz :          2062.510650           584.464120           520.830035

                             ****ORCA TERMINATED NORMALLY****
TOTAL RUN TIME: 0 days 0 hours 0 minutes 49 seconds 530 msec
