                         Program Version 6.0.0  -   RELEASE  -
|  1> ! pbe def2-sv(p) def2/J RI DEFGRID1 loosescf d4 GCP(DFT/SV(P)) printgap
|  2> %output
|  3>     printlevel normal
|  4> end
|  5> * xyz 0 1
|  6> C 2.502683086 0.0637414563 -0.0622833285
|  7> C 0.9982787115 0.0668809352 -0.0059804896
|  8> C 0.3076785451 1.1944614633 0.0966669076
|  9> C -1.1886958395 1.2725370028 0.1263061749
| 10> C -1.8224714711 -0.0262766214 -0.3631044418
| 11> C -1.1438559467 -1.2092688262 0.3171534635
| 12> C 0.323621393 -1.2740922743 -0.0974651664
| 13> H 2.9208370043 0.5403266607 0.8226159608
| 14> H 2.8536591909 0.616005655 -0.9325988128
| 15> H 2.8859781179 -0.951211217 -0.1222499622
| 16> H 0.8301254835 2.1397118627 0.1728187986
| 17> H -1.5143223496 1.4797302819 1.1518078284
| 18> H -1.5212735668 2.1116771905 -0.4901382199
| 19> H -2.8929629739 -0.0247002799 -0.1499352686
| 20> H -1.6921296593 -0.1102814064 -1.4440677454
| 21> H -1.2101177065 -1.0843123778 1.4000046008
| 22> H -1.6459591868 -2.1418634779 0.0530619962
| 23> H 0.8560476241 -1.9904514665 0.5334376482
| 24> H 0.4013638165 -1.633113858 -1.1293353128
| 25> *
| 26>
| 27>                          ****END OF INPUT****

CARTESIAN COORDINATES (ANGSTROEM)
---------------------------------
  C      2.502683    0.063741   -0.062283
  C      0.998279    0.066881   -0.005980
  C      0.307679    1.194461    0.096667
  C     -1.188696    1.272537    0.126306
  C     -1.822471   -0.026277   -0.363104
  C     -1.143856   -1.209269    0.317153
  C      0.323621   -1.274092   -0.097465
  H      2.920837    0.540327    0.822616
  H      2.853659    0.616006   -0.932599
  H      2.885978   -0.951211   -0.122250
  H      0.830125    2.139712    0.172819
  H     -1.514322    1.479730    1.151808
  H     -1.521274    2.111677   -0.490138
  H     -2.892963   -0.024700   -0.149935
  H     -1.692130   -0.110281   -1.444068
  H     -1.210118   -1.084312    1.400005
  H     -1.645959   -2.141863    0.053062
  H      0.856048   -1.990451    0.533438
  H      0.401364   -1.633114   -1.129335

 Total Charge           Charge          ....    0
 Multiplicity           Mult            ....    1
 Number of Electrons    NEL             ....   54
 Basis Dimension        Dim             ....  122

ORBITAL ENERGIES
----------------

  NO   OCC          E(Eh)            E(eV)
   0   2.0000      -9.885277      -268.9921
   1   2.0000      -9.881439      -268.8876
   2   2.0000      -9.879928      -268.8465
   3   2.0000      -9.878046      -268.7953
   4   2.0000      -9.877643      -268.7843
   5   2.0000      -9.873399      -268.6689
   6   2.0000      -9.869725      -268.5689
   7   2.0000      -0.753454       -20.5025
   8   2.0000      -0.684359       -18.6224
   9   2.0000      -0.659893       -17.9566
  10   2.0000      -0.602161       -16.3856
  11   2.0000      -0.546442       -14.8694
  12   2.0000      -0.518724       -14.1152
  13   2.0000      -0.449535       -12.2325
  14   2.0000      -0.424265       -11.5448
  15   2.0000      -0.390718       -10.6320
  16   2.0000      -0.380662       -10.3583
  17   2.0000      -0.378481       -10.2990
  18   2.0000      -0.361502        -9.8370
  19   2.0000      -0.342490        -9.3196
  20   2.0000      -0.326380        -8.8812
  21   2.0000      -0.325944        -8.8694
  22   2.0000      -0.314941        -8.5700
  23   2.0000      -0.285071        -7.7572
  24   2.0000      -0.270194        -7.3524
  25   2.0000      -0.257040        -6.9944
  26   2.0000      -0.195991        -5.3332
  27   0.0000      -0.005153        -0.1402
  28   0.0000       0.039197         1.0666
  29   0.0000       0.062880         1.7110
  30   0.0000       0.072450         1.9715
  31   0.0000       0.077268         2.1026

MULLIKEN ATOMIC CHARGES
-----------------------
   0 C :   -0.228347
   1 C :   -0.097731
   2 C :   -0.191934
   3 C :   -0.090269
   4 C :   -0.163647
   5 C :   -0.156437
   6 C :   -0.104850
   7 H :    0.112151
   8 H :    0.112839
   9 H :    0.092991
  10 H :    0.038532
  11 H :    0.089008
  12 H :    0.085208
  13 H :    0.080632
  14 H :    0.083974
  15 H :    0.084422
  16 H :    0.079773
  17 H :    0.085016
  18 H :    0.088670
Sum of atomic charges:    0.0000000

LOEWDIN ATOMIC CHARGES
----------------------
   0 C :   -0.327825
   1 C :   -0.074720
   2 C :   -0.157919
   3 C :   -0.222282
   4 C :   -0.223285
   5 C :   -0.223148
   6 C :   -0.215134
   7 H :    0.131019
   8 H :    0.130441
   9 H :    0.119322
  10 H :    0.112579
  11 H :    0.122247
  12 H :    0.120737
  13 H :    0.114711
  14 H :    0.116124
  15 H :    0.116640
  16 H :    0.114869
  17 H :    0.121006
  18 H :    0.124617

  Mayer bond orders larger than 0.100000
B(  0-C ,  1-C ) :   1.0934 B(  0-C ,  7-H ) :   0.9413 B(  0-C ,  8-H ) :   0.9433
B(  0-C ,  9-H ) :   0.9465 B(  1-C ,  2-C ) :   1.9344 B(  1-C ,  6-C ) :   1.0796
B(  2-C ,  3-C ) :   1.0577 B(  2-C , 10-H ) :   0.9352 B(  3-C ,  4-C ) :   1.1396
B(  3-C , 11-H ) :   0.8971 B(  3-C , 12-H ) :   0.9109 B(  4-C ,  5-C ) :   1.1100
B(  4-C , 13-H ) :   0.9197 B(  4-C , 14-H ) :   0.9263 B(  5-C ,  6-C ) :   1.1350
B(  5-C , 15-H ) :   0.9260 B(  5-C , 16-H ) :   0.9188 B(  6-C , 17-H ) :   0.8990
B(  6-C , 18-H ) :   0.8913

Dispersion correction           -0.016686236
FINAL SINGLE POINT ENERGY      -273.287437747579

DIPOLE MOMENT
-------------

Method             : SCF
Type of density    : Electron Density
Multiplicity       :   1
Irrep              :   0
Energy             :  -273.3477996344034864 Eh
Relativity type    :
Basis              : AO
                                X                 Y                 Z
Electronic contribution:     -0.228711946       0.920296973       0.114340864
Nuclear contribution   :      0.254473232      -0.983649218      -0.126256789
                        -----------------------------------------
Total Dipole Moment    :      0.025761287      -0.063352245      -0.011915925
                        -----------------------------------------
Magnitude (a.u.)       :      0.069420027
Magnitude (Debye)      :      0.176451685

Rotational constants in cm-1:             0.151493             0.076187             0.054675
Rotational constants in MHz :          4541.641335          2284.039357          1639.125866

                             ****ORCA TERMINATED NORMALLY****
TOTAL RUN TIME: 0 days 0 hours 0 minutes 7 seconds 60 msec
