                         Program Version 6.0.0  -   RELEASE  -
|  1> ! pbe def2-sv(p) def2/J RI DEFGRID1 loosescf d4 GCP(DFT/SV(P)) printgap
|  2> %output
|  3>     printlevel normal
|  4> end
|  5> * xyz 0 1
|  6> C -2.6353259005 -0.6877812631 -0.7490234712
|  7> C -1.8777452617 -0.4507005523 0.5598966476
|  8> C -0.403805728 -0.2945635029 0.30151123
|  9> C 0.391649913 -1.4326572669 0.2548883131
| 10> C 1.7453471554 -1.3558880228 -0.0165125526
| 11> C 2.3239781836 -0.1205301943 -0.245864223
| 12> C 1.5413731502 1.0190479942 -0.2009036911
| 13> C 0.1796016838 0.9537008789 0.0673046029
| 14> C -0.6262332061 2.2185649207 0.1135897217
| 15> H -3.6993849372 -0.7999769606 -0.5560644662
| 16> H -2.2723585084 -1.5902861424 -1.2355643204
| 17> H -2.4924318322 0.1452723755 -1.4331399884
| 18> H -2.0374289652 -1.3066383361 1.2190223775
| 19> H -2.2765565557 0.4343213043 1.0549508617
| 20> H -0.0618561469 -2.397019389 0.4372248311
| 21> H 2.344497747 -2.2539614376 -0.0472055011
| 22> H 3.3801768281 -0.0434921198 -0.4579927228
| 23> H 1.9973185861 1.9827906194 -0.3796986913
| 24> H -1.4685582618 2.1708335262 -0.5731406736
| 25> H -1.0180890995 2.3844172303 1.1165271544
| 26> H -0.0082935494 3.0708848608 -0.1565000513
| 27> *
| 28>
| 29>                          ****END OF INPUT****

CARTESIAN COORDINATES (ANGSTROEM)
---------------------------------
  C     -2.635326   -0.687781   -0.749023
  C     -1.877745   -0.450701    0.559897
  C     -0.403806   -0.294564    0.301511
  C      0.391650   -1.432657    0.254888
  C      1.745347   -1.355888   -0.016513
  C      2.323978   -0.120530   -0.245864
  C      1.541373    1.019048   -0.200904
  C      0.179602    0.953701    0.067305
  C     -0.626233    2.218565    0.113590
  H     -3.699385   -0.799977   -0.556064
  H     -2.272359   -1.590286   -1.235564
  H     -2.492432    0.145272   -1.433140
  H     -2.037429   -1.306638    1.219022
  H     -2.276557    0.434321    1.054951
  H     -0.061856   -2.397019    0.437225
  H      2.344498   -2.253961   -0.047206
  H      3.380177   -0.043492   -0.457993
  H      1.997319    1.982791   -0.379699
  H     -1.468558    2.170834   -0.573141
  H     -1.018089    2.384417    1.116527
  H     -0.008294    3.070885   -0.156500

 Total Charge           Charge          ....    0
 Multiplicity           Mult            ....    1
 Number of Electrons    NEL             ....   66
 Basis Dimension        Dim             ....  150

ORBITAL ENERGIES
----------------

  NO   OCC          E(Eh)            E(eV)
   0   2.0000      -9.896906      -269.3085
   1   2.0000      -9.894601      -269.2458
   2   2.0000      -9.889177      -269.0982
   3   2.0000      -9.883017      -268.9306
   4   2.0000      -9.882534      -268.9174
   5   2.0000      -9.882336      -268.9120
   6   2.0000      -9.881843      -268.8986
   7   2.0000      -9.881820      -268.8980
   8   2.0000      -9.878691      -268.8128
   9   2.0000      -0.776803       -21.1379
  10   2.0000      -0.708663       -19.2837
  11   2.0000      -0.689175       -18.7534
  12   2.0000      -0.646022       -17.5791
  13   2.0000      -0.610129       -16.6024
  14   2.0000      -0.561931       -15.2909
  15   2.0000      -0.529661       -14.4128
  16   2.0000      -0.503010       -13.6876
  17   2.0000      -0.447859       -12.1869
  18   2.0000      -0.427380       -11.6296
  19   2.0000      -0.400620       -10.9014
  20   2.0000      -0.382444       -10.4068
  21   2.0000      -0.379033       -10.3140
  22   2.0000      -0.369977       -10.0676
  23   2.0000      -0.359164        -9.7734
  24   2.0000      -0.346606        -9.4316
  25   2.0000      -0.336870        -9.1667
  26   2.0000      -0.325239        -8.8502
  27   2.0000      -0.310280        -8.4432
  28   2.0000      -0.305022        -8.3001
  29   2.0000      -0.286753        -7.8030
  30   2.0000      -0.280497        -7.6327
  31   2.0000      -0.218173        -5.9368
  32   2.0000      -0.210291        -5.7223
  33   0.0000      -0.028205        -0.7675
  34   0.0000      -0.025671        -0.6985
  35   0.0000       0.039532         1.0757
  36   0.0000       0.052438         1.4269
  37   0.0000       0.062956         1.7131

MULLIKEN ATOMIC CHARGES
-----------------------
   0 C :   -0.274128
   1 C :   -0.131245
   2 C :    0.018154
   3 C :   -0.136888
   4 C :   -0.041523
   5 C :   -0.039408
   6 C :   -0.135189
   7 C :   -0.009687
   8 C :   -0.223040
   9 H :    0.105278
  10 H :    0.102546
  11 H :    0.106191
  12 H :    0.086185
  13 H :    0.082554
  14 H :    0.033800
  15 H :    0.046253
  16 H :    0.046427
  17 H :    0.031515
  18 H :    0.112930
  19 H :    0.119623
  20 H :    0.099653
Sum of atomic charges:   -0.0000000

LOEWDIN ATOMIC CHARGES
----------------------
   0 C :   -0.332402
   1 C :   -0.218486
   2 C :   -0.037786
   3 C :   -0.122561
   4 C :   -0.128588
   5 C :   -0.128469
   6 C :   -0.125381
   7 C :   -0.047776
   8 C :   -0.324430
   9 H :    0.118682
  10 H :    0.120253
  11 H :    0.118506
  12 H :    0.122662
  13 H :    0.119857
  14 H :    0.119063
  15 H :    0.121380
  16 H :    0.121519
  17 H :    0.119044
  18 H :    0.128149
  19 H :    0.132011
  20 H :    0.124751

  Mayer bond orders larger than 0.100000
B(  0-C ,  1-C ) :   1.1520 B(  0-C ,  9-H ) :   0.9485 B(  0-C , 10-H ) :   0.9531
B(  0-C , 11-H ) :   0.9489 B(  1-C ,  2-C ) :   1.0963 B(  1-C , 12-H ) :   0.9052
B(  1-C , 13-H ) :   0.8939 B(  2-C ,  3-C ) :   1.3880 B(  2-C ,  7-C ) :   1.4148
B(  3-C ,  4-C ) :   1.3664 B(  3-C , 14-H ) :   0.9597 B(  4-C ,  5-C ) :   1.3688
B(  4-C , 15-H ) :   0.9655 B(  5-C ,  6-C ) :   1.3678 B(  5-C , 16-H ) :   0.9638
B(  6-C ,  7-C ) :   1.3975 B(  6-C , 17-H ) :   0.9563 B(  7-C ,  8-C ) :   1.1301
B(  8-C , 18-H ) :   0.9207 B(  8-C , 19-H ) :   0.9243 B(  8-C , 20-H ) :   0.9351

Dispersion correction           -0.021533469
FINAL SINGLE POINT ENERGY      -349.372120570343

DIPOLE MOMENT
-------------

Method             : SCF
Type of density    : Electron Density
Multiplicity       :   1
Irrep              :   0
Energy             :  -349.4311567074464620 Eh
Relativity type    :
Basis              : AO
                                X                 Y                 Z
Electronic contribution:      6.916757331      -1.594646406       0.962068910
Nuclear contribution   :     -7.142232628       1.686022721      -0.949032141
                        -----------------------------------------
Total Dipole Moment    :     -0.225475297       0.091376315       0.013036769
                        -----------------------------------------
Magnitude (a.u.)       :      0.243636405
Magnitude (Debye)      :      0.619274526

Rotational constants in cm-1:             0.083834             0.048703             0.033567
Rotational constants in MHz :          2513.280194          1460.066166          1006.311681

                             ****ORCA TERMINATED NORMALLY****
TOTAL RUN TIME: 0 days 0 hours 0 minutes 9 seconds 967 msec
