                         Program Version 6.0.0  -   RELEASE  -
|  1> ! wb97x-v def2-tzvp def2/J RIJCOSX DEFGRID2 scfconv7 GCP(DFT/TZ) printgap
|  2> %output
|  3>     printlevel normal
|  4> end
|  5> * xyz 0 1
|  6> C -2.326545947241557 0.0066901968531958775 0.00015047200959404086
|  7> C -1.6166815699310066 1.2056093071729947 -7.133369834601901e-05
|  8> C -0.22533637012630847 1.2044664453544511 -0.00011252376621426212
|  9> C 0.46761291362255664 -0.010473499501794175 4.021053500098618e-05
| 10> C -0.23841762141199466 -1.2171112284284222 0.00019687452206327798
| 11> C -1.6302404989716115 -1.2000509185862385 0.00026923176812552037
| 12> S 2.2513409460260556 0.04909280648506879 -9.391173221304996e-05
| 13> H -3.41151446403817 0.012732463922993455 0.00019627275319599068
| 14> H -2.146296805049438 2.153337651362147 -0.00011301370840087165
| 15> H 0.3164825759753707 2.1456641162237915 -0.00023025886091540434
| 16> H 0.29122263414501404 -2.1648043611966212 0.00029149611976526224
| 17> H -2.170781749247169 -2.141698957854112 0.00039878870638327193
| 18> H 2.4511939685569963 -1.2823652439927278 0.00014600168256823795
| 19> *
| 20>
| 21>                          ****END OF INPUT****

CARTESIAN COORDINATES (ANGSTROEM)
---------------------------------
  C     -2.326546    0.006690    0.000150
  C     -1.616682    1.205609   -0.000071
  C     -0.225336    1.204466   -0.000113
  C      0.467613   -0.010473    0.000040
  C     -0.238418   -1.217111    0.000197
  C     -1.630240   -1.200051    0.000269
  S      2.251341    0.049093   -0.000094
  H     -3.411514    0.012732    0.000196
  H     -2.146297    2.153338   -0.000113
  H      0.316483    2.145664   -0.000230
  H      0.291223   -2.164804    0.000291
  H     -2.170782   -2.141699    0.000399
  H      2.451194   -1.282365    0.000146

 Total Charge           Charge          ....    0
 Multiplicity           Mult            ....    1
 Number of Electrons    NEL             ....   58
 Basis Dimension        Dim             ....  259

ORBITAL ENERGIES
----------------

  NO   OCC          E(Eh)            E(eV)
   0   2.0000     -94.136984     -2561.5976
   1   2.0000     -12.096907      -329.1736
   2   2.0000     -12.062332      -328.2327
   3   2.0000     -12.061209      -328.2022
   4   2.0000     -12.060185      -328.1743
   5   2.0000     -12.059233      -328.1484
   6   2.0000     -12.054623      -328.0230
   7   2.0000      -9.648364      -262.5453
   8   2.0000      -7.626242      -207.5206
   9   2.0000      -7.624903      -207.4842
  10   2.0000      -7.624459      -207.4721
  11   2.0000      -1.395937       -37.9854
  12   2.0000      -1.307714       -35.5847
  13   2.0000      -1.282902       -34.9095
  14   2.0000      -1.221306       -33.2334
  15   2.0000      -1.117111       -30.3981
  16   2.0000      -1.097265       -29.8581
  17   2.0000      -0.969943       -26.3935
  18   2.0000      -0.963006       -26.2047
  19   2.0000      -0.920828       -25.0570
  20   2.0000      -0.884610       -24.0715
  21   2.0000      -0.880637       -23.9633
  22   2.0000      -0.830602       -22.6018
  23   2.0000      -0.817199       -22.2371
  24   2.0000      -0.789319       -21.4784
  25   2.0000      -0.777689       -21.1620
  26   2.0000      -0.699113       -19.0238
  27   2.0000      -0.647905       -17.6304
  28   2.0000      -0.618052       -16.8181
  29   0.0000      -0.250726        -6.8226
  30   0.0000      -0.244739        -6.6597
  31   0.0000      -0.207434        -5.6446
  32   0.0000      -0.124227        -3.3804
  33   0.0000      -0.078397        -2.1333

MULLIKEN ATOMIC CHARGES
-----------------------
   0 C :   -0.137886
   1 C :   -0.113179
   2 C :   -0.170035
   3 C :    0.148535
   4 C :   -0.206248
   5 C :   -0.115131
   6 S :   -0.145857
   7 H :    0.119935
   8 H :    0.121237
   9 H :    0.124227
  10 H :    0.116362
  11 H :    0.120652
  12 H :    0.137390
Sum of atomic charges:    0.0000000

LOEWDIN ATOMIC CHARGES
----------------------
   0 C :   -0.146515
   1 C :   -0.134846
   2 C :   -0.149558
   3 C :   -0.375491
   4 C :   -0.152103
   5 C :   -0.135487
   6 S :    0.338856
   7 H :    0.141664
   8 H :    0.143690
   9 H :    0.143554
  10 H :    0.139913
  11 H :    0.143459
  12 H :    0.042862

  Mayer bond orders larger than 0.100000
B(  0-C ,  1-C ) :   1.4255 B(  0-C ,  5-C ) :   1.4256 B(  0-C ,  7-H ) :   0.9711
B(  1-C ,  2-C ) :   1.4511 B(  1-C ,  8-H ) :   0.9712 B(  2-C ,  3-C ) :   1.3732
B(  2-C ,  9-H ) :   0.9650 B(  3-C ,  4-C ) :   1.3758 B(  3-C ,  6-S ) :   1.0990
B(  4-C ,  5-C ) :   1.4446 B(  4-C , 10-H ) :   0.9625 B(  5-C , 11-H ) :   0.9660
B(  6-S , 12-H ) :   0.9779

FINAL SINGLE POINT ENERGY      -630.397697000178

DIPOLE MOMENT
-------------

Method             : SCF
Type of density    : Electron Density
Multiplicity       :   1
Irrep              :   0
Energy             :  -630.4043493086783201 Eh
Relativity type    :
Basis              : AO
                                X                 Y                 Z
Electronic contribution:      4.118397645       0.893591895      -0.000391497
Nuclear contribution   :     -4.475366060      -1.207528350       0.000478381
                        -----------------------------------------
Total Dipole Moment    :     -0.356968415      -0.313936455       0.000086884
                        -----------------------------------------
Magnitude (a.u.)       :      0.475376224
Magnitude (Debye)      :      1.208310336

Rotational constants in cm-1:             0.186539             0.052335             0.040869
Rotational constants in MHz :          5592.307147          1568.967995          1225.221872

                             ****ORCA TERMINATED NORMALLY****
TOTAL RUN TIME: 0 days 0 hours 1 minutes 59 seconds 837 msec
