                         Program Version 6.0.0  -   RELEASE  -
|  1> ! wb97x-v def2-tzvp def2/J RIJCOSX DEFGRID2 scfconv7 GCP(DFT/TZ) printgap
|  2> %output
|  3>     printlevel normal
|  4> end
|  5> %cpcm
|  6>     smd true
|  7>     smdsolvent "water"
|  8> end
|  9> * xyz 0 1
| 10> C -2.326545947241557 0.0066901968531958775 0.00015047200959404086
| 11> C -1.6166815699310066 1.2056093071729947 -7.133369834601901e-05
| 12> C -0.22533637012630847 1.2044664453544511 -0.00011252376621426212
| 13> C 0.46761291362255664 -0.010473499501794175 4.021053500098618e-05
| 14> C -0.23841762141199466 -1.2171112284284222 0.00019687452206327798
| 15> C -1.6302404989716115 -1.2000509185862385 0.00026923176812552037
| 16> S 2.2513409460260556 0.04909280648506879 -9.391173221304996e-05
| 17> H -3.41151446403817 0.012732463922993455 0.00019627275319599068
| 18> H -2.146296805049438 2.153337651362147 -0.00011301370840087165
| 19> H 0.3164825759753707 2.1456641162237915 -0.00023025886091540434
| 20> H 0.29122263414501404 -2.1648043611966212 0.00029149611976526224
| 21> H -2.170781749247169 -2.141698957854112 0.00039878870638327193
| 22> H 2.4511939685569963 -1.2823652439927278 0.00014600168256823795
| 23> *
| 24>
| 25>                          ****END OF INPUT****

CARTESIAN COORDINATES (ANGSTROEM)
---------------------------------
  C     -2.326546    0.006690    0.000150
  C     -1.616682    1.205609   -0.000071
  C     -0.225336    1.204466   -0.000113
  C      0.467613   -0.010473    0.000040
  C     -0.238418   -1.217111    0.000197
  C     -1.630240   -1.200051    0.000269
  S      2.251341    0.049093   -0.000094
  H     -3.411514    0.012732    0.000196
  H     -2.146297    2.153338   -0.000113
  H      0.316483    2.145664   -0.000230
  H      0.291223   -2.164804    0.000291
  H     -2.170782   -2.141699    0.000399
  H      2.451194   -1.282365    0.000146

 Total Charge           Charge          ....    0
 Multiplicity           Mult            ....    1
 Number of Electrons    NEL             ....   58
 Basis Dimension        Dim             ....  259

ORBITAL ENERGIES
----------------

  NO   OCC          E(Eh)            E(eV)
   0   2.0000     -94.135235     -2561.5500
   1   2.0000     -12.094105      -329.0973
   2   2.0000     -12.056510      -328.0743
   3   2.0000     -12.055982      -328.0600
   4   2.0000     -12.054198      -328.0114
   5   2.0000     -12.053924      -328.0040
   6   2.0000     -12.049125      -327.8734
   7   2.0000      -9.646782      -262.5023
   8   2.0000      -7.624698      -207.4786
   9   2.0000      -7.623300      -207.4405
  10   2.0000      -7.623041      -207.4335
  11   2.0000      -1.392879       -37.9022
  12   2.0000      -1.304720       -35.5032
  13   2.0000      -1.278413       -34.7874
  14   2.0000      -1.218598       -33.1597
  15   2.0000      -1.111961       -30.2580
  16   2.0000      -1.092472       -29.7277
  17   2.0000      -0.963914       -26.2294
  18   2.0000      -0.958163       -26.0729
  19   2.0000      -0.913412       -24.8552
  20   2.0000      -0.877942       -23.8900
  21   2.0000      -0.875076       -23.8120
  22   2.0000      -0.824638       -22.4395
  23   2.0000      -0.809955       -22.0400
  24   2.0000      -0.787760       -21.4360
  25   2.0000      -0.775527       -21.1032
  26   2.0000      -0.698094       -18.9961
  27   2.0000      -0.644708       -17.5434
  28   2.0000      -0.616876       -16.7861
  29   0.0000      -0.248477        -6.7614
  30   0.0000      -0.241275        -6.5654
  31   0.0000      -0.205640        -5.5957
  32   0.0000      -0.113978        -3.1015
  33   0.0000      -0.074792        -2.0352

MULLIKEN ATOMIC CHARGES
-----------------------
   0 C :   -0.182871
   1 C :   -0.154969
   2 C :   -0.205361
   3 C :    0.117733
   4 C :   -0.244996
   5 C :   -0.148179
   6 S :   -0.191985
   7 H :    0.163020
   8 H :    0.164366
   9 H :    0.163658
  10 H :    0.169479
  11 H :    0.164982
  12 H :    0.185124
Sum of atomic charges:    0.0000000

LOEWDIN ATOMIC CHARGES
----------------------
   0 C :   -0.153804
   1 C :   -0.142405
   2 C :   -0.158265
   3 C :   -0.390002
   4 C :   -0.154891
   5 C :   -0.141894
   6 S :    0.315790
   7 H :    0.151165
   8 H :    0.153606
   9 H :    0.152573
  10 H :    0.153407
  11 H :    0.153690
  12 H :    0.061029

  Mayer bond orders larger than 0.100000
B(  0-C ,  1-C ) :   1.4026 B(  0-C ,  5-C ) :   1.3994 B(  0-C ,  7-H ) :   0.9736
B(  1-C ,  2-C ) :   1.4337 B(  1-C ,  8-H ) :   0.9730 B(  2-C ,  3-C ) :   1.3369
B(  2-C ,  9-H ) :   0.9709 B(  3-C ,  4-C ) :   1.3601 B(  3-C ,  6-S ) :   1.1215
B(  4-C ,  5-C ) :   1.4165 B(  4-C , 10-H ) :   0.9665 B(  5-C , 11-H ) :   0.9682
B(  6-S , 12-H ) :   0.9649

FINAL SINGLE POINT ENERGY      -630.402102547597

DIPOLE MOMENT
-------------

Method             : SCF
Type of density    : Electron Density
Multiplicity       :   1
Irrep              :   0
Energy             :  -630.4087548560967207 Eh
Relativity type    :
Basis              : AO
                                X                 Y                 Z
Electronic contribution:      4.000014645       0.744590839      -0.000353995
Nuclear contribution   :     -4.475366060      -1.207528350       0.000478381
                        -----------------------------------------
Total Dipole Moment    :     -0.475351414      -0.462937510       0.000124387
                        -----------------------------------------
Magnitude (a.u.)       :      0.663528538
Magnitude (Debye)      :      1.686555511

Rotational constants in cm-1:             0.186539             0.052335             0.040869
Rotational constants in MHz :          5592.307147          1568.967995          1225.221872

                             ****ORCA TERMINATED NORMALLY****
TOTAL RUN TIME: 0 days 0 hours 2 minutes 0 seconds 841 msec
