                         Program Version 6.0.0  -   RELEASE  -
|  1> ! pbe def2-sv(p) def2/J RI DEFGRID1 loosescf d4 GCP(DFT/SV(P)) printgap
|  2> %output
|  3>     printlevel normal
|  4> end
|  5> * xyz 0 1
|  6> C -2.0789007562 -1.3716504414 -0.1087515308
|  7> C -1.0170865713 -0.5018049794 0.5866249112
|  8> H -1.4510067778 -0.1300867242 1.5238091175
|  9> C -0.6206180367 0.6964423347 -0.2969478305
| 10> H -0.4889008337 0.3570056185 -1.3323839261
| 11> C 0.719775603 1.2394550644 0.2269255474
| 12> H 0.6508903977 1.3633201757 1.315732694
| 13> C 1.7999296124 0.1910118001 -0.0909517332
| 14> H 2.0915199315 0.2750528864 -1.1436951685
| 15> C 1.2194991599 -1.2364027807 0.101100248
| 16> H 1.9776137277 -1.8490302138 0.608557183
| 17> O 0.1209449644 -1.2647931095 0.9813990609
| 18> O 0.9069527004 -1.7482036963 -1.1556929495
| 19> O 2.9819423597 0.3813276733 0.6358388438
| 20> O 1.0211485595 2.5179689755 -0.25828482
| 21> O -1.6380428402 1.663345601 -0.338558797
| 22> O -3.3301789887 -0.7328304158 -0.1436096428
| 23> H -2.2186603009 -2.2925766921 0.4622035621
| 24> H -1.7413630279 -1.6243667618 -1.1228314822
| 25> H 0.774041109 -2.7071143315 -1.1083667228
| 26> H 2.7889498944 0.4355046196 1.583291292
| 27> H 1.1197871061 2.4975079848 -1.2208345097
| 28> H -1.5507039515 2.2709648911 0.4102017704
| 29> H -3.2178356386 0.1513630502 -0.5295361881
| 30> *
| 31>
| 32>                          ****END OF INPUT****

CARTESIAN COORDINATES (ANGSTROEM)
---------------------------------
  C     -2.078901   -1.371650   -0.108752
  C     -1.017087   -0.501805    0.586625
  H     -1.451007   -0.130087    1.523809
  C     -0.620618    0.696442   -0.296948
  H     -0.488901    0.357006   -1.332384
  C      0.719776    1.239455    0.226926
  H      0.650890    1.363320    1.315733
  C      1.799930    0.191012   -0.090952
  H      2.091520    0.275053   -1.143695
  C      1.219499   -1.236403    0.101100
  H      1.977614   -1.849030    0.608557
  O      0.120945   -1.264793    0.981399
  O      0.906953   -1.748204   -1.155693
  O      2.981942    0.381328    0.635839
  O      1.021149    2.517969   -0.258285
  O     -1.638043    1.663346   -0.338559
  O     -3.330179   -0.732830   -0.143610
  H     -2.218660   -2.292577    0.462204
  H     -1.741363   -1.624367   -1.122831
  H      0.774041   -2.707114   -1.108367
  H      2.788950    0.435505    1.583291
  H      1.119787    2.497508   -1.220835
  H     -1.550704    2.270965    0.410202
  H     -3.217836    0.151363   -0.529536

 Total Charge           Charge          ....    0
 Multiplicity           Mult            ....    1
 Number of Electrons    NEL             ....   96
 Basis Dimension        Dim             ....  192

ORBITAL ENERGIES
----------------

  NO   OCC          E(Eh)            E(eV)
   0   2.0000     -18.775530      -510.9081
   1   2.0000     -18.774428      -510.8782
   2   2.0000     -18.770296      -510.7657
   3   2.0000     -18.761044      -510.5140
   4   2.0000     -18.758141      -510.4350
   5   2.0000     -18.735453      -509.8176
   6   2.0000      -9.991779      -271.8901
   7   2.0000      -9.954409      -270.8732
   8   2.0000      -9.950603      -270.7697
   9   2.0000      -9.949619      -270.7429
  10   2.0000      -9.943475      -270.5757
  11   2.0000      -9.923743      -270.0388
  12   2.0000      -0.988397       -26.8957
  13   2.0000      -0.956560       -26.0293
  14   2.0000      -0.940803       -25.6006
  15   2.0000      -0.927250       -25.2317
  16   2.0000      -0.921331       -25.0707
  17   2.0000      -0.910026       -24.7631
  18   2.0000      -0.711159       -19.3516
  19   2.0000      -0.694161       -18.8891
  20   2.0000      -0.619075       -16.8459
  21   2.0000      -0.596432       -16.2297
  22   2.0000      -0.573985       -15.6189
  23   2.0000      -0.539977       -14.6935
  24   2.0000      -0.512816       -13.9544
  25   2.0000      -0.502061       -13.6618
  26   2.0000      -0.474165       -12.9027
  27   2.0000      -0.459407       -12.5011
  28   2.0000      -0.444831       -12.1045
  29   2.0000      -0.435063       -11.8387
  30   2.0000      -0.422277       -11.4907
  31   2.0000      -0.399267       -10.8646
  32   2.0000      -0.388849       -10.5811
  33   2.0000      -0.370788       -10.0896
  34   2.0000      -0.362179        -9.8554
  35   2.0000      -0.358533        -9.7562
  36   2.0000      -0.339756        -9.2452
  37   2.0000      -0.327069        -8.9000
  38   2.0000      -0.300977        -8.1900
  39   2.0000      -0.297807        -8.1037
  40   2.0000      -0.286980        -7.8091
  41   2.0000      -0.280204        -7.6247
  42   2.0000      -0.266557        -7.2534
  43   2.0000      -0.247542        -6.7360
  44   2.0000      -0.242328        -6.5941
  45   2.0000      -0.224285        -6.1031
  46   2.0000      -0.216291        -5.8856
  47   2.0000      -0.199333        -5.4241
  48   0.0000       0.011914         0.3242
  49   0.0000       0.017949         0.4884
  50   0.0000       0.022601         0.6150
  51   0.0000       0.032124         0.8741
  52   0.0000       0.049871         1.3571

MULLIKEN ATOMIC CHARGES
-----------------------
   0 C :    0.078061
   1 C :    0.055333
   2 H :    0.060994
   3 C :   -0.029058
   4 H :    0.076560
   5 C :    0.053935
   6 H :    0.045213
   7 C :    0.080995
   8 H :    0.069207
   9 C :    0.147221
  10 H :    0.067490
  11 O :   -0.317446
  12 O :   -0.392049
  13 O :   -0.408092
  14 O :   -0.401310
  15 O :   -0.408803
  16 O :   -0.447889
  17 H :    0.081967
  18 H :    0.063015
  19 H :    0.310389
  20 H :    0.301150
  21 H :    0.303359
  22 H :    0.309611
  23 H :    0.300146
Sum of atomic charges:   -0.0000000

LOEWDIN ATOMIC CHARGES
----------------------
   0 C :   -0.131213
   1 C :   -0.077035
   2 H :    0.112138
   3 C :   -0.093399
   4 H :    0.116105
   5 C :   -0.083610
   6 H :    0.110786
   7 C :   -0.082819
   8 H :    0.121072
   9 C :   -0.013357
  10 H :    0.101383
  11 O :   -0.151152
  12 O :   -0.305608
  13 O :   -0.305331
  14 O :   -0.305852
  15 O :   -0.303004
  16 O :   -0.342011
  17 H :    0.110543
  18 H :    0.092913
  19 H :    0.290446
  20 H :    0.285807
  21 H :    0.289035
  22 H :    0.290816
  23 H :    0.273350

  Mayer bond orders larger than 0.100000
B(  0-C ,  1-C ) :   1.0541 B(  0-C , 16-O ) :   1.0822 B(  0-C , 17-H ) :   0.9195
B(  0-C , 18-H ) :   0.9061 B(  1-C ,  2-H ) :   0.8802 B(  1-C ,  3-C ) :   0.9533
B(  1-C , 11-O ) :   0.9545 B(  3-C ,  4-H ) :   0.8780 B(  3-C ,  5-C ) :   1.0057
B(  3-C , 15-O ) :   1.0426 B(  5-C ,  6-H ) :   0.8467 B(  5-C ,  7-C ) :   1.0171
B(  5-C , 14-O ) :   1.0859 B(  7-C ,  8-H ) :   0.8695 B(  7-C ,  9-C ) :   0.9590
B(  7-C , 13-O ) :   1.0653 B(  9-C , 10-H ) :   0.8986 B(  9-C , 11-O ) :   1.0781
B(  9-C , 12-O ) :   1.1025 B( 12-O , 19-H ) :   0.8338 B( 13-O , 20-H ) :   0.8481
B( 14-O , 21-H ) :   0.8478 B( 15-O , 22-H ) :   0.8375 B( 16-O , 23-H ) :   0.8248

Dispersion correction           -0.024671841
FINAL SINGLE POINT ENERGY      -685.689203576388

DIPOLE MOMENT
-------------

Method             : SCF
Type of density    : Electron Density
Multiplicity       :   1
Irrep              :   0
Energy             :  -685.8198626973039609 Eh
Relativity type    :
Basis              : AO
                                X                 Y                 Z
Electronic contribution:      1.676878534       1.050887086       0.607588609
Nuclear contribution   :     -1.186482381      -1.162915622      -0.523739636
                        -----------------------------------------
Total Dipole Moment    :      0.490396153      -0.112028536       0.083848974
                        -----------------------------------------
Magnitude (a.u.)       :      0.509970029
Magnitude (Debye)      :      1.296240799

Rotational constants in cm-1:             0.044058             0.025968             0.018718
Rotational constants in MHz :          1320.811489           778.507645           561.144487

                             ****ORCA TERMINATED NORMALLY****
TOTAL RUN TIME: 0 days 0 hours 0 minutes 12 seconds 292 msec
