                         Program Version 6.0.0  -   RELEASE  -
|  1> ! r2scan-3c def2/J RI DEFGRID2 scfconv6 printgap
|  2> %output
|  3>     printlevel normal
|  4> end
|  5> * xyz 0 1
|  6> C -3.432535271 0.5808181748 0.026233127
|  7> C -1.9376940185 0.4999993039 0.0645066869
|  8> C -1.1446133336 1.4896911442 -0.3213413768
|  9> C 0.3507179144 1.436247952 -0.3201191247
| 10> C 0.8578044583 -0.0045516466 -0.1983735923
| 11> H 0.5957164164 -0.5321736621 -1.1218532444
| 12> C 0.0946043073 -0.68341366 0.9409120615
| 13> C -1.3793144309 -0.8194239293 0.5503000455
| 14> H -1.9599645292 -1.1412935836 1.4319457436
| 15> O -1.5698566283 -1.7688931255 -0.4925334456
| 16> C 2.3569696505 -0.0446660699 -0.0182632797
| 17> C 2.9502642239 0.331129416 1.1041115055
| 18> C 3.1323824846 -0.5220878846 -1.2075948031
| 19> H -3.8412870007 0.4983167748 1.03290143
| 20> H -3.823676508 -0.2471914802 -0.563197114
| 21> H -3.7608129436 1.5183696967 -0.4129116944
| 22> H -1.5801247891 2.4222108113 -0.6553501657
| 23> H 0.731636249 1.8920681281 -1.237083199
| 24> H 0.7314533964 2.0306723344 0.5168968734
| 25> H 0.5193375705 -1.6683644734 1.146434807
| 26> H 0.159837606 -0.0860379907 1.8503429235
| 27> H -1.2578962842 -2.6326051188 -0.1915375228
| 28> H 4.0213657837 0.3079146882 1.2130338513
| 29> H 2.3976148704 0.6772103587 1.9604947372
| 30> H 2.8979346073 0.0915520326 -2.076299589
| 31> H 4.20232804 -0.4789343703 -1.0233666033
| 32> H 2.8570999432 -1.549011601 -1.4448529297
| 33> *
| 34>
| 35>                          ****END OF INPUT****

CARTESIAN COORDINATES (ANGSTROEM)
---------------------------------
  C     -3.432535    0.580818    0.026233
  C     -1.937694    0.499999    0.064507
  C     -1.144613    1.489691   -0.321341
  C      0.350718    1.436248   -0.320119
  C      0.857804   -0.004552   -0.198374
  H      0.595716   -0.532174   -1.121853
  C      0.094604   -0.683414    0.940912
  C     -1.379314   -0.819424    0.550300
  H     -1.959965   -1.141294    1.431946
  O     -1.569857   -1.768893   -0.492533
  C      2.356970   -0.044666   -0.018263
  C      2.950264    0.331129    1.104112
  C      3.132382   -0.522088   -1.207595
  H     -3.841287    0.498317    1.032901
  H     -3.823677   -0.247191   -0.563197
  H     -3.760813    1.518370   -0.412912
  H     -1.580125    2.422211   -0.655350
  H      0.731636    1.892068   -1.237083
  H      0.731453    2.030672    0.516897
  H      0.519338   -1.668364    1.146435
  H      0.159838   -0.086038    1.850343
  H     -1.257896   -2.632605   -0.191538
  H      4.021366    0.307915    1.213034
  H      2.397615    0.677210    1.960495
  H      2.897935    0.091552   -2.076300
  H      4.202328   -0.478934   -1.023367
  H      2.857100   -1.549012   -1.444853

 Total Charge           Charge          ....    0
 Multiplicity           Mult            ....    1
 Number of Electrons    NEL             ....   84
 Basis Dimension        Dim             ....  294

ORBITAL ENERGIES
----------------

  NO   OCC          E(Eh)            E(eV)
   0   2.0000     -18.948418      -515.6127
   1   2.0000     -10.082787      -274.3666
   2   2.0000     -10.036233      -273.0998
   3   2.0000     -10.033453      -273.0241
   4   2.0000     -10.029979      -272.9296
   5   2.0000     -10.029737      -272.9230
   6   2.0000     -10.027116      -272.8517
   7   2.0000     -10.023253      -272.7466
   8   2.0000     -10.022529      -272.7269
   9   2.0000     -10.017739      -272.5965
  10   2.0000     -10.008652      -272.3493
  11   2.0000      -0.986000       -26.8304
  12   2.0000      -0.811729       -22.0883
  13   2.0000      -0.769640       -20.9430
  14   2.0000      -0.719806       -19.5869
  15   2.0000      -0.702546       -19.1172
  16   2.0000      -0.652854       -17.7651
  17   2.0000      -0.641596       -17.4587
  18   2.0000      -0.589581       -16.0433
  19   2.0000      -0.572312       -15.5734
  20   2.0000      -0.499023       -13.5791
  21   2.0000      -0.485450       -13.2098
  22   2.0000      -0.462173       -12.5764
  23   2.0000      -0.446967       -12.1626
  24   2.0000      -0.422328       -11.4921
  25   2.0000      -0.412024       -11.2117
  26   2.0000      -0.396691       -10.7945
  27   2.0000      -0.392142       -10.6707
  28   2.0000      -0.383946       -10.4477
  29   2.0000      -0.378422       -10.2974
  30   2.0000      -0.369802       -10.0628
  31   2.0000      -0.368471       -10.0266
  32   2.0000      -0.338564        -9.2128
  33   2.0000      -0.337903        -9.1948
  34   2.0000      -0.325282        -8.8514
  35   2.0000      -0.317589        -8.6420
  36   2.0000      -0.299119        -8.1394
  37   2.0000      -0.288204        -7.8424
  38   2.0000      -0.271596        -7.3905
  39   2.0000      -0.238315        -6.4849
  40   2.0000      -0.220412        -5.9977
  41   2.0000      -0.216777        -5.8988
  42   0.0000      -0.015565        -0.4236
  43   0.0000      -0.000102        -0.0028
  44   0.0000       0.062927         1.7123
  45   0.0000       0.088128         2.3981
  46   0.0000       0.094025         2.5585

MULLIKEN ATOMIC CHARGES
-----------------------
   0 C :   -0.547672
   1 C :    0.080882
   2 C :   -0.193468
   3 C :   -0.338879
   4 C :   -0.060089
   5 H :    0.197566
   6 C :   -0.381028
   7 C :    0.043410
   8 H :    0.138701
   9 O :   -0.422893
  10 C :    0.094377
  11 C :   -0.398665
  12 C :   -0.523426
  13 H :    0.152276
  14 H :    0.175450
  15 H :    0.148219
  16 H :    0.150274
  17 H :    0.147962
  18 H :    0.176764
  19 H :    0.165679
  20 H :    0.161718
  21 H :    0.284854
  22 H :    0.144488
  23 H :    0.139362
  24 H :    0.156062
  25 H :    0.147772
  26 H :    0.160305
Sum of atomic charges:    0.0000000

LOEWDIN ATOMIC CHARGES
----------------------
   0 C :   -0.386415
   1 C :   -0.094260
   2 C :   -0.177553
   3 C :   -0.260262
   4 C :   -0.199403
   5 H :    0.181165
   6 C :   -0.251627
   7 C :    0.077721
   8 H :    0.171622
   9 O :   -0.607355
  10 C :   -0.118090
  11 C :   -0.329389
  12 C :   -0.391519
  13 H :    0.159107
  14 H :    0.170167
  15 H :    0.157406
  16 H :    0.164032
  17 H :    0.166109
  18 H :    0.171937
  19 H :    0.164717
  20 H :    0.169414
  21 H :    0.267662
  22 H :    0.157089
  23 H :    0.157282
  24 H :    0.161782
  25 H :    0.157097
  26 H :    0.161562

  Mayer bond orders larger than 0.100000
B(  0-C ,  1-C ) :   0.8209 B(  0-C , 13-H ) :   0.9721 B(  0-C , 14-H ) :   0.9701
B(  0-C , 15-H ) :   0.9972 B(  1-C ,  2-C ) :   1.8699 B(  1-C ,  7-C ) :   0.9458
B(  2-C ,  3-C ) :   0.9421 B(  2-C , 16-H ) :   0.9240 B(  3-C ,  4-C ) :   0.9573
B(  3-C , 17-H ) :   0.9604 B(  3-C , 18-H ) :   0.9807 B(  4-C ,  5-H ) :   1.0026
B(  4-C ,  6-C ) :   0.8531 B(  4-C , 10-C ) :   0.8267 B(  6-C ,  7-C ) :   0.9434
B(  6-C , 19-H ) :   0.9895 B(  6-C , 20-H ) :   0.9786 B(  7-C ,  8-H ) :   0.9779
B(  7-C ,  9-O ) :   0.9406 B(  9-O , 21-H ) :   0.9025 B( 10-C , 11-C ) :   1.8464
B( 10-C , 12-C ) :   0.9035 B( 11-C , 22-H ) :   0.9685 B( 11-C , 23-H ) :   0.9907
B( 12-C , 24-H ) :   0.9669 B( 12-C , 25-H ) :   0.9881 B( 12-C , 26-H ) :   0.9764

Dispersion correction           -0.009549601
FINAL SINGLE POINT ENERGY      -465.756491545599

DIPOLE MOMENT
-------------

Method             : SCF
Type of density    : Electron Density
Multiplicity       :   1
Irrep              :   0
Energy             :  -465.7584340475310682 Eh
Relativity type    :
Basis              : AO
                                X                 Y                 Z
Electronic contribution:     -2.571624336      -1.191769488      -0.127906521
Nuclear contribution   :      2.688549916       1.008288116       0.391978422
                        -----------------------------------------
Total Dipole Moment    :      0.116925580      -0.183481373       0.264071901
                        -----------------------------------------
Magnitude (a.u.)       :      0.342156360
Magnitude (Debye)      :      0.869692350

Rotational constants in cm-1:             0.071566             0.022398             0.020254
Rotational constants in MHz :          2145.506910           671.488073           607.190499

                             ****ORCA TERMINATED NORMALLY****
TOTAL RUN TIME: 0 days 0 hours 0 minutes 43 seconds 467 msec
