                         Program Version 6.0.0  -   RELEASE  -
|  1> ! r2scan-3c def2/J RI DEFGRID2 scfconv6 printgap
|  2> %output
|  3>     printlevel normal
|  4> end
|  5> %cpcm
|  6>     smd true
|  7>     smdsolvent "water"
|  8> end
|  9> * xyz 0 1
| 10> C -3.432535271 0.5808181748 0.026233127
| 11> C -1.9376940185 0.4999993039 0.0645066869
| 12> C -1.1446133336 1.4896911442 -0.3213413768
| 13> C 0.3507179144 1.436247952 -0.3201191247
| 14> C 0.8578044583 -0.0045516466 -0.1983735923
| 15> H 0.5957164164 -0.5321736621 -1.1218532444
| 16> C 0.0946043073 -0.68341366 0.9409120615
| 17> C -1.3793144309 -0.8194239293 0.5503000455
| 18> H -1.9599645292 -1.1412935836 1.4319457436
| 19> O -1.5698566283 -1.7688931255 -0.4925334456
| 20> C 2.3569696505 -0.0446660699 -0.0182632797
| 21> C 2.9502642239 0.331129416 1.1041115055
| 22> C 3.1323824846 -0.5220878846 -1.2075948031
| 23> H -3.8412870007 0.4983167748 1.03290143
| 24> H -3.823676508 -0.2471914802 -0.563197114
| 25> H -3.7608129436 1.5183696967 -0.4129116944
| 26> H -1.5801247891 2.4222108113 -0.6553501657
| 27> H 0.731636249 1.8920681281 -1.237083199
| 28> H 0.7314533964 2.0306723344 0.5168968734
| 29> H 0.5193375705 -1.6683644734 1.146434807
| 30> H 0.159837606 -0.0860379907 1.8503429235
| 31> H -1.2578962842 -2.6326051188 -0.1915375228
| 32> H 4.0213657837 0.3079146882 1.2130338513
| 33> H 2.3976148704 0.6772103587 1.9604947372
| 34> H 2.8979346073 0.0915520326 -2.076299589
| 35> H 4.20232804 -0.4789343703 -1.0233666033
| 36> H 2.8570999432 -1.549011601 -1.4448529297
| 37> *
| 38>
| 39>                          ****END OF INPUT****

CARTESIAN COORDINATES (ANGSTROEM)
---------------------------------
  C     -3.432535    0.580818    0.026233
  C     -1.937694    0.499999    0.064507
  C     -1.144613    1.489691   -0.321341
  C      0.350718    1.436248   -0.320119
  C      0.857804   -0.004552   -0.198374
  H      0.595716   -0.532174   -1.121853
  C      0.094604   -0.683414    0.940912
  C     -1.379314   -0.819424    0.550300
  H     -1.959965   -1.141294    1.431946
  O     -1.569857   -1.768893   -0.492533
  C      2.356970   -0.044666   -0.018263
  C      2.950264    0.331129    1.104112
  C      3.132382   -0.522088   -1.207595
  H     -3.841287    0.498317    1.032901
  H     -3.823677   -0.247191   -0.563197
  H     -3.760813    1.518370   -0.412912
  H     -1.580125    2.422211   -0.655350
  H      0.731636    1.892068   -1.237083
  H      0.731453    2.030672    0.516897
  H      0.519338   -1.668364    1.146435
  H      0.159838   -0.086038    1.850343
  H     -1.257896   -2.632605   -0.191538
  H      4.021366    0.307915    1.213034
  H      2.397615    0.677210    1.960495
  H      2.897935    0.091552   -2.076300
  H      4.202328   -0.478934   -1.023367
  H      2.857100   -1.549012   -1.444853

 Total Charge           Charge          ....    0
 Multiplicity           Mult            ....    1
 Number of Electrons    NEL             ....   84
 Basis Dimension        Dim             ....  294

ORBITAL ENERGIES
----------------

  NO   OCC          E(Eh)            E(eV)
   0   2.0000     -18.950569      -515.6712
   1   2.0000     -10.078272      -274.2437
   2   2.0000     -10.035041      -273.0673
   3   2.0000     -10.028940      -272.9013
   4   2.0000     -10.028925      -272.9009
   5   2.0000     -10.024660      -272.7849
   6   2.0000     -10.020890      -272.6823
   7   2.0000     -10.018765      -272.6244
   8   2.0000     -10.015108      -272.5249
   9   2.0000     -10.014638      -272.5122
  10   2.0000     -10.005136      -272.2536
  11   2.0000      -0.987140       -26.8614
  12   2.0000      -0.808402       -21.9977
  13   2.0000      -0.767564       -20.8865
  14   2.0000      -0.716301       -19.4915
  15   2.0000      -0.697716       -18.9858
  16   2.0000      -0.647874       -17.6295
  17   2.0000      -0.639018       -17.3886
  18   2.0000      -0.585901       -15.9432
  19   2.0000      -0.567645       -15.4464
  20   2.0000      -0.494854       -13.4657
  21   2.0000      -0.482612       -13.1326
  22   2.0000      -0.458377       -12.4731
  23   2.0000      -0.442949       -12.0533
  24   2.0000      -0.417160       -11.3515
  25   2.0000      -0.409551       -11.1444
  26   2.0000      -0.391768       -10.6605
  27   2.0000      -0.387030       -10.5316
  28   2.0000      -0.380134       -10.3440
  29   2.0000      -0.373761       -10.1706
  30   2.0000      -0.365934        -9.9576
  31   2.0000      -0.364295        -9.9130
  32   2.0000      -0.335240        -9.1223
  33   2.0000      -0.332777        -9.0553
  34   2.0000      -0.322723        -8.7817
  35   2.0000      -0.315074        -8.5736
  36   2.0000      -0.294798        -8.0219
  37   2.0000      -0.284897        -7.7524
  38   2.0000      -0.268394        -7.3034
  39   2.0000      -0.240388        -6.5413
  40   2.0000      -0.220901        -6.0110
  41   2.0000      -0.217211        -5.9106
  42   0.0000      -0.014700        -0.4000
  43   0.0000       0.000678         0.0185
  44   0.0000       0.074907         2.0383
  45   0.0000       0.097012         2.6398
  46   0.0000       0.104396         2.8408

MULLIKEN ATOMIC CHARGES
-----------------------
   0 C :   -0.568217
   1 C :    0.021735
   2 C :   -0.228773
   3 C :   -0.357137
   4 C :   -0.008364
   5 H :    0.194147
   6 C :   -0.400915
   7 C :    0.071323
   8 H :    0.159715
   9 O :   -0.505421
  10 C :    0.052847
  11 C :   -0.472997
  12 C :   -0.557390
  13 H :    0.173920
  14 H :    0.172964
  15 H :    0.167385
  16 H :    0.174801
  17 H :    0.169457
  18 H :    0.189282
  19 H :    0.180170
  20 H :    0.180205
  21 H :    0.341177
  22 H :    0.168138
  23 H :    0.166373
  24 H :    0.174044
  25 H :    0.163408
  26 H :    0.178124
Sum of atomic charges:    0.0000000

LOEWDIN ATOMIC CHARGES
----------------------
   0 C :   -0.394158
   1 C :   -0.109529
   2 C :   -0.185463
   3 C :   -0.263927
   4 C :   -0.199300
   5 H :    0.178630
   6 C :   -0.251723
   7 C :    0.080673
   8 H :    0.181870
   9 O :   -0.640107
  10 C :   -0.117132
  11 C :   -0.356889
  12 C :   -0.398769
  13 H :    0.166694
  14 H :    0.168037
  15 H :    0.162955
  16 H :    0.172005
  17 H :    0.171680
  18 H :    0.176040
  19 H :    0.171581
  20 H :    0.175223
  21 H :    0.287050
  22 H :    0.162725
  23 H :    0.164535
  24 H :    0.168158
  25 H :    0.161058
  26 H :    0.168082

  Mayer bond orders larger than 0.100000
B(  0-C ,  1-C ) :   0.8346 B(  0-C , 13-H ) :   0.9661 B(  0-C , 14-H ) :   0.9671
B(  0-C , 15-H ) :   0.9914 B(  1-C ,  2-C ) :   1.8644 B(  1-C ,  7-C ) :   0.9258
B(  2-C ,  3-C ) :   0.9259 B(  2-C , 16-H ) :   0.9321 B(  3-C ,  4-C ) :   0.9288
B(  3-C , 17-H ) :   0.9602 B(  3-C , 18-H ) :   0.9769 B(  4-C ,  5-H ) :   1.0020
B(  4-C ,  6-C ) :   0.8324 B(  4-C , 10-C ) :   0.8058 B(  6-C ,  7-C ) :   0.9462
B(  6-C , 19-H ) :   0.9776 B(  6-C , 20-H ) :   0.9782 B(  7-C ,  8-H ) :   0.9692
B(  7-C ,  9-O ) :   0.9234 B(  9-O , 21-H ) :   0.8762 B( 10-C , 11-C ) :   1.8361
B( 10-C , 12-C ) :   0.9073 B( 11-C , 22-H ) :   0.9694 B( 11-C , 23-H ) :   0.9868
B( 12-C , 24-H ) :   0.9609 B( 12-C , 25-H ) :   0.9836 B( 12-C , 26-H ) :   0.9693

Dispersion correction           -0.009549601
FINAL SINGLE POINT ENERGY      -465.763775326727

DIPOLE MOMENT
-------------

Method             : SCF
Type of density    : Electron Density
Multiplicity       :   1
Irrep              :   0
Energy             :  -465.7657178286592057 Eh
Relativity type    :
Basis              : AO
                                X                 Y                 Z
Electronic contribution:     -2.511844181      -1.259206736       0.076401323
Nuclear contribution   :      2.688549916       1.008288116       0.391978422
                        -----------------------------------------
Total Dipole Moment    :      0.176705735      -0.250918621       0.468379745
                        -----------------------------------------
Magnitude (a.u.)       :      0.559968442
Magnitude (Debye)      :      1.423326666

Rotational constants in cm-1:             0.071566             0.022398             0.020254
Rotational constants in MHz :          2145.506910           671.488073           607.190499

                             ****ORCA TERMINATED NORMALLY****
TOTAL RUN TIME: 0 days 0 hours 0 minutes 53 seconds 646 msec
