                         Program Version 6.0.0  -   RELEASE  -
|  1> ! wb97x-v def2-tzvp def2/J RIJCOSX DEFGRID2 scfconv7 GCP(DFT/TZ) printgap
|  2> %output
|  3>     printlevel normal
|  4> end
|  5> * xyz 0 1
|  6> C -2.184024506047993 -0.07154266049923809 -0.2154098412016288
|  7> C -0.7944791317992999 0.012943382823283006 0.40242763157168465
|  8> C 0.09738265137726002 -1.2298122274059198 0.11126328192104584
|  9> C 1.48060391101131 -0.682724823971468 -0.3145949753203256
| 10> C 1.4812645102818829 0.7773031575183779 0.1584635348622441
| 11> C 0.03656463871621062 1.20756929405509 -0.09830791996203252
| 12> H -2.745170823243677 -0.9271279923923869 0.17667707103551963
| 13> H -2.767845818025457 0.8329858223723322 -0.009755195804521038
| 14> H -2.113420074042537 -0.18671117933632758 -1.3036622340798705
| 15> H -0.9022276078865528 0.11496402259503939 1.4901209617892333
| 16> H 0.17907047742434448 -1.8598323782789088 1.002720031521751
| 17> H -0.3443238802582299 -1.8485727573600335 -0.6774069377522915
| 18> H 2.3124042716216646 -1.2659996136009284 0.09183979518554476
| 19> H 1.5703598059092267 -0.7029031858155377 -1.4068828886698805
| 20> H 1.6968280483288787 0.8269797665365745 1.2337001803089733
| 21> H 2.2211308315402234 1.394944583457042 -0.36086193696552576
| 22> H -0.23908575277442376 2.1458170468124713 0.3945966386971988
| 23> H -0.12039218606819603 1.3370389132024494 -1.178439961284023
| 24> *
| 25>
| 26>                          ****END OF INPUT****

CARTESIAN COORDINATES (ANGSTROEM)
---------------------------------
  C     -2.184025   -0.071543   -0.215410
  C     -0.794479    0.012943    0.402428
  C      0.097383   -1.229812    0.111263
  C      1.480604   -0.682725   -0.314595
  C      1.481265    0.777303    0.158464
  C      0.036565    1.207569   -0.098308
  H     -2.745171   -0.927128    0.176677
  H     -2.767846    0.832986   -0.009755
  H     -2.113420   -0.186711   -1.303662
  H     -0.902228    0.114964    1.490121
  H      0.179070   -1.859832    1.002720
  H     -0.344324   -1.848573   -0.677407
  H      2.312404   -1.266000    0.091840
  H      1.570360   -0.702903   -1.406883
  H      1.696828    0.826980    1.233700
  H      2.221131    1.394945   -0.360862
  H     -0.239086    2.145817    0.394597
  H     -0.120392    1.337039   -1.178440

 Total Charge           Charge          ....    0
 Multiplicity           Mult            ....    1
 Number of Electrons    NEL             ....   48
 Basis Dimension        Dim             ....  258

ORBITAL ENERGIES
----------------

  NO   OCC          E(Eh)            E(eV)
   0   2.0000     -12.041912      -327.6771
   1   2.0000     -12.035415      -327.5003
   2   2.0000     -12.034616      -327.4785
   3   2.0000     -12.032977      -327.4339
   4   2.0000     -12.032816      -327.4296
   5   2.0000     -12.030072      -327.3549
   6   2.0000      -1.344003       -36.5722
   7   2.0000      -1.244735       -33.8710
   8   2.0000      -1.204543       -32.7773
   9   2.0000      -1.142851       -31.0986
  10   2.0000      -1.039461       -28.2852
  11   2.0000      -1.016888       -27.6709
  12   2.0000      -0.912517       -24.8309
  13   2.0000      -0.898795       -24.4575
  14   2.0000      -0.857401       -23.3311
  15   2.0000      -0.840198       -22.8630
  16   2.0000      -0.829811       -22.5803
  17   2.0000      -0.806518       -21.9465
  18   2.0000      -0.781267       -21.2594
  19   2.0000      -0.779603       -21.2141
  20   2.0000      -0.776242       -21.1226
  21   2.0000      -0.756144       -20.5757
  22   2.0000      -0.743138       -20.2218
  23   2.0000      -0.735856       -20.0237
  24   0.0000      -0.046775        -1.2728
  25   0.0000      -0.043540        -1.1848
  26   0.0000      -0.027872        -0.7584
  27   0.0000      -0.024876        -0.6769
  28   0.0000       0.006427         0.1749

MULLIKEN ATOMIC CHARGES
-----------------------
   0 C :   -0.360796
   1 C :   -0.013546
   2 C :   -0.207720
   3 C :   -0.188859
   4 C :   -0.153453
   5 C :   -0.196692
   6 H :    0.113593
   7 H :    0.108959
   8 H :    0.102864
   9 H :    0.065883
  10 H :    0.094216
  11 H :    0.091527
  12 H :    0.096252
  13 H :    0.088159
  14 H :    0.084209
  15 H :    0.096124
  16 H :    0.096800
  17 H :    0.082479
Sum of atomic charges:   -0.0000000

LOEWDIN ATOMIC CHARGES
----------------------
   0 C :   -0.289220
   1 C :   -0.271179
   2 C :   -0.222440
   3 C :   -0.251980
   4 C :   -0.256570
   5 C :   -0.235234
   6 H :    0.117601
   7 H :    0.117594
   8 H :    0.117192
   9 H :    0.143891
  10 H :    0.127758
  11 H :    0.129397
  12 H :    0.124955
  13 H :    0.130109
  14 H :    0.131449
  15 H :    0.125585
  16 H :    0.127138
  17 H :    0.133953

  Mayer bond orders larger than 0.100000
B(  0-C ,  1-C ) :   0.9667 B(  0-C ,  6-H ) :   0.9868 B(  0-C ,  7-H ) :   0.9852
B(  0-C ,  8-H ) :   0.9746 B(  1-C ,  2-C ) :   0.9709 B(  1-C ,  5-C ) :   0.9961
B(  1-C ,  9-H ) :   0.9731 B(  2-C ,  3-C ) :   0.9997 B(  2-C , 10-H ) :   0.9761
B(  2-C , 11-H ) :   0.9745 B(  3-C ,  4-C ) :   0.9928 B(  3-C , 12-H ) :   0.9742
B(  3-C , 13-H ) :   0.9758 B(  4-C ,  5-C ) :   0.9815 B(  4-C , 14-H ) :   0.9742
B(  4-C , 15-H ) :   0.9736 B(  5-C , 16-H ) :   0.9700 B(  5-C , 17-H ) :   0.9697

FINAL SINGLE POINT ENERGY      -235.879355813536

DIPOLE MOMENT
-------------

Method             : SCF
Type of density    : Electron Density
Multiplicity       :   1
Irrep              :   0
Energy             :  -235.8917224972361737 Eh
Relativity type    :
Basis              : AO
                                X                 Y                 Z
Electronic contribution:      1.209102213       0.144070605       0.549087851
Nuclear contribution   :     -1.194803651      -0.133265271      -0.510150747
                        -----------------------------------------
Total Dipole Moment    :      0.014298562       0.010805334       0.038937104
                        -----------------------------------------
Magnitude (a.u.)       :      0.042863763
Magnitude (Debye)      :      0.108951027

Rotational constants in cm-1:             0.202668             0.099562             0.075696
Rotational constants in MHz :          6075.833626          2984.787468          2269.320924

                             ****ORCA TERMINATED NORMALLY****
TOTAL RUN TIME: 0 days 0 hours 1 minutes 17 seconds 406 msec
