                         Program Version 6.0.0  -   RELEASE  -
|  1> ! wb97x-v def2-tzvp def2/J RIJCOSX DEFGRID2 scfconv7 GCP(DFT/TZ) printgap
|  2> %output
|  3>     printlevel normal
|  4> end
|  5> %cpcm
|  6>     smd true
|  7>     smdsolvent "water"
|  8> end
|  9> * xyz 0 1
| 10> C -2.184024506047993 -0.07154266049923809 -0.2154098412016288
| 11> C -0.7944791317992999 0.012943382823283006 0.40242763157168465
| 12> C 0.09738265137726002 -1.2298122274059198 0.11126328192104584
| 13> C 1.48060391101131 -0.682724823971468 -0.3145949753203256
| 14> C 1.4812645102818829 0.7773031575183779 0.1584635348622441
| 15> C 0.03656463871621062 1.20756929405509 -0.09830791996203252
| 16> H -2.745170823243677 -0.9271279923923869 0.17667707103551963
| 17> H -2.767845818025457 0.8329858223723322 -0.009755195804521038
| 18> H -2.113420074042537 -0.18671117933632758 -1.3036622340798705
| 19> H -0.9022276078865528 0.11496402259503939 1.4901209617892333
| 20> H 0.17907047742434448 -1.8598323782789088 1.002720031521751
| 21> H -0.3443238802582299 -1.8485727573600335 -0.6774069377522915
| 22> H 2.3124042716216646 -1.2659996136009284 0.09183979518554476
| 23> H 1.5703598059092267 -0.7029031858155377 -1.4068828886698805
| 24> H 1.6968280483288787 0.8269797665365745 1.2337001803089733
| 25> H 2.2211308315402234 1.394944583457042 -0.36086193696552576
| 26> H -0.23908575277442376 2.1458170468124713 0.3945966386971988
| 27> H -0.12039218606819603 1.3370389132024494 -1.178439961284023
| 28> *
| 29>
| 30>                          ****END OF INPUT****

CARTESIAN COORDINATES (ANGSTROEM)
---------------------------------
  C     -2.184025   -0.071543   -0.215410
  C     -0.794479    0.012943    0.402428
  C      0.097383   -1.229812    0.111263
  C      1.480604   -0.682725   -0.314595
  C      1.481265    0.777303    0.158464
  C      0.036565    1.207569   -0.098308
  H     -2.745171   -0.927128    0.176677
  H     -2.767846    0.832986   -0.009755
  H     -2.113420   -0.186711   -1.303662
  H     -0.902228    0.114964    1.490121
  H      0.179070   -1.859832    1.002720
  H     -0.344324   -1.848573   -0.677407
  H      2.312404   -1.266000    0.091840
  H      1.570360   -0.702903   -1.406883
  H      1.696828    0.826980    1.233700
  H      2.221131    1.394945   -0.360862
  H     -0.239086    2.145817    0.394597
  H     -0.120392    1.337039   -1.178440

 Total Charge           Charge          ....    0
 Multiplicity           Mult            ....    1
 Number of Electrons    NEL             ....   48
 Basis Dimension        Dim             ....  258

ORBITAL ENERGIES
----------------

  NO   OCC          E(Eh)            E(eV)
   0   2.0000     -12.034397      -327.4726
   1   2.0000     -12.028071      -327.3005
   2   2.0000     -12.027218      -327.2772
   3   2.0000     -12.025511      -327.2308
   4   2.0000     -12.025114      -327.2200
   5   2.0000     -12.022563      -327.1506
   6   2.0000      -1.336670       -36.3726
   7   2.0000      -1.237667       -33.6786
   8   2.0000      -1.197445       -32.5841
   9   2.0000      -1.135939       -30.9105
  10   2.0000      -1.032467       -28.0949
  11   2.0000      -1.009731       -27.4762
  12   2.0000      -0.905281       -24.6340
  13   2.0000      -0.891621       -24.2622
  14   2.0000      -0.850095       -23.1323
  15   2.0000      -0.832813       -22.6620
  16   2.0000      -0.822789       -22.3892
  17   2.0000      -0.799334       -21.7510
  18   2.0000      -0.774181       -21.0665
  19   2.0000      -0.772594       -21.0234
  20   2.0000      -0.769035       -20.9265
  21   2.0000      -0.749014       -20.3817
  22   2.0000      -0.735639       -20.0178
  23   2.0000      -0.728188       -19.8150
  24   0.0000      -0.039840        -1.0841
  25   0.0000      -0.036869        -1.0033
  26   0.0000      -0.020042        -0.5454
  27   0.0000      -0.016049        -0.4367
  28   0.0000       0.013551         0.3687

MULLIKEN ATOMIC CHARGES
-----------------------
   0 C :   -0.414838
   1 C :   -0.005830
   2 C :   -0.235777
   3 C :   -0.213906
   4 C :   -0.180613
   5 C :   -0.225394
   6 H :    0.127163
   7 H :    0.123363
   8 H :    0.119319
   9 H :    0.076546
  10 H :    0.106639
  11 H :    0.102477
  12 H :    0.109515
  13 H :    0.099923
  14 H :    0.096848
  15 H :    0.109254
  16 H :    0.110975
  17 H :    0.094336
Sum of atomic charges:   -0.0000000

LOEWDIN ATOMIC CHARGES
----------------------
   0 C :   -0.296327
   1 C :   -0.271202
   2 C :   -0.225747
   3 C :   -0.256044
   4 C :   -0.260714
   5 C :   -0.238597
   6 H :    0.119281
   7 H :    0.119244
   8 H :    0.119725
   9 H :    0.146140
  10 H :    0.129422
  11 H :    0.130789
  12 H :    0.126413
  13 H :    0.132129
  14 H :    0.133532
  15 H :    0.127130
  16 H :    0.128842
  17 H :    0.135983

  Mayer bond orders larger than 0.100000
B(  0-C ,  1-C ) :   0.9553 B(  0-C ,  6-H ) :   0.9839 B(  0-C ,  7-H ) :   0.9831
B(  0-C ,  8-H ) :   0.9739 B(  1-C ,  2-C ) :   0.9704 B(  1-C ,  5-C ) :   0.9947
B(  1-C ,  9-H ) :   0.9731 B(  2-C ,  3-C ) :   0.9986 B(  2-C , 10-H ) :   0.9749
B(  2-C , 11-H ) :   0.9735 B(  3-C ,  4-C ) :   0.9919 B(  3-C , 12-H ) :   0.9720
B(  3-C , 13-H ) :   0.9738 B(  4-C ,  5-C ) :   0.9824 B(  4-C , 14-H ) :   0.9730
B(  4-C , 15-H ) :   0.9711 B(  5-C , 16-H ) :   0.9677 B(  5-C , 17-H ) :   0.9692

FINAL SINGLE POINT ENERGY      -235.877036062040

DIPOLE MOMENT
-------------

Method             : SCF
Type of density    : Electron Density
Multiplicity       :   1
Irrep              :   0
Energy             :  -235.8894027457401137 Eh
Relativity type    :
Basis              : AO
                                X                 Y                 Z
Electronic contribution:      1.207104961       0.146167085       0.554306956
Nuclear contribution   :     -1.194803651      -0.133265271      -0.510150747
                        -----------------------------------------
Total Dipole Moment    :      0.012301310       0.012901814       0.044156209
                        -----------------------------------------
Magnitude (a.u.)       :      0.047618797
Magnitude (Debye)      :      0.121037363

Rotational constants in cm-1:             0.202668             0.099562             0.075696
Rotational constants in MHz :          6075.833626          2984.787468          2269.320924

                             ****ORCA TERMINATED NORMALLY****
TOTAL RUN TIME: 0 days 0 hours 1 minutes 23 seconds 549 msec
