                         Program Version 6.0.0  -   RELEASE  -
|  1> ! pbe def2-sv(p) def2/J RI DEFGRID1 loosescf d4 GCP(DFT/SV(P)) printgap
|  2> %output
|  3>     printlevel normal
|  4> end
|  5> * xyz 0 1
|  6> C -3.4020539875 -0.6588967315 -0.4842881449
|  7> O -1.9878837878 -0.5379330804 -0.6586235065
|  8> C -1.3319879993 0.2459377591 0.1891750827
|  9> O -1.8842669924 0.8474735866 1.0882054827
| 10> C 0.1461448876 0.3260930346 -0.1158450566
| 11> C 0.6735835979 -0.9174764164 -0.8472672574
| 12> C 2.1823633307 -1.085477996 -0.6252253586
| 13> C 2.8597655703 0.2738524577 -0.4894302493
| 14> C 2.3940087588 0.9778919678 0.792044677
| 15> C 0.956513556 0.5885483534 1.1545220419
| 16> H -3.7295464168 -1.3652898492 -1.2403632889
| 17> H -3.8790600238 0.3122381921 -0.6208565403
| 18> H -3.624634257 -1.0242297348 0.5188915236
| 19> H 0.2511491913 1.2039005288 -0.7652693703
| 20> H 0.1512815417 -1.8045176546 -0.4863418368
| 21> H 0.4576820131 -0.8240254082 -1.9118128689
| 22> H 2.3665426169 -1.6625826817 0.281906611
| 23> H 2.6118397946 -1.63926842 -1.4605298704
| 24> H 3.9432951831 0.1531802269 -0.4699558567
| 25> H 2.6133644507 0.8795965314 -1.3629424415
| 26> H 3.0492156939 0.7107810017 1.6218381303
| 27> H 2.4613640969 2.0580965093 0.6560383824
| 28> H 0.9477323127 -0.3160311728 1.7646343691
| 29> H 0.4785682327 1.3780916927 1.7359067897
| 30> *
| 31>
| 32>                          ****END OF INPUT****

CARTESIAN COORDINATES (ANGSTROEM)
---------------------------------
  C     -3.402054   -0.658897   -0.484288
  O     -1.987884   -0.537933   -0.658624
  C     -1.331988    0.245938    0.189175
  O     -1.884267    0.847474    1.088205
  C      0.146145    0.326093   -0.115845
  C      0.673584   -0.917476   -0.847267
  C      2.182363   -1.085478   -0.625225
  C      2.859766    0.273852   -0.489430
  C      2.394009    0.977892    0.792045
  C      0.956514    0.588548    1.154522
  H     -3.729546   -1.365290   -1.240363
  H     -3.879060    0.312238   -0.620857
  H     -3.624634   -1.024230    0.518892
  H      0.251149    1.203901   -0.765269
  H      0.151282   -1.804518   -0.486342
  H      0.457682   -0.824025   -1.911813
  H      2.366543   -1.662583    0.281907
  H      2.611840   -1.639268   -1.460530
  H      3.943295    0.153180   -0.469956
  H      2.613364    0.879597   -1.362942
  H      3.049216    0.710781    1.621838
  H      2.461364    2.058097    0.656038
  H      0.947732   -0.316031    1.764634
  H      0.478568    1.378092    1.735907

 Total Charge           Charge          ....    0
 Multiplicity           Mult            ....    1
 Number of Electrons    NEL             ....   78
 Basis Dimension        Dim             ....  168

ORBITAL ENERGIES
----------------

  NO   OCC          E(Eh)            E(eV)
   0   2.0000     -18.797506      -511.5061
   1   2.0000     -18.731759      -509.7171
   2   2.0000     -10.001753      -272.1615
   3   2.0000      -9.940947      -270.5069
   4   2.0000      -9.903386      -269.4848
   5   2.0000      -9.885005      -268.9847
   6   2.0000      -9.882909      -268.9276
   7   2.0000      -9.882284      -268.9106
   8   2.0000      -9.882168      -268.9075
   9   2.0000      -9.881894      -268.9000
  10   2.0000      -1.004838       -27.3430
  11   2.0000      -0.907024       -24.6814
  12   2.0000      -0.761081       -20.7101
  13   2.0000      -0.692094       -18.8328
  14   2.0000      -0.664319       -18.0770
  15   2.0000      -0.648599       -17.6493
  16   2.0000      -0.565583       -15.3903
  17   2.0000      -0.545223       -14.8363
  18   2.0000      -0.509316       -13.8592
  19   2.0000      -0.475961       -12.9516
  20   2.0000      -0.462039       -12.5727
  21   2.0000      -0.442097       -12.0301
  22   2.0000      -0.427205       -11.6248
  23   2.0000      -0.410594       -11.1728
  24   2.0000      -0.398188       -10.8352
  25   2.0000      -0.387244       -10.5374
  26   2.0000      -0.365109        -9.9351
  27   2.0000      -0.352147        -9.5824
  28   2.0000      -0.342251        -9.3131
  29   2.0000      -0.331750        -9.0274
  30   2.0000      -0.326731        -8.8908
  31   2.0000      -0.317668        -8.6442
  32   2.0000      -0.310994        -8.4626
  33   2.0000      -0.299674        -8.1545
  34   2.0000      -0.271513        -7.3882
  35   2.0000      -0.263051        -7.1580
  36   2.0000      -0.262230        -7.1356
  37   2.0000      -0.256006        -6.9663
  38   2.0000      -0.214571        -5.8388
  39   0.0000      -0.018984        -0.5166
  40   0.0000       0.030614         0.8330
  41   0.0000       0.046190         1.2569
  42   0.0000       0.055440         1.5086
  43   0.0000       0.072361         1.9691

MULLIKEN ATOMIC CHARGES
-----------------------
   0 C :   -0.105877
   1 O :   -0.234258
   2 C :    0.165849
   3 O :   -0.206147
   4 C :   -0.229376
   5 C :   -0.101262
   6 C :   -0.145332
   7 C :   -0.157318
   8 C :   -0.138780
   9 C :   -0.132103
  10 H :    0.120603
  11 H :    0.118208
  12 H :    0.120080
  13 H :    0.097330
  14 H :    0.082194
  15 H :    0.081672
  16 H :    0.076116
  17 H :    0.084133
  18 H :    0.085124
  19 H :    0.075283
  20 H :    0.081103
  21 H :    0.082805
  22 H :    0.075213
  23 H :    0.104741
Sum of atomic charges:    0.0000000

LOEWDIN ATOMIC CHARGES
----------------------
   0 C :   -0.202585
   1 O :   -0.066856
   2 C :    0.044198
   3 O :   -0.166732
   4 C :   -0.167666
   5 C :   -0.218864
   6 C :   -0.228299
   7 C :   -0.230956
   8 C :   -0.227975
   9 C :   -0.216225
  10 H :    0.120027
  11 H :    0.119423
  12 H :    0.120166
  13 H :    0.140521
  14 H :    0.118656
  15 H :    0.119194
  16 H :    0.115128
  17 H :    0.118424
  18 H :    0.117943
  19 H :    0.113145
  20 H :    0.117909
  21 H :    0.117101
  22 H :    0.117505
  23 H :    0.126820

  Mayer bond orders larger than 0.100000
B(  0-C ,  1-O ) :   0.9385 B(  0-C , 10-H ) :   0.9591 B(  0-C , 11-H ) :   0.9527
B(  0-C , 12-H ) :   0.9513 B(  1-O ,  2-C ) :   1.2340 B(  2-C ,  3-O ) :   2.0620
B(  2-C ,  4-C ) :   0.9590 B(  4-C ,  5-C ) :   1.1005 B(  4-C ,  9-C ) :   1.1615
B(  4-C , 13-H ) :   0.8443 B(  5-C ,  6-C ) :   1.1429 B(  5-C , 14-H ) :   0.9171
B(  5-C , 15-H ) :   0.9078 B(  6-C ,  7-C ) :   1.1850 B(  6-C , 16-H ) :   0.9059
B(  6-C , 17-H ) :   0.9201 B(  7-C ,  8-C ) :   1.1349 B(  7-C , 18-H ) :   0.9219
B(  7-C , 19-H ) :   0.9115 B(  8-C ,  9-C ) :   1.1468 B(  8-C , 20-H ) :   0.9189
B(  8-C , 21-H ) :   0.9206 B(  9-C , 22-H ) :   0.9047 B(  9-C , 23-H ) :   0.9079

Dispersion correction           -0.022641942
FINAL SINGLE POINT ENERGY      -462.696965949016

DIPOLE MOMENT
-------------

Method             : SCF
Type of density    : Electron Density
Multiplicity       :   1
Irrep              :   0
Energy             :  -462.7851376272379866 Eh
Relativity type    :
Basis              : AO
                                X                 Y                 Z
Electronic contribution:     -7.522193042       1.398896941       1.061001193
Nuclear contribution   :      7.540613182      -1.815511453      -1.624968721
                        -----------------------------------------
Total Dipole Moment    :      0.018420140      -0.416614512      -0.563967527
                        -----------------------------------------
Magnitude (a.u.)       :      0.701403112
Magnitude (Debye)      :      1.782825026

Rotational constants in cm-1:             0.097546             0.026360             0.021915
Rotational constants in MHz :          2924.341040           790.238265           656.990421

                             ****ORCA TERMINATED NORMALLY****
TOTAL RUN TIME: 0 days 0 hours 0 minutes 10 seconds 976 msec
