                         Program Version 6.0.0  -   RELEASE  -
|  1> ! pbe def2-sv(p) def2/J RI DEFGRID1 loosescf d4 GCP(DFT/SV(P)) printgap
|  2> %output
|  3>     printlevel normal
|  4> end
|  5> * xyz 0 1
|  6> C 2.1478386735 -0.0026024427 0.029141812
|  7> C 0.8702676992 -0.7024388581 0.4791298013
|  8> C -0.4182665381 0.0002556585 0.0163164876
|  9> C -0.4835840351 1.4483501677 0.5153549174
| 10> C -1.6333749854 -0.7784445684 0.5395035705
| 11> O -0.4011159883 -0.0308947845 -1.4089030296
| 12> H 2.2754363754 0.9482666217 0.5389966415
| 13> H 2.111968862 0.1734621547 -1.0429792366
| 14> H 3.0092785317 -0.6276689297 0.2503291438
| 15> H 0.8536767806 -0.7832235128 1.5666031352
| 16> H 0.8568285597 -1.7109682023 0.0609784749
| 17> H -1.4588100468 1.8787944438 0.2969711963
| 18> H -0.3230278025 1.4814225325 1.5888717946
| 19> H 0.2764300998 2.0492318049 0.0238213404
| 20> H -1.6238681716 -0.8040344736 1.6250724894
| 21> H -2.5578045693 -0.3076682862 0.2113709001
| 22> H -1.61083064 -1.7982746933 0.1626605981
| 23> H -1.1963861398 0.4067446891 -1.7398150876
| 24> *
| 25>
| 26>                          ****END OF INPUT****

CARTESIAN COORDINATES (ANGSTROEM)
---------------------------------
  C      2.147839   -0.002602    0.029142
  C      0.870268   -0.702439    0.479130
  C     -0.418267    0.000256    0.016316
  C     -0.483584    1.448350    0.515355
  C     -1.633375   -0.778445    0.539504
  O     -0.401116   -0.030895   -1.408903
  H      2.275436    0.948267    0.538997
  H      2.111969    0.173462   -1.042979
  H      3.009279   -0.627669    0.250329
  H      0.853677   -0.783224    1.566603
  H      0.856829   -1.710968    0.060978
  H     -1.458810    1.878794    0.296971
  H     -0.323028    1.481423    1.588872
  H      0.276430    2.049232    0.023821
  H     -1.623868   -0.804034    1.625072
  H     -2.557805   -0.307668    0.211371
  H     -1.610831   -1.798275    0.162661
  H     -1.196386    0.406745   -1.739815

 Total Charge           Charge          ....    0
 Multiplicity           Mult            ....    1
 Number of Electrons    NEL             ....   50
 Basis Dimension        Dim             ....  108

ORBITAL ENERGIES
----------------

  NO   OCC          E(Eh)            E(eV)
   0   2.0000     -18.737446      -509.8718
   1   2.0000      -9.944641      -270.6074
   2   2.0000      -9.878841      -268.8169
   3   2.0000      -9.873072      -268.6599
   4   2.0000      -9.871480      -268.6166
   5   2.0000      -9.864680      -268.4316
   6   2.0000      -0.916020       -24.9262
   7   2.0000      -0.714685       -19.4476
   8   2.0000      -0.654709       -17.8155
   9   2.0000      -0.616764       -16.7830
  10   2.0000      -0.559875       -15.2350
  11   2.0000      -0.502723       -13.6798
  12   2.0000      -0.434573       -11.8253
  13   2.0000      -0.410990       -11.1836
  14   2.0000      -0.388361       -10.5678
  15   2.0000      -0.374362       -10.1869
  16   2.0000      -0.362914        -9.8754
  17   2.0000      -0.351484        -9.5644
  18   2.0000      -0.338129        -9.2009
  19   2.0000      -0.316620        -8.6157
  20   2.0000      -0.300674        -8.1818
  21   2.0000      -0.294261        -8.0072
  22   2.0000      -0.287204        -7.8152
  23   2.0000      -0.262191        -7.1346
  24   2.0000      -0.210779        -5.7356
  25   0.0000       0.019938         0.5425
  26   0.0000       0.064088         1.7439
  27   0.0000       0.074630         2.0308
  28   0.0000       0.077209         2.1010
  29   0.0000       0.087381         2.3777

MULLIKEN ATOMIC CHARGES
-----------------------
   0 C :   -0.268966
   1 C :   -0.135840
   2 C :   -0.057251
   3 C :   -0.237347
   4 C :   -0.205732
   5 O :   -0.422867
   6 H :    0.096122
   7 H :    0.113862
   8 H :    0.097986
   9 H :    0.078917
  10 H :    0.083380
  11 H :    0.084826
  12 H :    0.094670
  13 H :    0.111953
  14 H :    0.090842
  15 H :    0.082212
  16 H :    0.101816
  17 H :    0.291417
Sum of atomic charges:   -0.0000000

LOEWDIN ATOMIC CHARGES
----------------------
   0 C :   -0.344125
   1 C :   -0.223413
   2 C :   -0.017439
   3 C :   -0.340674
   4 C :   -0.337052
   5 O :   -0.320705
   6 H :    0.114274
   7 H :    0.124230
   8 H :    0.118810
   9 H :    0.115974
  10 H :    0.119831
  11 H :    0.112891
  12 H :    0.122762
  13 H :    0.122409
  14 H :    0.120624
  15 H :    0.110692
  16 H :    0.120889
  17 H :    0.280023

  Mayer bond orders larger than 0.100000
B(  0-C ,  1-C ) :   1.1649 B(  0-C ,  6-H ) :   0.9479 B(  0-C ,  7-H ) :   0.9453
B(  0-C ,  8-H ) :   0.9507 B(  1-C ,  2-C ) :   1.0462 B(  1-C ,  9-H ) :   0.9219
B(  1-C , 10-H ) :   0.9141 B(  2-C ,  3-C ) :   1.0761 B(  2-C ,  4-C ) :   1.0876
B(  2-C ,  5-O ) :   1.0124 B(  3-C , 11-H ) :   0.9412 B(  3-C , 12-H ) :   0.9402
B(  3-C , 13-H ) :   0.9380 B(  4-C , 14-H ) :   0.9385 B(  4-C , 15-H ) :   0.9408
B(  4-C , 16-H ) :   0.9424 B(  5-O , 17-H ) :   0.8547

Dispersion correction           -0.013625835
FINAL SINGLE POINT ENERGY      -272.308739095628

DIPOLE MOMENT
-------------

Method             : SCF
Type of density    : Electron Density
Multiplicity       :   1
Irrep              :   0
Energy             :  -272.3778244703180462 Eh
Relativity type    :
Basis              : AO
                                X                 Y                 Z
Electronic contribution:     -0.996602742      -0.612939067      -3.058178127
Nuclear contribution   :      0.569040089       0.849596700       3.302893702
                        -----------------------------------------
Total Dipole Moment    :     -0.427562653       0.236657633       0.244715575
                        -----------------------------------------
Magnitude (a.u.)       :      0.546536705
Magnitude (Debye)      :      1.389185904

Rotational constants in cm-1:             0.151789             0.087095             0.085361
Rotational constants in MHz :          4550.522852          2611.038726          2559.057380

                             ****ORCA TERMINATED NORMALLY****
TOTAL RUN TIME: 0 days 0 hours 0 minutes 6 seconds 912 msec
