                         Program Version 6.0.0  -   RELEASE  -
|  1> ! pbe def2-sv(p) def2/J RI DEFGRID1 loosescf d4 GCP(DFT/SV(P)) printgap
|  2> %output
|  3>     printlevel normal
|  4> end
|  5> * xyz 0 1
|  6> C -3.185348876 0.0043684794 0.8406920443
|  7> C -2.4801214939 -0.0077575186 -0.5175629929
|  8> C -0.9880653134 -0.0045491829 -0.3398836921
|  9> C -0.2864099866 1.1905401708 -0.2341305316
| 10> C 1.0789423752 1.2016982756 -0.0305049471
| 11> C 1.7770563147 0.0026762519 0.0749826224
| 12> C 1.0864211927 -1.1983320731 -0.0266426107
| 13> C -0.2815854397 -1.1941182817 -0.2304854512
| 14> O 3.12466406 0.0579323323 0.2737858792
| 15> H -2.9030943166 0.8906339259 1.4042356901
| 16> H -2.9042468701 -0.8721630926 1.4197822736
| 17> H -4.2643849665 0.0038869709 0.70850331
| 18> H -2.784627253 0.8714981767 -1.0880190416
| 19> H -2.7836585148 -0.8976082147 -1.0719279263
| 20> H -0.8159349739 2.1285044524 -0.3155462865
| 21> H 1.6260961596 2.1281610562 0.048773854
| 22> H 1.6171485228 -2.1364851799 0.0523546778
| 23> H -0.8065200281 -2.1351245711 -0.3086613277
| 24> H 3.4950182377 -0.8356896743 0.3283158695
| 25> *
| 26>
| 27>                          ****END OF INPUT****

CARTESIAN COORDINATES (ANGSTROEM)
---------------------------------
  C     -3.185349    0.004368    0.840692
  C     -2.480121   -0.007758   -0.517563
  C     -0.988065   -0.004549   -0.339884
  C     -0.286410    1.190540   -0.234131
  C      1.078942    1.201698   -0.030505
  C      1.777056    0.002676    0.074983
  C      1.086421   -1.198332   -0.026643
  C     -0.281585   -1.194118   -0.230485
  O      3.124664    0.057932    0.273786
  H     -2.903094    0.890634    1.404236
  H     -2.904247   -0.872163    1.419782
  H     -4.264385    0.003887    0.708503
  H     -2.784627    0.871498   -1.088019
  H     -2.783659   -0.897608   -1.071928
  H     -0.815935    2.128504   -0.315546
  H      1.626096    2.128161    0.048774
  H      1.617149   -2.136485    0.052355
  H     -0.806520   -2.135125   -0.308661
  H      3.495018   -0.835690    0.328316

 Total Charge           Charge          ....    0
 Multiplicity           Mult            ....    1
 Number of Electrons    NEL             ....   66
 Basis Dimension        Dim             ....  146

ORBITAL ENERGIES
----------------

  NO   OCC          E(Eh)            E(eV)
   0   2.0000     -18.777731      -510.9680
   1   2.0000      -9.947616      -270.6884
   2   2.0000      -9.890924      -269.1457
   3   2.0000      -9.889450      -269.1056
   4   2.0000      -9.888880      -269.0901
   5   2.0000      -9.887950      -269.0648
   6   2.0000      -9.887449      -269.0512
   7   2.0000      -9.883150      -268.9342
   8   2.0000      -9.875226      -268.7186
   9   2.0000      -0.958759       -26.0892
  10   2.0000      -0.773294       -21.0424
  11   2.0000      -0.704925       -19.1820
  12   2.0000      -0.670019       -18.2322
  13   2.0000      -0.641485       -17.4557
  14   2.0000      -0.569291       -15.4912
  15   2.0000      -0.551634       -15.0107
  16   2.0000      -0.519006       -14.1229
  17   2.0000      -0.492997       -13.4151
  18   2.0000      -0.435679       -11.8554
  19   2.0000      -0.419205       -11.4071
  20   2.0000      -0.391296       -10.6477
  21   2.0000      -0.380507       -10.3541
  22   2.0000      -0.373164       -10.1543
  23   2.0000      -0.367432        -9.9983
  24   2.0000      -0.356135        -9.6909
  25   2.0000      -0.334290        -9.0965
  26   2.0000      -0.327192        -8.9033
  27   2.0000      -0.301310        -8.1991
  28   2.0000      -0.293133        -7.9765
  29   2.0000      -0.286962        -7.8086
  30   2.0000      -0.282468        -7.6864
  31   2.0000      -0.226676        -6.1682
  32   2.0000      -0.187523        -5.1028
  33   0.0000      -0.032275        -0.8782
  34   0.0000      -0.015001        -0.4082
  35   0.0000       0.024750         0.6735
  36   0.0000       0.043020         1.1706
  37   0.0000       0.066286         1.8037

MULLIKEN ATOMIC CHARGES
-----------------------
   0 C :   -0.265884
   1 C :   -0.132569
   2 C :    0.087043
   3 C :   -0.120778
   4 C :   -0.119325
   5 C :    0.248227
   6 C :   -0.157783
   7 C :   -0.128073
   8 O :   -0.339311
   9 H :    0.100500
  10 H :    0.099056
  11 H :    0.102800
  12 H :    0.085078
  13 H :    0.084061
  14 H :    0.038524
  15 H :    0.042815
  16 H :    0.024079
  17 H :    0.036059
  18 H :    0.315481
Sum of atomic charges:   -0.0000000

LOEWDIN ATOMIC CHARGES
----------------------
   0 C :   -0.334183
   1 C :   -0.216664
   2 C :   -0.059350
   3 C :   -0.114143
   4 C :   -0.146650
   5 C :    0.019724
   6 C :   -0.175441
   7 C :   -0.116539
   8 O :   -0.239961
   9 H :    0.119057
  10 H :    0.118465
  11 H :    0.116947
  12 H :    0.120426
  13 H :    0.119815
  14 H :    0.121943
  15 H :    0.129807
  16 H :    0.118950
  17 H :    0.120898
  18 H :    0.296899

  Mayer bond orders larger than 0.100000
B(  0-C ,  1-C ) :   1.1469 B(  0-C ,  9-H ) :   0.9552 B(  0-C , 10-H ) :   0.9553
B(  0-C , 11-H ) :   0.9484 B(  1-C ,  2-C ) :   1.0646 B(  1-C , 12-H ) :   0.9119
B(  1-C , 13-H ) :   0.9123 B(  2-C ,  3-C ) :   1.3703 B(  2-C ,  7-C ) :   1.3936
B(  3-C ,  4-C ) :   1.3659 B(  3-C , 14-H ) :   0.9631 B(  4-C ,  5-C ) :   1.3579
B(  4-C , 15-H ) :   0.9650 B(  5-C ,  6-C ) :   1.3113 B(  5-C ,  8-O ) :   1.1812
B(  6-C ,  7-C ) :   1.3547 B(  6-C , 16-H ) :   0.9580 B(  7-C , 17-H ) :   0.9586
B(  8-O , 18-H ) :   0.8432

Dispersion correction           -0.018685156
FINAL SINGLE POINT ENERGY      -385.235715400397

DIPOLE MOMENT
-------------

Method             : SCF
Type of density    : Electron Density
Multiplicity       :   1
Irrep              :   0
Energy             :  -385.2949049983080840 Eh
Relativity type    :
Basis              : AO
                                X                 Y                 Z
Electronic contribution:      9.854000727       0.273754597      -1.083725735
Nuclear contribution   :     -9.827171327      -0.800699804       1.109043055
                        -----------------------------------------
Total Dipole Moment    :      0.026829400      -0.526945208       0.025317320
                        -----------------------------------------
Magnitude (a.u.)       :      0.528234830
Magnitude (Debye)      :      1.342666234

Rotational constants in cm-1:             0.148083             0.032142             0.028448
Rotational constants in MHz :          4439.421547           963.604405           852.847889

                             ****ORCA TERMINATED NORMALLY****
TOTAL RUN TIME: 0 days 0 hours 0 minutes 9 seconds 685 msec
