                         Program Version 6.0.0  -   RELEASE  -
|  1> ! wb97x-v def2-tzvp def2/J RIJCOSX DEFGRID2 scfconv7 GCP(DFT/TZ) printgap
|  2> %output
|  3>     printlevel normal
|  4> end
|  5> * xyz 0 1
|  6> C -4.072204676281802 -0.3919210608383199 -0.002712914864924118
|  7> C -3.9381948992870983 0.9959947570109533 -0.0022836116988193184
|  8> C -2.6741118190184023 1.5704930726189987 -0.000638328902844456
|  9> C -1.53422617897015 0.7630934418881278 0.00042541491063168376
| 10> C -1.668250749143497 -0.6379627379212175 6.386575013919567e-05
| 11> C -2.9441148244874964 -1.203462852147557 -0.0013963610138959723
| 12> C -0.4745330503783004 -1.5251599143770842 0.000997500291674973
| 13> O -0.6158168365863025 -2.7591679323341602 0.0022989752507271205
| 14> C 0.838075765676 -0.8985677753982104 0.0006674956868072096
| 15> C 1.998487505009196 -1.6914954204300192 9.981936559949918e-07
| 16> C 3.2539967884827434 -1.129057817705529 -0.001061969237872393
| 17> C 3.4080262192028115 0.2773548653116224 -0.0013104432377787243
| 18> C 2.249676580155738 1.0819370507702213 -0.00028768813410371216
| 19> C 0.9904761685011325 0.5072424425150179 0.0006016954260948935
| 20> C -0.1975246832132501 1.397807916441333 0.001721222110437816
| 21> O -0.07659815647383887 2.6242032255482344 0.0035272628523009488
| 22> N 4.6355970257581705 0.839524441910704 -0.0021597261642457405
| 23> H -5.059801410942653 -0.841134926989473 -0.004083409093061303
| 24> H -4.82020837708176 1.6275662350354416 -0.0032644419625227155
| 25> H -2.559741356047754 2.6486273847555473 -0.00031490873395520523
| 26> H -3.0456781106707 -2.282677410935622 -0.001687573036662856
| 27> H 1.8952370023025675 -2.771231508871568 4.0571094560819185e-05
| 28> H 4.139237670562056 -1.7576593180894315 -0.0018283517898779798
| 29> H 2.3496974699769644 2.162271704906377 -0.00032435347946597386
| 30> H 4.739884196567134 1.840927809552848 -0.004073710558176753
| 31> H 5.462373070662047 0.2648153101079185 -0.004549350070829539
| 32> *
| 33>
| 34>                          ****END OF INPUT****

CARTESIAN COORDINATES (ANGSTROEM)
---------------------------------
  C     -4.072205   -0.391921   -0.002713
  C     -3.938195    0.995995   -0.002284
  C     -2.674112    1.570493   -0.000638
  C     -1.534226    0.763093    0.000425
  C     -1.668251   -0.637963    0.000064
  C     -2.944115   -1.203463   -0.001396
  C     -0.474533   -1.525160    0.000998
  O     -0.615817   -2.759168    0.002299
  C      0.838076   -0.898568    0.000667
  C      1.998488   -1.691495    0.000001
  C      3.253997   -1.129058   -0.001062
  C      3.408026    0.277355   -0.001310
  C      2.249677    1.081937   -0.000288
  C      0.990476    0.507242    0.000602
  C     -0.197525    1.397808    0.001721
  O     -0.076598    2.624203    0.003527
  N      4.635597    0.839524   -0.002160
  H     -5.059801   -0.841135   -0.004083
  H     -4.820208    1.627566   -0.003264
  H     -2.559741    2.648627   -0.000315
  H     -3.045678   -2.282677   -0.001688
  H      1.895237   -2.771232    0.000041
  H      4.139238   -1.757659   -0.001828
  H      2.349697    2.162272   -0.000324
  H      4.739884    1.840928   -0.004074
  H      5.462373    0.264815   -0.004549

 Total Charge           Charge          ....    0
 Multiplicity           Mult            ....    1
 Number of Electrons    NEL             ....  116
 Basis Dimension        Dim             ....  581

ORBITAL ENERGIES
----------------

  NO   OCC          E(Eh)            E(eV)
   0   2.0000     -21.668122      -589.6196
   1   2.0000     -21.655147      -589.2665
   2   2.0000     -16.558698      -450.5851
   3   2.0000     -12.148940      -330.5895
   4   2.0000     -12.140009      -330.3464
   5   2.0000     -12.121482      -329.8423
   6   2.0000     -12.079246      -328.6930
   7   2.0000     -12.075658      -328.5954
   8   2.0000     -12.073748      -328.5434
   9   2.0000     -12.069390      -328.4248
  10   2.0000     -12.069286      -328.4220
  11   2.0000     -12.067708      -328.3790
  12   2.0000     -12.065595      -328.3215
  13   2.0000     -12.063888      -328.2751
  14   2.0000     -12.063677      -328.2693
  15   2.0000     -12.061545      -328.2113
  16   2.0000     -12.061104      -328.1993
  17   2.0000      -1.709837       -46.5270
  18   2.0000      -1.691929       -46.0397
  19   2.0000      -1.527578       -41.5675
  20   2.0000      -1.413082       -38.4519
  21   2.0000      -1.394683       -37.9513
  22   2.0000      -1.327396       -36.1203
  23   2.0000      -1.305747       -35.5312
  24   2.0000      -1.296463       -35.2786
  25   2.0000      -1.286162       -34.9983
  26   2.0000      -1.216401       -33.1000
  27   2.0000      -1.177724       -32.0475
  28   2.0000      -1.151832       -31.3430
  29   2.0000      -1.123444       -30.5705
  30   2.0000      -1.104981       -30.0681
  31   2.0000      -1.088453       -29.6183
  32   2.0000      -1.049523       -28.5590
  33   2.0000      -1.047166       -28.4948
  34   2.0000      -1.027595       -27.9623
  35   2.0000      -1.015457       -27.6320
  36   2.0000      -1.005830       -27.3700
  37   2.0000      -0.974936       -26.5294
  38   2.0000      -0.960173       -26.1276
  39   2.0000      -0.952763       -25.9260
  40   2.0000      -0.930078       -25.3087
  41   2.0000      -0.912030       -24.8176
  42   2.0000      -0.910540       -24.7770
  43   2.0000      -0.900213       -24.4961
  44   2.0000      -0.894082       -24.3292
  45   2.0000      -0.893239       -24.3063
  46   2.0000      -0.864126       -23.5141
  47   2.0000      -0.851733       -23.1768
  48   2.0000      -0.850317       -23.1383
  49   2.0000      -0.831143       -22.6166
  50   2.0000      -0.821349       -22.3501
  51   2.0000      -0.810757       -22.0618
  52   2.0000      -0.790760       -21.5177
  53   2.0000      -0.768769       -20.9193
  54   2.0000      -0.676764       -18.4157
  55   2.0000      -0.664769       -18.0893
  56   2.0000      -0.656535       -17.8652
  57   2.0000      -0.633452       -17.2371
  58   0.0000      -0.406378       -11.0581
  59   0.0000      -0.318448        -8.6654
  60   0.0000      -0.263103        -7.1594
  61   0.0000      -0.245376        -6.6770
  62   0.0000      -0.206025        -5.6062

MULLIKEN ATOMIC CHARGES
-----------------------
   0 C :   -0.083377
   1 C :   -0.087731
   2 C :   -0.186403
   3 C :    0.030287
   4 C :    0.038614
   5 C :   -0.180707
   6 C :    0.197873
   7 O :   -0.343370
   8 C :   -0.006018
   9 C :   -0.188184
  10 C :   -0.184559
  11 C :    0.327466
  12 C :   -0.263318
  13 C :    0.036899
  14 C :    0.204825
  15 O :   -0.323215
  16 N :   -0.426613
  17 H :    0.127940
  18 H :    0.127267
  19 H :    0.150828
  20 H :    0.153126
  21 H :    0.149507
  22 H :    0.113976
  23 H :    0.137676
  24 H :    0.240053
  25 H :    0.237158
Sum of atomic charges:    0.0000000

LOEWDIN ATOMIC CHARGES
----------------------
   0 C :   -0.117428
   1 C :   -0.120884
   2 C :   -0.069818
   3 C :   -0.075563
   4 C :   -0.066095
   5 C :   -0.070376
   6 C :   -0.231037
   7 O :    0.095877
   8 C :   -0.101006
   9 C :   -0.062926
  10 C :   -0.120005
  11 C :   -0.226358
  12 C :   -0.070036
  13 C :   -0.071037
  14 C :   -0.215937
  15 O :    0.120133
  16 N :    0.005735
  17 H :    0.145382
  18 H :    0.145115
  19 H :    0.156170
  20 H :    0.156891
  21 H :    0.158752
  22 H :    0.142702
  23 H :    0.153720
  24 H :    0.169775
  25 H :    0.168256

  Mayer bond orders larger than 0.100000
B(  0-C ,  1-C ) :   1.3865 B(  0-C ,  5-C ) :   1.4053 B(  0-C , 17-H ) :   0.9766
B(  1-C ,  2-C ) :   1.4141 B(  1-C , 18-H ) :   0.9771 B(  2-C ,  3-C ) :   1.4075
B(  2-C , 19-H ) :   0.9531 B(  3-C ,  4-C ) :   1.3473 B(  3-C , 14-C ) :   0.9699
B(  3-C , 15-O ) :  -0.1427 B(  4-C ,  5-C ) :   1.4169 B(  4-C ,  6-C ) :   0.9461
B(  4-C ,  7-O ) :  -0.1563 B(  5-C , 20-H ) :   0.9508 B(  6-C ,  7-O ) :   2.1550
B(  6-C ,  8-C ) :   0.9965 B(  7-O ,  8-C ) :  -0.1666 B(  7-O ,  9-C ) :   0.1025
B(  8-C ,  9-C ) :   1.3700 B(  8-C , 13-C ) :   1.3265 B(  9-C , 10-C ) :   1.5244
B(  9-C , 21-H ) :   0.9511 B( 10-C , 11-C ) :   1.3025 B( 10-C , 22-H ) :   0.9597
B( 11-C , 12-C ) :   1.2742 B( 11-C , 16-N ) :   1.1902 B( 12-C , 13-C ) :   1.5417
B( 12-C , 23-H ) :   0.9348 B( 13-C , 14-C ) :   0.9476 B( 13-C , 15-O ) :  -0.1425
B( 14-C , 15-O ) :   2.1511 B( 16-N , 24-H ) :   0.9189 B( 16-N , 25-H ) :   0.9198

FINAL SINGLE POINT ENERGY      -744.183051263891

DIPOLE MOMENT
-------------

Method             : SCF
Type of density    : Electron Density
Multiplicity       :   1
Irrep              :   0
Energy             :  -744.1961264414906054 Eh
Relativity type    :
Basis              : AO
                                X                 Y                 Z
Electronic contribution:     -1.778979232      -0.397823084       0.011391781
Nuclear contribution   :      2.933945470       0.843407344      -0.018013724
                        -----------------------------------------
Total Dipole Moment    :      1.154966238       0.445584260      -0.006621943
                        -----------------------------------------
Magnitude (a.u.)       :      1.237956459
Magnitude (Debye)      :      3.146635252

Rotational constants in cm-1:             0.035258             0.011333             0.008576
Rotational constants in MHz :          1056.994793           339.749088           257.107458

                             ****ORCA TERMINATED NORMALLY****
TOTAL RUN TIME: 0 days 0 hours 11 minutes 47 seconds 914 msec
