                         Program Version 6.0.0  -   RELEASE  -
|  1> ! wb97x-v def2-tzvp def2/J RIJCOSX DEFGRID2 scfconv7 GCP(DFT/TZ) printgap
|  2> %output
|  3>     printlevel normal
|  4> end
|  5> %cpcm
|  6>     smd true
|  7>     smdsolvent "water"
|  8> end
|  9> * xyz 0 1
| 10> C -4.072204676281802 -0.3919210608383199 -0.002712914864924118
| 11> C -3.9381948992870983 0.9959947570109533 -0.0022836116988193184
| 12> C -2.6741118190184023 1.5704930726189987 -0.000638328902844456
| 13> C -1.53422617897015 0.7630934418881278 0.00042541491063168376
| 14> C -1.668250749143497 -0.6379627379212175 6.386575013919567e-05
| 15> C -2.9441148244874964 -1.203462852147557 -0.0013963610138959723
| 16> C -0.4745330503783004 -1.5251599143770842 0.000997500291674973
| 17> O -0.6158168365863025 -2.7591679323341602 0.0022989752507271205
| 18> C 0.838075765676 -0.8985677753982104 0.0006674956868072096
| 19> C 1.998487505009196 -1.6914954204300192 9.981936559949918e-07
| 20> C 3.2539967884827434 -1.129057817705529 -0.001061969237872393
| 21> C 3.4080262192028115 0.2773548653116224 -0.0013104432377787243
| 22> C 2.249676580155738 1.0819370507702213 -0.00028768813410371216
| 23> C 0.9904761685011325 0.5072424425150179 0.0006016954260948935
| 24> C -0.1975246832132501 1.397807916441333 0.001721222110437816
| 25> O -0.07659815647383887 2.6242032255482344 0.0035272628523009488
| 26> N 4.6355970257581705 0.839524441910704 -0.0021597261642457405
| 27> H -5.059801410942653 -0.841134926989473 -0.004083409093061303
| 28> H -4.82020837708176 1.6275662350354416 -0.0032644419625227155
| 29> H -2.559741356047754 2.6486273847555473 -0.00031490873395520523
| 30> H -3.0456781106707 -2.282677410935622 -0.001687573036662856
| 31> H 1.8952370023025675 -2.771231508871568 4.0571094560819185e-05
| 32> H 4.139237670562056 -1.7576593180894315 -0.0018283517898779798
| 33> H 2.3496974699769644 2.162271704906377 -0.00032435347946597386
| 34> H 4.739884196567134 1.840927809552848 -0.004073710558176753
| 35> H 5.462373070662047 0.2648153101079185 -0.004549350070829539
| 36> *
| 37>
| 38>                          ****END OF INPUT****

CARTESIAN COORDINATES (ANGSTROEM)
---------------------------------
  C     -4.072205   -0.391921   -0.002713
  C     -3.938195    0.995995   -0.002284
  C     -2.674112    1.570493   -0.000638
  C     -1.534226    0.763093    0.000425
  C     -1.668251   -0.637963    0.000064
  C     -2.944115   -1.203463   -0.001396
  C     -0.474533   -1.525160    0.000998
  O     -0.615817   -2.759168    0.002299
  C      0.838076   -0.898568    0.000667
  C      1.998488   -1.691495    0.000001
  C      3.253997   -1.129058   -0.001062
  C      3.408026    0.277355   -0.001310
  C      2.249677    1.081937   -0.000288
  C      0.990476    0.507242    0.000602
  C     -0.197525    1.397808    0.001721
  O     -0.076598    2.624203    0.003527
  N      4.635597    0.839524   -0.002160
  H     -5.059801   -0.841135   -0.004083
  H     -4.820208    1.627566   -0.003264
  H     -2.559741    2.648627   -0.000315
  H     -3.045678   -2.282677   -0.001688
  H      1.895237   -2.771232    0.000041
  H      4.139238   -1.757659   -0.001828
  H      2.349697    2.162272   -0.000324
  H      4.739884    1.840928   -0.004074
  H      5.462373    0.264815   -0.004549

 Total Charge           Charge          ....    0
 Multiplicity           Mult            ....    1
 Number of Electrons    NEL             ....  116
 Basis Dimension        Dim             ....  581

ORBITAL ENERGIES
----------------

  NO   OCC          E(Eh)            E(eV)
   0   2.0000     -21.679394      -589.9263
   1   2.0000     -21.667411      -589.6002
   2   2.0000     -16.538490      -450.0352
   3   2.0000     -12.159898      -330.8876
   4   2.0000     -12.151791      -330.6670
   5   2.0000     -12.114995      -329.6658
   6   2.0000     -12.079696      -328.7052
   7   2.0000     -12.078246      -328.6658
   8   2.0000     -12.076262      -328.6118
   9   2.0000     -12.066793      -328.3541
  10   2.0000     -12.066707      -328.3518
  11   2.0000     -12.066159      -328.3369
  12   2.0000     -12.064404      -328.2891
  13   2.0000     -12.063072      -328.2529
  14   2.0000     -12.060266      -328.1765
  15   2.0000     -12.057598      -328.1039
  16   2.0000     -12.054862      -328.0295
  17   2.0000      -1.723615       -46.9020
  18   2.0000      -1.707864       -46.4734
  19   2.0000      -1.509559       -41.0772
  20   2.0000      -1.414298       -38.4850
  21   2.0000      -1.393003       -37.9055
  22   2.0000      -1.325687       -36.0738
  23   2.0000      -1.306881       -35.5620
  24   2.0000      -1.295804       -35.2606
  25   2.0000      -1.282875       -34.9088
  26   2.0000      -1.218613       -33.1602
  27   2.0000      -1.176119       -32.0038
  28   2.0000      -1.149774       -31.2869
  29   2.0000      -1.119559       -30.4648
  30   2.0000      -1.113319       -30.2950
  31   2.0000      -1.087787       -29.6002
  32   2.0000      -1.050920       -28.5970
  33   2.0000      -1.043454       -28.3938
  34   2.0000      -1.030867       -28.0513
  35   2.0000      -1.012922       -27.5630
  36   2.0000      -1.007985       -27.4287
  37   2.0000      -0.975426       -26.5427
  38   2.0000      -0.960772       -26.1439
  39   2.0000      -0.946062       -25.7437
  40   2.0000      -0.928988       -25.2791
  41   2.0000      -0.927966       -25.2512
  42   2.0000      -0.913968       -24.8703
  43   2.0000      -0.909902       -24.7597
  44   2.0000      -0.898265       -24.4430
  45   2.0000      -0.889434       -24.2027
  46   2.0000      -0.864397       -23.5214
  47   2.0000      -0.853294       -23.2193
  48   2.0000      -0.837868       -22.7996
  49   2.0000      -0.828978       -22.5576
  50   2.0000      -0.823482       -22.4081
  51   2.0000      -0.812624       -22.1126
  52   2.0000      -0.793715       -21.5981
  53   2.0000      -0.765026       -20.8174
  54   2.0000      -0.676012       -18.3952
  55   2.0000      -0.666202       -18.1283
  56   2.0000      -0.656336       -17.8598
  57   2.0000      -0.626833       -17.0570
  58   0.0000      -0.409283       -11.1372
  59   0.0000      -0.319907        -8.7051
  60   0.0000      -0.261567        -7.1176
  61   0.0000      -0.243873        -6.6361
  62   0.0000      -0.208211        -5.6657

MULLIKEN ATOMIC CHARGES
-----------------------
   0 C :   -0.125906
   1 C :   -0.130693
   2 C :   -0.206372
   3 C :    0.051400
   4 C :    0.061357
   5 C :   -0.205554
   6 C :    0.278336
   7 O :   -0.466215
   8 C :   -0.008159
   9 C :   -0.193271
  10 C :   -0.250990
  11 C :    0.238568
  12 C :   -0.282423
  13 C :    0.082764
  14 C :    0.280521
  15 O :   -0.423891
  16 N :   -0.438118
  17 H :    0.171031
  18 H :    0.170718
  19 H :    0.164702
  20 H :    0.163053
  21 H :    0.159483
  22 H :    0.167679
  23 H :    0.164576
  24 H :    0.288122
  25 H :    0.289281
Sum of atomic charges:    0.0000000

LOEWDIN ATOMIC CHARGES
----------------------
   0 C :   -0.109773
   1 C :   -0.113286
   2 C :   -0.071191
   3 C :   -0.076115
   4 C :   -0.068399
   5 C :   -0.075715
   6 C :   -0.223513
   7 O :    0.022424
   8 C :   -0.112957
   9 C :   -0.072424
  10 C :   -0.112685
  11 C :   -0.222580
  12 C :   -0.067051
  13 C :   -0.074844
  14 C :   -0.200651
  15 O :    0.064447
  16 N :    0.028111
  17 H :    0.157758
  18 H :    0.157582
  19 H :    0.159774
  20 H :    0.158904
  21 H :    0.160523
  22 H :    0.158480
  23 H :    0.160809
  24 H :    0.186224
  25 H :    0.186151

  Mayer bond orders larger than 0.100000
B(  0-C ,  1-C ) :   1.3826 B(  0-C ,  5-C ) :   1.4031 B(  0-C , 17-H ) :   0.9755
B(  1-C ,  2-C ) :   1.4086 B(  1-C , 18-H ) :   0.9763 B(  2-C ,  3-C ) :   1.3440
B(  2-C , 19-H ) :   0.9695 B(  3-C ,  4-C ) :   1.3586 B(  3-C , 14-C ) :   0.9867
B(  3-C , 15-O ) :  -0.1470 B(  4-C ,  5-C ) :   1.3507 B(  4-C ,  6-C ) :   0.9605
B(  4-C ,  7-O ) :  -0.1673 B(  5-C , 20-H ) :   0.9693 B(  6-C ,  7-O ) :   2.0492
B(  6-C ,  8-C ) :   1.0334 B(  7-O ,  8-C ) :  -0.1742 B(  7-O ,  9-C ) :   0.1067
B(  8-C ,  9-C ) :   1.2808 B(  8-C , 13-C ) :   1.3197 B(  9-C , 10-C ) :   1.5166
B(  9-C , 21-H ) :   0.9707 B( 10-C , 11-C ) :   1.2912 B( 10-C , 22-H ) :   0.9686
B( 11-C , 12-C ) :   1.3001 B( 11-C , 16-N ) :   1.2731 B( 12-C , 13-C ) :   1.4544
B( 12-C , 23-H ) :   0.9490 B( 13-C , 14-C ) :   0.9669 B( 13-C , 15-O ) :  -0.1433
B( 14-C , 15-O ) :   2.0632 B( 16-N , 24-H ) :   0.8933 B( 16-N , 25-H ) :   0.8925

FINAL SINGLE POINT ENERGY      -744.202496631888

DIPOLE MOMENT
-------------

Method             : SCF
Type of density    : Electron Density
Multiplicity       :   1
Irrep              :   0
Energy             :  -744.2155718094877557 Eh
Relativity type    :
Basis              : AO
                                X                 Y                 Z
Electronic contribution:     -1.272516906      -0.067258346       0.008462279
Nuclear contribution   :      2.933945470       0.843407344      -0.018013724
                        -----------------------------------------
Total Dipole Moment    :      1.661428564       0.776148998      -0.009551445
                        -----------------------------------------
Magnitude (a.u.)       :      1.833805707
Magnitude (Debye)      :      4.661163679

Rotational constants in cm-1:             0.035258             0.011333             0.008576
Rotational constants in MHz :          1056.994793           339.749088           257.107458

                             ****ORCA TERMINATED NORMALLY****
TOTAL RUN TIME: 0 days 0 hours 12 minutes 1 seconds 756 msec
