                         Program Version 6.0.0  -   RELEASE  -
|  1> ! pbe def2-sv(p) def2/J RI DEFGRID1 loosescf d4 GCP(DFT/SV(P)) printgap
|  2> %output
|  3>     printlevel normal
|  4> end
|  5> * xyz 0 1
|  6> C -2.2671028383 -1.127254406 -0.1103979769
|  7> C -0.8895590411 -0.5673780807 0.2468839407
|  8> H -0.7455243886 -0.6142604425 1.3355593592
|  9> C -0.7425543833 0.899243517 -0.199769912
| 10> H -1.2007337165 1.0031834623 -1.1976138322
| 11> C 0.7519937747 1.2705262056 -0.3197758941
| 12> H 0.8615772019 2.2839606207 0.0933642728
| 13> C 1.6280218004 0.3025761549 0.4930162807
| 14> H 2.6831049283 0.5393618109 0.2903924582
| 15> C 1.4057284488 -1.1413206179 -0.0103904634
| 16> H 1.6686974521 -1.8316085073 0.8074669373
| 17> O 0.0691072805 -1.3751435112 -0.4110139431
| 18> O 2.2313113322 -1.454618132 -1.07042673
| 19> O 1.361537386 0.3361641206 1.8690865748
| 20> O 1.222811803 1.2100094742 -1.6433153458
| 21> O -1.3389182386 1.7926157288 0.7046528259
| 22> O -3.2461495135 -0.3091314525 0.4876436707
| 23> H -2.3257900526 -2.158673571 0.2533194423
| 24> H -2.3657711308 -1.1325855049 -1.2030463954
| 25> H 2.0227552737 -0.8581033978 -1.8116055952
| 26> H 1.5444639357 1.2208589594 2.219162818
| 27> H 0.8131676449 1.9092029693 -2.1728614857
| 28> H -2.2373619442 1.4748142462 0.894467599
| 29> H -4.1237899984 -0.6762471871 0.3108628333
| 30> *
| 31>
| 32>                          ****END OF INPUT****

CARTESIAN COORDINATES (ANGSTROEM)
---------------------------------
  C     -2.267103   -1.127254   -0.110398
  C     -0.889559   -0.567378    0.246884
  H     -0.745524   -0.614260    1.335559
  C     -0.742554    0.899244   -0.199770
  H     -1.200734    1.003183   -1.197614
  C      0.751994    1.270526   -0.319776
  H      0.861577    2.283961    0.093364
  C      1.628022    0.302576    0.493016
  H      2.683105    0.539362    0.290392
  C      1.405728   -1.141321   -0.010390
  H      1.668697   -1.831609    0.807467
  O      0.069107   -1.375144   -0.411014
  O      2.231311   -1.454618   -1.070427
  O      1.361537    0.336164    1.869087
  O      1.222812    1.210009   -1.643315
  O     -1.338918    1.792616    0.704653
  O     -3.246150   -0.309131    0.487644
  H     -2.325790   -2.158674    0.253319
  H     -2.365771   -1.132586   -1.203046
  H      2.022755   -0.858103   -1.811606
  H      1.544464    1.220859    2.219163
  H      0.813168    1.909203   -2.172861
  H     -2.237362    1.474814    0.894468
  H     -4.123790   -0.676247    0.310863

 Total Charge           Charge          ....    0
 Multiplicity           Mult            ....    1
 Number of Electrons    NEL             ....   96
 Basis Dimension        Dim             ....  192

ORBITAL ENERGIES
----------------

  NO   OCC          E(Eh)            E(eV)
   0   2.0000     -18.772516      -510.8261
   1   2.0000     -18.767975      -510.7026
   2   2.0000     -18.756213      -510.3825
   3   2.0000     -18.755928      -510.3747
   4   2.0000     -18.738202      -509.8924
   5   2.0000     -18.737723      -509.8794
   6   2.0000      -9.973313      -271.3876
   7   2.0000      -9.944150      -270.5941
   8   2.0000      -9.938518      -270.4408
   9   2.0000      -9.937734      -270.4195
  10   2.0000      -9.934318      -270.3265
  11   2.0000      -9.933883      -270.3147
  12   2.0000      -0.970673       -26.4134
  13   2.0000      -0.945260       -25.7218
  14   2.0000      -0.942082       -25.6354
  15   2.0000      -0.929835       -25.3021
  16   2.0000      -0.915951       -24.9243
  17   2.0000      -0.897863       -24.4321
  18   2.0000      -0.694533       -18.8992
  19   2.0000      -0.685542       -18.6546
  20   2.0000      -0.620553       -16.8861
  21   2.0000      -0.576351       -15.6833
  22   2.0000      -0.561996       -15.2927
  23   2.0000      -0.512846       -13.9552
  24   2.0000      -0.499244       -13.5851
  25   2.0000      -0.491624       -13.3778
  26   2.0000      -0.468223       -12.7410
  27   2.0000      -0.459462       -12.5026
  28   2.0000      -0.447308       -12.1719
  29   2.0000      -0.429855       -11.6969
  30   2.0000      -0.413606       -11.2548
  31   2.0000      -0.405805       -11.0425
  32   2.0000      -0.381945       -10.3933
  33   2.0000      -0.371236       -10.1019
  34   2.0000      -0.353548        -9.6205
  35   2.0000      -0.345227        -9.3941
  36   2.0000      -0.324106        -8.8194
  37   2.0000      -0.316535        -8.6134
  38   2.0000      -0.310736        -8.4555
  39   2.0000      -0.298451        -8.1213
  40   2.0000      -0.269173        -7.3246
  41   2.0000      -0.263657        -7.1745
  42   2.0000      -0.242070        -6.5871
  43   2.0000      -0.238177        -6.4811
  44   2.0000      -0.233884        -6.3643
  45   2.0000      -0.218312        -5.9406
  46   2.0000      -0.215606        -5.8670
  47   2.0000      -0.192113        -5.2276
  48   0.0000       0.007969         0.2168
  49   0.0000       0.014123         0.3843
  50   0.0000       0.026084         0.7098
  51   0.0000       0.062382         1.6975
  52   0.0000       0.067286         1.8309

MULLIKEN ATOMIC CHARGES
-----------------------
   0 C :    0.074758
   1 C :   -0.027695
   2 H :    0.085236
   3 C :    0.096681
   4 H :    0.025123
   5 C :    0.056638
   6 H :    0.060015
   7 C :   -0.026474
   8 H :    0.079427
   9 C :    0.217209
  10 H :    0.069609
  11 O :   -0.309043
  12 O :   -0.393966
  13 O :   -0.400676
  14 O :   -0.425949
  15 O :   -0.430063
  16 O :   -0.448469
  17 H :    0.086536
  18 H :    0.074367
  19 H :    0.300334
  20 H :    0.306342
  21 H :    0.310051
  22 H :    0.305410
  23 H :    0.314601
Sum of atomic charges:    0.0000000

LOEWDIN ATOMIC CHARGES
----------------------
   0 C :   -0.121750
   1 C :   -0.075486
   2 H :    0.113575
   3 C :   -0.070933
   4 H :    0.091665
   5 C :   -0.070273
   6 H :    0.102627
   7 C :   -0.092245
   8 H :    0.109747
   9 C :    0.013896
  10 H :    0.102266
  11 O :   -0.152856
  12 O :   -0.295733
  13 O :   -0.305201
  14 O :   -0.313718
  15 O :   -0.329271
  16 O :   -0.337238
  17 H :    0.104824
  18 H :    0.098512
  19 H :    0.275733
  20 H :    0.289481
  21 H :    0.291452
  22 H :    0.276010
  23 H :    0.294914

  Mayer bond orders larger than 0.100000
B(  0-C ,  1-C ) :   1.0576 B(  0-C , 16-O ) :   1.0547 B(  0-C , 17-H ) :   0.9187
B(  0-C , 18-H ) :   0.9065 B(  1-C ,  2-H ) :   0.8608 B(  1-C ,  3-C ) :   1.0292
B(  1-C , 11-O ) :   1.0259 B(  3-C ,  4-H ) :   0.8791 B(  3-C ,  5-C ) :   0.9656
B(  3-C , 15-O ) :   1.0943 B(  5-C ,  6-H ) :   0.8864 B(  5-C ,  7-C ) :   1.0211
B(  5-C , 14-O ) :   1.0335 B(  7-C ,  8-H ) :   0.9000 B(  7-C ,  9-C ) :   0.9543
B(  7-C , 13-O ) :   1.0684 B(  9-C , 10-H ) :   0.9050 B(  9-C , 11-O ) :   1.0180
B(  9-C , 12-O ) :   1.1587 B( 12-O , 19-H ) :   0.8228 B( 13-O , 20-H ) :   0.8423
B( 14-O , 21-H ) :   0.8414 B( 15-O , 22-H ) :   0.8151 B( 16-O , 23-H ) :   0.8435

Dispersion correction           -0.024862616
FINAL SINGLE POINT ENERGY      -685.693171187631

DIPOLE MOMENT
-------------

Method             : SCF
Type of density    : Electron Density
Multiplicity       :   1
Irrep              :   0
Energy             :  -685.8244076060921088 Eh
Relativity type    :
Basis              : AO
                                X                 Y                 Z
Electronic contribution:      2.066011754      -0.283428810      -0.134087372
Nuclear contribution   :     -3.190221480       1.091148125      -0.170308180
                        -----------------------------------------
Total Dipole Moment    :     -1.124209726       0.807719315      -0.304395551
                        -----------------------------------------
Magnitude (a.u.)       :      1.417361864
Magnitude (Debye)      :      3.602647550

Rotational constants in cm-1:             0.044576             0.024927             0.021844
Rotational constants in MHz :          1336.352108           747.300331           654.858308

                             ****ORCA TERMINATED NORMALLY****
TOTAL RUN TIME: 0 days 0 hours 0 minutes 12 seconds 6 msec
