                         Program Version 6.0.0  -   RELEASE  -
|  1> ! r2scan-3c def2/J RI DEFGRID2 scfconv6 printgap
|  2> %output
|  3>     printlevel normal
|  4> end
|  5> * xyz 0 1
|  6> C -1.9240597753 -0.2556006067 0.5221592275
|  7> C -1.176196235 -0.0905072797 -0.7951401866
|  8> C 0.0983211243 0.7224880351 -0.6364715251
|  9> S 1.3232201284 -0.1957602975 0.3907791361
| 10> H -2.824601124 -0.8457700279 0.3757448142
| 11> H -1.2960708245 -0.7622310193 1.2525711437
| 12> H -2.2057155494 0.714766062 0.9250208513
| 13> H -1.8155693249 0.419455388 -1.5193219571
| 14> H -0.924917054 -1.0736462442 -1.2001909205
| 15> H 0.5670698732 0.9017422284 -1.6030041295
| 16> H -0.1020968102 1.667975729 -0.1338917983
| 17> H 2.2787860794 0.7202803116 0.308676372
| 18> *
| 19>
| 20>                          ****END OF INPUT****

CARTESIAN COORDINATES (ANGSTROEM)
---------------------------------
  C     -1.924060   -0.255601    0.522159
  C     -1.176196   -0.090507   -0.795140
  C      0.098321    0.722488   -0.636472
  S      1.323220   -0.195760    0.390779
  H     -2.824601   -0.845770    0.375745
  H     -1.296071   -0.762231    1.252571
  H     -2.205716    0.714766    0.925021
  H     -1.815569    0.419455   -1.519322
  H     -0.924917   -1.073646   -1.200191
  H      0.567070    0.901742   -1.603004
  H     -0.102097    1.667976   -0.133892
  H      2.278786    0.720280    0.308676

 Total Charge           Charge          ....    0
 Multiplicity           Mult            ....    1
 Number of Electrons    NEL             ....   42
 Basis Dimension        Dim             ....  124

ORBITAL ENERGIES
----------------

  NO   OCC          E(Eh)            E(eV)
   0   2.0000     -88.548781     -2409.5348
   1   2.0000     -10.064927      -273.8806
   2   2.0000     -10.039342      -273.1844
   3   2.0000     -10.020301      -272.6662
   4   2.0000      -7.843940      -213.4445
   5   2.0000      -5.790986      -157.5807
   6   2.0000      -5.787553      -157.4873
   7   2.0000      -5.780955      -157.3078
   8   2.0000      -0.779608       -21.2142
   9   2.0000      -0.702535       -19.1169
  10   2.0000      -0.625610       -17.0237
  11   2.0000      -0.547732       -14.9045
  12   2.0000      -0.445790       -12.1306
  13   2.0000      -0.431108       -11.7310
  14   2.0000      -0.385847       -10.4994
  15   2.0000      -0.368503       -10.0275
  16   2.0000      -0.335859        -9.1392
  17   2.0000      -0.320017        -8.7081
  18   2.0000      -0.316743        -8.6190
  19   2.0000      -0.291356        -7.9282
  20   2.0000      -0.207027        -5.6335
  21   0.0000       0.009068         0.2468
  22   0.0000       0.057056         1.5526
  23   0.0000       0.100573         2.7367
  24   0.0000       0.122916         3.3447
  25   0.0000       0.134165         3.6508

MULLIKEN ATOMIC CHARGES
-----------------------
   0 C :   -0.460871
   1 C :   -0.245086
   2 C :   -0.193436
   3 S :   -0.283241
   4 H :    0.147165
   5 H :    0.158164
   6 H :    0.140900
   7 H :    0.141696
   8 H :    0.148093
   9 H :    0.159888
  10 H :    0.149193
  11 H :    0.137535
Sum of atomic charges:   -0.0000000

LOEWDIN ATOMIC CHARGES
----------------------
   0 C :   -0.427106
   1 C :   -0.323261
   2 C :   -0.352285
   3 S :   -0.118319
   4 H :    0.151704
   5 H :    0.158405
   6 H :    0.151318
   7 H :    0.156839
   8 H :    0.157997
   9 H :    0.159490
  10 H :    0.158280
  11 H :    0.126940

  Mayer bond orders larger than 0.100000
B(  0-C ,  1-C ) :   0.9236 B(  0-C ,  4-H ) :   0.9718 B(  0-C ,  5-H ) :   0.9696
B(  0-C ,  6-H ) :   0.9780 B(  1-C ,  2-C ) :   0.9339 B(  1-C ,  7-H ) :   0.9570
B(  1-C ,  8-H ) :   0.9676 B(  2-C ,  3-S ) :   0.9681 B(  2-C ,  9-H ) :   0.9556
B(  2-C , 10-H ) :   0.9623 B(  3-S , 11-H ) :   0.9602

Dispersion correction           -0.002625670
FINAL SINGLE POINT ENERGY      -517.255502050278

DIPOLE MOMENT
-------------

Method             : SCF
Type of density    : Electron Density
Multiplicity       :   1
Irrep              :   0
Energy             :  -517.2618702198718665 Eh
Relativity type    :
Basis              : AO
                                X                 Y                 Z
Electronic contribution:      5.682674245      -1.159432749       1.131284539
Nuclear contribution   :     -5.969766861       1.640395572      -1.506920626
                        -----------------------------------------
Total Dipole Moment    :     -0.287092616       0.480962823      -0.375636087
                        -----------------------------------------
Magnitude (a.u.)       :      0.674425591
Magnitude (Debye)      :      1.714253618

Rotational constants in cm-1:             0.386366             0.110106             0.094977
Rotational constants in MHz :         11582.962888          3300.890763          2847.324942

                             ****ORCA TERMINATED NORMALLY****
TOTAL RUN TIME: 0 days 0 hours 0 minutes 10 seconds 224 msec
