                         Program Version 6.0.0  -   RELEASE  -
|  1> ! r2scan-3c def2/J RI DEFGRID2 scfconv6 printgap
|  2> %output
|  3>     printlevel normal
|  4> end
|  5> %cpcm
|  6>     smd true
|  7>     smdsolvent "water"
|  8> end
|  9> * xyz 0 1
| 10> C -1.9240597753 -0.2556006067 0.5221592275
| 11> C -1.176196235 -0.0905072797 -0.7951401866
| 12> C 0.0983211243 0.7224880351 -0.6364715251
| 13> S 1.3232201284 -0.1957602975 0.3907791361
| 14> H -2.824601124 -0.8457700279 0.3757448142
| 15> H -1.2960708245 -0.7622310193 1.2525711437
| 16> H -2.2057155494 0.714766062 0.9250208513
| 17> H -1.8155693249 0.419455388 -1.5193219571
| 18> H -0.924917054 -1.0736462442 -1.2001909205
| 19> H 0.5670698732 0.9017422284 -1.6030041295
| 20> H -0.1020968102 1.667975729 -0.1338917983
| 21> H 2.2787860794 0.7202803116 0.308676372
| 22> *
| 23>
| 24>                          ****END OF INPUT****

CARTESIAN COORDINATES (ANGSTROEM)
---------------------------------
  C     -1.924060   -0.255601    0.522159
  C     -1.176196   -0.090507   -0.795140
  C      0.098321    0.722488   -0.636472
  S      1.323220   -0.195760    0.390779
  H     -2.824601   -0.845770    0.375745
  H     -1.296071   -0.762231    1.252571
  H     -2.205716    0.714766    0.925021
  H     -1.815569    0.419455   -1.519322
  H     -0.924917   -1.073646   -1.200191
  H      0.567070    0.901742   -1.603004
  H     -0.102097    1.667976   -0.133892
  H      2.278786    0.720280    0.308676

 Total Charge           Charge          ....    0
 Multiplicity           Mult            ....    1
 Number of Electrons    NEL             ....   42
 Basis Dimension        Dim             ....  124

ORBITAL ENERGIES
----------------

  NO   OCC          E(Eh)            E(eV)
   0   2.0000     -88.547342     -2409.4957
   1   2.0000     -10.054379      -273.5936
   2   2.0000     -10.027615      -272.8653
   3   2.0000     -10.010906      -272.4106
   4   2.0000      -7.842630      -213.4088
   5   2.0000      -5.789422      -157.5382
   6   2.0000      -5.786092      -157.4476
   7   2.0000      -5.780081      -157.2840
   8   2.0000      -0.770639       -20.9701
   9   2.0000      -0.695937       -18.9374
  10   2.0000      -0.617793       -16.8110
  11   2.0000      -0.537576       -14.6282
  12   2.0000      -0.436570       -11.8797
  13   2.0000      -0.420371       -11.4389
  14   2.0000      -0.375560       -10.2195
  15   2.0000      -0.361602        -9.8397
  16   2.0000      -0.328214        -8.9312
  17   2.0000      -0.309797        -8.4300
  18   2.0000      -0.306969        -8.3530
  19   2.0000      -0.285546        -7.7701
  20   2.0000      -0.207938        -5.6583
  21   0.0000       0.013033         0.3546
  22   0.0000       0.063051         1.7157
  23   0.0000       0.110619         3.0101
  24   0.0000       0.132198         3.5973
  25   0.0000       0.141424         3.8483

MULLIKEN ATOMIC CHARGES
-----------------------
   0 C :   -0.503417
   1 C :   -0.243196
   2 C :   -0.207111
   3 S :   -0.360174
   4 H :    0.159920
   5 H :    0.155581
   6 H :    0.157802
   7 H :    0.159969
   8 H :    0.154195
   9 H :    0.180391
  10 H :    0.171049
  11 H :    0.174991
Sum of atomic charges:   -0.0000000

LOEWDIN ATOMIC CHARGES
----------------------
   0 C :   -0.435873
   1 C :   -0.323293
   2 C :   -0.346374
   3 S :   -0.155214
   4 H :    0.155346
   5 H :    0.154758
   6 H :    0.155410
   7 H :    0.164027
   8 H :    0.158839
   9 H :    0.167076
  10 H :    0.166017
  11 H :    0.139282

  Mayer bond orders larger than 0.100000
B(  0-C ,  1-C ) :   0.9062 B(  0-C ,  4-H ) :   0.9685 B(  0-C ,  5-H ) :   0.9722
B(  0-C ,  6-H ) :   0.9758 B(  1-C ,  2-C ) :   0.9216 B(  1-C ,  7-H ) :   0.9530
B(  1-C ,  8-H ) :   0.9687 B(  2-C ,  3-S ) :   0.9537 B(  2-C ,  9-H ) :   0.9529
B(  2-C , 10-H ) :   0.9612 B(  3-S , 11-H ) :   0.9535

Dispersion correction           -0.002625670
FINAL SINGLE POINT ENERGY      -517.257179479969

DIPOLE MOMENT
-------------

Method             : SCF
Type of density    : Electron Density
Multiplicity       :   1
Irrep              :   0
Energy             :  -517.2635476495627245 Eh
Relativity type    :
Basis              : AO
                                X                 Y                 Z
Electronic contribution:      5.593141116      -0.962314200       0.970025135
Nuclear contribution   :     -5.969766861       1.640395572      -1.506920626
                        -----------------------------------------
Total Dipole Moment    :     -0.376625746       0.678081372      -0.536895491
                        -----------------------------------------
Magnitude (a.u.)       :      0.943344088
Magnitude (Debye)      :      2.397790116

Rotational constants in cm-1:             0.386366             0.110106             0.094977
Rotational constants in MHz :         11582.962888          3300.890763          2847.324942

                             ****ORCA TERMINATED NORMALLY****
TOTAL RUN TIME: 0 days 0 hours 0 minutes 12 seconds 34 msec
