                         Program Version 6.0.0  -   RELEASE  -
|  1> ! wb97x-v def2-tzvp def2/J RIJCOSX DEFGRID2 scfconv7 GCP(DFT/TZ) printgap
|  2> %output
|  3>     printlevel normal
|  4> end
|  5> * xyz 0 1
|  6> C -2.9145712723586796 1.4696159775977846 -0.00016278397213007412
|  7> C -1.8104237750236039 0.4540719714449008 -0.00012032643689302393
|  8> C -2.105129561175777 -0.9165326596262173 3.251842113105789e-05
|  9> C -1.0969260458117 -1.8753841915453788 0.000245003337855548
| 10> C 0.23819771371886303 -1.492690806848931 0.0001884962455994522
| 11> C 0.5201308480597364 -0.1312838459016195 -0.00010206830223256307
| 12> C -0.4742352229531947 0.8442068710205233 -0.00013541777928164164
| 13> N 1.9196543071527776 0.29656359693772283 -0.000576963137854619
| 14> O 2.796731819199752 -0.5677215568790801 -0.0004602803410728476
| 15> O 2.1641472286352723 1.5032032282659908 0.0005574127696757119
| 16> H -3.5514698107964806 1.3474005569805636 0.882133193134288
| 17> H -2.518118833808134 2.4870605224327433 -0.0027765606032402247
| 18> H -3.554670004816117 1.3439621843633538 -0.8796280768993452
| 19> H -3.144371071400692 -1.2328839979965724 -2.049287418864349e-05
| 20> H -1.351040432437476 -2.9298037028459842 0.00035205896966091714
| 21> H 1.0345827266764906 -2.22540484254084 0.0003259580311621967
| 22> H -0.20773781693776489 1.894062000784005 -0.0002931325532295298
| 23> *
| 24>
| 25>                          ****END OF INPUT****

CARTESIAN COORDINATES (ANGSTROEM)
---------------------------------
  C     -2.914571    1.469616   -0.000163
  C     -1.810424    0.454072   -0.000120
  C     -2.105130   -0.916533    0.000033
  C     -1.096926   -1.875384    0.000245
  C      0.238198   -1.492691    0.000188
  C      0.520131   -0.131284   -0.000102
  C     -0.474235    0.844207   -0.000135
  N      1.919654    0.296564   -0.000577
  O      2.796732   -0.567722   -0.000460
  O      2.164147    1.503203    0.000557
  H     -3.551470    1.347401    0.882133
  H     -2.518119    2.487061   -0.002777
  H     -3.554670    1.343962   -0.879628
  H     -3.144371   -1.232884   -0.000020
  H     -1.351040   -2.929804    0.000352
  H      1.034583   -2.225405    0.000326
  H     -0.207738    1.894062   -0.000293

 Total Charge           Charge          ....    0
 Multiplicity           Mult            ....    1
 Number of Electrons    NEL             ....   72
 Basis Dimension        Dim             ....  352

ORBITAL ENERGIES
----------------

  NO   OCC          E(Eh)            E(eV)
   0   2.0000     -21.706436      -590.6622
   1   2.0000     -21.706237      -590.6567
   2   2.0000     -16.772465      -456.4020
   3   2.0000     -12.120802      -329.8238
   4   2.0000     -12.088322      -328.9400
   5   2.0000     -12.082611      -328.7846
   6   2.0000     -12.081023      -328.7413
   7   2.0000     -12.079868      -328.7099
   8   2.0000     -12.077791      -328.6534
   9   2.0000     -12.062548      -328.2386
  10   2.0000      -1.898938       -51.6727
  11   2.0000      -1.743447       -47.4416
  12   2.0000      -1.439376       -39.1674
  13   2.0000      -1.375161       -37.4200
  14   2.0000      -1.321207       -35.9519
  15   2.0000      -1.271888       -34.6098
  16   2.0000      -1.221191       -33.2303
  17   2.0000      -1.177563       -32.0431
  18   2.0000      -1.143743       -31.1228
  19   2.0000      -1.119404       -30.4605
  20   2.0000      -1.081777       -29.4367
  21   2.0000      -1.073170       -29.2024
  22   2.0000      -0.991401       -26.9774
  23   2.0000      -0.978079       -26.6149
  24   2.0000      -0.928989       -25.2791
  25   2.0000      -0.916422       -24.9371
  26   2.0000      -0.900520       -24.5044
  27   2.0000      -0.897796       -24.4303
  28   2.0000      -0.892092       -24.2751
  29   2.0000      -0.860700       -23.4208
  30   2.0000      -0.860312       -23.4103
  31   2.0000      -0.847333       -23.0571
  32   2.0000      -0.829704       -22.5774
  33   2.0000      -0.798626       -21.7317
  34   2.0000      -0.682179       -18.5630
  35   2.0000      -0.664031       -18.0692
  36   0.0000      -0.481995       -13.1158
  37   0.0000      -0.264748        -7.2042
  38   0.0000      -0.262368        -7.1394
  39   0.0000      -0.230994        -6.2857
  40   0.0000      -0.121109        -3.2955

MULLIKEN ATOMIC CHARGES
-----------------------
   0 C :   -0.367491
   1 C :    0.212877
   2 C :   -0.198057
   3 C :   -0.055942
   4 C :   -0.196465
   5 C :    0.069393
   6 C :   -0.272984
   7 N :    0.454347
   8 O :   -0.313204
   9 O :   -0.312526
  10 H :    0.130701
  11 H :    0.126847
  12 H :    0.130650
  13 H :    0.130721
  14 H :    0.131551
  15 H :    0.165719
  16 H :    0.163862
Sum of atomic charges:   -0.0000000

LOEWDIN ATOMIC CHARGES
----------------------
   0 C :   -0.244951
   1 C :   -0.159997
   2 C :   -0.088216
   3 C :   -0.125216
   4 C :   -0.092054
   5 C :   -0.158441
   6 C :   -0.066407
   7 N :   -0.000657
   8 O :   -0.033114
   9 O :   -0.033767
  10 H :    0.131009
  11 H :    0.127890
  12 H :    0.130983
  13 H :    0.149110
  14 H :    0.147575
  15 H :    0.157314
  16 H :    0.158938

  Mayer bond orders larger than 0.100000
B(  0-C ,  1-C ) :   0.9104 B(  0-C , 10-H ) :   0.9731 B(  0-C , 11-H ) :   0.9954
B(  0-C , 12-H ) :   0.9733 B(  1-C ,  2-C ) :   1.3645 B(  1-C ,  6-C ) :   1.4052
B(  2-C ,  3-C ) :   1.4345 B(  2-C , 13-H ) :   0.9716 B(  3-C ,  4-C ) :   1.4096
B(  3-C , 14-H ) :   0.9723 B(  4-C ,  5-C ) :   1.4308 B(  4-C , 15-H ) :   0.9320
B(  5-C ,  6-C ) :   1.4367 B(  5-C ,  7-N ) :   0.9950 B(  6-C , 16-H ) :   0.9172
B(  7-N ,  8-O ) :   1.6476 B(  7-N ,  9-O ) :   1.6483 B(  8-O ,  9-O ) :   0.1999

FINAL SINGLE POINT ENERGY      -476.098018436906

DIPOLE MOMENT
-------------

Method             : SCF
Type of density    : Electron Density
Multiplicity       :   1
Irrep              :   0
Energy             :  -476.1074619920056534 Eh
Relativity type    :
Basis              : AO
                                X                 Y                 Z
Electronic contribution:     10.474135118      -1.078316819      -0.000648311
Nuclear contribution   :    -12.438059187       0.656754100       0.000426767
                        -----------------------------------------
Total Dipole Moment    :     -1.963924069      -0.421562719      -0.000221544
                        -----------------------------------------
Magnitude (a.u.)       :      2.008659484
Magnitude (Debye)      :      5.105606660

Rotational constants in cm-1:             0.089165             0.032814             0.024094
Rotational constants in MHz :          2673.091130           983.753617           722.322765

                             ****ORCA TERMINATED NORMALLY****
TOTAL RUN TIME: 0 days 0 hours 3 minutes 30 seconds 246 msec
