                         Program Version 6.0.0  -   RELEASE  -
|  1> ! wb97x-v def2-tzvp def2/J RIJCOSX DEFGRID2 scfconv7 GCP(DFT/TZ) printgap
|  2> %output
|  3>     printlevel normal
|  4> end
|  5> %cpcm
|  6>     smd true
|  7>     smdsolvent "water"
|  8> end
|  9> * xyz 0 1
| 10> C -2.9145712723586796 1.4696159775977846 -0.00016278397213007412
| 11> C -1.8104237750236039 0.4540719714449008 -0.00012032643689302393
| 12> C -2.105129561175777 -0.9165326596262173 3.251842113105789e-05
| 13> C -1.0969260458117 -1.8753841915453788 0.000245003337855548
| 14> C 0.23819771371886303 -1.492690806848931 0.0001884962455994522
| 15> C 0.5201308480597364 -0.1312838459016195 -0.00010206830223256307
| 16> C -0.4742352229531947 0.8442068710205233 -0.00013541777928164164
| 17> N 1.9196543071527776 0.29656359693772283 -0.000576963137854619
| 18> O 2.796731819199752 -0.5677215568790801 -0.0004602803410728476
| 19> O 2.1641472286352723 1.5032032282659908 0.0005574127696757119
| 20> H -3.5514698107964806 1.3474005569805636 0.882133193134288
| 21> H -2.518118833808134 2.4870605224327433 -0.0027765606032402247
| 22> H -3.554670004816117 1.3439621843633538 -0.8796280768993452
| 23> H -3.144371071400692 -1.2328839979965724 -2.049287418864349e-05
| 24> H -1.351040432437476 -2.9298037028459842 0.00035205896966091714
| 25> H 1.0345827266764906 -2.22540484254084 0.0003259580311621967
| 26> H -0.20773781693776489 1.894062000784005 -0.0002931325532295298
| 27> *
| 28>
| 29>                          ****END OF INPUT****

CARTESIAN COORDINATES (ANGSTROEM)
---------------------------------
  C     -2.914571    1.469616   -0.000163
  C     -1.810424    0.454072   -0.000120
  C     -2.105130   -0.916533    0.000033
  C     -1.096926   -1.875384    0.000245
  C      0.238198   -1.492691    0.000188
  C      0.520131   -0.131284   -0.000102
  C     -0.474235    0.844207   -0.000135
  N      1.919654    0.296564   -0.000577
  O      2.796732   -0.567722   -0.000460
  O      2.164147    1.503203    0.000557
  H     -3.551470    1.347401    0.882133
  H     -2.518119    2.487061   -0.002777
  H     -3.554670    1.343962   -0.879628
  H     -3.144371   -1.232884   -0.000020
  H     -1.351040   -2.929804    0.000352
  H      1.034583   -2.225405    0.000326
  H     -0.207738    1.894062   -0.000293

 Total Charge           Charge          ....    0
 Multiplicity           Mult            ....    1
 Number of Electrons    NEL             ....   72
 Basis Dimension        Dim             ....  352

ORBITAL ENERGIES
----------------

  NO   OCC          E(Eh)            E(eV)
   0   2.0000     -21.721197      -591.0638
   1   2.0000     -21.721026      -591.0592
   2   2.0000     -16.786008      -456.7705
   3   2.0000     -12.113756      -329.6321
   4   2.0000     -12.073886      -328.5471
   5   2.0000     -12.071719      -328.4882
   6   2.0000     -12.069586      -328.4301
   7   2.0000     -12.064479      -328.2912
   8   2.0000     -12.062270      -328.2311
   9   2.0000     -12.038278      -327.5782
  10   2.0000      -1.913622       -52.0723
  11   2.0000      -1.758854       -47.8609
  12   2.0000      -1.435314       -39.0569
  13   2.0000      -1.370103       -37.2824
  14   2.0000      -1.307672       -35.5836
  15   2.0000      -1.269446       -34.5434
  16   2.0000      -1.203470       -32.7481
  17   2.0000      -1.184543       -32.2330
  18   2.0000      -1.157318       -31.4922
  19   2.0000      -1.110020       -30.2052
  20   2.0000      -1.086797       -29.5733
  21   2.0000      -1.071575       -29.1590
  22   2.0000      -0.979381       -26.6503
  23   2.0000      -0.963682       -26.2231
  24   2.0000      -0.932495       -25.3745
  25   2.0000      -0.927957       -25.2510
  26   2.0000      -0.911129       -24.7931
  27   2.0000      -0.895592       -24.3703
  28   2.0000      -0.885665       -24.1002
  29   2.0000      -0.843383       -22.9496
  30   2.0000      -0.838469       -22.8159
  31   2.0000      -0.830241       -22.5920
  32   2.0000      -0.807880       -21.9835
  33   2.0000      -0.787136       -21.4191
  34   2.0000      -0.672289       -18.2939
  35   2.0000      -0.651011       -17.7149
  36   0.0000      -0.491958       -13.3869
  37   0.0000      -0.252957        -6.8833
  38   0.0000      -0.249827        -6.7981
  39   0.0000      -0.237891        -6.4733
  40   0.0000      -0.126833        -3.4513

MULLIKEN ATOMIC CHARGES
-----------------------
   0 C :   -0.394980
   1 C :    0.177139
   2 C :   -0.217487
   3 C :   -0.104105
   4 C :   -0.216653
   5 C :    0.129622
   6 C :   -0.285206
   7 N :    0.511444
   8 O :   -0.374762
   9 O :   -0.373794
  10 H :    0.146992
  11 H :    0.146416
  12 H :    0.146993
  13 H :    0.170141
  14 H :    0.171832
  15 H :    0.183653
  16 H :    0.182754
Sum of atomic charges:   -0.0000000

LOEWDIN ATOMIC CHARGES
----------------------
   0 C :   -0.244385
   1 C :   -0.158346
   2 C :   -0.077123
   3 C :   -0.123856
   4 C :   -0.092839
   5 C :   -0.164742
   6 C :   -0.064935
   7 N :    0.012916
   8 O :   -0.068658
   9 O :   -0.068340
  10 H :    0.135903
  11 H :    0.132284
  12 H :    0.135885
  13 H :    0.161158
  14 H :    0.158431
  15 H :    0.162125
  16 H :    0.164521

  Mayer bond orders larger than 0.100000
B(  0-C ,  1-C ) :   0.9230 B(  0-C , 10-H ) :   0.9668 B(  0-C , 11-H ) :   0.9902
B(  0-C , 12-H ) :   0.9670 B(  1-C ,  2-C ) :   1.3425 B(  1-C ,  6-C ) :   1.4350
B(  2-C ,  3-C ) :   1.4154 B(  2-C , 13-H ) :   0.9753 B(  3-C ,  4-C ) :   1.4182
B(  3-C , 14-H ) :   0.9725 B(  4-C ,  5-C ) :   1.3674 B(  4-C , 15-H ) :   0.9448
B(  5-C ,  6-C ) :   1.3705 B(  5-C ,  7-N ) :   1.0077 B(  6-C , 16-H ) :   0.9280
B(  7-N ,  8-O ) :   1.6095 B(  7-N ,  9-O ) :   1.6125 B(  8-O ,  9-O ) :   0.1865

FINAL SINGLE POINT ENERGY      -476.102201124254

DIPOLE MOMENT
-------------

Method             : SCF
Type of density    : Electron Density
Multiplicity       :   1
Irrep              :   0
Energy             :  -476.1116446793536170 Eh
Relativity type    :
Basis              : AO
                                X                 Y                 Z
Electronic contribution:      9.790429073      -1.246809530      -0.000747090
Nuclear contribution   :    -12.438059187       0.656754100       0.000426767
                        -----------------------------------------
Total Dipole Moment    :     -2.647630114      -0.590055430      -0.000320323
                        -----------------------------------------
Magnitude (a.u.)       :      2.712583774
Magnitude (Debye)      :      6.894840012

Rotational constants in cm-1:             0.089165             0.032814             0.024094
Rotational constants in MHz :          2673.091130           983.753617           722.322765

                             ****ORCA TERMINATED NORMALLY****
TOTAL RUN TIME: 0 days 0 hours 3 minutes 34 seconds 673 msec
