                         Program Version 6.0.0  -   RELEASE  -
|  1> ! r2scan-3c def2/J RI DEFGRID2 scfconv6 printgap
|  2> %output
|  3>     printlevel normal
|  4> end
|  5> * xyz 0 1
|  6> C -2.3378608005 0.1402673775 -1.2617725236
|  7> C -1.6953807635 -0.4328821759 0.0036402647
|  8> C -2.3403331365 0.1626968967 1.2573400686
|  9> C -0.2044650415 -0.1971879263 0.0022158337
| 10> C 0.677678409 -1.2701663125 0.0065862303
| 11> C 2.0469607111 -1.0670996317 0.0047295402
| 12> C 2.5572002475 0.219185804 -0.0015087767
| 13> C 1.6883964703 1.2974916178 -0.006035588
| 14> C 0.3210574657 1.0898931659 -0.0042887188
| 15> H -1.8739252355 -0.2868102517 -2.1481081468
| 16> H -2.2199378616 1.2201245504 -1.2993503264
| 17> H -3.4003397023 -0.0906233487 -1.2801307755
| 18> H -1.8677960223 -1.514997166 0.0131729412
| 19> H -1.8768117511 -0.2469837863 2.1520550134
| 20> H -3.4024317762 -0.0697008664 1.2786401861
| 21> H -2.2245540912 1.2432754964 1.2749951393
| 22> H 0.2883030599 -2.2786817448 0.0114331505
| 23> H 2.7161171765 -1.9150345482 0.0081348258
| 24> H 3.6248382417 0.3810868988 -0.002820906
| 25> H 2.0785520559 2.3047945147 -0.0108218353
| 26> H -0.3417546723 1.9423586926 -0.0079998762
| 27> *
| 28>
| 29>                          ****END OF INPUT****

CARTESIAN COORDINATES (ANGSTROEM)
---------------------------------
  C     -2.337861    0.140267   -1.261773
  C     -1.695381   -0.432882    0.003640
  C     -2.340333    0.162697    1.257340
  C     -0.204465   -0.197188    0.002216
  C      0.677678   -1.270166    0.006586
  C      2.046961   -1.067100    0.004730
  C      2.557200    0.219186   -0.001509
  C      1.688396    1.297492   -0.006036
  C      0.321057    1.089893   -0.004289
  H     -1.873925   -0.286810   -2.148108
  H     -2.219938    1.220125   -1.299350
  H     -3.400340   -0.090623   -1.280131
  H     -1.867796   -1.514997    0.013173
  H     -1.876812   -0.246984    2.152055
  H     -3.402432   -0.069701    1.278640
  H     -2.224554    1.243275    1.274995
  H      0.288303   -2.278682    0.011433
  H      2.716117   -1.915035    0.008135
  H      3.624838    0.381087   -0.002821
  H      2.078552    2.304795   -0.010822
  H     -0.341755    1.942359   -0.008000

 Total Charge           Charge          ....    0
 Multiplicity           Mult            ....    1
 Number of Electrons    NEL             ....   66
 Basis Dimension        Dim             ....  231

ORBITAL ENERGIES
----------------

  NO   OCC          E(Eh)            E(eV)
   0   2.0000     -10.041247      -273.2362
   1   2.0000     -10.038483      -273.1610
   2   2.0000     -10.031826      -272.9799
   3   2.0000     -10.031123      -272.9607
   4   2.0000     -10.029884      -272.9270
   5   2.0000     -10.029232      -272.9093
   6   2.0000     -10.029100      -272.9057
   7   2.0000     -10.018909      -272.6284
   8   2.0000     -10.018908      -272.6284
   9   2.0000      -0.828864       -22.5545
  10   2.0000      -0.771118       -20.9832
  11   2.0000      -0.713333       -19.4108
  12   2.0000      -0.698067       -18.9954
  13   2.0000      -0.652720       -17.7614
  14   2.0000      -0.588672       -16.0186
  15   2.0000      -0.572160       -15.5693
  16   2.0000      -0.530873       -14.4458
  17   2.0000      -0.480713       -13.0809
  18   2.0000      -0.439424       -11.9573
  19   2.0000      -0.422208       -11.4889
  20   2.0000      -0.403073       -10.9682
  21   2.0000      -0.397025       -10.8036
  22   2.0000      -0.386801       -10.5254
  23   2.0000      -0.384445       -10.4613
  24   2.0000      -0.358025        -9.7423
  25   2.0000      -0.344451        -9.3730
  26   2.0000      -0.335539        -9.1305
  27   2.0000      -0.317989        -8.6529
  28   2.0000      -0.310105        -8.4384
  29   2.0000      -0.295464        -8.0400
  30   2.0000      -0.290458        -7.9038
  31   2.0000      -0.234419        -6.3789
  32   2.0000      -0.224746        -6.1156
  33   0.0000      -0.029892        -0.8134
  34   0.0000      -0.025525        -0.6946
  35   0.0000       0.076275         2.0756
  36   0.0000       0.098137         2.6704
  37   0.0000       0.102917         2.8005

MULLIKEN ATOMIC CHARGES
-----------------------
   0 C :   -0.478799
   1 C :   -0.084251
   2 C :   -0.478748
   3 C :    0.189664
   4 C :   -0.231179
   5 C :   -0.157767
   6 C :   -0.150878
   7 C :   -0.160868
   8 C :   -0.227649
   9 H :    0.155003
  10 H :    0.150877
  11 H :    0.147080
  12 H :    0.144633
  13 H :    0.155136
  14 H :    0.147159
  15 H :    0.150582
  16 H :    0.146949
  17 H :    0.144480
  18 H :    0.145661
  19 H :    0.144076
  20 H :    0.148842
Sum of atomic charges:   -0.0000000

LOEWDIN ATOMIC CHARGES
----------------------
   0 C :   -0.400024
   1 C :   -0.222242
   2 C :   -0.400141
   3 C :   -0.084633
   4 C :   -0.162310
   5 C :   -0.162606
   6 C :   -0.173697
   7 C :   -0.160971
   8 C :   -0.159286
   9 H :    0.158687
  10 H :    0.154136
  11 H :    0.152494
  12 H :    0.160603
  13 H :    0.158712
  14 H :    0.152529
  15 H :    0.154054
  16 H :    0.167861
  17 H :    0.166350
  18 H :    0.166082
  19 H :    0.166170
  20 H :    0.168232

  Mayer bond orders larger than 0.100000
B(  0-C ,  1-C ) :   0.9363 B(  0-C ,  9-H ) :   0.9718 B(  0-C , 10-H ) :   0.9756
B(  0-C , 11-H ) :   0.9749 B(  1-C ,  2-C ) :   0.9358 B(  1-C ,  3-C ) :   0.7947
B(  1-C , 12-H ) :   1.0037 B(  2-C , 13-H ) :   0.9720 B(  2-C , 14-H ) :   0.9749
B(  2-C , 15-H ) :   0.9754 B(  3-C ,  4-C ) :   1.4158 B(  3-C ,  8-C ) :   1.3847
B(  4-C ,  5-C ) :   1.4361 B(  4-C , 16-H ) :   0.9467 B(  5-C ,  6-C ) :   1.4347
B(  5-C , 17-H ) :   0.9485 B(  6-C ,  7-C ) :   1.4244 B(  6-C , 18-H ) :   0.9482
B(  7-C ,  8-C ) :   1.4617 B(  7-C , 19-H ) :   0.9507 B(  8-C , 20-H ) :   0.9424

Dispersion correction           -0.007043888
FINAL SINGLE POINT ENERGY      -350.080439270965

DIPOLE MOMENT
-------------

Method             : SCF
Type of density    : Electron Density
Multiplicity       :   1
Irrep              :   0
Energy             :  -350.0803781489473181 Eh
Relativity type    :
Basis              : AO
                                X                 Y                 Z
Electronic contribution:      7.821679229      -0.675959720       0.010071386
Nuclear contribution   :     -7.974176542       0.646217383      -0.010132776
                        -----------------------------------------
Total Dipole Moment    :     -0.152497313      -0.029742337      -0.000061390
                        -----------------------------------------
Magnitude (a.u.)       :      0.155370656
Magnitude (Debye)      :      0.394920824

Rotational constants in cm-1:             0.112965             0.036685             0.033675
Rotational constants in MHz :          3386.613018          1099.800567          1009.543096

                             ****ORCA TERMINATED NORMALLY****
TOTAL RUN TIME: 0 days 0 hours 0 minutes 26 seconds 231 msec
