                         Program Version 6.0.0  -   RELEASE  -
|  1> ! r2scan-3c def2/J RI DEFGRID2 scfconv6 printgap
|  2> %output
|  3>     printlevel normal
|  4> end
|  5> %cpcm
|  6>     smd true
|  7>     smdsolvent "water"
|  8> end
|  9> * xyz 0 1
| 10> C -2.3378608005 0.1402673775 -1.2617725236
| 11> C -1.6953807635 -0.4328821759 0.0036402647
| 12> C -2.3403331365 0.1626968967 1.2573400686
| 13> C -0.2044650415 -0.1971879263 0.0022158337
| 14> C 0.677678409 -1.2701663125 0.0065862303
| 15> C 2.0469607111 -1.0670996317 0.0047295402
| 16> C 2.5572002475 0.219185804 -0.0015087767
| 17> C 1.6883964703 1.2974916178 -0.006035588
| 18> C 0.3210574657 1.0898931659 -0.0042887188
| 19> H -1.8739252355 -0.2868102517 -2.1481081468
| 20> H -2.2199378616 1.2201245504 -1.2993503264
| 21> H -3.4003397023 -0.0906233487 -1.2801307755
| 22> H -1.8677960223 -1.514997166 0.0131729412
| 23> H -1.8768117511 -0.2469837863 2.1520550134
| 24> H -3.4024317762 -0.0697008664 1.2786401861
| 25> H -2.2245540912 1.2432754964 1.2749951393
| 26> H 0.2883030599 -2.2786817448 0.0114331505
| 27> H 2.7161171765 -1.9150345482 0.0081348258
| 28> H 3.6248382417 0.3810868988 -0.002820906
| 29> H 2.0785520559 2.3047945147 -0.0108218353
| 30> H -0.3417546723 1.9423586926 -0.0079998762
| 31> *
| 32>
| 33>                          ****END OF INPUT****

CARTESIAN COORDINATES (ANGSTROEM)
---------------------------------
  C     -2.337861    0.140267   -1.261773
  C     -1.695381   -0.432882    0.003640
  C     -2.340333    0.162697    1.257340
  C     -0.204465   -0.197188    0.002216
  C      0.677678   -1.270166    0.006586
  C      2.046961   -1.067100    0.004730
  C      2.557200    0.219186   -0.001509
  C      1.688396    1.297492   -0.006036
  C      0.321057    1.089893   -0.004289
  H     -1.873925   -0.286810   -2.148108
  H     -2.219938    1.220125   -1.299350
  H     -3.400340   -0.090623   -1.280131
  H     -1.867796   -1.514997    0.013173
  H     -1.876812   -0.246984    2.152055
  H     -3.402432   -0.069701    1.278640
  H     -2.224554    1.243275    1.274995
  H      0.288303   -2.278682    0.011433
  H      2.716117   -1.915035    0.008135
  H      3.624838    0.381087   -0.002821
  H      2.078552    2.304795   -0.010822
  H     -0.341755    1.942359   -0.008000

 Total Charge           Charge          ....    0
 Multiplicity           Mult            ....    1
 Number of Electrons    NEL             ....   66
 Basis Dimension        Dim             ....  231

ORBITAL ENERGIES
----------------

  NO   OCC          E(Eh)            E(eV)
   0   2.0000     -10.037652      -273.1384
   1   2.0000     -10.034004      -273.0391
   2   2.0000     -10.030627      -272.9472
   3   2.0000     -10.030111      -272.9332
   4   2.0000     -10.028093      -272.8783
   5   2.0000     -10.027844      -272.8715
   6   2.0000     -10.027566      -272.8639
   7   2.0000     -10.010668      -272.4041
   8   2.0000     -10.010643      -272.4035
   9   2.0000      -0.828924       -22.5562
  10   2.0000      -0.766424       -20.8555
  11   2.0000      -0.712838       -19.3973
  12   2.0000      -0.695682       -18.9305
  13   2.0000      -0.645253       -17.5582
  14   2.0000      -0.584771       -15.9124
  15   2.0000      -0.569899       -15.5077
  16   2.0000      -0.526424       -14.3247
  17   2.0000      -0.476392       -12.9633
  18   2.0000      -0.434900       -11.8342
  19   2.0000      -0.417111       -11.3502
  20   2.0000      -0.398521       -10.8443
  21   2.0000      -0.392059       -10.6685
  22   2.0000      -0.381632       -10.3847
  23   2.0000      -0.380536       -10.3549
  24   2.0000      -0.350422        -9.5355
  25   2.0000      -0.339614        -9.2414
  26   2.0000      -0.335682        -9.1344
  27   2.0000      -0.312273        -8.4974
  28   2.0000      -0.304095        -8.2748
  29   2.0000      -0.288851        -7.8600
  30   2.0000      -0.285135        -7.7589
  31   2.0000      -0.237562        -6.4644
  32   2.0000      -0.226744        -6.1700
  33   0.0000      -0.031753        -0.8640
  34   0.0000      -0.027364        -0.7446
  35   0.0000       0.084999         2.3129
  36   0.0000       0.104805         2.8519
  37   0.0000       0.112714         3.0671

MULLIKEN ATOMIC CHARGES
-----------------------
   0 C :   -0.530811
   1 C :   -0.025140
   2 C :   -0.530704
   3 C :    0.124624
   4 C :   -0.251510
   5 C :   -0.196492
   6 C :   -0.184742
   7 C :   -0.198290
   8 C :   -0.246374
   9 H :    0.161810
  10 H :    0.168391
  11 H :    0.162225
  12 H :    0.162960
  13 H :    0.161888
  14 H :    0.162289
  15 H :    0.168221
  16 H :    0.178224
  17 H :    0.176082
  18 H :    0.177718
  19 H :    0.175717
  20 H :    0.183912
Sum of atomic charges:   -0.0000000

LOEWDIN ATOMIC CHARGES
----------------------
   0 C :   -0.407815
   1 C :   -0.219333
   2 C :   -0.407942
   3 C :   -0.092487
   4 C :   -0.172167
   5 C :   -0.175368
   6 C :   -0.187885
   7 C :   -0.173621
   8 C :   -0.168429
   9 H :    0.158826
  10 H :    0.158630
  11 H :    0.157482
  12 H :    0.166750
  13 H :    0.158839
  14 H :    0.157504
  15 H :    0.158601
  16 H :    0.178687
  17 H :    0.176637
  18 H :    0.176001
  19 H :    0.176495
  20 H :    0.180594

  Mayer bond orders larger than 0.100000
B(  0-C ,  1-C ) :   0.9118 B(  0-C ,  9-H ) :   0.9714 B(  0-C , 10-H ) :   0.9744
B(  0-C , 11-H ) :   0.9711 B(  1-C ,  2-C ) :   0.9114 B(  1-C ,  3-C ) :   0.8014
B(  1-C , 12-H ) :   1.0016 B(  2-C , 13-H ) :   0.9715 B(  2-C , 14-H ) :   0.9712
B(  2-C , 15-H ) :   0.9742 B(  3-C ,  4-C ) :   1.3878 B(  3-C ,  8-C ) :   1.3661
B(  4-C ,  5-C ) :   1.4000 B(  4-C , 16-H ) :   0.9547 B(  5-C ,  6-C ) :   1.3930
B(  5-C , 17-H ) :   0.9586 B(  6-C ,  7-C ) :   1.3823 B(  6-C , 18-H ) :   0.9555
B(  7-C ,  8-C ) :   1.4197 B(  7-C , 19-H ) :   0.9617 B(  8-C , 20-H ) :   0.9486

Dispersion correction           -0.007043888
FINAL SINGLE POINT ENERGY      -350.081345267629

DIPOLE MOMENT
-------------

Method             : SCF
Type of density    : Electron Density
Multiplicity       :   1
Irrep              :   0
Energy             :  -350.0812841456114484 Eh
Relativity type    :
Basis              : AO
                                X                 Y                 Z
Electronic contribution:      7.709336522      -0.677099763       0.009885282
Nuclear contribution   :     -7.974176542       0.646217383      -0.010132776
                        -----------------------------------------
Total Dipole Moment    :     -0.264840020      -0.030882381      -0.000247494
                        -----------------------------------------
Magnitude (a.u.)       :      0.266634617
Magnitude (Debye)      :      0.677731336

Rotational constants in cm-1:             0.112965             0.036685             0.033675
Rotational constants in MHz :          3386.613018          1099.800567          1009.543096

                             ****ORCA TERMINATED NORMALLY****
TOTAL RUN TIME: 0 days 0 hours 0 minutes 30 seconds 919 msec
