                         Program Version 6.0.0  -   RELEASE  -
|  1> ! pbe def2-sv(p) def2/J RI DEFGRID1 loosescf d4 GCP(DFT/SV(P)) printgap
|  2> %output
|  3>     printlevel normal
|  4> end
|  5> * xyz 0 1
|  6> C -1.4773761728 -1.4057696628 0.3665423608
|  7> C -1.0426980448 -1.90007e-05 1.77316e-05
|  8> C -1.4772673443 1.0203418262 1.0341450466
|  9> C -1.4773924844 0.3854745297 -1.400638122
| 10> Br 1.0038017672 -8.1529e-06 -1.17706e-05
| 11> H -1.1076030216 -1.6826113869 1.3514302506
| 12> H -2.5644460873 -1.4511087654 0.3781856388
| 13> H -1.1073700187 -2.128286544 -0.3576492228
| 14> H -1.1069122867 0.7546868019 2.0218912526
| 15> H -1.1077115418 2.0117088636 0.7811679977
| 16> H -2.5643310664 1.0529496443 1.0678934848
| 17> H -2.5644674332 0.3984528981 -1.4456122703
| 18> H -1.1079514482 -0.3292200299 -2.1328188779
| 19> H -1.1070713408 1.3737448468 -1.6643537361
| 20> *
| 21>
| 22>                          ****END OF INPUT****

CARTESIAN COORDINATES (ANGSTROEM)
---------------------------------
  C     -1.477376   -1.405770    0.366542
  C     -1.042698   -0.000019    0.000018
  C     -1.477267    1.020342    1.034145
  C     -1.477392    0.385475   -1.400638
  Br     1.003802   -0.000008   -0.000012
  H     -1.107603   -1.682611    1.351430
  H     -2.564446   -1.451109    0.378186
  H     -1.107370   -2.128287   -0.357649
  H     -1.106912    0.754687    2.021891
  H     -1.107712    2.011709    0.781168
  H     -2.564331    1.052950    1.067893
  H     -2.564467    0.398453   -1.445612
  H     -1.107951   -0.329220   -2.132819
  H     -1.107071    1.373745   -1.664354

 Total Charge           Charge          ....    0
 Multiplicity           Mult            ....    1
 Number of Electrons    NEL             ....   68
 Basis Dimension        Dim             ....  106

ORBITAL ENERGIES
----------------

  NO   OCC          E(Eh)            E(eV)
   0   2.0000    -480.908722    -13086.1916
   1   2.0000     -61.750850     -1680.3261
   2   2.0000     -55.681272     -1515.1644
   3   2.0000     -55.678457     -1515.0878
   4   2.0000     -55.678457     -1515.0878
   5   2.0000      -9.966170      -271.1933
   6   2.0000      -9.889190      -269.0985
   7   2.0000      -9.889171      -269.0980
   8   2.0000      -9.889127      -269.0968
   9   2.0000      -8.375844      -227.9183
  10   2.0000      -6.257140      -170.2654
  11   2.0000      -6.243729      -169.9005
  12   2.0000      -6.243729      -169.9005
  13   2.0000      -2.458341       -66.8949
  14   2.0000      -2.455096       -66.8066
  15   2.0000      -2.455096       -66.8066
  16   2.0000      -2.445064       -66.5336
  17   2.0000      -2.445045       -66.5331
  18   2.0000      -0.764441       -20.8015
  19   2.0000      -0.662798       -18.0357
  20   2.0000      -0.630800       -17.1650
  21   2.0000      -0.630791       -17.1647
  22   2.0000      -0.490396       -13.3443
  23   2.0000      -0.423553       -11.5255
  24   2.0000      -0.408138       -11.1060
  25   2.0000      -0.408110       -11.1052
  26   2.0000      -0.360376        -9.8063
  27   2.0000      -0.360371        -9.8062
  28   2.0000      -0.333555        -9.0765
  29   2.0000      -0.312802        -8.5118
  30   2.0000      -0.312787        -8.5114
  31   2.0000      -0.291293        -7.9265
  32   2.0000      -0.227586        -6.1929
  33   2.0000      -0.227584        -6.1929
  34   0.0000      -0.041334        -1.1248
  35   0.0000       0.028700         0.7810
  36   0.0000       0.087589         2.3834
  37   0.0000       0.087704         2.3865
  38   0.0000       0.090970         2.4754

MULLIKEN ATOMIC CHARGES
-----------------------
   0 C :   -0.183421
   1 C :   -0.338746
   2 C :   -0.183076
   3 C :   -0.183353
   4 Br:   -0.120334
   5 H :    0.115911
   6 H :    0.104666
   7 H :    0.115812
   8 H :    0.115863
   9 H :    0.115843
  10 H :    0.104482
  11 H :    0.104648
  12 H :    0.115791
  13 H :    0.115913
Sum of atomic charges:    0.0000000

LOEWDIN ATOMIC CHARGES
----------------------
   0 C :   -0.332516
   1 C :   -0.112874
   2 C :   -0.332462
   3 C :   -0.332506
   4 Br:   -0.019756
   5 H :    0.125852
   6 H :    0.125057
   7 H :    0.125827
   8 H :    0.125821
   9 H :    0.125819
  10 H :    0.125014
  11 H :    0.125053
  12 H :    0.125823
  13 H :    0.125846

  Mayer bond orders larger than 0.100000
B(  0-C ,  1-C ) :   1.0629 B(  0-C ,  5-H ) :   0.9451 B(  0-C ,  6-H ) :   0.9307
B(  0-C ,  7-H ) :   0.9451 B(  1-C ,  2-C ) :   1.0625 B(  1-C ,  3-C ) :   1.0629
B(  1-C ,  4-Br) :   0.9888 B(  2-C ,  8-H ) :   0.9451 B(  2-C ,  9-H ) :   0.9452
B(  2-C , 10-H ) :   0.9307 B(  3-C , 11-H ) :   0.9308 B(  3-C , 12-H ) :   0.9451
B(  3-C , 13-H ) :   0.9451

Dispersion correction           -0.011672102
FINAL SINGLE POINT ENERGY     -2730.894866449248

DIPOLE MOMENT
-------------

Method             : SCF
Type of density    : Electron Density
Multiplicity       :   1
Irrep              :   0
Energy             : -2730.9452110219126553 Eh
Relativity type    :
Basis              : AO
                                X                 Y                 Z
Electronic contribution:     21.882287294      -0.000383946      -0.000196008
Nuclear contribution   :    -22.771785758       0.000372472       0.000235492
                        -----------------------------------------
Total Dipole Moment    :     -0.889498464      -0.000011474       0.000039484
                        -----------------------------------------
Magnitude (a.u.)       :      0.889498465
Magnitude (Debye)      :      2.260925420

Rotational constants in cm-1:             0.151849             0.066103             0.066102
Rotational constants in MHz :          4552.326413          1981.721665          1981.685315

                             ****ORCA TERMINATED NORMALLY****
TOTAL RUN TIME: 0 days 0 hours 0 minutes 6 seconds 166 msec
