                         Program Version 6.0.0  -   RELEASE  -
|  1> ! pbe def2-sv(p) def2/J RI DEFGRID1 loosescf d4 GCP(DFT/SV(P)) printgap
|  2> %output
|  3>     printlevel normal
|  4> end
|  5> * xyz 0 1
|  6> C -2.2596702163 -0.972361441 -0.3475384498
|  7> C -1.1426713789 -0.2235683102 0.3900507407
|  8> H -1.5688266073 0.2300309563 1.2936694463
|  9> C -0.5520466614 0.8902217142 -0.4766070964
| 10> H -0.3499366786 0.5075553912 -1.4852756521
| 11> C 0.7828111949 1.3303657702 0.157663146
| 12> H 0.6011295668 1.5583867127 1.2178943659
| 13> C 1.7819244966 0.1688559264 0.0596458606
| 14> H 2.2977749866 0.2456507892 -0.9026067218
| 15> C 1.0438576844 -1.1910625591 0.0956636562
| 16> H 1.6736610921 -1.9005420207 0.650021842
| 17> O -0.1450248495 -1.1389717019 0.8488347561
| 18> O 0.8287881347 -1.6153453107 -1.2134123958
| 19> O 2.7860744512 0.2328237243 1.0346940007
| 20> O 1.332181795 2.4472624227 -0.4986186175
| 21> O -1.4858188899 1.9414744489 -0.5160489908
| 22> O -2.9438660659 -1.8654306514 0.4950230486
| 23> H -1.832691937 -1.5010529415 -1.2098272727
| 24> H -2.9963920547 -0.2474062278 -0.6978399684
| 25> H 0.6696486828 -2.5711434146 -1.2430939313
| 26> H 2.3903146909 0.2410813228 1.9192861192
| 27> H 0.880496128 3.2504541755 -0.2020994327
| 28> H -1.264790582 2.5343620827 -1.2487611621
| 29> H -2.290036557 -2.405364712 0.9634389154
| 30> *
| 31>
| 32>                          ****END OF INPUT****

CARTESIAN COORDINATES (ANGSTROEM)
---------------------------------
  C     -2.259670   -0.972361   -0.347538
  C     -1.142671   -0.223568    0.390051
  H     -1.568827    0.230031    1.293669
  C     -0.552047    0.890222   -0.476607
  H     -0.349937    0.507555   -1.485276
  C      0.782811    1.330366    0.157663
  H      0.601130    1.558387    1.217894
  C      1.781924    0.168856    0.059646
  H      2.297775    0.245651   -0.902607
  C      1.043858   -1.191063    0.095664
  H      1.673661   -1.900542    0.650022
  O     -0.145025   -1.138972    0.848835
  O      0.828788   -1.615345   -1.213412
  O      2.786074    0.232824    1.034694
  O      1.332182    2.447262   -0.498619
  O     -1.485819    1.941474   -0.516049
  O     -2.943866   -1.865431    0.495023
  H     -1.832692   -1.501053   -1.209827
  H     -2.996392   -0.247406   -0.697840
  H      0.669649   -2.571143   -1.243094
  H      2.390315    0.241081    1.919286
  H      0.880496    3.250454   -0.202099
  H     -1.264791    2.534362   -1.248761
  H     -2.290037   -2.405365    0.963439

 Total Charge           Charge          ....    0
 Multiplicity           Mult            ....    1
 Number of Electrons    NEL             ....   96
 Basis Dimension        Dim             ....  192

ORBITAL ENERGIES
----------------

  NO   OCC          E(Eh)            E(eV)
   0   2.0000     -18.775959      -510.9198
   1   2.0000     -18.773268      -510.8466
   2   2.0000     -18.764091      -510.5969
   3   2.0000     -18.759632      -510.4755
   4   2.0000     -18.751927      -510.2659
   5   2.0000     -18.737671      -509.8779
   6   2.0000      -9.990418      -271.8531
   7   2.0000      -9.945142      -270.6211
   8   2.0000      -9.943296      -270.5708
   9   2.0000      -9.942517      -270.5496
  10   2.0000      -9.942144      -270.5395
  11   2.0000      -9.922429      -270.0030
  12   2.0000      -0.987066       -26.8594
  13   2.0000      -0.950446       -25.8630
  14   2.0000      -0.934346       -25.4248
  15   2.0000      -0.925172       -25.1752
  16   2.0000      -0.921262       -25.0688
  17   2.0000      -0.909376       -24.7454
  18   2.0000      -0.710070       -19.3220
  19   2.0000      -0.692388       -18.8408
  20   2.0000      -0.616857       -16.7855
  21   2.0000      -0.589618       -16.0443
  22   2.0000      -0.565450       -15.3867
  23   2.0000      -0.524864       -14.2823
  24   2.0000      -0.511717       -13.9245
  25   2.0000      -0.493408       -13.4263
  26   2.0000      -0.473553       -12.8860
  27   2.0000      -0.460557       -12.5324
  28   2.0000      -0.452909       -12.3243
  29   2.0000      -0.433544       -11.7973
  30   2.0000      -0.403022       -10.9668
  31   2.0000      -0.396779       -10.7969
  32   2.0000      -0.388548       -10.5729
  33   2.0000      -0.381790       -10.3890
  34   2.0000      -0.363042        -9.8789
  35   2.0000      -0.354750        -9.6533
  36   2.0000      -0.331917        -9.0319
  37   2.0000      -0.310822        -8.4579
  38   2.0000      -0.303319        -8.2537
  39   2.0000      -0.290419        -7.9027
  40   2.0000      -0.285058        -7.7568
  41   2.0000      -0.269997        -7.3470
  42   2.0000      -0.257611        -7.0100
  43   2.0000      -0.255128        -6.9424
  44   2.0000      -0.240435        -6.5426
  45   2.0000      -0.223291        -6.0761
  46   2.0000      -0.212974        -5.7953
  47   2.0000      -0.200811        -5.4644
  48   0.0000       0.004265         0.1161
  49   0.0000       0.012248         0.3333
  50   0.0000       0.024641         0.6705
  51   0.0000       0.046834         1.2744
  52   0.0000       0.053455         1.4546

MULLIKEN ATOMIC CHARGES
-----------------------
   0 C :    0.089029
   1 C :    0.033138
   2 H :    0.073472
   3 C :    0.001264
   4 H :    0.075690
   5 C :    0.050156
   6 H :    0.037523
   7 C :    0.106228
   8 H :    0.087535
   9 C :    0.129339
  10 H :    0.067647
  11 O :   -0.332902
  12 O :   -0.387595
  13 O :   -0.414882
  14 O :   -0.405290
  15 O :   -0.411069
  16 O :   -0.436644
  17 H :    0.055635
  18 H :    0.088268
  19 H :    0.308765
  20 H :    0.296472
  21 H :    0.296323
  22 H :    0.299532
  23 H :    0.292366
Sum of atomic charges:    0.0000000

LOEWDIN ATOMIC CHARGES
----------------------
   0 C :   -0.132720
   1 C :   -0.068216
   2 H :    0.117760
   3 C :   -0.087164
   4 H :    0.112076
   5 C :   -0.075871
   6 H :    0.100871
   7 C :   -0.072990
   8 H :    0.131303
   9 C :   -0.014151
  10 H :    0.101085
  11 O :   -0.158422
  12 O :   -0.305450
  13 O :   -0.306550
  14 O :   -0.314518
  15 O :   -0.314662
  16 O :   -0.340411
  17 H :    0.092657
  18 H :    0.118517
  19 H :    0.289861
  20 H :    0.281782
  21 H :    0.283207
  22 H :    0.285247
  23 H :    0.276757

  Mayer bond orders larger than 0.100000
B(  0-C ,  1-C ) :   1.0780 B(  0-C , 16-O ) :   1.0725 B(  0-C , 17-H ) :   0.8998
B(  0-C , 18-H ) :   0.9117 B(  1-C ,  2-H ) :   0.8746 B(  1-C ,  3-C ) :   0.9647
B(  1-C , 11-O ) :   0.9546 B(  3-C ,  4-H ) :   0.8788 B(  3-C ,  5-C ) :   1.0092
B(  3-C , 15-O ) :   1.0678 B(  5-C ,  6-H ) :   0.8626 B(  5-C ,  7-C ) :   1.0062
B(  5-C , 14-O ) :   1.1056 B(  7-C ,  8-H ) :   0.8629 B(  7-C ,  9-C ) :   0.9808
B(  7-C , 13-O ) :   1.0451 B(  9-C , 10-H ) :   0.9008 B(  9-C , 11-O ) :   1.0641
B(  9-C , 12-O ) :   1.1042 B( 12-O , 19-H ) :   0.8347 B( 13-O , 20-H ) :   0.8491
B( 14-O , 21-H ) :   0.8430 B( 15-O , 22-H ) :   0.8409 B( 16-O , 23-H ) :   0.8453

Dispersion correction           -0.024387847
FINAL SINGLE POINT ENERGY      -685.689832867297

DIPOLE MOMENT
-------------

Method             : SCF
Type of density    : Electron Density
Multiplicity       :   1
Irrep              :   0
Energy             :  -685.8195352230334265 Eh
Relativity type    :
Basis              : AO
                                X                 Y                 Z
Electronic contribution:      1.858201060       0.119569554       0.922090446
Nuclear contribution   :     -1.673479519      -0.054375644      -0.884523090
                        -----------------------------------------
Total Dipole Moment    :      0.184721541       0.065193910       0.037567357
                        -----------------------------------------
Magnitude (a.u.)       :      0.199458266
Magnitude (Debye)      :      0.506982622

Rotational constants in cm-1:             0.042561             0.025540             0.018834
Rotational constants in MHz :          1275.952881           765.678068           564.614400

                             ****ORCA TERMINATED NORMALLY****
TOTAL RUN TIME: 0 days 0 hours 0 minutes 12 seconds 77 msec
