                         Program Version 6.0.0  -   RELEASE  -
|  1> ! wb97x-v def2-tzvp def2/J RIJCOSX DEFGRID2 scfconv7 GCP(DFT/TZ) printgap
|  2> %output
|  3>     printlevel normal
|  4> end
|  5> * xyz 0 1
|  6> C -1.7600827063244757 -1.464901619187022 0.14285683655532153
|  7> C -1.6332788174979265 -0.017681989424253045 -0.3236394747332917
|  8> C -2.9411539747458626 0.7474827827065106 -0.07796679473749912
|  9> C -0.5338560003330619 0.7352615268534728 0.40021962237365916
| 10> Br 1.2877498590798717 -0.003234117566030543 0.027264988199418222
| 11> H -1.9761574634433545 -1.5032601282899474 1.217246404328511
| 12> H -2.576932431227402 -1.9657967400866743 -0.38579776263651483
| 13> H -0.8409350586337299 -2.0288644210351428 -0.04073292123049911
| 14> H -1.4180203817300774 -0.0005578975042452667 -1.3992401800447716
| 15> H -2.8805625162563953 1.7768815431327138 -0.44484026580528413
| 16> H -3.1782705106337876 0.7761489360371557 0.9915899662966094
| 17> H -3.7676670136447132 0.24906101240348935 -0.5937262295196429
| 18> H -0.6420178130712281 0.6770457282056306 1.4849391837327555
| 19> H -0.47140826711786926 1.7768375587191736 0.08565322330598331
| 20> *
| 21>
| 22>                          ****END OF INPUT****

CARTESIAN COORDINATES (ANGSTROEM)
---------------------------------
  C     -1.760083   -1.464902    0.142857
  C     -1.633279   -0.017682   -0.323639
  C     -2.941154    0.747483   -0.077967
  C     -0.533856    0.735262    0.400220
  Br     1.287750   -0.003234    0.027265
  H     -1.976157   -1.503260    1.217246
  H     -2.576932   -1.965797   -0.385798
  H     -0.840935   -2.028864   -0.040733
  H     -1.418020   -0.000558   -1.399240
  H     -2.880563    1.776882   -0.444840
  H     -3.178271    0.776149    0.991590
  H     -3.767667    0.249061   -0.593726
  H     -0.642018    0.677046    1.484939
  H     -0.471408    1.776838    0.085653

 Total Charge           Charge          ....    0
 Multiplicity           Mult            ....    1
 Number of Electrons    NEL             ....   68
 Basis Dimension        Dim             ....  226

ORBITAL ENERGIES
----------------

  NO   OCC          E(Eh)            E(eV)
   0   2.0000    -494.706061    -13461.6363
   1   2.0000     -66.875649     -1819.7789
   2   2.0000     -60.932499     -1658.0576
   3   2.0000     -60.930942     -1658.0152
   4   2.0000     -60.930875     -1658.0134
   5   2.0000     -12.106325      -329.4298
   6   2.0000     -12.067423      -328.3713
   7   2.0000     -12.048519      -327.8569
   8   2.0000     -12.039859      -327.6212
   9   2.0000     -10.627336      -289.1845
  10   2.0000      -8.406953      -228.7648
  11   2.0000      -8.400502      -228.5893
  12   2.0000      -8.400427      -228.5872
  13   2.0000      -4.392002      -119.5125
  14   2.0000      -4.389511      -119.4447
  15   2.0000      -4.389455      -119.4431
  16   2.0000      -4.382317      -119.2489
  17   2.0000      -4.382298      -119.2484
  18   2.0000      -1.348411       -36.6921
  19   2.0000      -1.299294       -35.3556
  20   2.0000      -1.187969       -32.3263
  21   2.0000      -1.175098       -31.9760
  22   2.0000      -1.047150       -28.4944
  23   2.0000      -0.917017       -24.9533
  24   2.0000      -0.891519       -24.2595
  25   2.0000      -0.879070       -23.9207
  26   2.0000      -0.843295       -22.9472
  27   2.0000      -0.821421       -22.3520
  28   2.0000      -0.806039       -21.9334
  29   2.0000      -0.797280       -21.6951
  30   2.0000      -0.784607       -21.3502
  31   2.0000      -0.767726       -20.8909
  32   2.0000      -0.711491       -19.3606
  33   2.0000      -0.708525       -19.2800
  34   0.0000      -0.285397        -7.7660
  35   0.0000      -0.038279        -1.0416
  36   0.0000      -0.030359        -0.8261
  37   0.0000      -0.021150        -0.5755
  38   0.0000      -0.003228        -0.0878

MULLIKEN ATOMIC CHARGES
-----------------------
   0 C :   -0.352489
   1 C :   -0.025515
   2 C :   -0.355006
   3 C :   -0.170835
   4 Br:   -0.157102
   5 H :    0.101867
   6 H :    0.113164
   7 H :    0.136481
   8 H :    0.088363
   9 H :    0.116956
  10 H :    0.109577
  11 H :    0.120565
  12 H :    0.133685
  13 H :    0.140289
Sum of atomic charges:    0.0000000

LOEWDIN ATOMIC CHARGES
----------------------
   0 C :   -0.284200
   1 C :   -0.346823
   2 C :   -0.276052
   3 C :   -0.396514
   4 Br:    0.176492
   5 H :    0.120159
   6 H :    0.120428
   7 H :    0.120160
   8 H :    0.150189
   9 H :    0.118808
  10 H :    0.120356
  11 H :    0.122569
  12 H :    0.127545
  13 H :    0.126882

  Mayer bond orders larger than 0.100000
B(  0-C ,  1-C ) :   0.9857 B(  0-C ,  5-H ) :   0.9695 B(  0-C ,  6-H ) :   0.9802
B(  0-C ,  7-H ) :   0.9748 B(  1-C ,  2-C ) :   0.9703 B(  1-C ,  3-C ) :   0.9905
B(  1-C ,  8-H ) :   0.9642 B(  2-C ,  9-H ) :   0.9803 B(  2-C , 10-H ) :   0.9706
B(  2-C , 11-H ) :   0.9793 B(  3-C ,  4-Br) :   1.0294 B(  3-C , 12-H ) :   0.9619
B(  3-C , 13-H ) :   0.9692

FINAL SINGLE POINT ENERGY     -2731.776304155012

DIPOLE MOMENT
-------------

Method             : SCF
Type of density    : Electron Density
Multiplicity       :   1
Irrep              :   0
Energy             : -2731.7877285752115313 Eh
Relativity type    :
Basis              : AO
                                X                 Y                 Z
Electronic contribution:     27.701883856       0.436056267      -0.566285402
Nuclear contribution   :    -28.595884069      -0.200559277       0.634839012
                        -----------------------------------------
Total Dipole Moment    :     -0.894000213       0.235496989       0.068553609
                        -----------------------------------------
Magnitude (a.u.)       :      0.927035496
Magnitude (Debye)      :      2.356336969

Rotational constants in cm-1:             0.249835             0.045975             0.040837
Rotational constants in MHz :          7489.874384          1378.288249          1224.255551

                             ****ORCA TERMINATED NORMALLY****
TOTAL RUN TIME: 0 days 0 hours 1 minutes 32 seconds 697 msec
