                         Program Version 6.0.0  -   RELEASE  -
|  1> ! wb97x-v def2-tzvp def2/J RIJCOSX DEFGRID2 scfconv7 GCP(DFT/TZ) printgap
|  2> %output
|  3>     printlevel normal
|  4> end
|  5> %cpcm
|  6>     smd true
|  7>     smdsolvent "water"
|  8> end
|  9> * xyz 0 1
| 10> C -1.7600827063244757 -1.464901619187022 0.14285683655532153
| 11> C -1.6332788174979265 -0.017681989424253045 -0.3236394747332917
| 12> C -2.9411539747458626 0.7474827827065106 -0.07796679473749912
| 13> C -0.5338560003330619 0.7352615268534728 0.40021962237365916
| 14> Br 1.2877498590798717 -0.003234117566030543 0.027264988199418222
| 15> H -1.9761574634433545 -1.5032601282899474 1.217246404328511
| 16> H -2.576932431227402 -1.9657967400866743 -0.38579776263651483
| 17> H -0.8409350586337299 -2.0288644210351428 -0.04073292123049911
| 18> H -1.4180203817300774 -0.0005578975042452667 -1.3992401800447716
| 19> H -2.8805625162563953 1.7768815431327138 -0.44484026580528413
| 20> H -3.1782705106337876 0.7761489360371557 0.9915899662966094
| 21> H -3.7676670136447132 0.24906101240348935 -0.5937262295196429
| 22> H -0.6420178130712281 0.6770457282056306 1.4849391837327555
| 23> H -0.47140826711786926 1.7768375587191736 0.08565322330598331
| 24> *
| 25>
| 26>                          ****END OF INPUT****

CARTESIAN COORDINATES (ANGSTROEM)
---------------------------------
  C     -1.760083   -1.464902    0.142857
  C     -1.633279   -0.017682   -0.323639
  C     -2.941154    0.747483   -0.077967
  C     -0.533856    0.735262    0.400220
  Br     1.287750   -0.003234    0.027265
  H     -1.976157   -1.503260    1.217246
  H     -2.576932   -1.965797   -0.385798
  H     -0.840935   -2.028864   -0.040733
  H     -1.418020   -0.000558   -1.399240
  H     -2.880563    1.776882   -0.444840
  H     -3.178271    0.776149    0.991590
  H     -3.767667    0.249061   -0.593726
  H     -0.642018    0.677046    1.484939
  H     -0.471408    1.776838    0.085653

 Total Charge           Charge          ....    0
 Multiplicity           Mult            ....    1
 Number of Electrons    NEL             ....   68
 Basis Dimension        Dim             ....  226

ORBITAL ENERGIES
----------------

  NO   OCC          E(Eh)            E(eV)
   0   2.0000    -494.702388    -13461.5364
   1   2.0000     -66.872101     -1819.6824
   2   2.0000     -60.928893     -1657.9595
   3   2.0000     -60.927434     -1657.9198
   4   2.0000     -60.927371     -1657.9181
   5   2.0000     -12.093240      -329.0738
   6   2.0000     -12.052629      -327.9687
   7   2.0000     -12.029624      -327.3427
   8   2.0000     -12.026161      -327.2485
   9   2.0000     -10.623865      -289.0901
  10   2.0000      -8.403257      -228.6642
  11   2.0000      -8.397245      -228.5007
  12   2.0000      -8.397168      -228.4986
  13   2.0000      -4.388243      -119.4102
  14   2.0000      -4.385933      -119.3473
  15   2.0000      -4.385874      -119.3457
  16   2.0000      -4.379179      -119.1635
  17   2.0000      -4.379160      -119.1630
  18   2.0000      -1.337601       -36.3980
  19   2.0000      -1.290259       -35.1097
  20   2.0000      -1.173089       -31.9214
  21   2.0000      -1.160844       -31.5882
  22   2.0000      -1.032244       -28.0888
  23   2.0000      -0.901893       -24.5418
  24   2.0000      -0.876601       -23.8535
  25   2.0000      -0.865030       -23.5387
  26   2.0000      -0.827724       -22.5235
  27   2.0000      -0.805870       -21.9288
  28   2.0000      -0.793882       -21.6026
  29   2.0000      -0.781526       -21.2664
  30   2.0000      -0.771452       -20.9923
  31   2.0000      -0.752497       -20.4765
  32   2.0000      -0.708123       -19.2690
  33   2.0000      -0.705074       -19.1860
  34   0.0000      -0.276056        -7.5119
  35   0.0000      -0.021923        -0.5966
  36   0.0000      -0.015850        -0.4313
  37   0.0000      -0.006131        -0.1668
  38   0.0000       0.012288         0.3344

MULLIKEN ATOMIC CHARGES
-----------------------
   0 C :   -0.401895
   1 C :    0.005143
   2 C :   -0.411058
   3 C :   -0.189257
   4 Br:   -0.202418
   5 H :    0.123099
   6 H :    0.132555
   7 H :    0.127874
   8 H :    0.092903
   9 H :    0.134556
  10 H :    0.127829
  11 H :    0.135914
  12 H :    0.158994
  13 H :    0.165761
Sum of atomic charges:    0.0000000

LOEWDIN ATOMIC CHARGES
----------------------
   0 C :   -0.291034
   1 C :   -0.343416
   2 C :   -0.278253
   3 C :   -0.386764
   4 Br:    0.144812
   5 H :    0.124031
   6 H :    0.123752
   7 H :    0.115698
   8 H :    0.151368
   9 H :    0.122648
  10 H :    0.124203
  11 H :    0.124987
  12 H :    0.134423
  13 H :    0.133545

  Mayer bond orders larger than 0.100000
B(  0-C ,  1-C ) :   0.9726 B(  0-C ,  5-H ) :   0.9707 B(  0-C ,  6-H ) :   0.9788
B(  0-C ,  7-H ) :   0.9749 B(  1-C ,  2-C ) :   0.9656 B(  1-C ,  3-C ) :   0.9891
B(  1-C ,  8-H ) :   0.9637 B(  2-C ,  9-H ) :   0.9767 B(  2-C , 10-H ) :   0.9707
B(  2-C , 11-H ) :   0.9760 B(  3-C ,  4-Br) :   0.9936 B(  3-C , 12-H ) :   0.9583
B(  3-C , 13-H ) :   0.9633

FINAL SINGLE POINT ENERGY     -2731.778037993481

DIPOLE MOMENT
-------------

Method             : SCF
Type of density    : Electron Density
Multiplicity       :   1
Irrep              :   0
Energy             : -2731.7894624136806669 Eh
Relativity type    :
Basis              : AO
                                X                 Y                 Z
Electronic contribution:     27.434211870       0.573773159      -0.508557128
Nuclear contribution   :    -28.595884069      -0.200559277       0.634839012
                        -----------------------------------------
Total Dipole Moment    :     -1.161672199       0.373213882       0.126281884
                        -----------------------------------------
Magnitude (a.u.)       :      1.226669481
Magnitude (Debye)      :      3.117946032

Rotational constants in cm-1:             0.249835             0.045975             0.040837
Rotational constants in MHz :          7489.874384          1378.288249          1224.255551

                             ****ORCA TERMINATED NORMALLY****
TOTAL RUN TIME: 0 days 0 hours 1 minutes 35 seconds 979 msec
