                         Program Version 6.0.0  -   RELEASE  -
|  1> ! pbe def2-sv(p) def2/J RI DEFGRID1 loosescf d4 GCP(DFT/SV(P)) printgap
|  2> %output
|  3>     printlevel normal
|  4> end
|  5> * xyz 0 1
|  6> C -1.1806114062 -1.203435904 8.8785e-06
|  7> C 0.199812568 -1.2051503267 -2.0045e-05
|  8> C 0.8810700853 0.0008723283 -2.58229e-05
|  9> C 0.1992656542 1.2042664385 -4.0978e-06
| 10> C -1.1839068377 1.2019545294 -1.40401e-05
| 11> C -1.8848703054 -0.0003581374 -2.54755e-05
| 12> O -3.237136275 -0.0557997951 2.40798e-05
| 13> Cl 2.6255763986 0.001713769 1.26523e-05
| 14> H -1.7342309456 -2.1281066046 4.9985e-05
| 15> H 0.7437637196 -2.1355123306 -2.35567e-05
| 16> H 0.7425145463 2.1351807737 4.70638e-05
| 17> H -1.7145901353 2.1417439216 1.97593e-05
| 18> H -3.6224895953 0.8342024946 3.99654e-05
| 19> *
| 20>
| 21>                          ****END OF INPUT****

CARTESIAN COORDINATES (ANGSTROEM)
---------------------------------
  C     -1.180611   -1.203436    0.000009
  C      0.199813   -1.205150   -0.000020
  C      0.881070    0.000872   -0.000026
  C      0.199266    1.204266   -0.000004
  C     -1.183907    1.201955   -0.000014
  C     -1.884870   -0.000358   -0.000025
  O     -3.237136   -0.055800    0.000024
  Cl     2.625576    0.001714    0.000013
  H     -1.734231   -2.128107    0.000050
  H      0.743764   -2.135512   -0.000024
  H      0.742515    2.135181    0.000047
  H     -1.714590    2.141744    0.000020
  H     -3.622490    0.834202    0.000040

 Total Charge           Charge          ....    0
 Multiplicity           Mult            ....    1
 Number of Electrons    NEL             ....   66
 Basis Dimension        Dim             ....  126

ORBITAL ENERGIES
----------------

  NO   OCC          E(Eh)            E(eV)
   0   2.0000    -100.632642     -2738.3534
   1   2.0000     -18.790771      -511.3229
   2   2.0000      -9.961819      -271.0749
   3   2.0000      -9.944856      -270.6133
   4   2.0000      -9.906609      -269.5725
   5   2.0000      -9.905322      -269.5375
   6   2.0000      -9.903996      -269.5014
   7   2.0000      -9.898844      -269.3612
   8   2.0000      -9.168422      -249.4854
   9   2.0000      -6.999778      -190.4737
  10   2.0000      -6.988333      -190.1622
  11   2.0000      -6.987935      -190.1514
  12   2.0000      -0.974005       -26.5040
  13   2.0000      -0.808490       -22.0001
  14   2.0000      -0.755491       -20.5580
  15   2.0000      -0.687326       -18.7031
  16   2.0000      -0.654658       -17.8142
  17   2.0000      -0.575894       -15.6709
  18   2.0000      -0.547438       -14.8966
  19   2.0000      -0.508250       -13.8302
  20   2.0000      -0.450458       -12.2576
  21   2.0000      -0.431132       -11.7317
  22   2.0000      -0.404057       -10.9950
  23   2.0000      -0.390872       -10.6362
  24   2.0000      -0.377684       -10.2773
  25   2.0000      -0.355267        -9.6673
  26   2.0000      -0.339073        -9.2266
  27   2.0000      -0.333376        -9.0716
  28   2.0000      -0.307486        -8.3671
  29   2.0000      -0.269336        -7.3290
  30   2.0000      -0.262244        -7.1360
  31   2.0000      -0.242133        -6.5888
  32   2.0000      -0.194601        -5.2954
  33   0.0000      -0.046563        -1.2670
  34   0.0000      -0.027962        -0.7609
  35   0.0000       0.006797         0.1849
  36   0.0000       0.020555         0.5593
  37   0.0000       0.069069         1.8795

MULLIKEN ATOMIC CHARGES
-----------------------
   0 C :   -0.135077
   1 C :   -0.070610
   2 C :    0.112709
   3 C :   -0.077027
   4 C :   -0.175741
   5 C :    0.259027
   6 O :   -0.328825
   7 Cl:   -0.100383
   8 H :    0.055050
   9 H :    0.053524
  10 H :    0.051332
  11 H :    0.036317
  12 H :    0.319703
Sum of atomic charges:    0.0000000

LOEWDIN ATOMIC CHARGES
----------------------
   0 C :   -0.140246
   1 C :   -0.129558
   2 C :   -0.148814
   3 C :   -0.131968
   4 C :   -0.169695
   5 C :    0.018203
   6 O :   -0.228978
   7 Cl:    0.107890
   8 H :    0.134896
   9 H :    0.132454
  10 H :    0.131434
  11 H :    0.124094
  12 H :    0.300288

  Mayer bond orders larger than 0.100000
B(  0-C ,  1-C ) :   1.3678 B(  0-C ,  5-C ) :   1.3503 B(  0-C ,  8-H ) :   0.9629
B(  1-C ,  2-C ) :   1.3737 B(  1-C ,  9-H ) :   0.9670 B(  2-C ,  3-C ) :   1.3971
B(  2-C ,  7-Cl) :   0.9530 B(  3-C ,  4-C ) :   1.3570 B(  3-C , 10-H ) :   0.9622
B(  4-C ,  5-C ) :   1.3045 B(  4-C , 11-H ) :   0.9572 B(  5-C ,  6-O ) :   1.1962
B(  6-O , 12-H ) :   0.8405

Dispersion correction           -0.014407263
FINAL SINGLE POINT ENERGY      -766.084997114767

DIPOLE MOMENT
-------------

Method             : SCF
Type of density    : Electron Density
Multiplicity       :   1
Irrep              :   0
Energy             :  -766.1223245148803471 Eh
Relativity type    :
Basis              : AO
                                X                 Y                 Z
Electronic contribution:      8.027372339      -0.258456187      -0.000075447
Nuclear contribution   :     -8.811698268       0.791984889       0.000108356
                        -----------------------------------------
Total Dipole Moment    :     -0.784325929       0.533528702       0.000032909
                        -----------------------------------------
Magnitude (a.u.)       :      0.948588446
Magnitude (Debye)      :      2.411120215

Rotational constants in cm-1:             0.189959             0.032486             0.027742
Rotational constants in MHz :          5694.833065           973.907285           831.677216

                             ****ORCA TERMINATED NORMALLY****
TOTAL RUN TIME: 0 days 0 hours 0 minutes 9 seconds 178 msec
