                         Program Version 6.0.0  -   RELEASE  -
|  1> ! pbe def2-sv(p) def2/J RI DEFGRID1 loosescf d4 GCP(DFT/SV(P)) printgap
|  2> %output
|  3>     printlevel normal
|  4> end
|  5> * xyz 0 1
|  6> C -2.3789388695 -1.1752314498 -0.3168609706
|  7> C -1.0656928969 -0.6203861766 0.2461326322
|  8> H -1.1192360802 -0.6014437702 1.3459992049
|  9> C -0.7883837586 0.8144313131 -0.2440903122
| 10> H -0.8356468939 0.8183659641 -1.3483801232
| 11> C 0.6219018066 1.2349763332 0.1896340402
| 12> H 0.6394856843 1.321487036 1.2827539149
| 13> C 1.6575867199 0.1805027347 -0.2395835805
| 14> H 1.6852410862 0.1272441783 -1.3418210143
| 15> C 1.2376653982 -1.1990078802 0.2992700636
| 16> H 1.2466974053 -1.1686661028 1.4001186035
| 17> O -0.056320025 -1.5117701304 -0.1809824444
| 18> O 2.0827903973 -2.2204753685 -0.0615810474
| 19> O 2.9298793155 0.4971291321 0.2584089214
| 20> O 0.9998865614 2.5024457141 -0.2863952786
| 21> O -1.7008075235 1.7406288861 0.2831525879
| 22> O -3.4519895487 -0.397929791 0.1605412254
| 23> H -2.4619839858 -2.2185412507 0.005365149
| 24> H -2.3266987447 -1.1478475866 -1.4123047195
| 25> H 2.0748374366 -2.3338872025 -1.0256858157
| 26> H 3.0541542996 1.457569585 0.1760532815
| 27> H 0.6974516796 2.6212428344 -1.1983536322
| 28> H -2.588579295 1.3397560435 0.2815774373
| 29> H -4.2886922165 -0.7858677673 -0.1332769792
| 30> *
| 31>
| 32>                          ****END OF INPUT****

CARTESIAN COORDINATES (ANGSTROEM)
---------------------------------
  C     -2.378939   -1.175231   -0.316861
  C     -1.065693   -0.620386    0.246133
  H     -1.119236   -0.601444    1.345999
  C     -0.788384    0.814431   -0.244090
  H     -0.835647    0.818366   -1.348380
  C      0.621902    1.234976    0.189634
  H      0.639486    1.321487    1.282754
  C      1.657587    0.180503   -0.239584
  H      1.685241    0.127244   -1.341821
  C      1.237665   -1.199008    0.299270
  H      1.246697   -1.168666    1.400119
  O     -0.056320   -1.511770   -0.180982
  O      2.082790   -2.220475   -0.061581
  O      2.929879    0.497129    0.258409
  O      0.999887    2.502446   -0.286395
  O     -1.700808    1.740629    0.283153
  O     -3.451990   -0.397930    0.160541
  H     -2.461984   -2.218541    0.005365
  H     -2.326699   -1.147848   -1.412305
  H      2.074837   -2.333887   -1.025686
  H      3.054154    1.457570    0.176053
  H      0.697452    2.621243   -1.198354
  H     -2.588579    1.339756    0.281577
  H     -4.288692   -0.785868   -0.133277

 Total Charge           Charge          ....    0
 Multiplicity           Mult            ....    1
 Number of Electrons    NEL             ....   96
 Basis Dimension        Dim             ....  192

ORBITAL ENERGIES
----------------

  NO   OCC          E(Eh)            E(eV)
   0   2.0000     -18.786660      -511.2110
   1   2.0000     -18.774921      -510.8916
   2   2.0000     -18.756824      -510.3991
   3   2.0000     -18.754903      -510.3469
   4   2.0000     -18.742012      -509.9961
   5   2.0000     -18.738889      -509.9111
   6   2.0000      -9.984470      -271.6913
   7   2.0000      -9.953058      -270.8365
   8   2.0000      -9.951908      -270.8052
   9   2.0000      -9.944727      -270.6098
  10   2.0000      -9.940708      -270.5004
  11   2.0000      -9.935063      -270.3468
  12   2.0000      -0.983496       -26.7623
  13   2.0000      -0.958649       -26.0862
  14   2.0000      -0.943165       -25.6648
  15   2.0000      -0.924029       -25.1441
  16   2.0000      -0.912313       -24.8253
  17   2.0000      -0.909250       -24.7419
  18   2.0000      -0.704879       -19.1807
  19   2.0000      -0.694488       -18.8980
  20   2.0000      -0.623862       -16.9762
  21   2.0000      -0.577846       -15.7240
  22   2.0000      -0.565182       -15.3794
  23   2.0000      -0.544093       -14.8055
  24   2.0000      -0.514115       -13.9898
  25   2.0000      -0.483938       -13.1686
  26   2.0000      -0.476573       -12.9682
  27   2.0000      -0.457730       -12.4555
  28   2.0000      -0.455195       -12.3865
  29   2.0000      -0.425779       -11.5860
  30   2.0000      -0.422191       -11.4884
  31   2.0000      -0.412435       -11.2229
  32   2.0000      -0.402269       -10.9463
  33   2.0000      -0.387199       -10.5362
  34   2.0000      -0.352559        -9.5936
  35   2.0000      -0.347303        -9.4506
  36   2.0000      -0.325610        -8.8603
  37   2.0000      -0.319868        -8.7040
  38   2.0000      -0.307852        -8.3771
  39   2.0000      -0.299990        -8.1632
  40   2.0000      -0.284381        -7.7384
  41   2.0000      -0.269434        -7.3317
  42   2.0000      -0.254032        -6.9126
  43   2.0000      -0.247450        -6.7334
  44   2.0000      -0.233730        -6.3601
  45   2.0000      -0.222380        -6.0513
  46   2.0000      -0.212793        -5.7904
  47   2.0000      -0.203599        -5.5402
  48   0.0000      -0.001747        -0.0475
  49   0.0000       0.018441         0.5018
  50   0.0000       0.036041         0.9807
  51   0.0000       0.044494         1.2108
  52   0.0000       0.055280         1.5042

MULLIKEN ATOMIC CHARGES
-----------------------
   0 C :    0.074557
   1 C :   -0.026169
   2 H :    0.070052
   3 C :    0.045190
   4 H :    0.025915
   5 C :    0.066708
   6 H :    0.067663
   7 C :    0.050171
   8 H :    0.017183
   9 C :    0.205821
  10 H :    0.054508
  11 O :   -0.309698
  12 O :   -0.363787
  13 O :   -0.407942
  14 O :   -0.411341
  15 O :   -0.416860
  16 O :   -0.444158
  17 H :    0.095811
  18 H :    0.074567
  19 H :    0.301160
  20 H :    0.303633
  21 H :    0.303299
  22 H :    0.304698
  23 H :    0.319016
Sum of atomic charges:   -0.0000000

LOEWDIN ATOMIC CHARGES
----------------------
   0 C :   -0.122705
   1 C :   -0.066410
   2 H :    0.110141
   3 C :   -0.077014
   4 H :    0.089475
   5 C :   -0.078779
   6 H :    0.120728
   7 C :   -0.097964
   8 H :    0.087247
   9 C :    0.007017
  10 H :    0.102324
  11 O :   -0.154742
  12 O :   -0.277317
  13 O :   -0.318458
  14 O :   -0.308011
  15 O :   -0.326951
  16 O :   -0.330021
  17 H :    0.109479
  18 H :    0.101342
  19 H :    0.287606
  20 H :    0.282954
  21 H :    0.288010
  22 H :    0.274008
  23 H :    0.298041

  Mayer bond orders larger than 0.100000
B(  0-C ,  1-C ) :   1.0578 B(  0-C , 16-O ) :   1.0482 B(  0-C , 17-H ) :   0.9183
B(  0-C , 18-H ) :   0.9071 B(  1-C ,  2-H ) :   0.8767 B(  1-C ,  3-C ) :   1.0133
B(  1-C , 11-O ) :   0.9995 B(  3-C ,  4-H ) :   0.8573 B(  3-C ,  5-C ) :   1.0119
B(  3-C , 15-O ) :   1.1158 B(  5-C ,  6-H ) :   0.8685 B(  5-C ,  7-C ) :   0.9944
B(  5-C , 14-O ) :   1.0464 B(  7-C ,  8-H ) :   0.8517 B(  7-C ,  9-C ) :   0.9778
B(  7-C , 13-O ) :   1.0992 B(  9-C , 10-H ) :   0.8786 B(  9-C , 11-O ) :   0.9854
B(  9-C , 12-O ) :   1.1681 B( 12-O , 19-H ) :   0.8429 B( 13-O , 20-H ) :   0.8295
B( 14-O , 21-H ) :   0.8457 B( 15-O , 22-H ) :   0.8050 B( 16-O , 22-H ) :   0.1043
B( 16-O , 23-H ) :   0.8400

Dispersion correction           -0.023801197
FINAL SINGLE POINT ENERGY      -685.697648263551

DIPOLE MOMENT
-------------

Method             : SCF
Type of density    : Electron Density
Multiplicity       :   1
Irrep              :   0
Energy             :  -685.8282536020911948 Eh
Relativity type    :
Basis              : AO
                                X                 Y                 Z
Electronic contribution:      2.515384483       0.152951189       0.644678101
Nuclear contribution   :     -3.949961368      -0.526271387      -1.843711247
                        -----------------------------------------
Total Dipole Moment    :     -1.434576885      -0.373320198      -1.199033146
                        -----------------------------------------
Magnitude (a.u.)       :      1.906583147
Magnitude (Debye)      :      4.846149229

Rotational constants in cm-1:             0.043621             0.024573             0.016431
Rotational constants in MHz :          1307.738998           736.668984           492.580484

                             ****ORCA TERMINATED NORMALLY****
TOTAL RUN TIME: 0 days 0 hours 0 minutes 11 seconds 638 msec
