                         Program Version 6.0.0  -   RELEASE  -
|  1> ! r2scan-3c def2/J RI DEFGRID2 scfconv6 printgap
|  2> %output
|  3>     printlevel normal
|  4> end
|  5> * xyz 0 1
|  6> C 1.8169083845 -0.4824096192 0.5069492955
|  7> C 0.8326120912 -0.3441857803 -0.6604890743
|  8> C -0.4753369618 0.2084878144 -0.1509367958
|  9> O -0.7795418494 1.3781289101 -0.2198227451
| 10> O -1.3011511195 -0.6576597692 0.4317464785
| 11> H 1.4294786703 -1.1457989471 1.2757020357
| 12> H 2.7593560898 -0.8815606148 0.1443405909
| 13> H 2.0011855603 0.4905793318 0.9558194116
| 14> H 1.2323729855 0.3551084363 -1.3942310731
| 15> H 0.674277234 -1.3123315672 -1.1361476781
| 16> H -0.9769015055 -1.5768217898 0.4187525853
| 17> *
| 18>
| 19>                          ****END OF INPUT****

CARTESIAN COORDINATES (ANGSTROEM)
---------------------------------
  C      1.816908   -0.482410    0.506949
  C      0.832612   -0.344186   -0.660489
  C     -0.475337    0.208488   -0.150937
  O     -0.779542    1.378129   -0.219823
  O     -1.301151   -0.657660    0.431746
  H      1.429479   -1.145799    1.275702
  H      2.759356   -0.881561    0.144341
  H      2.001186    0.490579    0.955819
  H      1.232373    0.355108   -1.394231
  H      0.674277   -1.312332   -1.136148
  H     -0.976902   -1.576822    0.418753

 Total Charge           Charge          ....    0
 Multiplicity           Mult            ....    1
 Number of Electrons    NEL             ....   40
 Basis Dimension        Dim             ....  135

ORBITAL ENERGIES
----------------

  NO   OCC          E(Eh)            E(eV)
   0   2.0000     -19.008239      -517.2405
   1   2.0000     -18.930299      -515.1196
   2   2.0000     -10.161916      -276.5198
   3   2.0000     -10.058781      -273.7134
   4   2.0000     -10.046546      -273.3804
   5   2.0000      -1.075991       -29.2792
   6   2.0000      -0.981845       -26.7174
   7   2.0000      -0.766252       -20.8508
   8   2.0000      -0.636582       -17.3223
   9   2.0000      -0.595972       -16.2172
  10   2.0000      -0.491549       -13.3757
  11   2.0000      -0.453270       -12.3341
  12   2.0000      -0.429636       -11.6910
  13   2.0000      -0.403016       -10.9666
  14   2.0000      -0.382583       -10.4106
  15   2.0000      -0.357745        -9.7347
  16   2.0000      -0.348992        -9.4965
  17   2.0000      -0.331598        -9.0232
  18   2.0000      -0.290831        -7.9139
  19   2.0000      -0.237054        -6.4506
  20   0.0000      -0.022393        -0.6093
  21   0.0000       0.035792         0.9739
  22   0.0000       0.097211         2.6453
  23   0.0000       0.113063         3.0766
  24   0.0000       0.136266         3.7080

MULLIKEN ATOMIC CHARGES
-----------------------
   0 C :   -0.441387
   1 C :   -0.311244
   2 C :    0.370041
   3 O :   -0.377813
   4 O :   -0.339325
   5 H :    0.137610
   6 H :    0.157345
   7 H :    0.167412
   8 H :    0.171126
   9 H :    0.140184
  10 H :    0.326051
Sum of atomic charges:    0.0000000

LOEWDIN ATOMIC CHARGES
----------------------
   0 C :   -0.392876
   1 C :   -0.260944
   2 C :    0.336908
   3 O :   -0.390125
   4 O :   -0.400082
   5 H :    0.150729
   6 H :    0.155016
   7 H :    0.164055
   8 H :    0.180775
   9 H :    0.161788
  10 H :    0.294756

  Mayer bond orders larger than 0.100000
B(  0-C ,  1-C ) :   0.9101 B(  0-C ,  5-H ) :   0.9753 B(  0-C ,  6-H ) :   0.9695
B(  0-C ,  7-H ) :   0.9707 B(  1-C ,  2-C ) :   0.9593 B(  1-C ,  8-H ) :   0.9495
B(  1-C ,  9-H ) :   0.9679 B(  2-C ,  3-O ) :   1.9879 B(  2-C ,  4-O ) :   1.0471
B(  4-O , 10-H ) :   0.8698

Dispersion correction           -0.002151908
FINAL SINGLE POINT ENERGY      -268.340721917935

DIPOLE MOMENT
-------------

Method             : SCF
Type of density    : Electron Density
Multiplicity       :   1
Irrep              :   0
Energy             :  -268.3448456920071976 Eh
Relativity type    :
Basis              : AO
                                X                 Y                 Z
Electronic contribution:     -5.720116140       2.309855001      -0.330347494
Nuclear contribution   :      6.648686968      -3.808443741       0.251045568
                        -----------------------------------------
Total Dipole Moment    :      0.928570828      -1.498588740      -0.079301926
                        -----------------------------------------
Magnitude (a.u.)       :      1.764738165
Magnitude (Debye)      :      4.485607937

Rotational constants in cm-1:             0.280332             0.134081             0.107469
Rotational constants in MHz :          8404.142047          4019.642888          3221.825851

                             ****ORCA TERMINATED NORMALLY****
TOTAL RUN TIME: 0 days 0 hours 0 minutes 12 seconds 917 msec
