                         Program Version 6.0.0  -   RELEASE  -
|  1> ! r2scan-3c def2/J RI DEFGRID2 scfconv6 printgap
|  2> %output
|  3>     printlevel normal
|  4> end
|  5> %cpcm
|  6>     smd true
|  7>     smdsolvent "water"
|  8> end
|  9> * xyz 0 1
| 10> C 1.8169083845 -0.4824096192 0.5069492955
| 11> C 0.8326120912 -0.3441857803 -0.6604890743
| 12> C -0.4753369618 0.2084878144 -0.1509367958
| 13> O -0.7795418494 1.3781289101 -0.2198227451
| 14> O -1.3011511195 -0.6576597692 0.4317464785
| 15> H 1.4294786703 -1.1457989471 1.2757020357
| 16> H 2.7593560898 -0.8815606148 0.1443405909
| 17> H 2.0011855603 0.4905793318 0.9558194116
| 18> H 1.2323729855 0.3551084363 -1.3942310731
| 19> H 0.674277234 -1.3123315672 -1.1361476781
| 20> H -0.9769015055 -1.5768217898 0.4187525853
| 21> *
| 22>
| 23>                          ****END OF INPUT****

CARTESIAN COORDINATES (ANGSTROEM)
---------------------------------
  C      1.816908   -0.482410    0.506949
  C      0.832612   -0.344186   -0.660489
  C     -0.475337    0.208488   -0.150937
  O     -0.779542    1.378129   -0.219823
  O     -1.301151   -0.657660    0.431746
  H      1.429479   -1.145799    1.275702
  H      2.759356   -0.881561    0.144341
  H      2.001186    0.490579    0.955819
  H      1.232373    0.355108   -1.394231
  H      0.674277   -1.312332   -1.136148
  H     -0.976902   -1.576822    0.418753

 Total Charge           Charge          ....    0
 Multiplicity           Mult            ....    1
 Number of Electrons    NEL             ....   40
 Basis Dimension        Dim             ....  135

ORBITAL ENERGIES
----------------

  NO   OCC          E(Eh)            E(eV)
   0   2.0000     -19.001967      -517.0698
   1   2.0000     -18.944035      -515.4934
   2   2.0000     -10.169118      -276.7158
   3   2.0000     -10.040665      -273.2204
   4   2.0000     -10.024144      -272.7708
   5   2.0000      -1.075909       -29.2770
   6   2.0000      -0.991391       -26.9771
   7   2.0000      -0.748424       -20.3657
   8   2.0000      -0.621021       -16.8988
   9   2.0000      -0.586811       -15.9679
  10   2.0000      -0.480704       -13.0806
  11   2.0000      -0.445744       -12.1293
  12   2.0000      -0.430253       -11.7078
  13   2.0000      -0.405943       -11.0463
  14   2.0000      -0.369443       -10.0531
  15   2.0000      -0.344940        -9.3863
  16   2.0000      -0.334343        -9.0979
  17   2.0000      -0.316224        -8.6049
  18   2.0000      -0.299059        -8.1378
  19   2.0000      -0.252044        -6.8585
  20   0.0000      -0.025709        -0.6996
  21   0.0000       0.071333         1.9411
  22   0.0000       0.117636         3.2010
  23   0.0000       0.133741         3.6393
  24   0.0000       0.155439         4.2297

MULLIKEN ATOMIC CHARGES
-----------------------
   0 C :   -0.488434
   1 C :   -0.285033
   2 C :    0.384461
   3 O :   -0.485782
   4 O :   -0.373778
   5 H :    0.166866
   6 H :    0.172788
   7 H :    0.166029
   8 H :    0.173770
   9 H :    0.176355
  10 H :    0.392758
Sum of atomic charges:    0.0000000

LOEWDIN ATOMIC CHARGES
----------------------
   0 C :   -0.394035
   1 C :   -0.251360
   2 C :    0.347344
   3 O :   -0.476404
   4 O :   -0.394673
   5 H :    0.160387
   6 H :    0.161410
   7 H :    0.161135
   8 H :    0.181385
   9 H :    0.181201
  10 H :    0.323612

  Mayer bond orders larger than 0.100000
B(  0-C ,  1-C ) :   0.8876 B(  0-C ,  5-H ) :   0.9739 B(  0-C ,  6-H ) :   0.9637
B(  0-C ,  7-H ) :   0.9706 B(  1-C ,  2-C ) :   0.9753 B(  1-C ,  8-H ) :   0.9531
B(  1-C ,  9-H ) :   0.9496 B(  2-C ,  3-O ) :   1.9024 B(  2-C ,  4-O ) :   1.0995
B(  4-O , 10-H ) :   0.8357

Dispersion correction           -0.002151908
FINAL SINGLE POINT ENERGY      -268.357227890690

DIPOLE MOMENT
-------------

Method             : SCF
Type of density    : Electron Density
Multiplicity       :   1
Irrep              :   0
Energy             :  -268.3613516647622532 Eh
Relativity type    :
Basis              : AO
                                X                 Y                 Z
Electronic contribution:     -5.453549366       1.637117508      -0.350174775
Nuclear contribution   :      6.648686968      -3.808443741       0.251045568
                        -----------------------------------------
Total Dipole Moment    :      1.195137602      -2.171326233      -0.099129207
                        -----------------------------------------
Magnitude (a.u.)       :      2.480491503
Magnitude (Debye)      :      6.304908342

Rotational constants in cm-1:             0.280332             0.134081             0.107469
Rotational constants in MHz :          8404.142047          4019.642888          3221.825851

                             ****ORCA TERMINATED NORMALLY****
TOTAL RUN TIME: 0 days 0 hours 0 minutes 15 seconds 908 msec
