                         Program Version 6.0.0  -   RELEASE  -
|  1> ! pbe def2-sv(p) def2/J RI DEFGRID1 loosescf d4 GCP(DFT/SV(P)) printgap
|  2> %output
|  3>     printlevel normal
|  4> end
|  5> * xyz 0 1
|  6> C -1.7535676955 -1.0136305276 -0.7113597703
|  7> C -1.0538307599 -0.4822792203 0.5471945741
|  8> H -1.7485662777 -0.5828308502 1.3890169017
|  9> C -0.7074839744 1.010391398 0.411976256
| 10> H -1.5589524687 1.4961516792 -0.0758401917
| 11> C 0.54918124 1.2376690431 -0.4482852549
| 12> H 0.8719882597 2.2753049744 -0.2656268647
| 13> C 1.6940113688 0.3230526479 0.0316707874
| 14> H 2.4970959689 0.3369723378 -0.7196033591
| 15> C 1.2365288703 -1.141501354 0.1679382139
| 16> H 1.9808713253 -1.6860616705 0.7744290606
| 17> O 0.0608858346 -1.2845182183 0.9216083896
| 18> O 1.1552262786 -1.686808513 -1.1106424833
| 19> O 2.1368031425 0.8372330643 1.2629443814
| 20> O 0.2252832312 1.0453638936 -1.7977030323
| 21> O -0.5718304647 1.6301844273 1.6663461071
| 22> O -3.0263512886 -0.4096685079 -0.7833449258
| 23> H -1.8510109168 -2.1033066496 -0.6109716866
| 24> H -1.151864202 -0.7752462607 -1.5933296019
| 25> H 0.9671548196 -2.6357253058 -1.0572412931
| 26> H 2.9279579198 0.3664771061 1.5631320213
| 27> H 0.9709910071 1.3047757316 -2.3579407689
| 28> H 0.2653241385 1.3409623693 2.0667110935
| 29> H -3.4347672764 -0.6393822132 -1.6296989171
| 30> *
| 31>
| 32>                          ****END OF INPUT****

CARTESIAN COORDINATES (ANGSTROEM)
---------------------------------
  C     -1.753568   -1.013631   -0.711360
  C     -1.053831   -0.482279    0.547195
  H     -1.748566   -0.582831    1.389017
  C     -0.707484    1.010391    0.411976
  H     -1.558952    1.496152   -0.075840
  C      0.549181    1.237669   -0.448285
  H      0.871988    2.275305   -0.265627
  C      1.694011    0.323053    0.031671
  H      2.497096    0.336972   -0.719603
  C      1.236529   -1.141501    0.167938
  H      1.980871   -1.686062    0.774429
  O      0.060886   -1.284518    0.921608
  O      1.155226   -1.686809   -1.110642
  O      2.136803    0.837233    1.262944
  O      0.225283    1.045364   -1.797703
  O     -0.571830    1.630184    1.666346
  O     -3.026351   -0.409669   -0.783345
  H     -1.851011   -2.103307   -0.610972
  H     -1.151864   -0.775246   -1.593330
  H      0.967155   -2.635725   -1.057241
  H      2.927958    0.366477    1.563132
  H      0.970991    1.304776   -2.357941
  H      0.265324    1.340962    2.066711
  H     -3.434767   -0.639382   -1.629699

 Total Charge           Charge          ....    0
 Multiplicity           Mult            ....    1
 Number of Electrons    NEL             ....   96
 Basis Dimension        Dim             ....  192

ORBITAL ENERGIES
----------------

  NO   OCC          E(Eh)            E(eV)
   0   2.0000     -18.777070      -510.9500
   1   2.0000     -18.765990      -510.6486
   2   2.0000     -18.763338      -510.5764
   3   2.0000     -18.756160      -510.3811
   4   2.0000     -18.737671      -509.8780
   5   2.0000     -18.725255      -509.5401
   6   2.0000      -9.989618      -271.8313
   7   2.0000      -9.950803      -270.7751
   8   2.0000      -9.941097      -270.5110
   9   2.0000      -9.926642      -270.1177
  10   2.0000      -9.924463      -270.0584
  11   2.0000      -9.913103      -269.7492
  12   2.0000      -0.980630       -26.6843
  13   2.0000      -0.950199       -25.8562
  14   2.0000      -0.933188       -25.3933
  15   2.0000      -0.918326       -24.9889
  16   2.0000      -0.909638       -24.7525
  17   2.0000      -0.900309       -24.4986
  18   2.0000      -0.694035       -18.8857
  19   2.0000      -0.688610       -18.7380
  20   2.0000      -0.611493       -16.6396
  21   2.0000      -0.587349       -15.9826
  22   2.0000      -0.560445       -15.2505
  23   2.0000      -0.526361       -14.3230
  24   2.0000      -0.482780       -13.1371
  25   2.0000      -0.482287       -13.1237
  26   2.0000      -0.471927       -12.8418
  27   2.0000      -0.454855       -12.3772
  28   2.0000      -0.445851       -12.1322
  29   2.0000      -0.430810       -11.7229
  30   2.0000      -0.410022       -11.1573
  31   2.0000      -0.390335       -10.6215
  32   2.0000      -0.375937       -10.2298
  33   2.0000      -0.366701        -9.9784
  34   2.0000      -0.362091        -9.8530
  35   2.0000      -0.341486        -9.2923
  36   2.0000      -0.327271        -8.9055
  37   2.0000      -0.319417        -8.6918
  38   2.0000      -0.300963        -8.1896
  39   2.0000      -0.285349        -7.7647
  40   2.0000      -0.269085        -7.3222
  41   2.0000      -0.258346        -7.0300
  42   2.0000      -0.249442        -6.7877
  43   2.0000      -0.241009        -6.5582
  44   2.0000      -0.230020        -6.2592
  45   2.0000      -0.217253        -5.9118
  46   2.0000      -0.203867        -5.5475
  47   2.0000      -0.192763        -5.2454
  48   0.0000       0.006226         0.1694
  49   0.0000       0.012974         0.3530
  50   0.0000       0.029264         0.7963
  51   0.0000       0.035633         0.9696
  52   0.0000       0.079946         2.1754

MULLIKEN ATOMIC CHARGES
-----------------------
   0 C :   -0.003045
   1 C :    0.038275
   2 H :    0.080082
   3 C :    0.071088
   4 H :    0.087923
   5 C :    0.035662
   6 H :    0.077062
   7 C :    0.012769
   8 H :    0.059530
   9 C :    0.203427
  10 H :    0.042390
  11 O :   -0.313657
  12 O :   -0.389986
  13 O :   -0.417959
  14 O :   -0.393825
  15 O :   -0.430843
  16 O :   -0.435097
  17 H :    0.052586
  18 H :    0.107343
  19 H :    0.304611
  20 H :    0.309349
  21 H :    0.302253
  22 H :    0.298778
  23 H :    0.301283
Sum of atomic charges:    0.0000000

LOEWDIN ATOMIC CHARGES
----------------------
   0 C :   -0.152338
   1 C :   -0.061820
   2 H :    0.122107
   3 C :   -0.062818
   4 H :    0.125988
   5 C :   -0.070160
   6 H :    0.106571
   7 C :   -0.088325
   8 H :    0.101532
   9 C :   -0.010486
  10 H :    0.087091
  11 O :   -0.142755
  12 O :   -0.305419
  13 O :   -0.303762
  14 O :   -0.301785
  15 O :   -0.320118
  16 O :   -0.341615
  17 H :    0.087282
  18 H :    0.106633
  19 H :    0.287311
  20 H :    0.291308
  21 H :    0.287281
  22 H :    0.271046
  23 H :    0.287250

  Mayer bond orders larger than 0.100000
B(  0-C ,  1-C ) :   1.0574 B(  0-C , 16-O ) :   1.0679 B(  0-C , 17-H ) :   0.9067
B(  0-C , 18-H ) :   0.8903 B(  1-C ,  2-H ) :   0.8919 B(  1-C ,  3-C ) :   1.0176
B(  1-C , 11-O ) :   0.9854 B(  3-C ,  4-H ) :   0.8810 B(  3-C ,  5-C ) :   0.9953
B(  3-C , 15-O ) :   1.0600 B(  5-C ,  6-H ) :   0.9019 B(  5-C ,  7-C ) :   0.9755
B(  5-C , 14-O ) :   1.0802 B(  7-C ,  8-H ) :   0.8914 B(  7-C ,  9-C ) :   0.9676
B(  7-C , 13-O ) :   1.0249 B(  9-C , 10-H ) :   0.9031 B(  9-C , 11-O ) :   1.0843
B(  9-C , 12-O ) :   1.1315 B( 12-O , 19-H ) :   0.8354 B( 13-O , 20-H ) :   0.8393
B( 14-O , 21-H ) :   0.8424 B( 15-O , 22-H ) :   0.8217 B( 16-O , 23-H ) :   0.8514

Dispersion correction           -0.025775341
FINAL SINGLE POINT ENERGY      -685.691020699993

DIPOLE MOMENT
-------------

Method             : SCF
Type of density    : Electron Density
Multiplicity       :   1
Irrep              :   0
Energy             :  -685.8216240193759177 Eh
Relativity type    :
Basis              : AO
                                X                 Y                 Z
Electronic contribution:      0.775343136       0.306350790       1.492957546
Nuclear contribution   :      0.690405717      -1.219459542      -2.358981451
                        -----------------------------------------
Total Dipole Moment    :      1.465748853      -0.913108753      -0.866023905
                        -----------------------------------------
Magnitude (a.u.)       :      1.931886306
Magnitude (Debye)      :      4.910464749

Rotational constants in cm-1:             0.040502             0.028804             0.024801
Rotational constants in MHz :          1214.226768           863.514735           743.522382

                             ****ORCA TERMINATED NORMALLY****
TOTAL RUN TIME: 0 days 0 hours 0 minutes 12 seconds 569 msec
