                         Program Version 6.0.0  -   RELEASE  -
|  1> ! pbe def2-sv(p) def2/J RI DEFGRID1 loosescf d4 GCP(DFT/SV(P)) printgap
|  2> %output
|  3>     printlevel normal
|  4> end
|  5> * xyz 0 1
|  6> C -1.6392135922 -0.9638501705 -0.8302745226
|  7> C -0.9013809732 0.0215059616 0.022739642
|  8> O -1.4950948431 0.8184939449 0.7260290621
|  9> C 0.6272006877 0.0075713693 -0.0003149768
| 10> C 1.0888576698 -0.2761686674 1.4372755586
| 11> C 1.0823812545 1.4152727662 -0.4128457161
| 12> C 1.2351910569 -1.0251138295 -0.9462210191
| 13> H -1.3723645241 -0.8215423348 -1.8737723783
| 14> H -1.3625769592 -1.9758202032 -0.5472503288
| 15> H -2.7098464173 -0.8267153305 -0.7025304391
| 16> H 0.7942786543 -1.2781709567 1.7419702603
| 17> H 2.1702629674 -0.1940525816 1.5047642183
| 18> H 0.6374962371 0.4385335493 2.121713379
| 19> H 2.1630477064 1.4969054335 -0.3336765797
| 20> H 0.623987592 2.1597931068 0.2341679136
| 21> H 0.7897380813 1.624749135 -1.439564583
| 22> H 2.3192621745 -0.9573461487 -0.892285452
| 23> H 0.9389698042 -0.8427114305 -1.9751635412
| 24> H 0.9485759088 -2.0352430027 -0.668326748
| 25> *
| 26>
| 27>                          ****END OF INPUT****

CARTESIAN COORDINATES (ANGSTROEM)
---------------------------------
  C     -1.639214   -0.963850   -0.830275
  C     -0.901381    0.021506    0.022740
  O     -1.495095    0.818494    0.726029
  C      0.627201    0.007571   -0.000315
  C      1.088858   -0.276169    1.437276
  C      1.082381    1.415273   -0.412846
  C      1.235191   -1.025114   -0.946221
  H     -1.372365   -0.821542   -1.873772
  H     -1.362577   -1.975820   -0.547250
  H     -2.709846   -0.826715   -0.702530
  H      0.794279   -1.278171    1.741970
  H      2.170263   -0.194053    1.504764
  H      0.637496    0.438534    2.121713
  H      2.163048    1.496905   -0.333677
  H      0.623988    2.159793    0.234168
  H      0.789738    1.624749   -1.439565
  H      2.319262   -0.957346   -0.892285
  H      0.938970   -0.842711   -1.975164
  H      0.948576   -2.035243   -0.668327

 Total Charge           Charge          ....    0
 Multiplicity           Mult            ....    1
 Number of Electrons    NEL             ....   56
 Basis Dimension        Dim             ....  122

ORBITAL ENERGIES
----------------

  NO   OCC          E(Eh)            E(eV)
   0   2.0000     -18.736052      -509.8339
   1   2.0000      -9.969344      -271.2797
   2   2.0000      -9.914050      -269.7750
   3   2.0000      -9.885968      -269.0109
   4   2.0000      -9.883228      -268.9363
   5   2.0000      -9.879341      -268.8305
   6   2.0000      -9.878518      -268.8081
   7   2.0000      -0.933540       -25.4029
   8   2.0000      -0.745997       -20.2996
   9   2.0000      -0.669257       -18.2114
  10   2.0000      -0.619018       -16.8443
  11   2.0000      -0.618183       -16.8216
  12   2.0000      -0.542973       -14.7750
  13   2.0000      -0.446400       -12.1472
  14   2.0000      -0.429918       -11.6987
  15   2.0000      -0.416410       -11.3311
  16   2.0000      -0.399657       -10.8752
  17   2.0000      -0.381563       -10.3829
  18   2.0000      -0.373611       -10.1665
  19   2.0000      -0.357895        -9.7388
  20   2.0000      -0.355010        -9.6603
  21   2.0000      -0.343722        -9.3532
  22   2.0000      -0.326462        -8.8835
  23   2.0000      -0.314104        -8.5472
  24   2.0000      -0.309287        -8.4161
  25   2.0000      -0.292014        -7.9461
  26   2.0000      -0.285843        -7.7782
  27   2.0000      -0.193326        -5.2607
  28   0.0000      -0.049802        -1.3552
  29   0.0000       0.022104         0.6015
  30   0.0000       0.062990         1.7141
  31   0.0000       0.065687         1.7874
  32   0.0000       0.088650         2.4123

MULLIKEN ATOMIC CHARGES
-----------------------
   0 C :   -0.222244
   1 C :    0.026326
   2 O :   -0.173065
   3 C :   -0.283304
   4 C :   -0.214304
   5 C :   -0.213848
   6 C :   -0.190429
   7 H :    0.120247
   8 H :    0.120256
   9 H :    0.116677
  10 H :    0.095389
  11 H :    0.098267
  12 H :    0.118174
  13 H :    0.097286
  14 H :    0.118308
  15 H :    0.095316
  16 H :    0.101378
  17 H :    0.095123
  18 H :    0.094449
Sum of atomic charges:    0.0000000

LOEWDIN ATOMIC CHARGES
----------------------
   0 C :   -0.358599
   1 C :    0.062480
   2 O :   -0.131324
   3 C :   -0.132136
   4 C :   -0.308580
   5 C :   -0.309143
   6 C :   -0.320527
   7 H :    0.141630
   8 H :    0.141737
   9 H :    0.133906
  10 H :    0.116903
  11 H :    0.118644
  12 H :    0.126329
  13 H :    0.118297
  14 H :    0.126267
  15 H :    0.116926
  16 H :    0.123045
  17 H :    0.117143
  18 H :    0.117002

  Mayer bond orders larger than 0.100000
B(  0-C ,  1-C ) :   1.1400 B(  0-C ,  7-H ) :   0.9127 B(  0-C ,  8-H ) :   0.9133
B(  0-C ,  9-H ) :   0.9276 B(  1-C ,  2-O ) :   2.1698 B(  1-C ,  3-C ) :   0.8575
B(  3-C ,  4-C ) :   1.0628 B(  3-C ,  5-C ) :   1.0642 B(  3-C ,  6-C ) :   1.1036
B(  4-C , 10-H ) :   0.9498 B(  4-C , 11-H ) :   0.9464 B(  4-C , 12-H ) :   0.9404
B(  5-C , 13-H ) :   0.9467 B(  5-C , 14-H ) :   0.9398 B(  5-C , 15-H ) :   0.9502
B(  6-C , 16-H ) :   0.9402 B(  6-C , 17-H ) :   0.9356 B(  6-C , 18-H ) :   0.9342

Dispersion correction           -0.016239486
FINAL SINGLE POINT ENERGY      -310.354771507915

DIPOLE MOMENT
-------------

Method             : SCF
Type of density    : Electron Density
Multiplicity       :   1
Irrep              :   0
Energy             :  -310.4182997293416975 Eh
Relativity type    :
Basis              : AO
                                X                 Y                 Z
Electronic contribution:     -5.033180408       2.378578438       2.100732322
Nuclear contribution   :      5.551302176      -3.000888915      -2.644194368
                        -----------------------------------------
Total Dipole Moment    :      0.518121768      -0.622310476      -0.543462046
                        -----------------------------------------
Magnitude (a.u.)       :      0.975228942
Magnitude (Debye)      :      2.478834975

Rotational constants in cm-1:             0.106998             0.077947             0.064710
Rotational constants in MHz :          3207.725977          2336.779935          1939.947947

                             ****ORCA TERMINATED NORMALLY****
TOTAL RUN TIME: 0 days 0 hours 0 minutes 12 seconds 746 msec
