                         Program Version 6.0.0  -   RELEASE  -
|  1> ! r2scan-3c def2/J RI DEFGRID2 scfconv6 printgap
|  2> %output
|  3>     printlevel normal
|  4> end
|  5> * xyz 0 1
|  6> C -3.6960384295 -0.0414089587 0.119914432
|  7> C -2.2266656546 -0.0211509215 -0.2902044388
|  8> H -2.1492799738 0.3863408341 -1.3046694053
|  9> C -1.623344951 -1.423944459 -0.2782142782
| 10> C -0.1501035647 -1.3793808017 -0.6648264474
| 11> C 0.6520038995 -0.5033307179 0.314857421
| 12> H 0.4711309369 -0.8951114576 1.3229020403
| 13> C 0.0395618255 0.8781841874 0.2815415722
| 14> O 0.6251579954 1.8959782385 -0.0308531409
| 15> C -1.4214636352 0.8876258331 0.6521252737
| 16> C 2.1705822195 -0.5699285096 0.0662721196
| 17> C 2.583866957 -0.0523309538 -1.3104093589
| 18> C 2.9222485346 0.1844087297 1.163311182
| 19> H -4.1111677705 0.9630479261 0.1057301328
| 20> H -4.2697831144 -0.6601557822 -0.5652020071
| 21> H -3.8046557254 -0.4454617391 1.1235901385
| 22> H -1.7316051374 -1.8579609561 0.7178383646
| 23> H -2.1644431849 -2.0584348067 -0.9819699717
| 24> H 0.2718266493 -2.3854686355 -0.6618936441
| 25> H -0.0551729861 -0.9751914738 -1.6740449423
| 26> H -1.5281597324 0.5217854817 1.6748412214
| 27> H -1.7929452368 1.9127684818 0.6047021078
| 28> H 2.4527268147 -1.6286041028 0.1285340405
| 29> H 3.6657031194 -0.0986802081 -1.4100331879
| 30> H 2.2730374038 0.9812595407 -1.4360346663
| 31> H 2.1455867077 -0.6511014988 -2.1042640233
| 32> H 2.6543243388 -0.1947374795 2.1472627147
| 33> H 2.683828735 1.2444601902 1.122875431
| 34> H 3.9952230099 0.0698581059 1.0317088321
| 35> *
| 36>
| 37>                          ****END OF INPUT****

CARTESIAN COORDINATES (ANGSTROEM)
---------------------------------
  C     -3.696038   -0.041409    0.119914
  C     -2.226666   -0.021151   -0.290204
  H     -2.149280    0.386341   -1.304669
  C     -1.623345   -1.423944   -0.278214
  C     -0.150104   -1.379381   -0.664826
  C      0.652004   -0.503331    0.314857
  H      0.471131   -0.895111    1.322902
  C      0.039562    0.878184    0.281542
  O      0.625158    1.895978   -0.030853
  C     -1.421464    0.887626    0.652125
  C      2.170582   -0.569929    0.066272
  C      2.583867   -0.052331   -1.310409
  C      2.922249    0.184409    1.163311
  H     -4.111168    0.963048    0.105730
  H     -4.269783   -0.660156   -0.565202
  H     -3.804656   -0.445462    1.123590
  H     -1.731605   -1.857961    0.717838
  H     -2.164443   -2.058435   -0.981970
  H      0.271827   -2.385469   -0.661894
  H     -0.055173   -0.975191   -1.674045
  H     -1.528160    0.521785    1.674841
  H     -1.792945    1.912768    0.604702
  H      2.452727   -1.628604    0.128534
  H      3.665703   -0.098680   -1.410033
  H      2.273037    0.981260   -1.436035
  H      2.145587   -0.651101   -2.104264
  H      2.654324   -0.194737    2.147263
  H      2.683829    1.244460    1.122875
  H      3.995223    0.069858    1.031709

 Total Charge           Charge          ....    0
 Multiplicity           Mult            ....    1
 Number of Electrons    NEL             ....   86
 Basis Dimension        Dim             ....  304

ORBITAL ENERGIES
----------------

  NO   OCC          E(Eh)            E(eV)
   0   2.0000     -18.933988      -515.2200
   1   2.0000     -10.113516      -275.2028
   2   2.0000     -10.049036      -273.4482
   3   2.0000     -10.041774      -273.2506
   4   2.0000     -10.039499      -273.1886
   5   2.0000     -10.035171      -273.0709
   6   2.0000     -10.034249      -273.0458
   7   2.0000     -10.033905      -273.0364
   8   2.0000     -10.025580      -272.8099
   9   2.0000     -10.007206      -272.3099
  10   2.0000     -10.005128      -272.2534
  11   2.0000      -1.001868       -27.2622
  12   2.0000      -0.817725       -22.2514
  13   2.0000      -0.774191       -21.0668
  14   2.0000      -0.722370       -19.6567
  15   2.0000      -0.700396       -19.0588
  16   2.0000      -0.652367       -17.7518
  17   2.0000      -0.643208       -17.5026
  18   2.0000      -0.582416       -15.8483
  19   2.0000      -0.555932       -15.1277
  20   2.0000      -0.539903       -14.6915
  21   2.0000      -0.491028       -13.3615
  22   2.0000      -0.451271       -12.2797
  23   2.0000      -0.446569       -12.1517
  24   2.0000      -0.418807       -11.3963
  25   2.0000      -0.417042       -11.3483
  26   2.0000      -0.407719       -11.0946
  27   2.0000      -0.394450       -10.7335
  28   2.0000      -0.386100       -10.5063
  29   2.0000      -0.373624       -10.1668
  30   2.0000      -0.368374       -10.0240
  31   2.0000      -0.359622        -9.7858
  32   2.0000      -0.344429        -9.3724
  33   2.0000      -0.343129        -9.3370
  34   2.0000      -0.331685        -9.0256
  35   2.0000      -0.322671        -8.7803
  36   2.0000      -0.317957        -8.6521
  37   2.0000      -0.305483        -8.3126
  38   2.0000      -0.297113        -8.0848
  39   2.0000      -0.293114        -7.9760
  40   2.0000      -0.286740        -7.8026
  41   2.0000      -0.277552        -7.5526
  42   2.0000      -0.202927        -5.5219
  43   0.0000      -0.046624        -1.2687
  44   0.0000       0.072437         1.9711
  45   0.0000       0.082431         2.2431
  46   0.0000       0.097052         2.6409
  47   0.0000       0.107724         2.9313

MULLIKEN ATOMIC CHARGES
-----------------------
   0 C :   -0.491187
   1 C :   -0.016672
   2 H :    0.166392
   3 C :   -0.364236
   4 C :   -0.346176
   5 C :   -0.118778
   6 H :    0.174916
   7 C :    0.221133
   8 O :   -0.361053
   9 C :   -0.371229
  10 C :    0.084931
  11 C :   -0.571100
  12 C :   -0.562004
  13 H :    0.152868
  14 H :    0.150044
  15 H :    0.150893
  16 H :    0.159203
  17 H :    0.151544
  18 H :    0.156542
  19 H :    0.170865
  20 H :    0.171990
  21 H :    0.170531
  22 H :    0.152087
  23 H :    0.142767
  24 H :    0.200528
  25 H :    0.144417
  26 H :    0.141775
  27 H :    0.192954
  28 H :    0.146054
Sum of atomic charges:   -0.0000000

LOEWDIN ATOMIC CHARGES
----------------------
   0 C :   -0.409179
   1 C :   -0.217656
   2 H :    0.163105
   3 C :   -0.291763
   4 C :   -0.270089
   5 C :   -0.196687
   6 H :    0.180755
   7 C :    0.237228
   8 O :   -0.477135
   9 C :   -0.259872
  10 C :   -0.223298
  11 C :   -0.410210
  12 C :   -0.409218
  13 H :    0.156194
  14 H :    0.155301
  15 H :    0.154441
  16 H :    0.159430
  17 H :    0.161720
  18 H :    0.162907
  19 H :    0.165431
  20 H :    0.175058
  21 H :    0.179183
  22 H :    0.157150
  23 H :    0.152935
  24 H :    0.178017
  25 H :    0.150139
  26 H :    0.150251
  27 H :    0.173429
  28 H :    0.152431

  Mayer bond orders larger than 0.100000
B(  0-C ,  1-C ) :   0.8931 B(  0-C , 13-H ) :   0.9753 B(  0-C , 14-H ) :   0.9739
B(  0-C , 15-H ) :   0.9971 B(  1-C ,  2-H ) :   0.9388 B(  1-C ,  3-C ) :   0.9155
B(  1-C ,  9-C ) :   0.8928 B(  3-C ,  4-C ) :   0.8842 B(  3-C , 16-H ) :   1.0155
B(  3-C , 17-H ) :   0.9478 B(  4-C ,  5-C ) :   0.8520 B(  4-C , 18-H ) :   0.9497
B(  4-C , 19-H ) :   0.9885 B(  5-C ,  6-H ) :   0.9745 B(  5-C ,  7-C ) :   0.8797
B(  5-C ,  8-O ) :  -0.1007 B(  5-C , 10-C ) :   0.8747 B(  7-C ,  8-O ) :   1.9607
B(  7-C ,  9-C ) :   0.9211 B(  9-C , 20-H ) :   0.9949 B(  9-C , 21-H ) :   0.9543
B( 10-C , 11-C ) :   0.8446 B( 10-C , 12-C ) :   0.8693 B( 10-C , 22-H ) :   0.9939
B( 11-C , 23-H ) :   0.9718 B( 11-C , 24-H ) :   0.9768 B( 11-C , 25-H ) :   0.9756
B( 12-C , 26-H ) :   0.9788 B( 12-C , 27-H ) :   0.9777 B( 12-C , 28-H ) :   0.9747

Dispersion correction           -0.010219751
FINAL SINGLE POINT ENERGY      -467.007743931030

DIPOLE MOMENT
-------------

Method             : SCF
Type of density    : Electron Density
Multiplicity       :   1
Irrep              :   0
Energy             :  -467.0105881933291130 Eh
Relativity type    :
Basis              : AO
                                X                 Y                 Z
Electronic contribution:      0.256653425       4.404477536       0.321109450
Nuclear contribution   :     -0.923099376      -5.386393192      -0.148806773
                        -----------------------------------------
Total Dipole Moment    :     -0.666445951      -0.981915656       0.172302677
                        -----------------------------------------
Magnitude (a.u.)       :      1.199165032
Magnitude (Debye)      :      3.048035279

Rotational constants in cm-1:             0.071286             0.023119             0.020378
Rotational constants in MHz :          2137.113415           693.077793           610.916081

                             ****ORCA TERMINATED NORMALLY****
TOTAL RUN TIME: 0 days 0 hours 0 minutes 42 seconds 61 msec
