                         Program Version 6.0.0  -   RELEASE  -
|  1> ! r2scan-3c def2/J RI DEFGRID2 scfconv6 printgap
|  2> %output
|  3>     printlevel normal
|  4> end
|  5> %cpcm
|  6>     smd true
|  7>     smdsolvent "water"
|  8> end
|  9> * xyz 0 1
| 10> C -3.6960384295 -0.0414089587 0.119914432
| 11> C -2.2266656546 -0.0211509215 -0.2902044388
| 12> H -2.1492799738 0.3863408341 -1.3046694053
| 13> C -1.623344951 -1.423944459 -0.2782142782
| 14> C -0.1501035647 -1.3793808017 -0.6648264474
| 15> C 0.6520038995 -0.5033307179 0.314857421
| 16> H 0.4711309369 -0.8951114576 1.3229020403
| 17> C 0.0395618255 0.8781841874 0.2815415722
| 18> O 0.6251579954 1.8959782385 -0.0308531409
| 19> C -1.4214636352 0.8876258331 0.6521252737
| 20> C 2.1705822195 -0.5699285096 0.0662721196
| 21> C 2.583866957 -0.0523309538 -1.3104093589
| 22> C 2.9222485346 0.1844087297 1.163311182
| 23> H -4.1111677705 0.9630479261 0.1057301328
| 24> H -4.2697831144 -0.6601557822 -0.5652020071
| 25> H -3.8046557254 -0.4454617391 1.1235901385
| 26> H -1.7316051374 -1.8579609561 0.7178383646
| 27> H -2.1644431849 -2.0584348067 -0.9819699717
| 28> H 0.2718266493 -2.3854686355 -0.6618936441
| 29> H -0.0551729861 -0.9751914738 -1.6740449423
| 30> H -1.5281597324 0.5217854817 1.6748412214
| 31> H -1.7929452368 1.9127684818 0.6047021078
| 32> H 2.4527268147 -1.6286041028 0.1285340405
| 33> H 3.6657031194 -0.0986802081 -1.4100331879
| 34> H 2.2730374038 0.9812595407 -1.4360346663
| 35> H 2.1455867077 -0.6511014988 -2.1042640233
| 36> H 2.6543243388 -0.1947374795 2.1472627147
| 37> H 2.683828735 1.2444601902 1.122875431
| 38> H 3.9952230099 0.0698581059 1.0317088321
| 39> *
| 40>
| 41>                          ****END OF INPUT****

CARTESIAN COORDINATES (ANGSTROEM)
---------------------------------
  C     -3.696038   -0.041409    0.119914
  C     -2.226666   -0.021151   -0.290204
  H     -2.149280    0.386341   -1.304669
  C     -1.623345   -1.423944   -0.278214
  C     -0.150104   -1.379381   -0.664826
  C      0.652004   -0.503331    0.314857
  H      0.471131   -0.895111    1.322902
  C      0.039562    0.878184    0.281542
  O      0.625158    1.895978   -0.030853
  C     -1.421464    0.887626    0.652125
  C      2.170582   -0.569929    0.066272
  C      2.583867   -0.052331   -1.310409
  C      2.922249    0.184409    1.163311
  H     -4.111168    0.963048    0.105730
  H     -4.269783   -0.660156   -0.565202
  H     -3.804656   -0.445462    1.123590
  H     -1.731605   -1.857961    0.717838
  H     -2.164443   -2.058435   -0.981970
  H      0.271827   -2.385469   -0.661894
  H     -0.055173   -0.975191   -1.674045
  H     -1.528160    0.521785    1.674841
  H     -1.792945    1.912768    0.604702
  H      2.452727   -1.628604    0.128534
  H      3.665703   -0.098680   -1.410033
  H      2.273037    0.981260   -1.436035
  H      2.145587   -0.651101   -2.104264
  H      2.654324   -0.194737    2.147263
  H      2.683829    1.244460    1.122875
  H      3.995223    0.069858    1.031709

 Total Charge           Charge          ....    0
 Multiplicity           Mult            ....    1
 Number of Electrons    NEL             ....   86
 Basis Dimension        Dim             ....  304

ORBITAL ENERGIES
----------------

  NO   OCC          E(Eh)            E(eV)
   0   2.0000     -18.943184      -515.4702
   1   2.0000     -10.117803      -275.3194
   2   2.0000     -10.034611      -273.0556
   3   2.0000     -10.032415      -272.9959
   4   2.0000     -10.028418      -272.8871
   5   2.0000     -10.024859      -272.7903
   6   2.0000     -10.023694      -272.7586
   7   2.0000     -10.017689      -272.5952
   8   2.0000     -10.009709      -272.3780
   9   2.0000     -10.004795      -272.2443
  10   2.0000     -10.003586      -272.2114
  11   2.0000      -1.012216       -27.5438
  12   2.0000      -0.806033       -21.9333
  13   2.0000      -0.765831       -20.8393
  14   2.0000      -0.711837       -19.3701
  15   2.0000      -0.690664       -18.7939
  16   2.0000      -0.642026       -17.4704
  17   2.0000      -0.639820       -17.4104
  18   2.0000      -0.570087       -15.5128
  19   2.0000      -0.548695       -14.9307
  20   2.0000      -0.528173       -14.3723
  21   2.0000      -0.486706       -13.2439
  22   2.0000      -0.443966       -12.0809
  23   2.0000      -0.436529       -11.8786
  24   2.0000      -0.418685       -11.3930
  25   2.0000      -0.407393       -11.0857
  26   2.0000      -0.403119       -10.9694
  27   2.0000      -0.386044       -10.5048
  28   2.0000      -0.378952       -10.3118
  29   2.0000      -0.366008        -9.9596
  30   2.0000      -0.362481        -9.8636
  31   2.0000      -0.353035        -9.6066
  32   2.0000      -0.338470        -9.2102
  33   2.0000      -0.333452        -9.0737
  34   2.0000      -0.328062        -8.9270
  35   2.0000      -0.314421        -8.5558
  36   2.0000      -0.309984        -8.4351
  37   2.0000      -0.294892        -8.0244
  38   2.0000      -0.290902        -7.9159
  39   2.0000      -0.283877        -7.7247
  40   2.0000      -0.276372        -7.5205
  41   2.0000      -0.269187        -7.3250
  42   2.0000      -0.209138        -5.6909
  43   0.0000      -0.047837        -1.3017
  44   0.0000       0.079755         2.1702
  45   0.0000       0.098872         2.6905
  46   0.0000       0.111177         3.0253
  47   0.0000       0.118538         3.2256

MULLIKEN ATOMIC CHARGES
-----------------------
   0 C :   -0.543096
   1 C :    0.010877
   2 H :    0.174747
   3 C :   -0.383608
   4 C :   -0.361110
   5 C :   -0.089577
   6 H :    0.203404
   7 C :    0.242969
   8 O :   -0.451757
   9 C :   -0.398392
  10 C :    0.075625
  11 C :   -0.603413
  12 C :   -0.593284
  13 H :    0.162537
  14 H :    0.162469
  15 H :    0.166413
  16 H :    0.172885
  17 H :    0.162085
  18 H :    0.168657
  19 H :    0.181928
  20 H :    0.200406
  21 H :    0.171838
  22 H :    0.168412
  23 H :    0.157023
  24 H :    0.180801
  25 H :    0.163424
  26 H :    0.162029
  27 H :    0.175877
  28 H :    0.159832
Sum of atomic charges:   -0.0000000

LOEWDIN ATOMIC CHARGES
----------------------
   0 C :   -0.416393
   1 C :   -0.211674
   2 H :    0.166028
   3 C :   -0.291555
   4 C :   -0.267247
   5 C :   -0.190997
   6 H :    0.194163
   7 C :    0.251050
   8 O :   -0.546550
   9 C :   -0.258905
  10 C :   -0.222365
  11 C :   -0.418349
  12 C :   -0.416803
  13 H :    0.157932
  14 H :    0.158421
  15 H :    0.158298
  16 H :    0.164505
  17 H :    0.165360
  18 H :    0.167949
  19 H :    0.168305
  20 H :    0.188102
  21 H :    0.178485
  22 H :    0.163792
  23 H :    0.155488
  24 H :    0.169032
  25 H :    0.156486
  26 H :    0.156884
  27 H :    0.165449
  28 H :    0.155108

  Mayer bond orders larger than 0.100000
B(  0-C ,  1-C ) :   0.8765 B(  0-C , 13-H ) :   0.9736 B(  0-C , 14-H ) :   0.9718
B(  0-C , 15-H ) :   0.9950 B(  1-C ,  2-H ) :   0.9377 B(  1-C ,  3-C ) :   0.9190
B(  1-C ,  9-C ) :   0.8843 B(  3-C ,  4-C ) :   0.8893 B(  3-C , 16-H ) :   1.0099
B(  3-C , 17-H ) :   0.9467 B(  4-C ,  5-C ) :   0.8489 B(  4-C , 18-H ) :   0.9460
B(  4-C , 19-H ) :   0.9856 B(  5-C ,  6-H ) :   0.9579 B(  5-C ,  7-C ) :   0.8984
B(  5-C , 10-C ) :   0.8650 B(  7-C ,  8-O ) :   1.8943 B(  7-C ,  9-C ) :   0.9362
B(  9-C , 20-H ) :   0.9732 B(  9-C , 21-H ) :   0.9642 B( 10-C , 11-C ) :   0.8464
B( 10-C , 12-C ) :   0.8656 B( 10-C , 22-H ) :   0.9890 B( 11-C , 23-H ) :   0.9720
B( 11-C , 24-H ) :   0.9804 B( 11-C , 25-H ) :   0.9707 B( 12-C , 26-H ) :   0.9754
B( 12-C , 27-H ) :   0.9802 B( 12-C , 28-H ) :   0.9739

Dispersion correction           -0.010219751
FINAL SINGLE POINT ENERGY      -467.011973431393

DIPOLE MOMENT
-------------

Method             : SCF
Type of density    : Electron Density
Multiplicity       :   1
Irrep              :   0
Energy             :  -467.0148176936919526 Eh
Relativity type    :
Basis              : AO
                                X                 Y                 Z
Electronic contribution:     -0.006073339       3.804687917       0.473563248
Nuclear contribution   :     -0.923099376      -5.386393192      -0.148806773
                        -----------------------------------------
Total Dipole Moment    :     -0.929172715      -1.581705275       0.324756474
                        -----------------------------------------
Magnitude (a.u.)       :      1.862960085
Magnitude (Debye)      :      4.735268218

Rotational constants in cm-1:             0.071286             0.023119             0.020378
Rotational constants in MHz :          2137.113415           693.077793           610.916081

                             ****ORCA TERMINATED NORMALLY****
TOTAL RUN TIME: 0 days 0 hours 0 minutes 53 seconds 139 msec
