                         Program Version 6.0.0  -   RELEASE  -
|  1> ! pbe def2-sv(p) def2/J RI DEFGRID1 loosescf d4 GCP(DFT/SV(P)) printgap
|  2> %output
|  3>     printlevel normal
|  4> end
|  5> * xyz 0 1
|  6> C -1.7202434402 -1.0388541359 -0.7206857697
|  7> C -1.069673814 -0.5055190624 0.5632725627
|  8> H -1.7773878022 -0.6406293171 1.3896432518
|  9> C -0.7480555969 0.9929753167 0.4681140976
| 10> H -1.6317748126 1.4947486794 0.0594523185
| 11> C 0.4765725889 1.262787958 -0.4312366258
| 12> H 0.7898542549 2.3017661147 -0.2315622132
| 13> C 1.6494003296 0.3501989964 -0.0265941666
| 14> H 2.3734242727 0.3434789711 -0.8515785983
| 15> C 1.2318410289 -1.1155002673 0.1884724474
| 16> H 2.0091218193 -1.5751527738 0.8201897875
| 17> O 0.0652626409 -1.2704032324 0.9540442608
| 18> O 1.1576421067 -1.7439913628 -1.0514008509
| 19> O 2.2313725356 0.7787901266 1.1816641931
| 20> O 0.2300059944 1.0869021603 -1.8017143324
| 21> O -0.5413333597 1.5564385204 1.7420154155
| 22> O -2.9479965235 -0.3651857851 -0.8981386624
| 23> H -1.8815020376 -2.1163171824 -0.5906620927
| 24> H -1.0498589862 -0.8716747562 -1.5705174075
| 25> H 1.0627229099 -2.700910315 -0.9301915311
| 26> H 2.7400007334 1.5895012945 1.0333377253
| 27> H -0.4203510816 1.7406628708 -2.0971155677
| 28> H 0.2297310704 1.1267403162 2.1476636172
| 29> H -3.3917417706 -0.7252071982 -1.6789170637
| 30> *
| 31>
| 32>                          ****END OF INPUT****

CARTESIAN COORDINATES (ANGSTROEM)
---------------------------------
  C     -1.720243   -1.038854   -0.720686
  C     -1.069674   -0.505519    0.563273
  H     -1.777388   -0.640629    1.389643
  C     -0.748056    0.992975    0.468114
  H     -1.631775    1.494749    0.059452
  C      0.476573    1.262788   -0.431237
  H      0.789854    2.301766   -0.231562
  C      1.649400    0.350199   -0.026594
  H      2.373424    0.343479   -0.851579
  C      1.231841   -1.115500    0.188472
  H      2.009122   -1.575153    0.820190
  O      0.065263   -1.270403    0.954044
  O      1.157642   -1.743991   -1.051401
  O      2.231373    0.778790    1.181664
  O      0.230006    1.086902   -1.801714
  O     -0.541333    1.556439    1.742015
  O     -2.947997   -0.365186   -0.898139
  H     -1.881502   -2.116317   -0.590662
  H     -1.049859   -0.871675   -1.570517
  H      1.062723   -2.700910   -0.930192
  H      2.740001    1.589501    1.033338
  H     -0.420351    1.740663   -2.097116
  H      0.229731    1.126740    2.147664
  H     -3.391742   -0.725207   -1.678917

 Total Charge           Charge          ....    0
 Multiplicity           Mult            ....    1
 Number of Electrons    NEL             ....   96
 Basis Dimension        Dim             ....  192

ORBITAL ENERGIES
----------------

  NO   OCC          E(Eh)            E(eV)
   0   2.0000     -18.769627      -510.7475
   1   2.0000     -18.763019      -510.5677
   2   2.0000     -18.760038      -510.4866
   3   2.0000     -18.756774      -510.3978
   4   2.0000     -18.745118      -510.0806
   5   2.0000     -18.732116      -509.7268
   6   2.0000      -9.983565      -271.6666
   7   2.0000      -9.946017      -270.6449
   8   2.0000      -9.941005      -270.5085
   9   2.0000      -9.931146      -270.2402
  10   2.0000      -9.928997      -270.1817
  11   2.0000      -9.917386      -269.8658
  12   2.0000      -0.977609       -26.6021
  13   2.0000      -0.944873       -25.7113
  14   2.0000      -0.932781       -25.3823
  15   2.0000      -0.920816       -25.0567
  16   2.0000      -0.914401       -24.8821
  17   2.0000      -0.902163       -24.5491
  18   2.0000      -0.692257       -18.8373
  19   2.0000      -0.690030       -18.7767
  20   2.0000      -0.613279       -16.6882
  21   2.0000      -0.582578       -15.8528
  22   2.0000      -0.562952       -15.3187
  23   2.0000      -0.526970       -14.3396
  24   2.0000      -0.484379       -13.1806
  25   2.0000      -0.483218       -13.1490
  26   2.0000      -0.468900       -12.7594
  27   2.0000      -0.456068       -12.4102
  28   2.0000      -0.438907       -11.9433
  29   2.0000      -0.423828       -11.5329
  30   2.0000      -0.417742       -11.3673
  31   2.0000      -0.390651       -10.6301
  32   2.0000      -0.377379       -10.2690
  33   2.0000      -0.374387       -10.1876
  34   2.0000      -0.359138        -9.7726
  35   2.0000      -0.335775        -9.1369
  36   2.0000      -0.325226        -8.8499
  37   2.0000      -0.319213        -8.6862
  38   2.0000      -0.300437        -8.1753
  39   2.0000      -0.291936        -7.9440
  40   2.0000      -0.276616        -7.5271
  41   2.0000      -0.256291        -6.9740
  42   2.0000      -0.250727        -6.8226
  43   2.0000      -0.236041        -6.4230
  44   2.0000      -0.233632        -6.3575
  45   2.0000      -0.219121        -5.9626
  46   2.0000      -0.207997        -5.6599
  47   2.0000      -0.193489        -5.2651
  48   0.0000       0.010173         0.2768
  49   0.0000       0.018163         0.4943
  50   0.0000       0.028165         0.7664
  51   0.0000       0.034450         0.9374
  52   0.0000       0.076342         2.0774

MULLIKEN ATOMIC CHARGES
-----------------------
   0 C :   -0.013729
   1 C :    0.036185
   2 H :    0.079371
   3 C :    0.061313
   4 H :    0.073254
   5 C :    0.038056
   6 H :    0.052300
   7 C :    0.011445
   8 H :    0.085528
   9 C :    0.198226
  10 H :    0.067957
  11 O :   -0.315720
  12 O :   -0.385206
  13 O :   -0.416644
  14 O :   -0.395498
  15 O :   -0.432100
  16 O :   -0.439200
  17 H :    0.059305
  18 H :    0.113111
  19 H :    0.304195
  20 H :    0.311201
  21 H :    0.307017
  22 H :    0.297918
  23 H :    0.301716
Sum of atomic charges:    0.0000000

LOEWDIN ATOMIC CHARGES
----------------------
   0 C :   -0.155726
   1 C :   -0.061383
   2 H :    0.120630
   3 C :   -0.076090
   4 H :    0.117028
   5 C :   -0.081417
   6 H :    0.094874
   7 C :   -0.076593
   8 H :    0.116034
   9 C :   -0.001856
  10 H :    0.101065
  11 O :   -0.142886
  12 O :   -0.300299
  13 O :   -0.306186
  14 O :   -0.305826
  15 O :   -0.321494
  16 O :   -0.346279
  17 H :    0.091596
  18 H :    0.105206
  19 H :    0.287564
  20 H :    0.292667
  21 H :    0.290037
  22 H :    0.272071
  23 H :    0.287263

  Mayer bond orders larger than 0.100000
B(  0-C ,  1-C ) :   1.0611 B(  0-C , 16-O ) :   1.0614 B(  0-C , 17-H ) :   0.9091
B(  0-C , 18-H ) :   0.8876 B(  1-C ,  2-H ) :   0.8929 B(  1-C ,  3-C ) :   1.0244
B(  1-C , 11-O ) :   0.9941 B(  3-C ,  4-H ) :   0.8844 B(  3-C ,  5-C ) :   0.9489
B(  3-C , 15-O ) :   1.0491 B(  5-C ,  6-H ) :   0.9026 B(  5-C ,  7-C ) :   0.9818
B(  5-C , 14-O ) :   1.0762 B(  7-C ,  8-H ) :   0.8873 B(  7-C ,  9-C ) :   0.9992
B(  7-C , 13-O ) :   1.0505 B(  9-C , 10-H ) :   0.9017 B(  9-C , 11-O ) :   1.0655
B(  9-C , 12-O ) :   1.1363 B( 12-O , 19-H ) :   0.8389 B( 13-O , 20-H ) :   0.8415
B( 14-O , 21-H ) :   0.8417 B( 15-O , 22-H ) :   0.8245 B( 16-O , 23-H ) :   0.8511

Dispersion correction           -0.025799268
FINAL SINGLE POINT ENERGY      -685.691507281174

DIPOLE MOMENT
-------------

Method             : SCF
Type of density    : Electron Density
Multiplicity       :   1
Irrep              :   0
Energy             :  -685.8219004989293808 Eh
Relativity type    :
Basis              : AO
                                X                 Y                 Z
Electronic contribution:      1.296788327      -0.099514200       1.461560993
Nuclear contribution   :     -0.886273317      -0.030322962      -2.343793542
                        -----------------------------------------
Total Dipole Moment    :      0.410515010      -0.129837162      -0.882232549
                        -----------------------------------------
Magnitude (a.u.)       :      0.981689632
Magnitude (Debye)      :      2.495256742

Rotational constants in cm-1:             0.040266             0.028826             0.025037
Rotational constants in MHz :          1207.136854           864.184250           750.586975

                             ****ORCA TERMINATED NORMALLY****
TOTAL RUN TIME: 0 days 0 hours 0 minutes 12 seconds 497 msec
