                         Program Version 6.0.0  -   RELEASE  -
|  1> ! pbe def2-sv(p) def2/J RI DEFGRID1 loosescf d4 GCP(DFT/SV(P)) printgap
|  2> %output
|  3>     printlevel normal
|  4> end
|  5> * xyz 0 1
|  6> C -2.5097426733 -1.0107918567 0.3889608987
|  7> C -1.0598548067 -0.5302740705 0.6018941893
|  8> H -0.8702999324 -0.4578261508 1.6853250528
|  9> C -0.7942735187 0.8359923968 -0.0616110614
| 10> H -0.9230995692 0.705839812 -1.1438106112
| 11> C 0.6582717906 1.2555621185 0.2186160904
| 12> H 0.8135099044 1.3689496899 1.2989869306
| 13> C 1.6017045084 0.1528927137 -0.2847323315
| 14> H 1.5310570468 0.0813924089 -1.3814586907
| 15> C 1.1740977918 -1.2108372941 0.2945006672
| 16> H 1.3510778081 -1.1903147612 1.3928475444
| 17> O -0.1809300784 -1.4947238465 0.0514346973
| 18> O 1.9420217903 -2.184748012 -0.3140072969
| 19> O 2.9105550663 0.4648921346 0.1110495481
| 20> O 0.9542885566 2.5167518146 -0.3139825105
| 21> O -1.7297434604 1.805262704 0.3320823178
| 22> O -3.0451272182 -0.6956619502 -0.8677203129
| 23> H -3.132599561 -0.5952581951 1.1877659941
| 24> H -2.5121117941 -2.1002835634 0.4564128901
| 25> H 1.5407694242 -3.0552204318 -0.1665659928
| 26> H 3.5058312041 -0.2380546885 -0.1900852377
| 27> H 0.917876048 2.4902127871 -1.2810568863
| 28> H -1.4370999795 2.2438521262 1.1431465891
| 29> H -3.2144504361 0.2575111218 -0.904651861
| 30> *
| 31>
| 32>                          ****END OF INPUT****

CARTESIAN COORDINATES (ANGSTROEM)
---------------------------------
  C     -2.509743   -1.010792    0.388961
  C     -1.059855   -0.530274    0.601894
  H     -0.870300   -0.457826    1.685325
  C     -0.794274    0.835992   -0.061611
  H     -0.923100    0.705840   -1.143811
  C      0.658272    1.255562    0.218616
  H      0.813510    1.368950    1.298987
  C      1.601705    0.152893   -0.284732
  H      1.531057    0.081392   -1.381459
  C      1.174098   -1.210837    0.294501
  H      1.351078   -1.190315    1.392848
  O     -0.180930   -1.494724    0.051435
  O      1.942022   -2.184748   -0.314007
  O      2.910555    0.464892    0.111050
  O      0.954289    2.516752   -0.313983
  O     -1.729743    1.805263    0.332082
  O     -3.045127   -0.695662   -0.867720
  H     -3.132600   -0.595258    1.187766
  H     -2.512112   -2.100284    0.456413
  H      1.540769   -3.055220   -0.166566
  H      3.505831   -0.238055   -0.190085
  H      0.917876    2.490213   -1.281057
  H     -1.437100    2.243852    1.143147
  H     -3.214450    0.257511   -0.904652

 Total Charge           Charge          ....    0
 Multiplicity           Mult            ....    1
 Number of Electrons    NEL             ....   96
 Basis Dimension        Dim             ....  192

ORBITAL ENERGIES
----------------

  NO   OCC          E(Eh)            E(eV)
   0   2.0000     -18.775352      -510.9033
   1   2.0000     -18.770056      -510.7592
   2   2.0000     -18.765293      -510.6296
   3   2.0000     -18.752505      -510.2816
   4   2.0000     -18.752316      -510.2765
   5   2.0000     -18.747201      -510.1373
   6   2.0000      -9.990316      -271.8503
   7   2.0000      -9.949729      -270.7459
   8   2.0000      -9.947602      -270.6880
   9   2.0000      -9.946896      -270.6688
  10   2.0000      -9.944881      -270.6140
  11   2.0000      -9.933196      -270.2960
  12   2.0000      -0.990407       -26.9503
  13   2.0000      -0.951090       -25.8805
  14   2.0000      -0.938164       -25.5287
  15   2.0000      -0.924726       -25.1631
  16   2.0000      -0.921327       -25.0706
  17   2.0000      -0.915713       -24.9178
  18   2.0000      -0.707129       -19.2420
  19   2.0000      -0.691998       -18.8302
  20   2.0000      -0.620833       -16.8937
  21   2.0000      -0.592617       -16.1259
  22   2.0000      -0.560713       -15.2578
  23   2.0000      -0.544025       -14.8037
  24   2.0000      -0.507084       -13.7985
  25   2.0000      -0.501665       -13.6510
  26   2.0000      -0.479147       -13.0382
  27   2.0000      -0.452446       -12.3117
  28   2.0000      -0.442697       -12.0464
  29   2.0000      -0.433777       -11.8037
  30   2.0000      -0.426928       -11.6173
  31   2.0000      -0.409076       -11.1315
  32   2.0000      -0.390016       -10.6129
  33   2.0000      -0.378645       -10.3034
  34   2.0000      -0.361775        -9.8444
  35   2.0000      -0.352429        -9.5901
  36   2.0000      -0.324432        -8.8282
  37   2.0000      -0.323787        -8.8107
  38   2.0000      -0.311704        -8.4819
  39   2.0000      -0.293098        -7.9756
  40   2.0000      -0.284117        -7.7312
  41   2.0000      -0.276318        -7.5190
  42   2.0000      -0.259096        -7.0504
  43   2.0000      -0.248972        -6.7749
  44   2.0000      -0.230175        -6.2634
  45   2.0000      -0.224419        -6.1068
  46   2.0000      -0.217071        -5.9068
  47   2.0000      -0.205668        -5.5965
  48   0.0000       0.012756         0.3471
  49   0.0000       0.016960         0.4615
  50   0.0000       0.025775         0.7014
  51   0.0000       0.050239         1.3671
  52   0.0000       0.054105         1.4723

MULLIKEN ATOMIC CHARGES
-----------------------
   0 C :    0.094913
   1 C :    0.014881
   2 H :    0.038019
   3 C :    0.018724
   4 H :    0.059275
   5 C :    0.070649
   6 H :    0.056027
   7 C :    0.033908
   8 H :    0.048537
   9 C :    0.175739
  10 H :    0.036779
  11 O :   -0.306653
  12 O :   -0.390950
  13 O :   -0.404470
  14 O :   -0.398035
  15 O :   -0.413012
  16 O :   -0.435001
  17 H :    0.072241
  18 H :    0.089222
  19 H :    0.312336
  20 H :    0.307978
  21 H :    0.299529
  22 H :    0.308220
  23 H :    0.311141
Sum of atomic charges:    0.0000000

LOEWDIN ATOMIC CHARGES
----------------------
   0 C :   -0.121937
   1 C :   -0.077531
   2 H :    0.097313
   3 C :   -0.090936
   4 H :    0.111115
   5 C :   -0.076354
   6 H :    0.113722
   7 C :   -0.087697
   8 H :    0.102611
   9 C :   -0.005931
  10 H :    0.079010
  11 O :   -0.150614
  12 O :   -0.303333
  13 O :   -0.312642
  14 O :   -0.303809
  15 O :   -0.312783
  16 O :   -0.330195
  17 H :    0.101336
  18 H :    0.119922
  19 H :    0.293992
  20 H :    0.289618
  21 H :    0.287482
  22 H :    0.291744
  23 H :    0.285898

  Mayer bond orders larger than 0.100000
B(  0-C ,  1-C ) :   0.9953 B(  0-C , 16-O ) :   1.1111 B(  0-C , 17-H ) :   0.9185
B(  0-C , 18-H ) :   0.9197 B(  1-C ,  2-H ) :   0.8692 B(  1-C ,  3-C ) :   0.9787
B(  1-C , 11-O ) :   0.9757 B(  3-C ,  4-H ) :   0.8543 B(  3-C ,  5-C ) :   1.0117
B(  3-C , 15-O ) :   1.0567 B(  5-C ,  6-H ) :   0.8654 B(  5-C ,  7-C ) :   1.0018
B(  5-C , 14-O ) :   1.0841 B(  7-C ,  8-H ) :   0.8633 B(  7-C ,  9-C ) :   0.9857
B(  7-C , 13-O ) :   1.0940 B(  9-C , 10-H ) :   0.8821 B(  9-C , 11-O ) :   1.0242
B(  9-C , 12-O ) :   1.1572 B( 12-O , 19-H ) :   0.8358 B( 13-O , 20-H ) :   0.8399
B( 14-O , 21-H ) :   0.8488 B( 15-O , 22-H ) :   0.8430 B( 16-O , 23-H ) :   0.8358

Dispersion correction           -0.023967779
FINAL SINGLE POINT ENERGY      -685.694419660121

DIPOLE MOMENT
-------------

Method             : SCF
Type of density    : Electron Density
Multiplicity       :   1
Irrep              :   0
Energy             :  -685.8239953693257576 Eh
Relativity type    :
Basis              : AO
                                X                 Y                 Z
Electronic contribution:      2.310133365       0.136274144      -1.513709767
Nuclear contribution   :     -2.266713585      -0.452852471       1.952375947
                        -----------------------------------------
Total Dipole Moment    :      0.043419780      -0.316578327       0.438666180
                        -----------------------------------------
Magnitude (a.u.)       :      0.542710910
Magnitude (Debye)      :      1.379461506

Rotational constants in cm-1:             0.041264             0.025987             0.017294
Rotational constants in MHz :          1237.071014           779.073659           518.472029

                             ****ORCA TERMINATED NORMALLY****
TOTAL RUN TIME: 0 days 0 hours 0 minutes 11 seconds 848 msec
