                         Program Version 6.0.0  -   RELEASE  -
|  1> ! pbe def2-sv(p) def2/J RI DEFGRID1 loosescf d4 GCP(DFT/SV(P)) printgap
|  2> %output
|  3>     printlevel normal
|  4> end
|  5> * xyz 0 1
|  6> C -0.743538872 1.4723e-06 2.8373e-06
|  7> F 0.639712395 3.0232e-06 -1.493e-07
|  8> H -1.0659545933 0.9804425086 0.3434558938
|  9> H -1.065874923 -0.1927956711 -1.0208177675
| 10> H -1.0658435252 -0.7877213644 0.6773308793
| 11> *
| 12>
| 13>                          ****END OF INPUT****

CARTESIAN COORDINATES (ANGSTROEM)
---------------------------------
  C     -0.743539    0.000001    0.000003
  F      0.639712    0.000003   -0.000000
  H     -1.065955    0.980443    0.343456
  H     -1.065875   -0.192796   -1.020818
  H     -1.065844   -0.787721    0.677331

 Total Charge           Charge          ....    0
 Multiplicity           Mult            ....    1
 Number of Electrons    NEL             ....   18
 Basis Dimension        Dim             ....   34

ORBITAL ENERGIES
----------------

  NO   OCC          E(Eh)            E(eV)
   0   2.0000     -24.225256      -659.2027
   1   2.0000      -9.946983      -270.6712
   2   2.0000      -1.052134       -28.6300
   3   2.0000      -0.617617       -16.8062
   4   2.0000      -0.419373       -11.4117
   5   2.0000      -0.419371       -11.4117
   6   2.0000      -0.418494       -11.3878
   7   2.0000      -0.273995        -7.4558
   8   2.0000      -0.273992        -7.4557
   9   0.0000       0.050741         1.3807
  10   0.0000       0.086047         2.3415
  11   0.0000       0.109152         2.9702
  12   0.0000       0.109154         2.9702
  13   0.0000       0.422409        11.4943

MULLIKEN ATOMIC CHARGES
-----------------------
   0 C :   -0.052073
   1 F :   -0.267933
   2 H :    0.106678
   3 H :    0.106663
   4 H :    0.106665
Sum of atomic charges:   -0.0000000

LOEWDIN ATOMIC CHARGES
----------------------
   0 C :   -0.159171
   1 F :   -0.159251
   2 H :    0.106140
   3 H :    0.106139
   4 H :    0.106142

  Mayer bond orders larger than 0.100000
B(  0-C ,  1-F ) :   1.0098 B(  0-C ,  2-H ) :   0.9581 B(  0-C ,  3-H ) :   0.9581
B(  0-C ,  4-H ) :   0.9581

Dispersion correction           -0.001049693
FINAL SINGLE POINT ENERGY      -139.439643618213

DIPOLE MOMENT
-------------

Method             : SCF
Type of density    : Electron Density
Multiplicity       :   1
Irrep              :   0
Energy             :  -139.4636076216143010 Eh
Relativity type    :
Basis              : AO
                                X                 Y                 Z
Electronic contribution:      2.926977912       0.000059469       0.000023677
Nuclear contribution   :     -3.592660865      -0.000072720      -0.000028940
                        -----------------------------------------
Total Dipole Moment    :     -0.665682953      -0.000013251      -0.000005263
                        -----------------------------------------
Magnitude (a.u.)       :      0.665682953
Magnitude (Debye)      :      1.692031598

Rotational constants in cm-1:             5.165269             0.865281             0.865275
Rotational constants in MHz :        154850.879737         25940.486371         25940.305658

                             ****ORCA TERMINATED NORMALLY****
TOTAL RUN TIME: 0 days 0 hours 0 minutes 3 seconds 272 msec
