                         Program Version 6.0.0  -   RELEASE  -
|  1> ! pbe def2-sv(p) def2/J RI DEFGRID1 loosescf d4 GCP(DFT/SV(P)) printgap
|  2> %output
|  3>     printlevel normal
|  4> end
|  5> * xyz 0 1
|  6> C -2.2169793102 -0.9567857501 -0.4234791779
|  7> C -1.1735885719 -0.1965899007 0.4107442904
|  8> H -1.6638618245 0.2331287494 1.2929950014
|  9> C -0.5807797406 0.9583132941 -0.405853283
| 10> H -0.4327015134 0.6450432575 -1.4511586238
| 11> C 0.7897073668 1.3211392431 0.1771967485
| 12> H 0.6719641725 1.5097461948 1.2571640725
| 13> C 1.7463555372 0.1373915878 -0.0314091351
| 14> H 2.1060427696 0.1536074196 -1.0656171938
| 15> C 0.9989487462 -1.2023817856 0.1755603423
| 16> H 1.6306214296 -1.8641913517 0.7874232055
| 17> O -0.167926041 -1.0538497876 0.9454232229
| 18> O 0.7553529354 -1.7583974661 -1.0768278523
| 19> O 2.8908943285 0.2453768319 0.773581323
| 20> O 1.23988036 2.4863388299 -0.4685838164
| 21> O -1.480599069 2.0326590729 -0.3443477097
| 22> O -2.8181478325 -2.0218565737 0.2661632554
| 23> H -1.7373376771 -1.3986346056 -1.2986480511
| 24> H -2.9625251504 -0.2241425317 -0.7585470534
| 25> H 0.4262969586 -2.6656266585 -0.9787119976
| 26> H 2.6451181502 0.1951105766 1.7095604301
| 27> H 2.1553997618 2.662630566 -0.2080354338
| 28> H -1.0336447548 2.8179813582 -0.6983285516
| 29> H -3.2640407049 -1.6857349978 1.0561890454
| 30> *
| 31>
| 32>                          ****END OF INPUT****

CARTESIAN COORDINATES (ANGSTROEM)
---------------------------------
  C     -2.216979   -0.956786   -0.423479
  C     -1.173589   -0.196590    0.410744
  H     -1.663862    0.233129    1.292995
  C     -0.580780    0.958313   -0.405853
  H     -0.432702    0.645043   -1.451159
  C      0.789707    1.321139    0.177197
  H      0.671964    1.509746    1.257164
  C      1.746356    0.137392   -0.031409
  H      2.106043    0.153607   -1.065617
  C      0.998949   -1.202382    0.175560
  H      1.630621   -1.864191    0.787423
  O     -0.167926   -1.053850    0.945423
  O      0.755353   -1.758397   -1.076828
  O      2.890894    0.245377    0.773581
  O      1.239880    2.486339   -0.468584
  O     -1.480599    2.032659   -0.344348
  O     -2.818148   -2.021857    0.266163
  H     -1.737338   -1.398635   -1.298648
  H     -2.962525   -0.224143   -0.758547
  H      0.426297   -2.665627   -0.978712
  H      2.645118    0.195111    1.709560
  H      2.155400    2.662631   -0.208035
  H     -1.033645    2.817981   -0.698329
  H     -3.264041   -1.685735    1.056189

 Total Charge           Charge          ....    0
 Multiplicity           Mult            ....    1
 Number of Electrons    NEL             ....   96
 Basis Dimension        Dim             ....  192

ORBITAL ENERGIES
----------------

  NO   OCC          E(Eh)            E(eV)
   0   2.0000     -18.769051      -510.7318
   1   2.0000     -18.767103      -510.6788
   2   2.0000     -18.763159      -510.5715
   3   2.0000     -18.761951      -510.5386
   4   2.0000     -18.749038      -510.1873
   5   2.0000     -18.741925      -509.9937
   6   2.0000      -9.988472      -271.8001
   7   2.0000      -9.945009      -270.6175
   8   2.0000      -9.943830      -270.5854
   9   2.0000      -9.942472      -270.5484
  10   2.0000      -9.941955      -270.5343
  11   2.0000      -9.923795      -270.0402
  12   2.0000      -0.983345       -26.7582
  13   2.0000      -0.950497       -25.8643
  14   2.0000      -0.936367       -25.4798
  15   2.0000      -0.923289       -25.1240
  16   2.0000      -0.917812       -24.9749
  17   2.0000      -0.910060       -24.7640
  18   2.0000      -0.706784       -19.2326
  19   2.0000      -0.692081       -18.8325
  20   2.0000      -0.619461       -16.8564
  21   2.0000      -0.583580       -15.8800
  22   2.0000      -0.570877       -15.5344
  23   2.0000      -0.525797       -14.3077
  24   2.0000      -0.508035       -13.8243
  25   2.0000      -0.496284       -13.5046
  26   2.0000      -0.469411       -12.7733
  27   2.0000      -0.462449       -12.5839
  28   2.0000      -0.440817       -11.9952
  29   2.0000      -0.421116       -11.4592
  30   2.0000      -0.411497       -11.1974
  31   2.0000      -0.408644       -11.1198
  32   2.0000      -0.384942       -10.4748
  33   2.0000      -0.378259       -10.2930
  34   2.0000      -0.363031        -9.8786
  35   2.0000      -0.350545        -9.5388
  36   2.0000      -0.325932        -8.8691
  37   2.0000      -0.318170        -8.6579
  38   2.0000      -0.306798        -8.3484
  39   2.0000      -0.299793        -8.1578
  40   2.0000      -0.280008        -7.6194
  41   2.0000      -0.268479        -7.3057
  42   2.0000      -0.254297        -6.9198
  43   2.0000      -0.250396        -6.8136
  44   2.0000      -0.232347        -6.3225
  45   2.0000      -0.221684        -6.0323
  46   2.0000      -0.212404        -5.7798
  47   2.0000      -0.204010        -5.5514
  48   0.0000       0.014323         0.3897
  49   0.0000       0.022301         0.6068
  50   0.0000       0.029943         0.8148
  51   0.0000       0.039780         1.0825
  52   0.0000       0.060038         1.6337

MULLIKEN ATOMIC CHARGES
-----------------------
   0 C :    0.056413
   1 C :    0.057215
   2 H :    0.061092
   3 C :    0.004183
   4 H :    0.070852
   5 C :    0.060318
   6 H :    0.039017
   7 C :    0.062641
   8 H :    0.082714
   9 C :    0.157430
  10 H :    0.060470
  11 O :   -0.312978
  12 O :   -0.395148
  13 O :   -0.420812
  14 O :   -0.425605
  15 O :   -0.417931
  16 O :   -0.429282
  17 H :    0.077060
  18 H :    0.084146
  19 H :    0.313768
  20 H :    0.300775
  21 H :    0.309880
  22 H :    0.309912
  23 H :    0.293868
Sum of atomic charges:   -0.0000000

LOEWDIN ATOMIC CHARGES
----------------------
   0 C :   -0.139057
   1 C :   -0.065744
   2 H :    0.112820
   3 C :   -0.070334
   4 H :    0.108492
   5 C :   -0.079761
   6 H :    0.098726
   7 C :   -0.088790
   8 H :    0.126918
   9 C :   -0.009453
  10 H :    0.097144
  11 O :   -0.148787
  12 O :   -0.304925
  13 O :   -0.311975
  14 O :   -0.323967
  15 O :   -0.318848
  16 O :   -0.336229
  17 H :    0.110776
  18 H :    0.104373
  19 H :    0.292431
  20 H :    0.284403
  21 H :    0.291450
  22 H :    0.287775
  23 H :    0.282562

  Mayer bond orders larger than 0.100000
B(  0-C ,  1-C ) :   1.0601 B(  0-C , 16-O ) :   1.0846 B(  0-C , 17-H ) :   0.9008
B(  0-C , 18-H ) :   0.9133 B(  1-C ,  2-H ) :   0.8769 B(  1-C ,  3-C ) :   0.9691
B(  1-C , 11-O ) :   0.9838 B(  3-C ,  4-H ) :   0.8825 B(  3-C ,  5-C ) :   1.0224
B(  3-C , 15-O ) :   1.0714 B(  5-C ,  6-H ) :   0.8599 B(  5-C ,  7-C ) :   1.0214
B(  5-C , 14-O ) :   1.0784 B(  7-C ,  8-H ) :   0.8630 B(  7-C ,  9-C ) :   0.9792
B(  7-C , 13-O ) :   1.0307 B(  9-C , 10-H ) :   0.8992 B(  9-C , 11-O ) :   1.0875
B(  9-C , 12-O ) :   1.1053 B( 12-O , 19-H ) :   0.8305 B( 13-O , 20-H ) :   0.8472
B( 14-O , 21-H ) :   0.8372 B( 15-O , 22-H ) :   0.8317 B( 16-O , 23-H ) :   0.8540

Dispersion correction           -0.024421767
FINAL SINGLE POINT ENERGY      -685.692846847871

DIPOLE MOMENT
-------------

Method             : SCF
Type of density    : Electron Density
Multiplicity       :   1
Irrep              :   0
Energy             :  -685.8226052198056095 Eh
Relativity type    :
Basis              : AO
                                X                 Y                 Z
Electronic contribution:      1.716383302      -0.138196856       0.929485835
Nuclear contribution   :     -1.362265081       0.354456522      -0.332307897
                        -----------------------------------------
Total Dipole Moment    :      0.354118221       0.216259666       0.597177937
                        -----------------------------------------
Magnitude (a.u.)       :      0.727179102
Magnitude (Debye)      :      1.848342387

Rotational constants in cm-1:             0.042920             0.025912             0.018550
Rotational constants in MHz :          1286.713706           776.813926           556.105912

                             ****ORCA TERMINATED NORMALLY****
TOTAL RUN TIME: 0 days 0 hours 0 minutes 12 seconds 263 msec
