                         Program Version 6.0.0  -   RELEASE  -
|  1> ! pbe def2-sv(p) def2/J RI DEFGRID1 loosescf d4 GCP(DFT/SV(P)) printgap
|  2> %output
|  3>     printlevel normal
|  4> end
|  5> * xyz 0 1
|  6> C -2.4182952084 -0.6860574866 0.0129255827
|  7> C -0.9852906456 -0.2654905102 0.3500819803
|  8> H -0.9358055985 0.0234473507 1.4088687956
|  9> C -0.5215091091 0.9083633229 -0.5163251759
| 10> H -0.4946174329 0.5673901129 -1.563480698
| 11> C 0.9046114037 1.3341826349 -0.0993482249
| 12> H 0.8106832287 2.1322098046 0.6459775068
| 13> C 1.6811393397 0.1560825331 0.5335139318
| 14> H 2.7423904257 0.2732586698 0.2725381108
| 15> C 1.2019334462 -1.156796455 -0.0962746296
| 16> H 1.7357763021 -2.0009488627 0.3655089291
| 17> O -0.1564079134 -1.4089120002 0.1384324933
| 18> O 1.4805730083 -1.0734447534 -1.4635069749
| 19> O 1.5098698106 0.0529584981 1.9217590704
| 20> O 1.6143591322 1.8947312415 -1.1749931048
| 21> O -1.4412736807 1.9605382103 -0.3710829093
| 22> O -2.9001432592 -1.6754947288 0.8842011468
| 23> H -2.4501898933 -1.0388645541 -1.026500441
| 24> H -3.0739975537 0.1786755555 0.1217102055
| 25> H 1.2694442418 -1.9148528201 -1.8962802385
| 26> H 1.9695838544 0.7817567491 2.3640691205
| 27> H 1.7854193504 1.2008454613 -1.8309420585
| 28> H -1.1545575295 2.7065729978 -0.9188502917
| 29> H -2.2647788426 -2.40624098 0.8926756931
| 30> *
| 31>
| 32>                          ****END OF INPUT****

CARTESIAN COORDINATES (ANGSTROEM)
---------------------------------
  C     -2.418295   -0.686057    0.012926
  C     -0.985291   -0.265491    0.350082
  H     -0.935806    0.023447    1.408869
  C     -0.521509    0.908363   -0.516325
  H     -0.494617    0.567390   -1.563481
  C      0.904611    1.334183   -0.099348
  H      0.810683    2.132210    0.645978
  C      1.681139    0.156083    0.533514
  H      2.742390    0.273259    0.272538
  C      1.201933   -1.156796   -0.096275
  H      1.735776   -2.000949    0.365509
  O     -0.156408   -1.408912    0.138432
  O      1.480573   -1.073445   -1.463507
  O      1.509870    0.052958    1.921759
  O      1.614359    1.894731   -1.174993
  O     -1.441274    1.960538   -0.371083
  O     -2.900143   -1.675495    0.884201
  H     -2.450190   -1.038865   -1.026500
  H     -3.073998    0.178676    0.121710
  H      1.269444   -1.914853   -1.896280
  H      1.969584    0.781757    2.364069
  H      1.785419    1.200845   -1.830942
  H     -1.154558    2.706573   -0.918850
  H     -2.264779   -2.406241    0.892676

 Total Charge           Charge          ....    0
 Multiplicity           Mult            ....    1
 Number of Electrons    NEL             ....   96
 Basis Dimension        Dim             ....  192

ORBITAL ENERGIES
----------------

  NO   OCC          E(Eh)            E(eV)
   0   2.0000     -18.781018      -511.0575
   1   2.0000     -18.772332      -510.8211
   2   2.0000     -18.765715      -510.6411
   3   2.0000     -18.753170      -510.2997
   4   2.0000     -18.749083      -510.1885
   5   2.0000     -18.732397      -509.7344
   6   2.0000      -9.995086      -271.9801
   7   2.0000      -9.949895      -270.7504
   8   2.0000      -9.941145      -270.5123
   9   2.0000      -9.939733      -270.4739
  10   2.0000      -9.934573      -270.3335
  11   2.0000      -9.918295      -269.8905
  12   2.0000      -0.990087       -26.9416
  13   2.0000      -0.944299       -25.6957
  14   2.0000      -0.936125       -25.4733
  15   2.0000      -0.928452       -25.2645
  16   2.0000      -0.918311       -24.9885
  17   2.0000      -0.905409       -24.6374
  18   2.0000      -0.701639       -19.0926
  19   2.0000      -0.693681       -18.8760
  20   2.0000      -0.618165       -16.8211
  21   2.0000      -0.584639       -15.9088
  22   2.0000      -0.565865       -15.3980
  23   2.0000      -0.531349       -14.4587
  24   2.0000      -0.504353       -13.7241
  25   2.0000      -0.486563       -13.2400
  26   2.0000      -0.476846       -12.9756
  27   2.0000      -0.455000       -12.3812
  28   2.0000      -0.448405       -12.2017
  29   2.0000      -0.433589       -11.7985
  30   2.0000      -0.414253       -11.2724
  31   2.0000      -0.396655       -10.7935
  32   2.0000      -0.380533       -10.3548
  33   2.0000      -0.366357        -9.9691
  34   2.0000      -0.362259        -9.8576
  35   2.0000      -0.349838        -9.5196
  36   2.0000      -0.343622        -9.3504
  37   2.0000      -0.319794        -8.7020
  38   2.0000      -0.303460        -8.2576
  39   2.0000      -0.301031        -8.1915
  40   2.0000      -0.277180        -7.5425
  41   2.0000      -0.262758        -7.1500
  42   2.0000      -0.253920        -6.9095
  43   2.0000      -0.247394        -6.7319
  44   2.0000      -0.236663        -6.4399
  45   2.0000      -0.225715        -6.1420
  46   2.0000      -0.207534        -5.6473
  47   2.0000      -0.198263        -5.3950
  48   0.0000       0.007132         0.1941
  49   0.0000       0.019586         0.5330
  50   0.0000       0.033285         0.9057
  51   0.0000       0.056710         1.5432
  52   0.0000       0.058888         1.6024

MULLIKEN ATOMIC CHARGES
-----------------------
   0 C :    0.098006
   1 C :    0.011542
   2 H :    0.071496
   3 C :    0.060782
   4 H :    0.037276
   5 C :    0.097773
   6 H :    0.048369
   7 C :   -0.011280
   8 H :    0.074969
   9 C :    0.180924
  10 H :    0.069389
  11 O :   -0.327007
  12 O :   -0.403487
  13 O :   -0.405464
  14 O :   -0.434486
  15 O :   -0.413653
  16 O :   -0.435776
  17 H :    0.049877
  18 H :    0.099000
  19 H :    0.310755
  20 H :    0.310740
  21 H :    0.305422
  22 H :    0.307724
  23 H :    0.297109
Sum of atomic charges:    0.0000000

LOEWDIN ATOMIC CHARGES
----------------------
   0 C :   -0.125110
   1 C :   -0.068923
   2 H :    0.114999
   3 C :   -0.077765
   4 H :    0.099298
   5 C :   -0.080257
   6 H :    0.113660
   7 C :   -0.090884
   8 H :    0.109973
   9 C :    0.002322
  10 H :    0.101012
  11 O :   -0.149598
  12 O :   -0.315317
  13 O :   -0.307016
  14 O :   -0.321978
  15 O :   -0.316229
  16 O :   -0.337616
  17 H :    0.092555
  18 H :    0.122487
  19 H :    0.291229
  20 H :    0.293177
  21 H :    0.278862
  22 H :    0.290795
  23 H :    0.280325

  Mayer bond orders larger than 0.100000
B(  0-C ,  1-C ) :   1.0570 B(  0-C , 16-O ) :   1.0775 B(  0-C , 17-H ) :   0.9032
B(  0-C , 18-H ) :   0.9112 B(  1-C ,  2-H ) :   0.8593 B(  1-C ,  3-C ) :   1.0630
B(  1-C , 11-O ) :   0.9563 B(  3-C ,  4-H ) :   0.8400 B(  3-C ,  5-C ) :   1.0339
B(  3-C , 15-O ) :   1.0640 B(  5-C ,  6-H ) :   0.8528 B(  5-C ,  7-C ) :   0.9814
B(  5-C , 14-O ) :   1.0350 B(  7-C ,  8-H ) :   0.8851 B(  7-C ,  9-C ) :   1.0409
B(  7-C , 13-O ) :   1.0508 B(  9-C , 10-H ) :   0.8938 B(  9-C , 11-O ) :   1.0807
B(  9-C , 12-O ) :   1.1079 B( 12-O , 19-H ) :   0.8376 B( 13-O , 20-H ) :   0.8456
B( 14-O , 21-H ) :   0.8341 B( 15-O , 22-H ) :   0.8433 B( 16-O , 23-H ) :   0.8472

Dispersion correction           -0.024652072
FINAL SINGLE POINT ENERGY      -685.694157756681

DIPOLE MOMENT
-------------

Method             : SCF
Type of density    : Electron Density
Multiplicity       :   1
Irrep              :   0
Energy             :  -685.8247339406757419 Eh
Relativity type    :
Basis              : AO
                                X                 Y                 Z
Electronic contribution:      1.269415388      -0.603210487       0.465107502
Nuclear contribution   :     -0.055314688       0.468435583      -1.093657532
                        -----------------------------------------
Total Dipole Moment    :      1.214100700      -0.134774904      -0.628550030
                        -----------------------------------------
Magnitude (a.u.)       :      1.373783071
Magnitude (Debye)      :      3.491879061

Rotational constants in cm-1:             0.040840             0.025740             0.021407
Rotational constants in MHz :          1224.358062           771.656753           641.769174

                             ****ORCA TERMINATED NORMALLY****
TOTAL RUN TIME: 0 days 0 hours 0 minutes 12 seconds 399 msec
