                         Program Version 6.0.0  -   RELEASE  -
|  1> ! wb97x-v def2-tzvp def2/J RIJCOSX DEFGRID2 scfconv7 GCP(DFT/TZ) printgap
|  2> %output
|  3>     printlevel normal
|  4> end
|  5> * xyz 0 1
|  6> C -2.1857876553974904 0.3059819049478045 -0.4216380337473623
|  7> C -1.0277900439057797 0.1839809697915979 0.57622377744875
|  8> C -0.0006659393565430622 -0.8038527701138298 0.11318514553121853
|  9> C 1.2884024316314688 -0.5782156003817203 -0.16547735153994858
| 10> C 2.0315935639636455 0.7154730895520356 -0.06531253017694195
| 11> H -1.8288831008334638 0.6747164194179227 -1.3889206057729149
| 12> H -2.949462726244139 0.9983832555979465 -0.053163974900780946
| 13> H -2.6632431712928253 -0.6657676134778857 -0.5878436140158821
| 14> H -0.5812545541742591 1.1679768183479378 0.7464612179512726
| 15> H -1.4323725840144848 -0.15063653981244737 1.5413498333708575
| 16> H -0.37437103604482497 -1.819766242168404 -0.02464288003045298
| 17> H 1.883436291185052 -1.4268549231420482 -0.5037018567527509
| 18> H 1.3974305769888518 1.5506221733839243 0.23915829335411584
| 19> H 2.492159678812743 0.9691079674192922 -1.0279111535816405
| 20> H 2.854557951527406 0.6327513656148182 0.655687903703796
| 21> *
| 22>
| 23>                          ****END OF INPUT****

CARTESIAN COORDINATES (ANGSTROEM)
---------------------------------
  C     -2.185788    0.305982   -0.421638
  C     -1.027790    0.183981    0.576224
  C     -0.000666   -0.803853    0.113185
  C      1.288402   -0.578216   -0.165477
  C      2.031594    0.715473   -0.065313
  H     -1.828883    0.674716   -1.388921
  H     -2.949463    0.998383   -0.053164
  H     -2.663243   -0.665768   -0.587844
  H     -0.581255    1.167977    0.746461
  H     -1.432373   -0.150637    1.541350
  H     -0.374371   -1.819766   -0.024643
  H      1.883436   -1.426855   -0.503702
  H      1.397431    1.550622    0.239158
  H      2.492160    0.969108   -1.027911
  H      2.854558    0.632751    0.655688

 Total Charge           Charge          ....    0
 Multiplicity           Mult            ....    1
 Number of Electrons    NEL             ....   40
 Basis Dimension        Dim             ....  215

ORBITAL ENERGIES
----------------

  NO   OCC          E(Eh)            E(eV)
   0   2.0000     -12.043840      -327.7295
   1   2.0000     -12.042738      -327.6995
   2   2.0000     -12.038962      -327.5968
   3   2.0000     -12.038246      -327.5773
   4   2.0000     -12.034786      -327.4832
   5   2.0000      -1.318790       -35.8861
   6   2.0000      -1.256263       -34.1847
   7   2.0000      -1.182900       -32.1883
   8   2.0000      -1.104265       -30.0486
   9   2.0000      -0.989177       -26.9169
  10   2.0000      -0.918029       -24.9808
  11   2.0000      -0.885325       -24.0909
  12   2.0000      -0.855915       -23.2906
  13   2.0000      -0.830066       -22.5873
  14   2.0000      -0.822140       -22.3716
  15   2.0000      -0.811495       -22.0819
  16   2.0000      -0.799263       -21.7490
  17   2.0000      -0.770003       -20.9529
  18   2.0000      -0.759153       -20.6576
  19   2.0000      -0.637036       -17.3346
  20   0.0000      -0.192618        -5.2414
  21   0.0000      -0.031204        -0.8491
  22   0.0000      -0.004407        -0.1199
  23   0.0000       0.003922         0.1067
  24   0.0000       0.009990         0.2718

MULLIKEN ATOMIC CHARGES
-----------------------
   0 C :   -0.335785
   1 C :   -0.112203
   2 C :   -0.166545
   3 C :   -0.133136
   4 C :   -0.300685
   5 H :    0.109662
   6 H :    0.110627
   7 H :    0.104919
   8 H :    0.081801
   9 H :    0.095451
  10 H :    0.106334
  11 H :    0.106206
  12 H :    0.100900
  13 H :    0.115709
  14 H :    0.116744
Sum of atomic charges:    0.0000000

LOEWDIN ATOMIC CHARGES
----------------------
   0 C :   -0.300875
   1 C :   -0.275712
   2 C :   -0.186102
   3 C :   -0.206111
   4 C :   -0.291208
   5 H :    0.117284
   6 H :    0.114590
   7 H :    0.116097
   8 H :    0.131059
   9 H :    0.137459
  10 H :    0.139771
  11 H :    0.137443
  12 H :    0.117666
  13 H :    0.124017
  14 H :    0.124622

  Mayer bond orders larger than 0.100000
B(  0-C ,  1-C ) :   0.9706 B(  0-C ,  5-H ) :   0.9786 B(  0-C ,  6-H ) :   0.9797
B(  0-C ,  7-H ) :   0.9829 B(  1-C ,  2-C ) :   0.9598 B(  1-C ,  8-H ) :   0.9838
B(  1-C ,  9-H ) :   0.9717 B(  2-C ,  3-C ) :   1.9743 B(  2-C , 10-H ) :   0.9577
B(  3-C ,  4-C ) :   0.9570 B(  3-C , 11-H ) :   0.9639 B(  4-C , 12-H ) :   0.9897
B(  4-C , 13-H ) :   0.9719 B(  4-C , 14-H ) :   0.9709

FINAL SINGLE POINT ENERGY      -196.536604323824

DIPOLE MOMENT
-------------

Method             : SCF
Type of density    : Electron Density
Multiplicity       :   1
Irrep              :   0
Energy             :  -196.5462250088241376 Eh
Relativity type    :
Basis              : AO
                                X                 Y                 Z
Electronic contribution:      1.139065721      -1.736106511       0.408760747
Nuclear contribution   :     -1.135525690       1.834663722      -0.383585443
                        -----------------------------------------
Total Dipole Moment    :      0.003540030       0.098557211       0.025175303
                        -----------------------------------------
Magnitude (a.u.)       :      0.101783356
Magnitude (Debye)      :      0.258712731

Rotational constants in cm-1:             0.369281             0.086377             0.079005
Rotational constants in MHz :         11070.760902          2589.521910          2368.523702

                             ****ORCA TERMINATED NORMALLY****
TOTAL RUN TIME: 0 days 0 hours 1 minutes 5 seconds 868 msec
