                         Program Version 6.0.0  -   RELEASE  -
|  1> ! wb97x-v def2-tzvp def2/J RIJCOSX DEFGRID2 scfconv7 GCP(DFT/TZ) printgap
|  2> %output
|  3>     printlevel normal
|  4> end
|  5> %cpcm
|  6>     smd true
|  7>     smdsolvent "water"
|  8> end
|  9> * xyz 0 1
| 10> C -2.1857876553974904 0.3059819049478045 -0.4216380337473623
| 11> C -1.0277900439057797 0.1839809697915979 0.57622377744875
| 12> C -0.0006659393565430622 -0.8038527701138298 0.11318514553121853
| 13> C 1.2884024316314688 -0.5782156003817203 -0.16547735153994858
| 14> C 2.0315935639636455 0.7154730895520356 -0.06531253017694195
| 15> H -1.8288831008334638 0.6747164194179227 -1.3889206057729149
| 16> H -2.949462726244139 0.9983832555979465 -0.053163974900780946
| 17> H -2.6632431712928253 -0.6657676134778857 -0.5878436140158821
| 18> H -0.5812545541742591 1.1679768183479378 0.7464612179512726
| 19> H -1.4323725840144848 -0.15063653981244737 1.5413498333708575
| 20> H -0.37437103604482497 -1.819766242168404 -0.02464288003045298
| 21> H 1.883436291185052 -1.4268549231420482 -0.5037018567527509
| 22> H 1.3974305769888518 1.5506221733839243 0.23915829335411584
| 23> H 2.492159678812743 0.9691079674192922 -1.0279111535816405
| 24> H 2.854557951527406 0.6327513656148182 0.655687903703796
| 25> *
| 26>
| 27>                          ****END OF INPUT****

CARTESIAN COORDINATES (ANGSTROEM)
---------------------------------
  C     -2.185788    0.305982   -0.421638
  C     -1.027790    0.183981    0.576224
  C     -0.000666   -0.803853    0.113185
  C      1.288402   -0.578216   -0.165477
  C      2.031594    0.715473   -0.065313
  H     -1.828883    0.674716   -1.388921
  H     -2.949463    0.998383   -0.053164
  H     -2.663243   -0.665768   -0.587844
  H     -0.581255    1.167977    0.746461
  H     -1.432373   -0.150637    1.541350
  H     -0.374371   -1.819766   -0.024643
  H      1.883436   -1.426855   -0.503702
  H      1.397431    1.550622    0.239158
  H      2.492160    0.969108   -1.027911
  H      2.854558    0.632751    0.655688

 Total Charge           Charge          ....    0
 Multiplicity           Mult            ....    1
 Number of Electrons    NEL             ....   40
 Basis Dimension        Dim             ....  215

ORBITAL ENERGIES
----------------

  NO   OCC          E(Eh)            E(eV)
   0   2.0000     -12.040087      -327.6274
   1   2.0000     -12.036895      -327.5406
   2   2.0000     -12.035449      -327.5012
   3   2.0000     -12.030617      -327.3697
   4   2.0000     -12.027720      -327.2909
   5   2.0000      -1.315500       -35.7966
   6   2.0000      -1.250507       -34.0280
   7   2.0000      -1.177597       -32.0440
   8   2.0000      -1.098624       -29.8951
   9   2.0000      -0.983944       -26.7745
  10   2.0000      -0.913476       -24.8569
  11   2.0000      -0.880151       -23.9501
  12   2.0000      -0.849464       -23.1151
  13   2.0000      -0.823651       -22.4127
  14   2.0000      -0.815314       -22.1858
  15   2.0000      -0.805390       -21.9158
  16   2.0000      -0.792315       -21.5600
  17   2.0000      -0.763732       -20.7822
  18   2.0000      -0.752707       -20.4822
  19   2.0000      -0.636041       -17.3076
  20   0.0000      -0.191188        -5.2025
  21   0.0000      -0.024735        -0.6731
  22   0.0000       0.006373         0.1734
  23   0.0000       0.010272         0.2795
  24   0.0000       0.016931         0.4607

MULLIKEN ATOMIC CHARGES
-----------------------
   0 C :   -0.385825
   1 C :   -0.123881
   2 C :   -0.232375
   3 C :   -0.181359
   4 C :   -0.345578
   5 H :    0.119868
   6 H :    0.128343
   7 H :    0.122768
   8 H :    0.108047
   9 H :    0.109583
  10 H :    0.142655
  11 H :    0.141226
  12 H :    0.128020
  13 H :    0.134070
  14 H :    0.134437
Sum of atomic charges:    0.0000000

LOEWDIN ATOMIC CHARGES
----------------------
   0 C :   -0.307265
   1 C :   -0.277781
   2 C :   -0.200026
   3 C :   -0.219125
   4 C :   -0.296520
   5 H :    0.117956
   6 H :    0.118110
   7 H :    0.119071
   8 H :    0.136441
   9 H :    0.140911
  10 H :    0.145261
  11 H :    0.142941
  12 H :    0.123053
  13 H :    0.128273
  14 H :    0.128700

  Mayer bond orders larger than 0.100000
B(  0-C ,  1-C ) :   0.9634 B(  0-C ,  5-H ) :   0.9764 B(  0-C ,  6-H ) :   0.9770
B(  0-C ,  7-H ) :   0.9804 B(  1-C ,  2-C ) :   0.9563 B(  1-C ,  8-H ) :   0.9834
B(  1-C ,  9-H ) :   0.9657 B(  2-C ,  3-C ) :   1.9470 B(  2-C , 10-H ) :   0.9592
B(  3-C ,  4-C ) :   0.9564 B(  3-C , 11-H ) :   0.9650 B(  4-C , 12-H ) :   0.9868
B(  4-C , 13-H ) :   0.9668 B(  4-C , 14-H ) :   0.9657

FINAL SINGLE POINT ENERGY      -196.535247228904

DIPOLE MOMENT
-------------

Method             : SCF
Type of density    : Electron Density
Multiplicity       :   1
Irrep              :   0
Energy             :  -196.5448679139041701 Eh
Relativity type    :
Basis              : AO
                                X                 Y                 Z
Electronic contribution:      1.133050929      -1.683906469       0.430669794
Nuclear contribution   :     -1.135525690       1.834663722      -0.383585443
                        -----------------------------------------
Total Dipole Moment    :     -0.002474761       0.150757253       0.047084351
                        -----------------------------------------
Magnitude (a.u.)       :      0.157958254
Magnitude (Debye)      :      0.401497974

Rotational constants in cm-1:             0.369281             0.086377             0.079005
Rotational constants in MHz :         11070.760902          2589.521910          2368.523702

                             ****ORCA TERMINATED NORMALLY****
TOTAL RUN TIME: 0 days 0 hours 1 minutes 3 seconds 619 msec
