                         Program Version 6.0.0  -   RELEASE  -
|  1> ! pbe def2-sv(p) def2/J RI DEFGRID1 loosescf d4 GCP(DFT/SV(P)) printgap
|  2> %output
|  3>     printlevel normal
|  4> end
|  5> * xyz 0 1
|  6> C 1.433731992 0.9385532403 -0.2716921121
|  7> C 0.760953598 -0.3635796874 0.0558468029
|  8> O 1.4067311063 -1.3893776588 0.2247726734
|  9> C -0.7059153156 -0.3786346681 0.2021187797
| 10> C -1.4894199791 0.8541464307 0.5929328084
| 11> C -1.6085734991 0.3300183216 -0.7890566114
| 12> H 1.4749454375 1.540028122 0.6346982098
| 13> H 2.4504798043 0.745942028 -0.6029641209
| 14> H 0.8904904982 1.4926333846 -1.0295868904
| 15> H -1.0613109489 -1.3329984554 0.5737771363
| 16> H -2.3110934365 0.7071477675 1.2758278463
| 17> H -0.9429306656 1.7688149144 0.7531110779
| 18> H -2.5092524532 -0.190053286 -1.0747076572
| 19> H -1.1451898897 0.8723378893 -1.5974525577
| 20> *
| 21>
| 22>                          ****END OF INPUT****

CARTESIAN COORDINATES (ANGSTROEM)
---------------------------------
  C      1.433732    0.938553   -0.271692
  C      0.760954   -0.363580    0.055847
  O      1.406731   -1.389378    0.224773
  C     -0.705915   -0.378635    0.202119
  C     -1.489420    0.854146    0.592933
  C     -1.608573    0.330018   -0.789057
  H      1.474945    1.540028    0.634698
  H      2.450480    0.745942   -0.602964
  H      0.890490    1.492633   -1.029587
  H     -1.061311   -1.332998    0.573777
  H     -2.311093    0.707148    1.275828
  H     -0.942931    1.768815    0.753111
  H     -2.509252   -0.190053   -1.074708
  H     -1.145190    0.872338   -1.597453

 Total Charge           Charge          ....    0
 Multiplicity           Mult            ....    1
 Number of Electrons    NEL             ....   46
 Basis Dimension        Dim             ....  100

ORBITAL ENERGIES
----------------

  NO   OCC          E(Eh)            E(eV)
   0   2.0000     -18.726753      -509.5809
   1   2.0000      -9.969332      -271.2793
   2   2.0000      -9.912506      -269.7330
   3   2.0000      -9.911057      -269.6936
   4   2.0000      -9.909735      -269.6576
   5   2.0000      -9.886905      -269.0364
   6   2.0000      -0.923751       -25.1366
   7   2.0000      -0.801609       -21.8129
   8   2.0000      -0.671000       -18.2588
   9   2.0000      -0.582061       -15.8387
  10   2.0000      -0.554007       -15.0753
  11   2.0000      -0.487285       -13.2597
  12   2.0000      -0.452241       -12.3061
  13   2.0000      -0.432736       -11.7753
  14   2.0000      -0.399691       -10.8762
  15   2.0000      -0.374370       -10.1871
  16   2.0000      -0.354658        -9.6507
  17   2.0000      -0.338435        -9.2093
  18   2.0000      -0.333529        -9.0758
  19   2.0000      -0.321870        -8.7585
  20   2.0000      -0.288003        -7.8370
  21   2.0000      -0.264857        -7.2071
  22   2.0000      -0.189915        -5.1679
  23   0.0000      -0.046047        -1.2530
  24   0.0000       0.032447         0.8829
  25   0.0000       0.037931         1.0321
  26   0.0000       0.069414         1.8889
  27   0.0000       0.094711         2.5772

MULLIKEN ATOMIC CHARGES
-----------------------
   0 C :   -0.288387
   1 C :    0.062348
   2 O :   -0.179227
   3 C :   -0.177853
   4 C :   -0.178990
   5 C :   -0.208174
   6 H :    0.132115
   7 H :    0.122305
   8 H :    0.118583
   9 H :    0.099395
  10 H :    0.124209
  11 H :    0.119846
  12 H :    0.124870
  13 H :    0.128961
Sum of atomic charges:   -0.0000000

LOEWDIN ATOMIC CHARGES
----------------------
   0 C :   -0.364223
   1 C :    0.042741
   2 O :   -0.146037
   3 C :   -0.165812
   4 C :   -0.225907
   5 C :   -0.220840
   6 H :    0.146999
   7 H :    0.138850
   8 H :    0.131314
   9 H :    0.136377
  10 H :    0.134909
  11 H :    0.128571
  12 H :    0.135034
  13 H :    0.128024

  Mayer bond orders larger than 0.100000
B(  0-C ,  1-C ) :   1.0855 B(  0-C ,  6-H ) :   0.9123 B(  0-C ,  7-H ) :   0.9303
B(  0-C ,  8-H ) :   0.9256 B(  1-C ,  2-O ) :   2.1498 B(  1-C ,  3-C ) :   1.0376
B(  3-C ,  4-C ) :   0.9512 B(  3-C ,  5-C ) :   0.9404 B(  3-C ,  9-H ) :   0.9105
B(  4-C ,  5-C ) :   1.0863 B(  4-C , 10-H ) :   0.9247 B(  4-C , 11-H ) :   0.9183
B(  5-C , 12-H ) :   0.9250 B(  5-C , 13-H ) :   0.9266

Dispersion correction           -0.010276675
FINAL SINGLE POINT ENERGY      -269.931337556478

DIPOLE MOMENT
-------------

Method             : SCF
Type of density    : Electron Density
Multiplicity       :   1
Irrep              :   0
Energy             :  -269.9777432755290647 Eh
Relativity type    :
Basis              : AO
                                X                 Y                 Z
Electronic contribution:      2.203741015      -4.301016081       0.869401699
Nuclear contribution   :     -2.937968434       5.236741635      -0.997969858
                        -----------------------------------------
Total Dipole Moment    :     -0.734227419       0.935725555      -0.128568159
                        -----------------------------------------
Magnitude (a.u.)       :      1.196328545
Magnitude (Debye)      :      3.040825503

Rotational constants in cm-1:             0.220824             0.091595             0.077123
Rotational constants in MHz :          6620.141353          2745.963790          2312.076691

                             ****ORCA TERMINATED NORMALLY****
TOTAL RUN TIME: 0 days 0 hours 0 minutes 6 seconds 526 msec
