                         Program Version 6.0.0  -   RELEASE  -
|  1> ! r2scan-3c def2/J RI DEFGRID2 scfconv6 printgap
|  2> %output
|  3>     printlevel normal
|  4> end
|  5> * xyz 0 1
|  6> C -3.185348876 0.0043684794 0.8406920443
|  7> C -2.4801214939 -0.0077575186 -0.5175629929
|  8> C -0.9880653134 -0.0045491829 -0.3398836921
|  9> C -0.2864099866 1.1905401708 -0.2341305316
| 10> C 1.0789423752 1.2016982756 -0.0305049471
| 11> C 1.7770563147 0.0026762519 0.0749826224
| 12> C 1.0864211927 -1.1983320731 -0.0266426107
| 13> C -0.2815854397 -1.1941182817 -0.2304854512
| 14> O 3.12466406 0.0579323323 0.2737858792
| 15> H -2.9030943166 0.8906339259 1.4042356901
| 16> H -2.9042468701 -0.8721630926 1.4197822736
| 17> H -4.2643849665 0.0038869709 0.70850331
| 18> H -2.784627253 0.8714981767 -1.0880190416
| 19> H -2.7836585148 -0.8976082147 -1.0719279263
| 20> H -0.8159349739 2.1285044524 -0.3155462865
| 21> H 1.6260961596 2.1281610562 0.048773854
| 22> H 1.6171485228 -2.1364851799 0.0523546778
| 23> H -0.8065200281 -2.1351245711 -0.3086613277
| 24> H 3.4950182377 -0.8356896743 0.3283158695
| 25> *
| 26>
| 27>                          ****END OF INPUT****

CARTESIAN COORDINATES (ANGSTROEM)
---------------------------------
  C     -3.185349    0.004368    0.840692
  C     -2.480121   -0.007758   -0.517563
  C     -0.988065   -0.004549   -0.339884
  C     -0.286410    1.190540   -0.234131
  C      1.078942    1.201698   -0.030505
  C      1.777056    0.002676    0.074983
  C      1.086421   -1.198332   -0.026643
  C     -0.281585   -1.194118   -0.230485
  O      3.124664    0.057932    0.273786
  H     -2.903094    0.890634    1.404236
  H     -2.904247   -0.872163    1.419782
  H     -4.264385    0.003887    0.708503
  H     -2.784627    0.871498   -1.088019
  H     -2.783659   -0.897608   -1.071928
  H     -0.815935    2.128504   -0.315546
  H      1.626096    2.128161    0.048774
  H      1.617149   -2.136485    0.052355
  H     -0.806520   -2.135125   -0.308661
  H      3.495018   -0.835690    0.328316

 Total Charge           Charge          ....    0
 Multiplicity           Mult            ....    1
 Number of Electrons    NEL             ....   66
 Basis Dimension        Dim             ....  226

ORBITAL ENERGIES
----------------

  NO   OCC          E(Eh)            E(eV)
   0   2.0000     -18.983159      -516.5580
   1   2.0000     -10.093225      -274.6506
   2   2.0000     -10.033344      -273.0212
   3   2.0000     -10.032779      -273.0058
   4   2.0000     -10.032048      -272.9859
   5   2.0000     -10.031441      -272.9694
   6   2.0000     -10.031136      -272.9611
   7   2.0000     -10.028103      -272.8785
   8   2.0000     -10.018792      -272.6252
   9   2.0000      -1.026173       -27.9236
  10   2.0000      -0.825211       -22.4551
  11   2.0000      -0.751918       -20.4607
  12   2.0000      -0.717892       -19.5348
  13   2.0000      -0.685707       -18.6590
  14   2.0000      -0.603515       -16.4225
  15   2.0000      -0.586852       -15.9690
  16   2.0000      -0.550533       -14.9808
  17   2.0000      -0.515837       -14.0366
  18   2.0000      -0.457345       -12.4450
  19   2.0000      -0.440152       -11.9771
  20   2.0000      -0.411102       -11.1867
  21   2.0000      -0.398571       -10.8457
  22   2.0000      -0.390452       -10.6247
  23   2.0000      -0.384921       -10.4742
  24   2.0000      -0.374729       -10.1969
  25   2.0000      -0.352858        -9.6017
  26   2.0000      -0.343924        -9.3586
  27   2.0000      -0.315719        -8.5912
  28   2.0000      -0.305601        -8.3158
  29   2.0000      -0.300461        -8.1760
  30   2.0000      -0.298421        -8.1204
  31   2.0000      -0.236652        -6.4396
  32   2.0000      -0.197788        -5.3821
  33   0.0000      -0.031949        -0.8694
  34   0.0000      -0.012593        -0.3427
  35   0.0000       0.057591         1.5671
  36   0.0000       0.075902         2.0654
  37   0.0000       0.097496         2.6530

MULLIKEN ATOMIC CHARGES
-----------------------
   0 C :   -0.460479
   1 C :   -0.315262
   2 C :    0.187717
   3 C :   -0.191481
   4 C :   -0.312176
   5 C :    0.429250
   6 C :   -0.343723
   7 C :   -0.208315
   8 O :   -0.416916
   9 H :    0.149510
  10 H :    0.148536
  11 H :    0.145398
  12 H :    0.145559
  13 H :    0.144587
  14 H :    0.148562
  15 H :    0.155374
  16 H :    0.136308
  17 H :    0.147865
  18 H :    0.309684
Sum of atomic charges:    0.0000000

LOEWDIN ATOMIC CHARGES
----------------------
   0 C :   -0.408254
   1 C :   -0.289291
   2 C :   -0.114283
   3 C :   -0.148981
   4 C :   -0.140449
   5 C :    0.177809
   6 C :   -0.170551
   7 C :   -0.150845
   8 O :   -0.500168
   9 H :    0.153435
  10 H :    0.153028
  11 H :    0.148022
  12 H :    0.160344
  13 H :    0.159904
  14 H :    0.170069
  15 H :    0.179436
  16 H :    0.167824
  17 H :    0.169592
  18 H :    0.283360

  Mayer bond orders larger than 0.100000
B(  0-C ,  1-C ) :   0.9231 B(  0-C ,  9-H ) :   0.9794 B(  0-C , 10-H ) :   0.9795
B(  0-C , 11-H ) :   0.9720 B(  1-C ,  2-C ) :   0.7951 B(  1-C , 12-H ) :   0.9945
B(  1-C , 13-H ) :   0.9944 B(  2-C ,  3-C ) :   1.3981 B(  2-C ,  7-C ) :   1.4236
B(  3-C ,  4-C ) :   1.4228 B(  3-C , 14-H ) :   0.9418 B(  4-C ,  5-C ) :   1.4325
B(  4-C , 15-H ) :   0.9477 B(  5-C ,  6-C ) :   1.3545 B(  5-C ,  8-O ) :   0.9156
B(  6-C ,  7-C ) :   1.4404 B(  6-C , 16-H ) :   0.9314 B(  7-C , 17-H ) :   0.9340
B(  8-O , 18-H ) :   0.8842

Dispersion correction           -0.006100349
FINAL SINGLE POINT ENERGY      -386.000797959624

DIPOLE MOMENT
-------------

Method             : SCF
Type of density    : Electron Density
Multiplicity       :   1
Irrep              :   0
Energy             :  -386.0013860353785731 Eh
Relativity type    :
Basis              : AO
                                X                 Y                 Z
Electronic contribution:      9.724403139       0.302980570      -1.095953601
Nuclear contribution   :     -9.827171327      -0.800699804       1.109043055
                        -----------------------------------------
Total Dipole Moment    :     -0.102768188      -0.497719234       0.013089455
                        -----------------------------------------
Magnitude (a.u.)       :      0.508386733
Magnitude (Debye)      :      1.292216381

Rotational constants in cm-1:             0.148083             0.032142             0.028448
Rotational constants in MHz :          4439.421547           963.604405           852.847889

                             ****ORCA TERMINATED NORMALLY****
TOTAL RUN TIME: 0 days 0 hours 0 minutes 28 seconds 874 msec
