                         Program Version 6.0.0  -   RELEASE  -
|  1> ! r2scan-3c def2/J RI DEFGRID2 scfconv6 printgap
|  2> %output
|  3>     printlevel normal
|  4> end
|  5> %cpcm
|  6>     smd true
|  7>     smdsolvent "water"
|  8> end
|  9> * xyz 0 1
| 10> C -3.185348876 0.0043684794 0.8406920443
| 11> C -2.4801214939 -0.0077575186 -0.5175629929
| 12> C -0.9880653134 -0.0045491829 -0.3398836921
| 13> C -0.2864099866 1.1905401708 -0.2341305316
| 14> C 1.0789423752 1.2016982756 -0.0305049471
| 15> C 1.7770563147 0.0026762519 0.0749826224
| 16> C 1.0864211927 -1.1983320731 -0.0266426107
| 17> C -0.2815854397 -1.1941182817 -0.2304854512
| 18> O 3.12466406 0.0579323323 0.2737858792
| 19> H -2.9030943166 0.8906339259 1.4042356901
| 20> H -2.9042468701 -0.8721630926 1.4197822736
| 21> H -4.2643849665 0.0038869709 0.70850331
| 22> H -2.784627253 0.8714981767 -1.0880190416
| 23> H -2.7836585148 -0.8976082147 -1.0719279263
| 24> H -0.8159349739 2.1285044524 -0.3155462865
| 25> H 1.6260961596 2.1281610562 0.048773854
| 26> H 1.6171485228 -2.1364851799 0.0523546778
| 27> H -0.8065200281 -2.1351245711 -0.3086613277
| 28> H 3.4950182377 -0.8356896743 0.3283158695
| 29> *
| 30>
| 31>                          ****END OF INPUT****

CARTESIAN COORDINATES (ANGSTROEM)
---------------------------------
  C     -3.185349    0.004368    0.840692
  C     -2.480121   -0.007758   -0.517563
  C     -0.988065   -0.004549   -0.339884
  C     -0.286410    1.190540   -0.234131
  C      1.078942    1.201698   -0.030505
  C      1.777056    0.002676    0.074983
  C      1.086421   -1.198332   -0.026643
  C     -0.281585   -1.194118   -0.230485
  O      3.124664    0.057932    0.273786
  H     -2.903094    0.890634    1.404236
  H     -2.904247   -0.872163    1.419782
  H     -4.264385    0.003887    0.708503
  H     -2.784627    0.871498   -1.088019
  H     -2.783659   -0.897608   -1.071928
  H     -0.815935    2.128504   -0.315546
  H      1.626096    2.128161    0.048774
  H      1.617149   -2.136485    0.052355
  H     -0.806520   -2.135125   -0.308661
  H      3.495018   -0.835690    0.328316

 Total Charge           Charge          ....    0
 Multiplicity           Mult            ....    1
 Number of Electrons    NEL             ....   66
 Basis Dimension        Dim             ....  226

ORBITAL ENERGIES
----------------

  NO   OCC          E(Eh)            E(eV)
   0   2.0000     -18.981012      -516.4996
   1   2.0000     -10.093395      -274.6553
   2   2.0000     -10.031422      -272.9689
   3   2.0000     -10.030424      -272.9417
   4   2.0000     -10.030221      -272.9362
   5   2.0000     -10.029379      -272.9133
   6   2.0000     -10.028586      -272.8917
   7   2.0000     -10.023735      -272.7597
   8   2.0000     -10.012082      -272.4426
   9   2.0000      -1.024014       -27.8648
  10   2.0000      -0.825358       -22.4591
  11   2.0000      -0.748116       -20.3573
  12   2.0000      -0.716915       -19.5082
  13   2.0000      -0.682630       -18.5753
  14   2.0000      -0.599373       -16.3098
  15   2.0000      -0.583456       -15.8766
  16   2.0000      -0.546665       -14.8755
  17   2.0000      -0.511641       -13.9225
  18   2.0000      -0.454163       -12.3584
  19   2.0000      -0.435976       -11.8635
  20   2.0000      -0.405111       -11.0236
  21   2.0000      -0.394478       -10.7343
  22   2.0000      -0.387308       -10.5392
  23   2.0000      -0.383958       -10.4480
  24   2.0000      -0.373004       -10.1499
  25   2.0000      -0.351988        -9.5781
  26   2.0000      -0.340123        -9.2552
  27   2.0000      -0.310247        -8.4423
  28   2.0000      -0.301504        -8.2043
  29   2.0000      -0.298598        -8.1253
  30   2.0000      -0.295364        -8.0373
  31   2.0000      -0.239258        -6.5105
  32   2.0000      -0.199935        -5.4405
  33   0.0000      -0.033249        -0.9048
  34   0.0000      -0.014364        -0.3909
  35   0.0000       0.079031         2.1505
  36   0.0000       0.088269         2.4019
  37   0.0000       0.103775         2.8239

MULLIKEN ATOMIC CHARGES
-----------------------
   0 C :   -0.509650
   1 C :   -0.283600
   2 C :    0.126850
   3 C :   -0.220500
   4 C :   -0.352476
   5 C :    0.381435
   6 C :   -0.350196
   7 C :   -0.218317
   8 O :   -0.463893
   9 H :    0.159735
  10 H :    0.159552
  11 H :    0.158998
  12 H :    0.158720
  13 H :    0.158686
  14 H :    0.180384
  15 H :    0.182286
  16 H :    0.182543
  17 H :    0.180026
  18 H :    0.369418
Sum of atomic charges:    0.0000000

LOEWDIN ATOMIC CHARGES
----------------------
   0 C :   -0.414994
   1 C :   -0.289723
   2 C :   -0.124293
   3 C :   -0.159973
   4 C :   -0.159526
   5 C :    0.163350
   6 C :   -0.168618
   7 C :   -0.160055
   8 O :   -0.519120
   9 H :    0.154834
  10 H :    0.154781
  11 H :    0.152966
  12 H :    0.165266
  13 H :    0.165223
  14 H :    0.181114
  15 H :    0.186876
  16 H :    0.185687
  17 H :    0.181082
  18 H :    0.305125

  Mayer bond orders larger than 0.100000
B(  0-C ,  1-C ) :   0.9050 B(  0-C ,  9-H ) :   0.9793 B(  0-C , 10-H ) :   0.9792
B(  0-C , 11-H ) :   0.9678 B(  1-C ,  2-C ) :   0.8105 B(  1-C , 12-H ) :   0.9875
B(  1-C , 13-H ) :   0.9872 B(  2-C ,  3-C ) :   1.3733 B(  2-C ,  7-C ) :   1.3841
B(  3-C ,  4-C ) :   1.4042 B(  3-C , 14-H ) :   0.9495 B(  4-C ,  5-C ) :   1.3716
B(  4-C , 15-H ) :   0.9576 B(  5-C ,  6-C ) :   1.3459 B(  5-C ,  8-O ) :   0.9211
B(  6-C ,  7-C ) :   1.3889 B(  6-C , 16-H ) :   0.9530 B(  7-C , 17-H ) :   0.9486
B(  8-O , 18-H ) :   0.8524

Dispersion correction           -0.006100349
FINAL SINGLE POINT ENERGY      -386.009172814293

DIPOLE MOMENT
-------------

Method             : SCF
Type of density    : Electron Density
Multiplicity       :   1
Irrep              :   0
Energy             :  -386.0097608900479713 Eh
Relativity type    :
Basis              : AO
                                X                 Y                 Z
Electronic contribution:      9.656705370       0.037033826      -1.103212221
Nuclear contribution   :     -9.827171327      -0.800699804       1.109043055
                        -----------------------------------------
Total Dipole Moment    :     -0.170465957      -0.763665978       0.005830834
                        -----------------------------------------
Magnitude (a.u.)       :      0.782482183
Magnitude (Debye)      :      1.988911648

Rotational constants in cm-1:             0.148083             0.032142             0.028448
Rotational constants in MHz :          4439.421547           963.604405           852.847889

                             ****ORCA TERMINATED NORMALLY****
TOTAL RUN TIME: 0 days 0 hours 0 minutes 35 seconds 427 msec
