                         Program Version 6.0.0  -   RELEASE  -
|  1> ! pbe def2-sv(p) def2/J RI DEFGRID1 loosescf d4 GCP(DFT/SV(P)) printgap
|  2> %output
|  3>     printlevel normal
|  4> end
|  5> * xyz 0 1
|  6> C -0.1411653483 -1.2032777484 1.14737e-05
|  7> C -1.5254522332 -1.1369395475 -2.36025e-05
|  8> N -2.203424281 -2.97956e-05 -2.69562e-05
|  9> C -1.5254988168 1.1369088384 -1.16518e-05
| 10> C -0.1412130922 1.2033023741 2.08035e-05
| 11> C 0.5664468716 2.46982e-05 0.0001214921
| 12> C 1.9813395224 5.06814e-05 2.53128e-05
| 13> N 3.1285211761 -2.89372e-05 -6.47164e-05
| 14> H 0.3762098197 -2.1489365857 -0.0001281407
| 15> H -2.1235533904 -2.0371579165 -2.26415e-05
| 16> H -2.1236358207 2.0371031632 -3.71373e-05
| 17> H 0.3761241836 2.1489817687 -0.0002520349
| 18> *
| 19>
| 20>                          ****END OF INPUT****

CARTESIAN COORDINATES (ANGSTROEM)
---------------------------------
  C     -0.141165   -1.203278    0.000011
  C     -1.525452   -1.136940   -0.000024
  N     -2.203424   -0.000030   -0.000027
  C     -1.525499    1.136909   -0.000012
  C     -0.141213    1.203302    0.000021
  C      0.566447    0.000025    0.000121
  C      1.981340    0.000051    0.000025
  N      3.128521   -0.000029   -0.000065
  H      0.376210   -2.148937   -0.000128
  H     -2.123553   -2.037158   -0.000023
  H     -2.123636    2.037103   -0.000037
  H      0.376124    2.148982   -0.000252

 Total Charge           Charge          ....    0
 Multiplicity           Mult            ....    1
 Number of Electrons    NEL             ....   54
 Basis Dimension        Dim             ....  120

ORBITAL ENERGIES
----------------

  NO   OCC          E(Eh)            E(eV)
   0   2.0000     -14.010054      -381.2330
   1   2.0000     -14.001852      -381.0098
   2   2.0000      -9.967373      -271.2260
   3   2.0000      -9.950047      -270.7545
   4   2.0000      -9.950036      -270.7542
   5   2.0000      -9.943918      -270.5878
   6   2.0000      -9.935833      -270.3678
   7   2.0000      -9.935807      -270.3670
   8   2.0000      -0.887842       -24.1594
   9   2.0000      -0.835119       -22.7247
  10   2.0000      -0.769418       -20.9369
  11   2.0000      -0.716517       -19.4974
  12   2.0000      -0.625129       -17.0106
  13   2.0000      -0.601237       -16.3605
  14   2.0000      -0.531877       -14.4731
  15   2.0000      -0.473214       -12.8768
  16   2.0000      -0.449946       -12.2437
  17   2.0000      -0.418482       -11.3875
  18   2.0000      -0.412626       -11.2281
  19   2.0000      -0.399592       -10.8734
  20   2.0000      -0.358073        -9.7437
  21   2.0000      -0.347236        -9.4488
  22   2.0000      -0.315329        -8.5805
  23   2.0000      -0.312464        -8.5026
  24   2.0000      -0.276480        -7.5234
  25   2.0000      -0.270873        -7.3708
  26   2.0000      -0.229837        -6.2542
  27   0.0000      -0.106735        -2.9044
  28   0.0000      -0.073813        -2.0086
  29   0.0000      -0.010928        -0.2974
  30   0.0000       0.023963         0.6521
  31   0.0000       0.032695         0.8897

MULLIKEN ATOMIC CHARGES
-----------------------
   0 C :   -0.057921
   1 C :   -0.041374
   2 N :   -0.053211
   3 C :   -0.041370
   4 C :   -0.057924
   5 C :   -0.045931
   6 C :   -0.107930
   7 N :    0.083838
   8 H :    0.076934
   9 H :    0.083978
  10 H :    0.083978
  11 H :    0.076933
Sum of atomic charges:    0.0000000

LOEWDIN ATOMIC CHARGES
----------------------
   0 C :   -0.106156
   1 C :   -0.068392
   2 N :   -0.061284
   3 C :   -0.068392
   4 C :   -0.106158
   5 C :   -0.055784
   6 C :   -0.032063
   7 N :   -0.034265
   8 H :    0.142956
   9 H :    0.123291
  10 H :    0.123291
  11 H :    0.142955

  Mayer bond orders larger than 0.100000
B(  0-C ,  1-C ) :   1.3640 B(  0-C ,  5-C ) :   1.3896 B(  0-C ,  8-H ) :   0.9468
B(  1-C ,  2-N ) :   1.5404 B(  1-C ,  9-H ) :   0.9506 B(  2-N ,  3-C ) :   1.5404
B(  3-C ,  4-C ) :   1.3640 B(  3-C , 10-H ) :   0.9506 B(  4-C ,  5-C ) :   1.3896
B(  4-C , 11-H ) :   0.9468 B(  5-C ,  6-C ) :   1.1069 B(  6-C ,  7-N ) :   2.9984

Dispersion correction           -0.012442204
FINAL SINGLE POINT ENERGY      -339.819522913950

DIPOLE MOMENT
-------------

Method             : SCF
Type of density    : Electron Density
Multiplicity       :   1
Irrep              :   0
Energy             :  -339.8482127527977354 Eh
Relativity type    :
Basis              : AO
                                X                 Y                 Z
Electronic contribution:      2.544138159       0.000045424       0.000384638
Nuclear contribution   :     -3.273691486      -0.000009302      -0.000413259
                        -----------------------------------------
Total Dipole Moment    :     -0.729553327       0.000036122      -0.000028621
                        -----------------------------------------
Magnitude (a.u.)       :      0.729553329
Magnitude (Debye)      :      1.854377192

Rotational constants in cm-1:             0.201867             0.052375             0.041586
Rotational constants in MHz :          6051.831550          1570.170705          1246.707664

                             ****ORCA TERMINATED NORMALLY****
TOTAL RUN TIME: 0 days 0 hours 0 minutes 6 seconds 749 msec
