                         Program Version 6.0.0  -   RELEASE  -
|  1> ! r2scan-3c def2/J RI DEFGRID2 scfconv6 printgap
|  2> %output
|  3>     printlevel normal
|  4> end
|  5> * xyz 0 1
|  6> C -2.9990180801 0.2542977832 2.9376e-06
|  7> C -1.6379412738 -0.4337840883 -6.94708e-05
|  8> C -0.5064932819 0.5929191117 -0.0004630323
|  9> C 0.9248566527 0.0251389134 -5.3016e-06
| 10> C 1.1800307896 -0.820766157 -1.2499874587
| 11> C 1.8990192641 1.2093790696 0.0004910936
| 12> C 1.1790535719 -0.8210477785 1.2499873699
| 13> H -3.7995625504 -0.4816682495 0.0005797617
| 14> H -3.1092586295 0.8823825835 0.8814137505
| 15> H -3.1098380332 0.8815660699 -0.8818931457
| 16> H -1.5632827349 -1.0698208892 0.8829764121
| 17> H -1.5635890195 -1.070176508 -0.8828836905
| 18> H -0.6218275223 1.2315992965 0.8794433628
| 19> H -0.6216024536 1.2307666706 -0.8810010001
| 20> H 0.5725502489 -1.7217605406 -1.2432307982
| 21> H 0.9497373045 -0.2536434468 -2.1491222578
| 22> H 2.2250332552 -1.1198428407 -1.2921376465
| 23> H 1.7492935844 1.8288697612 -0.8809857487
| 24> H 2.9280548151 0.8571690452 -4.5448e-05
| 25> H 1.7498007027 1.8276940118 0.8828804736
| 26> H 0.946468357 -0.2546945277 2.1490138061
| 27> H 0.5728173389 -1.7228693565 1.2417632094
| 28> H 2.2243984173 -1.1187030906 1.2937516602
| 29> *
| 30>
| 31>                          ****END OF INPUT****

CARTESIAN COORDINATES (ANGSTROEM)
---------------------------------
  C     -2.999018    0.254298    0.000003
  C     -1.637941   -0.433784   -0.000069
  C     -0.506493    0.592919   -0.000463
  C      0.924857    0.025139   -0.000005
  C      1.180031   -0.820766   -1.249987
  C      1.899019    1.209379    0.000491
  C      1.179054   -0.821048    1.249987
  H     -3.799563   -0.481668    0.000580
  H     -3.109259    0.882383    0.881414
  H     -3.109838    0.881566   -0.881893
  H     -1.563283   -1.069821    0.882976
  H     -1.563589   -1.070177   -0.882884
  H     -0.621828    1.231599    0.879443
  H     -0.621602    1.230767   -0.881001
  H      0.572550   -1.721761   -1.243231
  H      0.949737   -0.253643   -2.149122
  H      2.225033   -1.119843   -1.292138
  H      1.749294    1.828870   -0.880986
  H      2.928055    0.857169   -0.000045
  H      1.749801    1.827694    0.882880
  H      0.946468   -0.254695    2.149014
  H      0.572817   -1.722869    1.241763
  H      2.224398   -1.118703    1.293752

 Total Charge           Charge          ....    0
 Multiplicity           Mult            ....    1
 Number of Electrons    NEL             ....   58
 Basis Dimension        Dim             ....  213

ORBITAL ENERGIES
----------------

  NO   OCC          E(Eh)            E(eV)
   0   2.0000     -10.038088      -273.1503
   1   2.0000     -10.020848      -272.6811
   2   2.0000     -10.017991      -272.6034
   3   2.0000     -10.013954      -272.4935
   4   2.0000     -10.011336      -272.4223
   5   2.0000     -10.011334      -272.4222
   6   2.0000     -10.010941      -272.4116
   7   2.0000      -0.792282       -21.5591
   8   2.0000      -0.733626       -19.9630
   9   2.0000      -0.649086       -17.6625
  10   2.0000      -0.648743       -17.6532
  11   2.0000      -0.639683       -17.4067
  12   2.0000      -0.556304       -15.1378
  13   2.0000      -0.494362       -13.4523
  14   2.0000      -0.435960       -11.8631
  15   2.0000      -0.425684       -11.5835
  16   2.0000      -0.406017       -11.0483
  17   2.0000      -0.403056       -10.9677
  18   2.0000      -0.374334       -10.1862
  19   2.0000      -0.360227        -9.8023
  20   2.0000      -0.356218        -9.6932
  21   2.0000      -0.331722        -9.0266
  22   2.0000      -0.331600        -9.0233
  23   2.0000      -0.328723        -8.9450
  24   2.0000      -0.312730        -8.5098
  25   2.0000      -0.299561        -8.1515
  26   2.0000      -0.283337        -7.7100
  27   2.0000      -0.279291        -7.5999
  28   2.0000      -0.272027        -7.4022
  29   0.0000       0.077712         2.1146
  30   0.0000       0.101815         2.7705
  31   0.0000       0.118380         3.2213
  32   0.0000       0.128700         3.5021
  33   0.0000       0.131093         3.5672

MULLIKEN ATOMIC CHARGES
-----------------------
   0 C :   -0.478166
   1 C :   -0.258664
   2 C :   -0.307350
   3 C :    0.170383
   4 C :   -0.518166
   5 C :   -0.487341
   6 C :   -0.518308
   7 H :    0.145800
   8 H :    0.142341
   9 H :    0.142347
  10 H :    0.145480
  11 H :    0.145448
  12 H :    0.147052
  13 H :    0.147047
  14 H :    0.157076
  15 H :    0.153690
  16 H :    0.151462
  17 H :    0.151592
  18 H :    0.154390
  19 H :    0.151588
  20 H :    0.153748
  21 H :    0.157088
  22 H :    0.151462
Sum of atomic charges:    0.0000000

LOEWDIN ATOMIC CHARGES
----------------------
   0 C :   -0.423474
   1 C :   -0.313451
   2 C :   -0.299078
   3 C :   -0.214946
   4 C :   -0.408835
   5 C :   -0.409026
   6 C :   -0.408857
   7 H :    0.149247
   8 H :    0.149526
   9 H :    0.149526
  10 H :    0.152910
  11 H :    0.152893
  12 H :    0.159705
  13 H :    0.159705
  14 H :    0.155244
  15 H :    0.157028
  16 H :    0.156556
  17 H :    0.156030
  18 H :    0.154423
  19 H :    0.156031
  20 H :    0.157032
  21 H :    0.155251
  22 H :    0.156560

  Mayer bond orders larger than 0.100000
B(  0-C ,  1-C ) :   0.9047 B(  0-C ,  7-H ) :   0.9746 B(  0-C ,  8-H ) :   0.9849
B(  0-C ,  9-H ) :   0.9849 B(  1-C ,  2-C ) :   0.9045 B(  1-C , 10-H ) :   0.9717
B(  1-C , 11-H ) :   0.9717 B(  2-C ,  3-C ) :   0.8909 B(  2-C , 12-H ) :   0.9840
B(  2-C , 13-H ) :   0.9840 B(  3-C ,  4-C ) :   0.9156 B(  3-C ,  5-C ) :   0.9340
B(  3-C ,  6-C ) :   0.9154 B(  4-C , 14-H ) :   0.9769 B(  4-C , 15-H ) :   0.9752
B(  4-C , 16-H ) :   0.9725 B(  5-C , 17-H ) :   0.9787 B(  5-C , 18-H ) :   0.9798
B(  5-C , 19-H ) :   0.9787 B(  6-C , 20-H ) :   0.9753 B(  6-C , 21-H ) :   0.9769
B(  6-C , 22-H ) :   0.9725

Dispersion correction           -0.006450527
FINAL SINGLE POINT ENERGY      -276.290176752432

DIPOLE MOMENT
-------------

Method             : SCF
Type of density    : Electron Density
Multiplicity       :   1
Irrep              :   0
Energy             :  -276.2949251054712363 Eh
Relativity type    :
Basis              : AO
                                X                 Y                 Z
Electronic contribution:      0.426668095       0.052926307      -0.000499216
Nuclear contribution   :     -0.441692896      -0.068609633       0.000490378
                        -----------------------------------------
Total Dipole Moment    :     -0.015024800      -0.015683326      -0.000008838
                        -----------------------------------------
Magnitude (a.u.)       :      0.021718918
Magnitude (Debye)      :      0.055205103

Rotational constants in cm-1:             0.136059             0.047226             0.046611
Rotational constants in MHz :          4078.950340          1415.801204          1397.370698

                             ****ORCA TERMINATED NORMALLY****
TOTAL RUN TIME: 0 days 0 hours 0 minutes 17 seconds 461 msec
