                         Program Version 6.0.0  -   RELEASE  -
|  1> ! r2scan-3c def2/J RI DEFGRID2 scfconv6 printgap
|  2> %output
|  3>     printlevel normal
|  4> end
|  5> %cpcm
|  6>     smd true
|  7>     smdsolvent "water"
|  8> end
|  9> * xyz 0 1
| 10> C -2.9990180801 0.2542977832 2.9376e-06
| 11> C -1.6379412738 -0.4337840883 -6.94708e-05
| 12> C -0.5064932819 0.5929191117 -0.0004630323
| 13> C 0.9248566527 0.0251389134 -5.3016e-06
| 14> C 1.1800307896 -0.820766157 -1.2499874587
| 15> C 1.8990192641 1.2093790696 0.0004910936
| 16> C 1.1790535719 -0.8210477785 1.2499873699
| 17> H -3.7995625504 -0.4816682495 0.0005797617
| 18> H -3.1092586295 0.8823825835 0.8814137505
| 19> H -3.1098380332 0.8815660699 -0.8818931457
| 20> H -1.5632827349 -1.0698208892 0.8829764121
| 21> H -1.5635890195 -1.070176508 -0.8828836905
| 22> H -0.6218275223 1.2315992965 0.8794433628
| 23> H -0.6216024536 1.2307666706 -0.8810010001
| 24> H 0.5725502489 -1.7217605406 -1.2432307982
| 25> H 0.9497373045 -0.2536434468 -2.1491222578
| 26> H 2.2250332552 -1.1198428407 -1.2921376465
| 27> H 1.7492935844 1.8288697612 -0.8809857487
| 28> H 2.9280548151 0.8571690452 -4.5448e-05
| 29> H 1.7498007027 1.8276940118 0.8828804736
| 30> H 0.946468357 -0.2546945277 2.1490138061
| 31> H 0.5728173389 -1.7228693565 1.2417632094
| 32> H 2.2243984173 -1.1187030906 1.2937516602
| 33> *
| 34>
| 35>                          ****END OF INPUT****

CARTESIAN COORDINATES (ANGSTROEM)
---------------------------------
  C     -2.999018    0.254298    0.000003
  C     -1.637941   -0.433784   -0.000069
  C     -0.506493    0.592919   -0.000463
  C      0.924857    0.025139   -0.000005
  C      1.180031   -0.820766   -1.249987
  C      1.899019    1.209379    0.000491
  C      1.179054   -0.821048    1.249987
  H     -3.799563   -0.481668    0.000580
  H     -3.109259    0.882383    0.881414
  H     -3.109838    0.881566   -0.881893
  H     -1.563283   -1.069821    0.882976
  H     -1.563589   -1.070177   -0.882884
  H     -0.621828    1.231599    0.879443
  H     -0.621602    1.230767   -0.881001
  H      0.572550   -1.721761   -1.243231
  H      0.949737   -0.253643   -2.149122
  H      2.225033   -1.119843   -1.292138
  H      1.749294    1.828870   -0.880986
  H      2.928055    0.857169   -0.000045
  H      1.749801    1.827694    0.882880
  H      0.946468   -0.254695    2.149014
  H      0.572817   -1.722869    1.241763
  H      2.224398   -1.118703    1.293752

 Total Charge           Charge          ....    0
 Multiplicity           Mult            ....    1
 Number of Electrons    NEL             ....   58
 Basis Dimension        Dim             ....  213

ORBITAL ENERGIES
----------------

  NO   OCC          E(Eh)            E(eV)
   0   2.0000     -10.030943      -272.9558
   1   2.0000     -10.012875      -272.4642
   2   2.0000     -10.009677      -272.3772
   3   2.0000     -10.006835      -272.2998
   4   2.0000     -10.003491      -272.2088
   5   2.0000     -10.003402      -272.2064
   6   2.0000     -10.003400      -272.2063
   7   2.0000      -0.784621       -21.3506
   8   2.0000      -0.726316       -19.7641
   9   2.0000      -0.641803       -17.4643
  10   2.0000      -0.641738       -17.4626
  11   2.0000      -0.632566       -17.2130
  12   2.0000      -0.549043       -14.9402
  13   2.0000      -0.487227       -13.2581
  14   2.0000      -0.428037       -11.6475
  15   2.0000      -0.418095       -11.3769
  16   2.0000      -0.398659       -10.8481
  17   2.0000      -0.395629       -10.7656
  18   2.0000      -0.367081        -9.9888
  19   2.0000      -0.352798        -9.6001
  20   2.0000      -0.349090        -9.4992
  21   2.0000      -0.324457        -8.8289
  22   2.0000      -0.324003        -8.8166
  23   2.0000      -0.321035        -8.7358
  24   2.0000      -0.305248        -8.3062
  25   2.0000      -0.291827        -7.9410
  26   2.0000      -0.275448        -7.4953
  27   2.0000      -0.271858        -7.3976
  28   2.0000      -0.264579        -7.1996
  29   0.0000       0.086387         2.3507
  30   0.0000       0.109135         2.9697
  31   0.0000       0.126347         3.4381
  32   0.0000       0.134894         3.6707
  33   0.0000       0.139238         3.7889

MULLIKEN ATOMIC CHARGES
-----------------------
   0 C :   -0.519064
   1 C :   -0.267014
   2 C :   -0.329812
   3 C :    0.220400
   4 C :   -0.565042
   5 C :   -0.539577
   6 C :   -0.565141
   7 H :    0.155298
   8 H :    0.153409
   9 H :    0.153410
  10 H :    0.153750
  11 H :    0.153739
  12 H :    0.156710
  13 H :    0.156715
  14 H :    0.167956
  15 H :    0.164558
  16 H :    0.162567
  17 H :    0.162841
  18 H :    0.166338
  19 H :    0.162833
  20 H :    0.164613
  21 H :    0.167950
  22 H :    0.162563
Sum of atomic charges:    0.0000000

LOEWDIN ATOMIC CHARGES
----------------------
   0 C :   -0.432805
   1 C :   -0.315125
   2 C :   -0.302130
   3 C :   -0.210190
   4 C :   -0.417264
   5 C :   -0.418331
   6 C :   -0.417279
   7 H :    0.151258
   8 H :    0.151744
   9 H :    0.151743
  10 H :    0.154964
  11 H :    0.154953
  12 H :    0.161732
  13 H :    0.161732
  14 H :    0.157837
  15 H :    0.159380
  16 H :    0.158573
  17 H :    0.158188
  18 H :    0.157030
  19 H :    0.158189
  20 H :    0.159387
  21 H :    0.157840
  22 H :    0.158575

  Mayer bond orders larger than 0.100000
B(  0-C ,  1-C ) :   0.8928 B(  0-C ,  7-H ) :   0.9721 B(  0-C ,  8-H ) :   0.9827
B(  0-C ,  9-H ) :   0.9827 B(  1-C ,  2-C ) :   0.9047 B(  1-C , 10-H ) :   0.9712
B(  1-C , 11-H ) :   0.9712 B(  2-C ,  3-C ) :   0.8901 B(  2-C , 12-H ) :   0.9824
B(  2-C , 13-H ) :   0.9824 B(  3-C ,  4-C ) :   0.9063 B(  3-C ,  5-C ) :   0.9162
B(  3-C ,  6-C ) :   0.9060 B(  4-C , 14-H ) :   0.9738 B(  4-C , 15-H ) :   0.9737
B(  4-C , 16-H ) :   0.9721 B(  5-C , 17-H ) :   0.9778 B(  5-C , 18-H ) :   0.9781
B(  5-C , 19-H ) :   0.9778 B(  6-C , 20-H ) :   0.9737 B(  6-C , 21-H ) :   0.9738
B(  6-C , 22-H ) :   0.9721

Dispersion correction           -0.006450527
FINAL SINGLE POINT ENERGY      -276.286448022094

DIPOLE MOMENT
-------------

Method             : SCF
Type of density    : Electron Density
Multiplicity       :   1
Irrep              :   0
Energy             :  -276.2911963751324151 Eh
Relativity type    :
Basis              : AO
                                X                 Y                 Z
Electronic contribution:      0.424843713       0.043321560      -0.000491025
Nuclear contribution   :     -0.441692896      -0.068609633       0.000490378
                        -----------------------------------------
Total Dipole Moment    :     -0.016849182      -0.025288072      -0.000000647
                        -----------------------------------------
Magnitude (a.u.)       :      0.030387194
Magnitude (Debye)      :      0.077238109

Rotational constants in cm-1:             0.136059             0.047226             0.046611
Rotational constants in MHz :          4078.950340          1415.801204          1397.370698

                             ****ORCA TERMINATED NORMALLY****
TOTAL RUN TIME: 0 days 0 hours 0 minutes 21 seconds 239 msec
