                         Program Version 6.0.0  -   RELEASE  -
|  1> ! pbe def2-sv(p) def2/J RI DEFGRID1 loosescf d4 GCP(DFT/SV(P)) printgap
|  2> %output
|  3>     printlevel normal
|  4> end
|  5> * xyz 0 1
|  6> C 0.0052347936 1.2492446106 0.1110357259
|  7> C 1.2271191019 0.334138643 -0.0870181518
|  8> C 0.6561857364 -1.047211294 0.0366986683
|  9> C -0.6649390985 -1.0417241619 0.0367517024
| 10> C -1.2242847092 0.3443402243 -0.0870485237
| 11> H 0.0088839486 2.0896856565 -0.5800304295
| 12> H 0.0068711126 1.6479699305 1.125670284
| 13> H 1.6713646396 0.464064316 -1.0776897537
| 14> H 2.0083516112 0.5217718687 0.6505094764
| 15> H 1.2910046238 -1.9148327135 0.0923037801
| 16> H -1.3069477554 -1.9040095909 0.09234571
| 17> H -1.6674217759 0.4779036531 -1.0777641657
| 18> H -2.0039536889 0.5384670299 0.6504960992
| 19> *
| 20>
| 21>                          ****END OF INPUT****

CARTESIAN COORDINATES (ANGSTROEM)
---------------------------------
  C      0.005235    1.249245    0.111036
  C      1.227119    0.334139   -0.087018
  C      0.656186   -1.047211    0.036699
  C     -0.664939   -1.041724    0.036752
  C     -1.224285    0.344340   -0.087049
  H      0.008884    2.089686   -0.580030
  H      0.006871    1.647970    1.125670
  H      1.671365    0.464064   -1.077690
  H      2.008352    0.521772    0.650509
  H      1.291005   -1.914833    0.092304
  H     -1.306948   -1.904010    0.092346
  H     -1.667422    0.477904   -1.077764
  H     -2.003954    0.538467    0.650496

 Total Charge           Charge          ....    0
 Multiplicity           Mult            ....    1
 Number of Electrons    NEL             ....   38
 Basis Dimension        Dim             ....   86

ORBITAL ENERGIES
----------------

  NO   OCC          E(Eh)            E(eV)
   0   2.0000      -9.882138      -268.9066
   1   2.0000      -9.882126      -268.9063
   2   2.0000      -9.880709      -268.8678
   3   2.0000      -9.878899      -268.8185
   4   2.0000      -9.878283      -268.8018
   5   2.0000      -0.759563       -20.6688
   6   2.0000      -0.630105       -17.1460
   7   2.0000      -0.630059       -17.1448
   8   2.0000      -0.506149       -13.7730
   9   2.0000      -0.467704       -12.7269
  10   2.0000      -0.445882       -12.1331
  11   2.0000      -0.419976       -11.4281
  12   2.0000      -0.353369        -9.6156
  13   2.0000      -0.332285        -9.0419
  14   2.0000      -0.305318        -8.3081
  15   2.0000      -0.300274        -8.1709
  16   2.0000      -0.299229        -8.1424
  17   2.0000      -0.298914        -8.1339
  18   2.0000      -0.207541        -5.6475
  19   0.0000      -0.004788        -0.1303
  20   0.0000       0.041134         1.1193
  21   0.0000       0.068921         1.8754
  22   0.0000       0.087238         2.3739
  23   0.0000       0.087361         2.3772

MULLIKEN ATOMIC CHARGES
-----------------------
   0 C :   -0.173824
   1 C :   -0.120336
   2 C :   -0.131906
   3 C :   -0.131879
   4 C :   -0.120359
   5 H :    0.086321
   6 H :    0.091528
   7 H :    0.095849
   8 H :    0.093083
   9 H :    0.061288
  10 H :    0.061288
  11 H :    0.095864
  12 H :    0.093082
Sum of atomic charges:   -0.0000000

LOEWDIN ATOMIC CHARGES
----------------------
   0 C :   -0.220890
   1 C :   -0.223893
   2 C :   -0.144519
   3 C :   -0.144532
   4 C :   -0.223878
   5 H :    0.117453
   6 H :    0.120802
   7 H :    0.122517
   8 H :    0.120027
   9 H :    0.117182
  10 H :    0.117191
  11 H :    0.122518
  12 H :    0.120021

  Mayer bond orders larger than 0.100000
B(  0-C ,  1-C ) :   1.1395 B(  0-C ,  4-C ) :   1.1395 B(  0-C ,  5-H ) :   0.9305
B(  0-C ,  6-H ) :   0.9299 B(  1-C ,  2-C ) :   1.0631 B(  1-C ,  7-H ) :   0.9045
B(  1-C ,  8-H ) :   0.9218 B(  2-C ,  3-C ) :   1.8963 B(  2-C ,  9-H ) :   0.9679
B(  3-C ,  4-C ) :   1.0631 B(  3-C , 10-H ) :   0.9680 B(  4-C , 11-H ) :   0.9045
B(  4-C , 12-H ) :   0.9218

Dispersion correction           -0.009552400
FINAL SINGLE POINT ENERGY      -194.849341377369

DIPOLE MOMENT
-------------

Method             : SCF
Type of density    : Electron Density
Multiplicity       :   1
Irrep              :   0
Energy             :  -194.8905203439129821 Eh
Relativity type    :
Basis              : AO
                                X                 Y                 Z
Electronic contribution:     -0.007362042      -1.739348566       0.093448528
Nuclear contribution   :      0.007648652       1.802247951      -0.116482538
                        -----------------------------------------
Total Dipole Moment    :      0.000286611       0.062899385      -0.023034010
                        -----------------------------------------
Magnitude (a.u.)       :      0.066984927
Magnitude (Debye)      :      0.170262152

Rotational constants in cm-1:             0.246421             0.244680             0.132816
Rotational constants in MHz :          7387.525171          7335.326978          3981.712846

                             ****ORCA TERMINATED NORMALLY****
TOTAL RUN TIME: 0 days 0 hours 0 minutes 5 seconds 264 msec
