                         Program Version 6.0.0  -   RELEASE  -
|  1> ! r2scan-3c def2/J RI DEFGRID2 scfconv6 printgap
|  2> %output
|  3>     printlevel normal
|  4> end
|  5> * xyz 0 1
|  6> C -0.743538872 1.4723e-06 2.8373e-06
|  7> F 0.639712395 3.0232e-06 -1.493e-07
|  8> H -1.0659545933 0.9804425086 0.3434558938
|  9> H -1.065874923 -0.1927956711 -1.0208177675
| 10> H -1.0658435252 -0.7877213644 0.6773308793
| 11> *
| 12>
| 13>                          ****END OF INPUT****

CARTESIAN COORDINATES (ANGSTROEM)
---------------------------------
  C     -0.743539    0.000001    0.000003
  F      0.639712    0.000003   -0.000000
  H     -1.065955    0.980443    0.343456
  H     -1.065875   -0.192796   -1.020818
  H     -1.065844   -0.787721    0.677331

 Total Charge           Charge          ....    0
 Multiplicity           Mult            ....    1
 Number of Electrons    NEL             ....   18
 Basis Dimension        Dim             ....   58

ORBITAL ENERGIES
----------------

  NO   OCC          E(Eh)            E(eV)
   0   2.0000     -24.461189      -665.6228
   1   2.0000     -10.100906      -274.8596
   2   2.0000      -1.145959       -31.1831
   3   2.0000      -0.665313       -18.1041
   4   2.0000      -0.448991       -12.2177
   5   2.0000      -0.445359       -12.1188
   6   2.0000      -0.445356       -12.1187
   7   2.0000      -0.305178        -8.3043
   8   2.0000      -0.305173        -8.3042
   9   0.0000       0.060776         1.6538
  10   0.0000       0.111879         3.0444
  11   0.0000       0.188629         5.1329
  12   0.0000       0.188633         5.1330
  13   0.0000       0.198208         5.3935

MULLIKEN ATOMIC CHARGES
-----------------------
   0 C :   -0.091104
   1 F :   -0.306939
   2 H :    0.132680
   3 H :    0.132679
   4 H :    0.132684
Sum of atomic charges:   -0.0000000

LOEWDIN ATOMIC CHARGES
----------------------
   0 C :   -0.036370
   1 F :   -0.405217
   2 H :    0.147194
   3 H :    0.147195
   4 H :    0.147198

  Mayer bond orders larger than 0.100000
B(  0-C ,  1-F ) :   0.8294 B(  0-C ,  2-H ) :   0.9730 B(  0-C ,  3-H ) :   0.9730
B(  0-C ,  4-H ) :   0.9730

Dispersion correction           -0.000340011
FINAL SINGLE POINT ENERGY      -139.722889349180

DIPOLE MOMENT
-------------

Method             : SCF
Type of density    : Electron Density
Multiplicity       :   1
Irrep              :   0
Energy             :  -139.7267373893152183 Eh
Relativity type    :
Basis              : AO
                                X                 Y                 Z
Electronic contribution:      2.872131053       0.000061425       0.000020306
Nuclear contribution   :     -3.592660865      -0.000072720      -0.000028940
                        -----------------------------------------
Total Dipole Moment    :     -0.720529812      -0.000011295      -0.000008634
                        -----------------------------------------
Magnitude (a.u.)       :      0.720529812
Magnitude (Debye)      :      1.831441236

Rotational constants in cm-1:             5.165269             0.865281             0.865275
Rotational constants in MHz :        154850.879737         25940.486371         25940.305658

                             ****ORCA TERMINATED NORMALLY****
TOTAL RUN TIME: 0 days 0 hours 0 minutes 5 seconds 116 msec
