                         Program Version 6.0.0  -   RELEASE  -
|  1> ! r2scan-3c def2/J RI DEFGRID2 scfconv6 printgap
|  2> %output
|  3>     printlevel normal
|  4> end
|  5> %cpcm
|  6>     smd true
|  7>     smdsolvent "water"
|  8> end
|  9> * xyz 0 1
| 10> C -0.743538872 1.4723e-06 2.8373e-06
| 11> F 0.639712395 3.0232e-06 -1.493e-07
| 12> H -1.0659545933 0.9804425086 0.3434558938
| 13> H -1.065874923 -0.1927956711 -1.0208177675
| 14> H -1.0658435252 -0.7877213644 0.6773308793
| 15> *
| 16>
| 17>                          ****END OF INPUT****

CARTESIAN COORDINATES (ANGSTROEM)
---------------------------------
  C     -0.743539    0.000001    0.000003
  F      0.639712    0.000003   -0.000000
  H     -1.065955    0.980443    0.343456
  H     -1.065875   -0.192796   -1.020818
  H     -1.065844   -0.787721    0.677331

 Total Charge           Charge          ....    0
 Multiplicity           Mult            ....    1
 Number of Electrons    NEL             ....   18
 Basis Dimension        Dim             ....   58

ORBITAL ENERGIES
----------------

  NO   OCC          E(Eh)            E(eV)
   0   2.0000     -24.463685      -665.6907
   1   2.0000     -10.086705      -274.4732
   2   2.0000      -1.149154       -31.2701
   3   2.0000      -0.654344       -17.8056
   4   2.0000      -0.447587       -12.1795
   5   2.0000      -0.438526       -11.9329
   6   2.0000      -0.438518       -11.9327
   7   2.0000      -0.301972        -8.2171
   8   2.0000      -0.301962        -8.2168
   9   0.0000       0.068135         1.8541
  10   0.0000       0.130132         3.5411
  11   0.0000       0.207483         5.6459
  12   0.0000       0.207492         5.6461
  13   0.0000       0.208366         5.6699

MULLIKEN ATOMIC CHARGES
-----------------------
   0 C :   -0.115783
   1 F :   -0.341354
   2 H :    0.152333
   3 H :    0.152370
   4 H :    0.152434
Sum of atomic charges:   -0.0000000

LOEWDIN ATOMIC CHARGES
----------------------
   0 C :   -0.036344
   1 F :   -0.430844
   2 H :    0.155708
   3 H :    0.155724
   4 H :    0.155756

  Mayer bond orders larger than 0.100000
B(  0-C ,  1-F ) :   0.8045 B(  0-C ,  2-H ) :   0.9679 B(  0-C ,  3-H ) :   0.9679
B(  0-C ,  4-H ) :   0.9679

Dispersion correction           -0.000340011
FINAL SINGLE POINT ENERGY      -139.723273102123

DIPOLE MOMENT
-------------

Method             : SCF
Type of density    : Electron Density
Multiplicity       :   1
Irrep              :   0
Energy             :  -139.7271211422585395 Eh
Relativity type    :
Basis              : AO
                                X                 Y                 Z
Electronic contribution:      2.718732405      -0.000117616       0.000126747
Nuclear contribution   :     -3.592660865      -0.000072720      -0.000028940
                        -----------------------------------------
Total Dipole Moment    :     -0.873928460      -0.000190336       0.000097807
                        -----------------------------------------
Magnitude (a.u.)       :      0.873928486
Magnitude (Debye)      :      2.221349679

Rotational constants in cm-1:             5.165269             0.865281             0.865275
Rotational constants in MHz :        154850.879737         25940.486371         25940.305658

                             ****ORCA TERMINATED NORMALLY****
TOTAL RUN TIME: 0 days 0 hours 0 minutes 6 seconds 61 msec
