                         Program Version 6.0.0  -   RELEASE  -
|  1> ! pbe def2-sv(p) def2/J RI DEFGRID1 loosescf d4 GCP(DFT/SV(P)) printgap
|  2> %output
|  3>     printlevel normal
|  4> end
|  5> * xyz 0 1
|  6> C -1.8387529928 -0.5790479545 -0.8885073767
|  7> C -1.1945118821 -0.1420771905 0.432854243
|  8> H -1.9774259633 -0.1832113057 1.2000885325
|  9> C -0.618521389 1.2804431192 0.3630194216
| 10> H -1.3587092901 1.9414709154 -0.1089512239
| 11> C 0.6582983069 1.3172078506 -0.4914697049
| 12> H 1.1210878013 2.3063769801 -0.3407557236
| 13> C 1.6657319664 0.2731551396 0.0287076631
| 14> H 2.4504209085 0.1132921074 -0.7194498903
| 15> C 1.0183814723 -1.1065059062 0.276925344
| 16> H 1.6615887476 -1.6409755351 0.9957982818
| 17> O -0.2234164504 -1.0572955586 0.9295423158
| 18> O 0.9689112629 -1.7889971051 -0.9395598569
| 19> O 2.3149663549 0.7387582229 1.1825596589
| 20> O 0.2951289287 1.1376470209 -1.8331322899
| 21> O -0.2645879105 1.7573593295 1.6405636799
| 22> O -2.7121187648 -1.6548541298 -0.6147282143
| 23> H -1.0631805425 -0.8632914884 -1.6037474291
| 24> H -2.3953255346 0.2745812164 -1.2948804548
| 25> H 0.6595778999 -2.6954054454 -0.7894893363
| 26> H 1.6404344811 1.059378781 1.8067986066
| 27> H 1.0784557076 1.2201103448 -2.3958566312
| 28> H -1.043394631 1.7687660516 2.215604206
| 29> H -3.1011514365 -1.9636390356 -1.4445690561
| 30> *
| 31>
| 32>                          ****END OF INPUT****

CARTESIAN COORDINATES (ANGSTROEM)
---------------------------------
  C     -1.838753   -0.579048   -0.888507
  C     -1.194512   -0.142077    0.432854
  H     -1.977426   -0.183211    1.200089
  C     -0.618521    1.280443    0.363019
  H     -1.358709    1.941471   -0.108951
  C      0.658298    1.317208   -0.491470
  H      1.121088    2.306377   -0.340756
  C      1.665732    0.273155    0.028708
  H      2.450421    0.113292   -0.719450
  C      1.018381   -1.106506    0.276925
  H      1.661589   -1.640976    0.995798
  O     -0.223416   -1.057296    0.929542
  O      0.968911   -1.788997   -0.939560
  O      2.314966    0.738758    1.182560
  O      0.295129    1.137647   -1.833132
  O     -0.264588    1.757359    1.640564
  O     -2.712119   -1.654854   -0.614728
  H     -1.063181   -0.863291   -1.603747
  H     -2.395326    0.274581   -1.294880
  H      0.659578   -2.695405   -0.789489
  H      1.640434    1.059379    1.806799
  H      1.078456    1.220110   -2.395857
  H     -1.043395    1.768766    2.215604
  H     -3.101151   -1.963639   -1.444569

 Total Charge           Charge          ....    0
 Multiplicity           Mult            ....    1
 Number of Electrons    NEL             ....   96
 Basis Dimension        Dim             ....  192

ORBITAL ENERGIES
----------------

  NO   OCC          E(Eh)            E(eV)
   0   2.0000     -18.773169      -510.8439
   1   2.0000     -18.760359      -510.4953
   2   2.0000     -18.756333      -510.3858
   3   2.0000     -18.754625      -510.3393
   4   2.0000     -18.738778      -509.9081
   5   2.0000     -18.734285      -509.7858
   6   2.0000      -9.973794      -271.4007
   7   2.0000      -9.950420      -270.7647
   8   2.0000      -9.944551      -270.6050
   9   2.0000      -9.940702      -270.5002
  10   2.0000      -9.933407      -270.3017
  11   2.0000      -9.918809      -269.9045
  12   2.0000      -0.973106       -26.4796
  13   2.0000      -0.948573       -25.8120
  14   2.0000      -0.935931       -25.4680
  15   2.0000      -0.915421       -24.9099
  16   2.0000      -0.911847       -24.8126
  17   2.0000      -0.901051       -24.5188
  18   2.0000      -0.706049       -19.2126
  19   2.0000      -0.679658       -18.4944
  20   2.0000      -0.619957       -16.8699
  21   2.0000      -0.578879       -15.7521
  22   2.0000      -0.564195       -15.3525
  23   2.0000      -0.519369       -14.1327
  24   2.0000      -0.504253       -13.7214
  25   2.0000      -0.481898       -13.1131
  26   2.0000      -0.467186       -12.7128
  27   2.0000      -0.455622       -12.3981
  28   2.0000      -0.435819       -11.8592
  29   2.0000      -0.418257       -11.3814
  30   2.0000      -0.412326       -11.2200
  31   2.0000      -0.394179       -10.7262
  32   2.0000      -0.385768       -10.4973
  33   2.0000      -0.372557       -10.1378
  34   2.0000      -0.364209        -9.9106
  35   2.0000      -0.343510        -9.3474
  36   2.0000      -0.324179        -8.8214
  37   2.0000      -0.317214        -8.6318
  38   2.0000      -0.311974        -8.4892
  39   2.0000      -0.288627        -7.8539
  40   2.0000      -0.281099        -7.6491
  41   2.0000      -0.247683        -6.7398
  42   2.0000      -0.245576        -6.6825
  43   2.0000      -0.237313        -6.4576
  44   2.0000      -0.228904        -6.2288
  45   2.0000      -0.218317        -5.9407
  46   2.0000      -0.205350        -5.5878
  47   2.0000      -0.199860        -5.4385
  48   0.0000       0.009401         0.2558
  49   0.0000       0.021041         0.5726
  50   0.0000       0.029866         0.8127
  51   0.0000       0.043358         1.1798
  52   0.0000       0.068036         1.8514

MULLIKEN ATOMIC CHARGES
-----------------------
   0 C :    0.015947
   1 C :    0.028978
   2 H :    0.063009
   3 C :    0.040181
   4 H :    0.077812
   5 C :    0.036077
   6 H :    0.076190
   7 C :    0.051884
   8 H :    0.064109
   9 C :    0.198361
  10 H :    0.065178
  11 O :   -0.312938
  12 O :   -0.399508
  13 O :   -0.432935
  14 O :   -0.403149
  15 O :   -0.424308
  16 O :   -0.438115
  17 H :    0.106454
  18 H :    0.059628
  19 H :    0.302986
  20 H :    0.304184
  21 H :    0.310233
  22 H :    0.312315
  23 H :    0.297422
Sum of atomic charges:    0.0000000

LOEWDIN ATOMIC CHARGES
----------------------
   0 C :   -0.150774
   1 C :   -0.060532
   2 H :    0.113931
   3 C :   -0.067044
   4 H :    0.108906
   5 C :   -0.071681
   6 H :    0.105498
   7 C :   -0.080959
   8 H :    0.114534
   9 C :   -0.008182
  10 H :    0.099015
  11 O :   -0.144264
  12 O :   -0.312889
  13 O :   -0.319831
  14 O :   -0.304269
  15 O :   -0.307679
  16 O :   -0.349349
  17 H :    0.109220
  18 H :    0.094839
  19 H :    0.286556
  20 H :    0.274347
  21 H :    0.292726
  22 H :    0.293532
  23 H :    0.284348

  Mayer bond orders larger than 0.100000
B(  0-C ,  1-C ) :   1.0618 B(  0-C , 16-O ) :   1.0792 B(  0-C , 17-H ) :   0.8802
B(  0-C , 18-H ) :   0.9108 B(  1-C ,  2-H ) :   0.8949 B(  1-C ,  3-C ) :   0.9984
B(  1-C , 11-O ) :   1.0057 B(  3-C ,  4-H ) :   0.8947 B(  3-C ,  5-C ) :   0.9992
B(  3-C , 15-O ) :   1.0205 B(  5-C ,  6-H ) :   0.9004 B(  5-C ,  7-C ) :   0.9793
B(  5-C , 14-O ) :   1.0766 B(  7-C ,  8-H ) :   0.8889 B(  7-C ,  9-C ) :   0.9739
B(  7-C , 13-O ) :   1.0596 B(  9-C , 10-H ) :   0.9033 B(  9-C , 11-O ) :   1.0621
B(  9-C , 12-O ) :   1.1009 B( 12-O , 19-H ) :   0.8377 B( 13-O , 20-H ) :   0.8147
B( 14-O , 21-H ) :   0.8425 B( 15-O , 22-H ) :   0.8411 B( 16-O , 23-H ) :   0.8539

Dispersion correction           -0.025753741
FINAL SINGLE POINT ENERGY      -685.691602650732

DIPOLE MOMENT
-------------

Method             : SCF
Type of density    : Electron Density
Multiplicity       :   1
Irrep              :   0
Energy             :  -685.8220637503347916 Eh
Relativity type    :
Basis              : AO
                                X                 Y                 Z
Electronic contribution:      1.503884939      -1.061667399       1.759206247
Nuclear contribution   :     -2.178092302       1.241909163      -2.320697560
                        -----------------------------------------
Total Dipole Moment    :     -0.674207363       0.180241764      -0.561491313
                        -----------------------------------------
Magnitude (a.u.)       :      0.895720468
Magnitude (Debye)      :      2.276740494

Rotational constants in cm-1:             0.041810             0.027643             0.024581
Rotational constants in MHz :          1253.430663           828.724993           736.932392

                             ****ORCA TERMINATED NORMALLY****
TOTAL RUN TIME: 0 days 0 hours 0 minutes 12 seconds 190 msec
