                         Program Version 6.0.0  -   RELEASE  -
|  1> ! pbe def2-sv(p) def2/J RI DEFGRID1 loosescf d4 GCP(DFT/SV(P)) printgap
|  2> %output
|  3>     printlevel normal
|  4> end
|  5> * xyz 0 1
|  6> C -2.5245932587 -0.9846116217 0.3423497085
|  7> C -1.0977999756 -0.4844688254 0.6150067803
|  8> H -0.9377935249 -0.427225391 1.7024869837
|  9> C -0.8367245355 0.9042578352 0.0020668703
| 10> H -1.0327114765 0.8566472598 -1.0777507373
| 11> C 0.6345864687 1.2774362173 0.2203394652
| 12> H 0.8022804467 1.3972969044 1.3026702718
| 13> C 1.5603595726 0.1730264452 -0.3018779004
| 14> H 1.4491463582 0.1187119945 -1.3967567902
| 15> C 1.1508824412 -1.1802072252 0.3089795662
| 16> H 1.3316314644 -1.143343965 1.3952492279
| 17> O -0.2134258422 -1.4348167492 0.0461907362
| 18> O 1.8840329656 -2.24244306 -0.1627600519
| 19> O 2.8964940404 0.4193023885 0.0441073952
| 20> O 0.9742341215 2.4643803958 -0.4546739483
| 21> O -1.6080685366 1.9132295389 0.6082272923
| 22> O -2.856861831 -0.9529305067 -1.0209344446
| 23> H -3.2394705636 -0.3385654778 0.853725697
| 24> H -2.6108659442 -1.9996990232 0.7451598503
| 25> H 1.7561674545 -2.3391562298 -1.1201652624
| 26> H 3.1262667976 1.3132964054 -0.2548863506
| 27> H 0.3564049461 3.1589684985 -0.1816054494
| 28> H -2.5214681572 1.8576328294 0.2954183851
| 29> H -2.2995255033 -1.5907933409 -1.4881762036
| 30> *
| 31>
| 32>                          ****END OF INPUT****

CARTESIAN COORDINATES (ANGSTROEM)
---------------------------------
  C     -2.524593   -0.984612    0.342350
  C     -1.097800   -0.484469    0.615007
  H     -0.937794   -0.427225    1.702487
  C     -0.836725    0.904258    0.002067
  H     -1.032711    0.856647   -1.077751
  C      0.634586    1.277436    0.220339
  H      0.802280    1.397297    1.302670
  C      1.560360    0.173026   -0.301878
  H      1.449146    0.118712   -1.396757
  C      1.150882   -1.180207    0.308980
  H      1.331631   -1.143344    1.395249
  O     -0.213426   -1.434817    0.046191
  O      1.884033   -2.242443   -0.162760
  O      2.896494    0.419302    0.044107
  O      0.974234    2.464380   -0.454674
  O     -1.608069    1.913230    0.608227
  O     -2.856862   -0.952931   -1.020934
  H     -3.239471   -0.338565    0.853726
  H     -2.610866   -1.999699    0.745160
  H      1.756167   -2.339156   -1.120165
  H      3.126267    1.313296   -0.254886
  H      0.356405    3.158968   -0.181605
  H     -2.521468    1.857633    0.295418
  H     -2.299526   -1.590793   -1.488176

 Total Charge           Charge          ....    0
 Multiplicity           Mult            ....    1
 Number of Electrons    NEL             ....   96
 Basis Dimension        Dim             ....  192

ORBITAL ENERGIES
----------------

  NO   OCC          E(Eh)            E(eV)
   0   2.0000     -18.775573      -510.9093
   1   2.0000     -18.769135      -510.7341
   2   2.0000     -18.760339      -510.4948
   3   2.0000     -18.757610      -510.4205
   4   2.0000     -18.755956      -510.3755
   5   2.0000     -18.746540      -510.1193
   6   2.0000      -9.987000      -271.7601
   7   2.0000      -9.946762      -270.6652
   8   2.0000      -9.944239      -270.5965
   9   2.0000      -9.942775      -270.5567
  10   2.0000      -9.942550      -270.5505
  11   2.0000      -9.940513      -270.4951
  12   2.0000      -0.985124       -26.8066
  13   2.0000      -0.951571       -25.8936
  14   2.0000      -0.940128       -25.5822
  15   2.0000      -0.931949       -25.3596
  16   2.0000      -0.917979       -24.9795
  17   2.0000      -0.912393       -24.8275
  18   2.0000      -0.705746       -19.2043
  19   2.0000      -0.692457       -18.8427
  20   2.0000      -0.625676       -17.0255
  21   2.0000      -0.583801       -15.8860
  22   2.0000      -0.564510       -15.3611
  23   2.0000      -0.536241       -14.5919
  24   2.0000      -0.503342       -13.6966
  25   2.0000      -0.496631       -13.5140
  26   2.0000      -0.479275       -13.0417
  27   2.0000      -0.459991       -12.5170
  28   2.0000      -0.444332       -12.0909
  29   2.0000      -0.437881       -11.9153
  30   2.0000      -0.419924       -11.4267
  31   2.0000      -0.409273       -11.1369
  32   2.0000      -0.386877       -10.5275
  33   2.0000      -0.384560       -10.4644
  34   2.0000      -0.364720        -9.9245
  35   2.0000      -0.356183        -9.6922
  36   2.0000      -0.326521        -8.8851
  37   2.0000      -0.313250        -8.5240
  38   2.0000      -0.305966        -8.3258
  39   2.0000      -0.297594        -8.0980
  40   2.0000      -0.287844        -7.8326
  41   2.0000      -0.279795        -7.6136
  42   2.0000      -0.256717        -6.9856
  43   2.0000      -0.237672        -6.4674
  44   2.0000      -0.232719        -6.3326
  45   2.0000      -0.230823        -6.2810
  46   2.0000      -0.218374        -5.9423
  47   2.0000      -0.211129        -5.7451
  48   0.0000       0.008986         0.2445
  49   0.0000       0.025324         0.6891
  50   0.0000       0.026784         0.7288
  51   0.0000       0.046084         1.2540
  52   0.0000       0.051392         1.3985

MULLIKEN ATOMIC CHARGES
-----------------------
   0 C :    0.069143
   1 C :   -0.013139
   2 H :    0.055497
   3 C :    0.046575
   4 H :    0.052517
   5 C :    0.057940
   6 H :    0.056956
   7 C :    0.044022
   8 H :    0.038296
   9 C :    0.207290
  10 H :    0.056185
  11 O :   -0.318034
  12 O :   -0.363942
  13 O :   -0.409398
  14 O :   -0.426185
  15 O :   -0.423968
  16 O :   -0.438205
  17 H :    0.077836
  18 H :    0.093957
  19 H :    0.300057
  20 H :    0.308957
  21 H :    0.308664
  22 H :    0.315004
  23 H :    0.303975
Sum of atomic charges:    0.0000000

LOEWDIN ATOMIC CHARGES
----------------------
   0 C :   -0.128035
   1 C :   -0.080454
   2 H :    0.107057
   3 C :   -0.083510
   4 H :    0.104086
   5 C :   -0.077859
   6 H :    0.105198
   7 C :   -0.086895
   8 H :    0.098105
   9 C :    0.007925
  10 H :    0.102483
  11 O :   -0.162537
  12 O :   -0.276713
  13 O :   -0.315147
  14 O :   -0.326249
  15 O :   -0.319286
  16 O :   -0.334004
  17 H :    0.111040
  18 H :    0.109212
  19 H :    0.287106
  20 H :    0.289041
  21 H :    0.288492
  22 H :    0.293680
  23 H :    0.287263

  Mayer bond orders larger than 0.100000
B(  0-C ,  1-C ) :   1.0340 B(  0-C , 16-O ) :   1.0694 B(  0-C , 17-H ) :   0.9154
B(  0-C , 18-H ) :   0.9207 B(  1-C ,  2-H ) :   0.8665 B(  1-C ,  3-C ) :   0.9844
B(  1-C , 11-O ) :   0.9824 B(  3-C ,  4-H ) :   0.8660 B(  3-C ,  5-C ) :   1.0103
B(  3-C , 15-O ) :   1.0661 B(  5-C ,  6-H ) :   0.8763 B(  5-C ,  7-C ) :   1.0200
B(  5-C , 14-O ) :   1.0796 B(  7-C ,  8-H ) :   0.8593 B(  7-C ,  9-C ) :   0.9894
B(  7-C , 13-O ) :   1.0899 B(  9-C , 10-H ) :   0.8777 B(  9-C , 11-O ) :   0.9915
B(  9-C , 12-O ) :   1.1707 B( 12-O , 19-H ) :   0.8428 B( 13-O , 20-H ) :   0.8374
B( 14-O , 21-H ) :   0.8354 B( 15-O , 22-H ) :   0.8408 B( 16-O , 23-H ) :   0.8443

Dispersion correction           -0.023917455
FINAL SINGLE POINT ENERGY      -685.702917374308

DIPOLE MOMENT
-------------

Method             : SCF
Type of density    : Electron Density
Multiplicity       :   1
Irrep              :   0
Energy             :  -685.8324277378370653 Eh
Relativity type    :
Basis              : AO
                                X                 Y                 Z
Electronic contribution:      2.756133095      -0.424415042      -1.058462693
Nuclear contribution   :     -3.567805014       0.812833540       0.713505314
                        -----------------------------------------
Total Dipole Moment    :     -0.811671918       0.388418498      -0.344957379
                        -----------------------------------------
Magnitude (a.u.)       :      0.963678279
Magnitude (Debye)      :      2.449475523

Rotational constants in cm-1:             0.039460             0.026833             0.017619
Rotational constants in MHz :          1182.994804           804.440893           528.199500

                             ****ORCA TERMINATED NORMALLY****
TOTAL RUN TIME: 0 days 0 hours 0 minutes 12 seconds 135 msec
