                         Program Version 6.0.0  -   RELEASE  -
|  1> ! pbe def2-sv(p) def2/J RI DEFGRID1 loosescf d4 GCP(DFT/SV(P)) printgap
|  2> %output
|  3>     printlevel normal
|  4> end
|  5> * xyz 0 1
|  6> C -2.299764952 -0.868399746 0.7260409521
|  7> C -0.8512406991 -0.3766479207 0.7722797961
|  8> H -0.6200025964 -0.0634631117 1.8003780932
|  9> C -0.6464936206 0.8197879758 -0.1627594691
| 10> H -0.8848927146 0.4880813687 -1.1834281827
| 11> C 0.8205318008 1.3039168326 -0.1199544072
| 12> H 0.8788771877 2.1292961195 0.5991466761
| 13> C 1.7764561555 0.1794215414 0.3368848471
| 14> H 2.7439470369 0.3352252882 -0.1612081568
| 15> C 1.2222053879 -1.1647899664 -0.1484259886
| 16> H 1.8915158026 -1.9794105137 0.1699921243
| 17> O -0.0161047583 -1.4756873501 0.4222190554
| 18> O 1.1542541796 -1.0932683183 -1.5435993906
| 19> O 1.9294697339 0.1036071132 1.7293269852
| 20> O 1.2254096722 1.8418999974 -1.3544760862
| 21> O -1.5311308025 1.8350374146 0.2472995139
| 22> O -2.6595162176 -1.1455873953 -0.6077712294
| 23> H -2.9323128884 -0.0794617113 1.1479012522
| 24> H -2.3632628032 -1.7723692119 1.3424912423
| 25> H 0.7786688157 -1.9164633337 -1.8917660137
| 26> H 2.4326770207 0.8694043892 2.0437977389
| 27> H 1.2551452239 1.1246745747 -2.0073074757
| 28> H -1.4940978431 2.5595519304 -0.3937944742
| 29> H -3.5699957383 -1.4711096018 -0.6257218834
| 30> *
| 31>
| 32>                          ****END OF INPUT****

CARTESIAN COORDINATES (ANGSTROEM)
---------------------------------
  C     -2.299765   -0.868400    0.726041
  C     -0.851241   -0.376648    0.772280
  H     -0.620003   -0.063463    1.800378
  C     -0.646494    0.819788   -0.162759
  H     -0.884893    0.488081   -1.183428
  C      0.820532    1.303917   -0.119954
  H      0.878877    2.129296    0.599147
  C      1.776456    0.179422    0.336885
  H      2.743947    0.335225   -0.161208
  C      1.222205   -1.164790   -0.148426
  H      1.891516   -1.979411    0.169992
  O     -0.016105   -1.475687    0.422219
  O      1.154254   -1.093268   -1.543599
  O      1.929470    0.103607    1.729327
  O      1.225410    1.841900   -1.354476
  O     -1.531131    1.835037    0.247300
  O     -2.659516   -1.145587   -0.607771
  H     -2.932313   -0.079462    1.147901
  H     -2.363263   -1.772369    1.342491
  H      0.778669   -1.916463   -1.891766
  H      2.432677    0.869404    2.043798
  H      1.255145    1.124675   -2.007307
  H     -1.494098    2.559552   -0.393794
  H     -3.569996   -1.471110   -0.625722

 Total Charge           Charge          ....    0
 Multiplicity           Mult            ....    1
 Number of Electrons    NEL             ....   96
 Basis Dimension        Dim             ....  192

ORBITAL ENERGIES
----------------

  NO   OCC          E(Eh)            E(eV)
   0   2.0000     -18.768348      -510.7127
   1   2.0000     -18.758561      -510.4464
   2   2.0000     -18.757912      -510.4287
   3   2.0000     -18.744723      -510.0699
   4   2.0000     -18.742662      -510.0138
   5   2.0000     -18.738535      -509.9014
   6   2.0000      -9.983513      -271.6652
   7   2.0000      -9.939771      -270.4749
   8   2.0000      -9.932744      -270.2837
   9   2.0000      -9.930847      -270.2321
  10   2.0000      -9.928211      -270.1604
  11   2.0000      -9.922373      -270.0015
  12   2.0000      -0.978843       -26.6357
  13   2.0000      -0.935057       -25.4442
  14   2.0000      -0.927584       -25.2408
  15   2.0000      -0.921119       -25.0649
  16   2.0000      -0.910705       -24.7816
  17   2.0000      -0.904884       -24.6231
  18   2.0000      -0.694130       -18.8882
  19   2.0000      -0.686346       -18.6764
  20   2.0000      -0.615533       -16.7495
  21   2.0000      -0.576449       -15.6860
  22   2.0000      -0.556109       -15.1325
  23   2.0000      -0.520208       -14.1556
  24   2.0000      -0.496355       -13.5065
  25   2.0000      -0.474023       -12.8988
  26   2.0000      -0.468222       -12.7410
  27   2.0000      -0.451070       -12.2742
  28   2.0000      -0.444008       -12.0821
  29   2.0000      -0.430022       -11.7015
  30   2.0000      -0.412620       -11.2280
  31   2.0000      -0.378422       -10.2974
  32   2.0000      -0.372885       -10.1467
  33   2.0000      -0.368123       -10.0171
  34   2.0000      -0.355421        -9.6715
  35   2.0000      -0.347943        -9.4680
  36   2.0000      -0.335924        -9.1410
  37   2.0000      -0.311009        -8.4630
  38   2.0000      -0.293775        -7.9940
  39   2.0000      -0.291199        -7.9239
  40   2.0000      -0.280248        -7.6259
  41   2.0000      -0.251443        -6.8421
  42   2.0000      -0.242920        -6.6102
  43   2.0000      -0.238046        -6.4776
  44   2.0000      -0.226972        -6.1762
  45   2.0000      -0.215533        -5.8649
  46   2.0000      -0.210181        -5.7193
  47   2.0000      -0.192144        -5.2285
  48   0.0000       0.017853         0.4858
  49   0.0000       0.028688         0.7806
  50   0.0000       0.034028         0.9260
  51   0.0000       0.043705         1.1893
  52   0.0000       0.071770         1.9530

MULLIKEN ATOMIC CHARGES
-----------------------
   0 C :    0.064560
   1 C :    0.051639
   2 H :    0.066032
   3 C :    0.041422
   4 H :    0.053462
   5 C :    0.112842
   6 H :    0.041106
   7 C :   -0.011690
   8 H :    0.072086
   9 C :    0.184194
  10 H :    0.065324
  11 O :   -0.310617
  12 O :   -0.407622
  13 O :   -0.409049
  14 O :   -0.438908
  15 O :   -0.420792
  16 O :   -0.441116
  17 H :    0.081079
  18 H :    0.075710
  19 H :    0.311374
  20 H :    0.308419
  21 H :    0.303854
  22 H :    0.306294
  23 H :    0.300398
Sum of atomic charges:   -0.0000000

LOEWDIN ATOMIC CHARGES
----------------------
   0 C :   -0.126865
   1 C :   -0.055087
   2 H :    0.113134
   3 C :   -0.079677
   4 H :    0.107016
   5 C :   -0.079332
   6 H :    0.110134
   7 C :   -0.092439
   8 H :    0.107925
   9 C :    0.002763
  10 H :    0.099059
  11 O :   -0.137023
  12 O :   -0.316668
  13 O :   -0.309165
  14 O :   -0.324860
  15 O :   -0.319848
  16 O :   -0.343033
  17 H :    0.105390
  18 H :    0.100869
  19 H :    0.291556
  20 H :    0.291444
  21 H :    0.277014
  22 H :    0.290494
  23 H :    0.287200

  Mayer bond orders larger than 0.100000
B(  0-C ,  1-C ) :   1.0579 B(  0-C , 16-O ) :   1.0778 B(  0-C , 17-H ) :   0.9067
B(  0-C , 18-H ) :   0.9145 B(  1-C ,  2-H ) :   0.8687 B(  1-C ,  3-C ) :   1.0776
B(  1-C , 11-O ) :   0.9725 B(  3-C ,  4-H ) :   0.8435 B(  3-C ,  5-C ) :   1.0326
B(  3-C , 15-O ) :   1.0517 B(  5-C ,  6-H ) :   0.8531 B(  5-C ,  7-C ) :   0.9819
B(  5-C , 14-O ) :   1.0346 B(  7-C ,  8-H ) :   0.8861 B(  7-C ,  9-C ) :   1.0357
B(  7-C , 13-O ) :   1.0450 B(  9-C , 10-H ) :   0.8940 B(  9-C , 11-O ) :   1.0962
B(  9-C , 12-O ) :   1.0972 B( 12-O , 19-H ) :   0.8360 B( 13-O , 20-H ) :   0.8471
B( 14-O , 21-H ) :   0.8324 B( 15-O , 22-H ) :   0.8466 B( 16-O , 23-H ) :   0.8518

Dispersion correction           -0.025020162
FINAL SINGLE POINT ENERGY      -685.692088661873

DIPOLE MOMENT
-------------

Method             : SCF
Type of density    : Electron Density
Multiplicity       :   1
Irrep              :   0
Energy             :  -685.8219788814781168 Eh
Relativity type    :
Basis              : AO
                                X                 Y                 Z
Electronic contribution:      1.611876247      -0.417132490      -0.957019271
Nuclear contribution   :     -1.765745742       0.211086780       0.772114444
                        -----------------------------------------
Total Dipole Moment    :     -0.153869495      -0.206045710      -0.184904827
                        -----------------------------------------
Magnitude (a.u.)       :      0.316734038
Magnitude (Debye)      :      0.805073945

Rotational constants in cm-1:             0.040770             0.027147             0.023585
Rotational constants in MHz :          1222.243167           813.859636           707.062289

                             ****ORCA TERMINATED NORMALLY****
TOTAL RUN TIME: 0 days 0 hours 0 minutes 12 seconds 326 msec
