                         Program Version 6.0.0  -   RELEASE  -
|  1> ! wb97x-v def2-tzvp def2/J RIJCOSX DEFGRID2 scfconv7 GCP(DFT/TZ) printgap
|  2> %output
|  3>     printlevel normal
|  4> end
|  5> * xyz 0 1
|  6> C -2.587111405607782 -0.6118190624779091 -0.3202721865275744
|  7> C -1.2058108703881076 -0.2703849542082984 0.20173589804614658
|  8> H -1.2188552371963497 -0.2430279591393144 1.3035227595797252
|  9> C -0.6942538423001434 1.0646962788555256 -0.33657251573203373
| 10> H -0.7181418608761968 1.040464906351319 -1.437782999949986
| 11> C 0.7404667420129959 1.2804448947823517 0.12454517124273747
| 12> H 0.7368956800247541 1.3976560225646952 1.2214816095263918
| 13> C 1.6281455607597684 0.0886422774095252 -0.2304899448329081
| 14> H 1.7208926950618766 0.002775005767314311 -1.3197078692308921
| 15> C 0.993317904771815 -1.1940092015038735 0.30085779200692314
| 16> H 0.9272486264538622 -1.1728887801984367 1.4022085342053199
| 17> O -0.327561274396195 -1.3171600765890756 -0.24577839230093498
| 18> O 1.7443278762263066 -2.2905731023220897 -0.14342163802402716
| 19> O 2.9535766054627515 0.2745428784595527 0.27087490025238226
| 20> O 1.209525082453361 2.4839510008691956 -0.4931371312465175
| 21> O -1.552419264753049 2.0974869309036626 0.1585904803446176
| 22> O -3.0862885951890937 -1.8293392267114776 0.24470803116906467
| 23> H -2.55493225244265 -0.674311201803479 -1.417779177861041
| 24> H -3.288011265509279 0.17617819603179835 -0.035891156073009266
| 25> H 1.531413237299027 -3.0503858796930414 0.4147354308986666
| 26> H 2.893697850096391 0.37597882083274176 1.2323362371231183
| 27> H 2.0706550555868968 2.6925657501738973 -0.10671041175634113
| 28> H -1.1692955257848243 2.9409326971436713 -0.11880579071277715
| 29> H -2.485766107683015 -2.536116595761142 -0.02685408241976093
| 30> *
| 31>
| 32>                          ****END OF INPUT****

CARTESIAN COORDINATES (ANGSTROEM)
---------------------------------
  C     -2.587111   -0.611819   -0.320272
  C     -1.205811   -0.270385    0.201736
  H     -1.218855   -0.243028    1.303523
  C     -0.694254    1.064696   -0.336573
  H     -0.718142    1.040465   -1.437783
  C      0.740467    1.280445    0.124545
  H      0.736896    1.397656    1.221482
  C      1.628146    0.088642   -0.230490
  H      1.720893    0.002775   -1.319708
  C      0.993318   -1.194009    0.300858
  H      0.927249   -1.172889    1.402209
  O     -0.327561   -1.317160   -0.245778
  O      1.744328   -2.290573   -0.143422
  O      2.953577    0.274543    0.270875
  O      1.209525    2.483951   -0.493137
  O     -1.552419    2.097487    0.158590
  O     -3.086289   -1.829339    0.244708
  H     -2.554932   -0.674311   -1.417779
  H     -3.288011    0.176178   -0.035891
  H      1.531413   -3.050386    0.414735
  H      2.893698    0.375979    1.232336
  H      2.070655    2.692566   -0.106710
  H     -1.169296    2.940933   -0.118806
  H     -2.485766   -2.536117   -0.026854

 Total Charge           Charge          ....    0
 Multiplicity           Mult            ....    1
 Number of Electrons    NEL             ....   96
 Basis Dimension        Dim             ....  444

ORBITAL ENERGIES
----------------

  NO   OCC          E(Eh)            E(eV)
   0   2.0000     -21.697754      -590.4259
   1   2.0000     -21.697237      -590.4118
   2   2.0000     -21.695304      -590.3592
   3   2.0000     -21.693892      -590.3208
   4   2.0000     -21.684809      -590.0737
   5   2.0000     -21.670532      -589.6852
   6   2.0000     -12.167565      -331.0963
   7   2.0000     -12.119114      -329.7779
   8   2.0000     -12.114438      -329.6506
   9   2.0000     -12.114038      -329.6397
  10   2.0000     -12.112002      -329.5843
  11   2.0000     -12.094373      -329.1046
  12   2.0000      -1.729388       -47.0590
  13   2.0000      -1.701373       -46.2967
  14   2.0000      -1.694301       -46.1043
  15   2.0000      -1.687994       -45.9326
  16   2.0000      -1.684494       -45.8374
  17   2.0000      -1.670135       -45.4467
  18   2.0000      -1.344298       -36.5802
  19   2.0000      -1.328881       -36.1607
  20   2.0000      -1.240423       -33.7536
  21   2.0000      -1.204207       -32.7681
  22   2.0000      -1.174159       -31.9505
  23   2.0000      -1.128612       -30.7111
  24   2.0000      -1.103532       -30.0286
  25   2.0000      -1.070789       -29.1376
  26   2.0000      -1.057137       -28.7662
  27   2.0000      -1.043204       -28.3870
  28   2.0000      -1.039878       -28.2965
  29   2.0000      -1.028011       -27.9736
  30   2.0000      -0.997911       -27.1545
  31   2.0000      -0.987840       -26.8805
  32   2.0000      -0.979613       -26.6566
  33   2.0000      -0.978745       -26.6330
  34   2.0000      -0.964778       -26.2529
  35   2.0000      -0.951959       -25.9041
  36   2.0000      -0.943964       -25.6866
  37   2.0000      -0.934614       -25.4321
  38   2.0000      -0.929531       -25.2938
  39   2.0000      -0.914026       -24.8719
  40   2.0000      -0.903963       -24.5981
  41   2.0000      -0.894512       -24.3409
  42   2.0000      -0.850249       -23.1365
  43   2.0000      -0.834121       -22.6976
  44   2.0000      -0.825217       -22.4553
  45   2.0000      -0.817107       -22.2346
  46   2.0000      -0.801893       -21.8206
  47   2.0000      -0.777070       -21.1451
  48   0.0000      -0.247593        -6.7374
  49   0.0000      -0.201513        -5.4834
  50   0.0000      -0.187394        -5.0992
  51   0.0000      -0.157431        -4.2839
  52   0.0000      -0.126972        -3.4551

MULLIKEN ATOMIC CHARGES
-----------------------
   0 C :   -0.012649
   1 C :    0.028465
   2 H :    0.074898
   3 C :    0.105097
   4 H :    0.085327
   5 C :   -0.015310
   6 H :    0.082369
   7 C :    0.087535
   8 H :    0.098852
   9 C :    0.059507
  10 H :    0.065231
  11 O :   -0.279170
  12 O :   -0.379747
  13 O :   -0.419644
  14 O :   -0.444342
  15 O :   -0.445343
  16 O :   -0.452160
  17 H :    0.091268
  18 H :    0.123812
  19 H :    0.310444
  20 H :    0.294460
  21 H :    0.316286
  22 H :    0.318486
  23 H :    0.306328
Sum of atomic charges:   -0.0000000

LOEWDIN ATOMIC CHARGES
----------------------
   0 C :   -0.305647
   1 C :   -0.301941
   2 H :    0.142820
   3 C :   -0.299451
   4 H :    0.146174
   5 C :   -0.324097
   6 H :    0.138655
   7 C :   -0.309657
   8 H :    0.157762
   9 C :   -0.414672
  10 H :    0.118466
  11 O :    0.181410
  12 O :    0.025978
  13 O :   -0.006770
  14 O :   -0.015653
  15 O :   -0.010514
  16 O :   -0.050707
  17 H :    0.121822
  18 H :    0.137118
  19 H :    0.177377
  20 H :    0.169608
  21 H :    0.175321
  22 H :    0.177654
  23 H :    0.168944

  Mayer bond orders larger than 0.100000
B(  0-C ,  1-C ) :   0.9849 B(  0-C , 16-O ) :   1.0147 B(  0-C , 17-H ) :   0.9702
B(  0-C , 18-H ) :   0.9646 B(  1-C ,  2-H ) :   0.9577 B(  1-C ,  3-C ) :   0.9405
B(  1-C , 11-O ) :   0.9696 B(  3-C ,  4-H ) :   0.9507 B(  3-C ,  5-C ) :   0.9485
B(  3-C , 15-O ) :   1.0781 B(  5-C ,  6-H ) :   0.9630 B(  5-C ,  7-C ) :   0.9986
B(  5-C , 14-O ) :   1.0731 B(  7-C ,  8-H ) :   0.9280 B(  7-C ,  9-C ) :   0.9429
B(  7-C , 13-O ) :   1.0037 B(  9-C , 10-H ) :   0.9694 B(  9-C , 11-O ) :   1.0136
B(  9-C , 12-O ) :   1.2557 B( 12-O , 19-H ) :   0.8935 B( 13-O , 20-H ) :   0.8949
B( 14-O , 21-H ) :   0.8863 B( 15-O , 22-H ) :   0.8843 B( 16-O , 23-H ) :   0.8951

FINAL SINGLE POINT ENERGY      -687.245577875352

DIPOLE MOMENT
-------------

Method             : SCF
Type of density    : Electron Density
Multiplicity       :   1
Irrep              :   0
Energy             :  -687.2643182880516406 Eh
Relativity type    :
Basis              : AO
                                X                 Y                 Z
Electronic contribution:      2.137597778      -0.942719806      -0.540602201
Nuclear contribution   :     -1.442661103       1.137254307       1.375082641
                        -----------------------------------------
Total Dipole Moment    :      0.694936676       0.194534501       0.834480440
                        -----------------------------------------
Magnitude (a.u.)       :      1.103239892
Magnitude (Debye)      :      2.804212951

Rotational constants in cm-1:             0.038767             0.026002             0.016303
Rotational constants in MHz :          1162.207045           779.512220           488.744675

                             ****ORCA TERMINATED NORMALLY****
TOTAL RUN TIME: 0 days 0 hours 4 minutes 49 seconds 140 msec
