                         Program Version 6.0.0  -   RELEASE  -
|  1> ! wb97x-v def2-tzvp def2/J RIJCOSX DEFGRID2 scfconv7 GCP(DFT/TZ) printgap
|  2> %output
|  3>     printlevel normal
|  4> end
|  5> %cpcm
|  6>     smd true
|  7>     smdsolvent "water"
|  8> end
|  9> * xyz 0 1
| 10> C -2.587111405607782 -0.6118190624779091 -0.3202721865275744
| 11> C -1.2058108703881076 -0.2703849542082984 0.20173589804614658
| 12> H -1.2188552371963497 -0.2430279591393144 1.3035227595797252
| 13> C -0.6942538423001434 1.0646962788555256 -0.33657251573203373
| 14> H -0.7181418608761968 1.040464906351319 -1.437782999949986
| 15> C 0.7404667420129959 1.2804448947823517 0.12454517124273747
| 16> H 0.7368956800247541 1.3976560225646952 1.2214816095263918
| 17> C 1.6281455607597684 0.0886422774095252 -0.2304899448329081
| 18> H 1.7208926950618766 0.002775005767314311 -1.3197078692308921
| 19> C 0.993317904771815 -1.1940092015038735 0.30085779200692314
| 20> H 0.9272486264538622 -1.1728887801984367 1.4022085342053199
| 21> O -0.327561274396195 -1.3171600765890756 -0.24577839230093498
| 22> O 1.7443278762263066 -2.2905731023220897 -0.14342163802402716
| 23> O 2.9535766054627515 0.2745428784595527 0.27087490025238226
| 24> O 1.209525082453361 2.4839510008691956 -0.4931371312465175
| 25> O -1.552419264753049 2.0974869309036626 0.1585904803446176
| 26> O -3.0862885951890937 -1.8293392267114776 0.24470803116906467
| 27> H -2.55493225244265 -0.674311201803479 -1.417779177861041
| 28> H -3.288011265509279 0.17617819603179835 -0.035891156073009266
| 29> H 1.531413237299027 -3.0503858796930414 0.4147354308986666
| 30> H 2.893697850096391 0.37597882083274176 1.2323362371231183
| 31> H 2.0706550555868968 2.6925657501738973 -0.10671041175634113
| 32> H -1.1692955257848243 2.9409326971436713 -0.11880579071277715
| 33> H -2.485766107683015 -2.536116595761142 -0.02685408241976093
| 34> *
| 35>
| 36>                          ****END OF INPUT****

CARTESIAN COORDINATES (ANGSTROEM)
---------------------------------
  C     -2.587111   -0.611819   -0.320272
  C     -1.205811   -0.270385    0.201736
  H     -1.218855   -0.243028    1.303523
  C     -0.694254    1.064696   -0.336573
  H     -0.718142    1.040465   -1.437783
  C      0.740467    1.280445    0.124545
  H      0.736896    1.397656    1.221482
  C      1.628146    0.088642   -0.230490
  H      1.720893    0.002775   -1.319708
  C      0.993318   -1.194009    0.300858
  H      0.927249   -1.172889    1.402209
  O     -0.327561   -1.317160   -0.245778
  O      1.744328   -2.290573   -0.143422
  O      2.953577    0.274543    0.270875
  O      1.209525    2.483951   -0.493137
  O     -1.552419    2.097487    0.158590
  O     -3.086289   -1.829339    0.244708
  H     -2.554932   -0.674311   -1.417779
  H     -3.288011    0.176178   -0.035891
  H      1.531413   -3.050386    0.414735
  H      2.893698    0.375979    1.232336
  H      2.070655    2.692566   -0.106710
  H     -1.169296    2.940933   -0.118806
  H     -2.485766   -2.536117   -0.026854

 Total Charge           Charge          ....    0
 Multiplicity           Mult            ....    1
 Number of Electrons    NEL             ....   96
 Basis Dimension        Dim             ....  444

ORBITAL ENERGIES
----------------

  NO   OCC          E(Eh)            E(eV)
   0   2.0000     -21.691655      -590.2600
   1   2.0000     -21.691188      -590.2472
   2   2.0000     -21.684549      -590.0666
   3   2.0000     -21.682245      -590.0039
   4   2.0000     -21.681931      -589.9953
   5   2.0000     -21.677255      -589.8681
   6   2.0000     -12.152454      -330.6851
   7   2.0000     -12.104281      -329.3742
   8   2.0000     -12.103329      -329.3483
   9   2.0000     -12.102733      -329.3321
  10   2.0000     -12.101635      -329.3022
  11   2.0000     -12.091022      -329.0134
  12   2.0000      -1.722965       -46.8842
  13   2.0000      -1.691218       -46.0204
  14   2.0000      -1.686911       -45.9032
  15   2.0000      -1.681806       -45.7643
  16   2.0000      -1.678859       -45.6841
  17   2.0000      -1.675708       -45.5983
  18   2.0000      -1.333177       -36.2776
  19   2.0000      -1.319488       -35.9051
  20   2.0000      -1.233553       -33.5667
  21   2.0000      -1.195152       -32.5217
  22   2.0000      -1.168572       -31.7985
  23   2.0000      -1.121942       -30.5296
  24   2.0000      -1.094258       -29.7763
  25   2.0000      -1.061635       -28.8886
  26   2.0000      -1.050195       -28.5773
  27   2.0000      -1.041556       -28.3422
  28   2.0000      -1.031136       -28.0586
  29   2.0000      -1.022623       -27.8270
  30   2.0000      -0.992992       -27.0207
  31   2.0000      -0.983962       -26.7750
  32   2.0000      -0.974620       -26.5208
  33   2.0000      -0.972735       -26.4695
  34   2.0000      -0.962523       -26.1916
  35   2.0000      -0.951198       -25.8834
  36   2.0000      -0.942854       -25.6564
  37   2.0000      -0.928340       -25.2614
  38   2.0000      -0.925946       -25.1963
  39   2.0000      -0.910732       -24.7823
  40   2.0000      -0.898740       -24.4560
  41   2.0000      -0.887770       -24.1575
  42   2.0000      -0.842777       -22.9331
  43   2.0000      -0.829980       -22.5849
  44   2.0000      -0.817961       -22.2579
  45   2.0000      -0.805205       -21.9107
  46   2.0000      -0.792253       -21.5583
  47   2.0000      -0.766384       -20.8544
  48   0.0000      -0.237254        -6.4560
  49   0.0000      -0.190838        -5.1930
  50   0.0000      -0.175650        -4.7797
  51   0.0000      -0.150812        -4.1038
  52   0.0000      -0.118169        -3.2155

MULLIKEN ATOMIC CHARGES
-----------------------
   0 C :   -0.013382
   1 C :    0.052511
   2 H :    0.100731
   3 C :    0.082895
   4 H :    0.103911
   5 C :    0.025318
   6 H :    0.117951
   7 C :    0.115284
   8 H :    0.110752
   9 C :    0.068498
  10 H :    0.118800
  11 O :   -0.333536
  12 O :   -0.486800
  13 O :   -0.527920
  14 O :   -0.528988
  15 O :   -0.527381
  16 O :   -0.549387
  17 H :    0.119127
  18 H :    0.129947
  19 H :    0.375979
  20 H :    0.363507
  21 H :    0.363462
  22 H :    0.360963
  23 H :    0.357758
Sum of atomic charges:   -0.0000000

LOEWDIN ATOMIC CHARGES
----------------------
   0 C :   -0.307387
   1 C :   -0.298225
   2 H :    0.152363
   3 C :   -0.296100
   4 H :    0.152047
   5 C :   -0.309929
   6 H :    0.154774
   7 C :   -0.311889
   8 H :    0.156835
   9 C :   -0.402362
  10 H :    0.139667
  11 O :    0.161546
  12 O :   -0.012482
  13 O :   -0.042916
  14 O :   -0.043291
  15 O :   -0.040042
  16 O :   -0.088011
  17 H :    0.129513
  18 H :    0.136842
  19 H :    0.200973
  20 H :    0.197927
  21 H :    0.192171
  22 H :    0.191446
  23 H :    0.186531

  Mayer bond orders larger than 0.100000
B(  0-C ,  1-C ) :   0.9698 B(  0-C , 16-O ) :   0.9819 B(  0-C , 17-H ) :   0.9706
B(  0-C , 18-H ) :   0.9664 B(  1-C ,  2-H ) :   0.9487 B(  1-C ,  3-C ) :   0.9685
B(  1-C , 11-O ) :   0.9538 B(  3-C ,  4-H ) :   0.9486 B(  3-C ,  5-C ) :   0.9747
B(  3-C , 15-O ) :   1.0387 B(  5-C ,  6-H ) :   0.9602 B(  5-C ,  7-C ) :   1.0076
B(  5-C , 14-O ) :   1.0348 B(  7-C ,  8-H ) :   0.9188 B(  7-C ,  9-C ) :   0.9551
B(  7-C , 13-O ) :   0.9895 B(  9-C , 10-H ) :   0.9822 B(  9-C , 11-O ) :   1.0018
B(  9-C , 12-O ) :   1.1998 B( 12-O , 19-H ) :   0.8535 B( 13-O , 20-H ) :   0.8584
B( 14-O , 21-H ) :   0.8588 B( 15-O , 22-H ) :   0.8575 B( 16-O , 23-H ) :   0.8635

FINAL SINGLE POINT ENERGY      -687.287615109324

DIPOLE MOMENT
-------------

Method             : SCF
Type of density    : Electron Density
Multiplicity       :   1
Irrep              :   0
Energy             :  -687.3063555220239778 Eh
Relativity type    :
Basis              : AO
                                X                 Y                 Z
Electronic contribution:      2.332390052      -0.854700578      -0.044105646
Nuclear contribution   :     -1.442661103       1.137254307       1.375082641
                        -----------------------------------------
Total Dipole Moment    :      0.889728950       0.282553730       1.330976995
                        -----------------------------------------
Magnitude (a.u.)       :      1.625716450
Magnitude (Debye)      :      4.132242820

Rotational constants in cm-1:             0.038767             0.026002             0.016303
Rotational constants in MHz :          1162.207045           779.512220           488.744675

                             ****ORCA TERMINATED NORMALLY****
TOTAL RUN TIME: 0 days 0 hours 5 minutes 22 seconds 599 msec
