                         Program Version 6.0.0  -   RELEASE  -
|  1> ! pbe def2-sv(p) def2/J RI DEFGRID1 loosescf d4 GCP(DFT/SV(P)) printgap
|  2> %output
|  3>     printlevel normal
|  4> end
|  5> * xyz 0 1
|  6> C -2.4416917434 -1.0295435494 -0.3843796588
|  7> C -1.0806326977 -0.5560955139 0.13451367
|  8> H -1.1297052722 -0.5605725445 1.2360431932
|  9> C -0.7309948727 0.8677150196 -0.3443467974
| 10> H -0.6710087858 0.8760311811 -1.4385380151
| 11> C 0.6502974466 1.2542504515 0.2121239205
| 12> H 0.5993466213 1.3041473403 1.3128818183
| 13> C 1.6764003922 0.1793621484 -0.1704592886
| 14> H 1.8044472746 0.1941459064 -1.2642787358
| 15> C 1.1731729212 -1.2163574916 0.2516131574
| 16> H 1.1362214722 -1.2566402943 1.3546466933
| 17> O -0.0955164366 -1.475337553 -0.2962018421
| 18> O 2.0416053768 -2.2129483832 -0.1550774015
| 19> O 2.8883778223 0.4900535564 0.4716959708
| 20> O 1.0138112754 2.5067784911 -0.3083498955
| 21> O -1.7278290308 1.7936397747 -0.0274627438
| 22> O -3.4175585178 -0.655400957 0.5577744477
| 23> H -2.3938180742 -2.1208660956 -0.4915538937
| 24> H -2.6388640111 -0.5769534711 -1.361648729
| 25> H 1.8343887642 -2.4610270192 -1.0701244644
| 26> H 3.5066926585 -0.2474912871 0.3567792981
| 27> H 1.9180706454 2.7061155619 -0.0214933274
| 28> H -1.847002128 1.8409377742 0.9322350213
| 29> H -4.2977110418 -0.8236889512 0.1937346466
| 30> *
| 31>
| 32>                          ****END OF INPUT****

CARTESIAN COORDINATES (ANGSTROEM)
---------------------------------
  C     -2.441692   -1.029544   -0.384380
  C     -1.080633   -0.556096    0.134514
  H     -1.129705   -0.560573    1.236043
  C     -0.730995    0.867715   -0.344347
  H     -0.671009    0.876031   -1.438538
  C      0.650297    1.254250    0.212124
  H      0.599347    1.304147    1.312882
  C      1.676400    0.179362   -0.170459
  H      1.804447    0.194146   -1.264279
  C      1.173173   -1.216357    0.251613
  H      1.136221   -1.256640    1.354647
  O     -0.095516   -1.475338   -0.296202
  O      2.041605   -2.212948   -0.155077
  O      2.888378    0.490054    0.471696
  O      1.013811    2.506778   -0.308350
  O     -1.727829    1.793640   -0.027463
  O     -3.417559   -0.655401    0.557774
  H     -2.393818   -2.120866   -0.491554
  H     -2.638864   -0.576953   -1.361649
  H      1.834389   -2.461027   -1.070124
  H      3.506693   -0.247491    0.356779
  H      1.918071    2.706116   -0.021493
  H     -1.847002    1.840938    0.932235
  H     -4.297711   -0.823689    0.193735

 Total Charge           Charge          ....    0
 Multiplicity           Mult            ....    1
 Number of Electrons    NEL             ....   96
 Basis Dimension        Dim             ....  192

ORBITAL ENERGIES
----------------

  NO   OCC          E(Eh)            E(eV)
   0   2.0000     -18.779623      -511.0195
   1   2.0000     -18.770128      -510.7611
   2   2.0000     -18.759177      -510.4632
   3   2.0000     -18.753449      -510.3073
   4   2.0000     -18.745856      -510.1007
   5   2.0000     -18.742501      -510.0094
   6   2.0000      -9.990783      -271.8630
   7   2.0000      -9.947214      -270.6775
   8   2.0000      -9.940333      -270.4902
   9   2.0000      -9.939814      -270.4761
  10   2.0000      -9.939372      -270.4640
  11   2.0000      -9.935058      -270.3467
  12   2.0000      -0.992443       -27.0058
  13   2.0000      -0.941172       -25.6106
  14   2.0000      -0.937648       -25.5147
  15   2.0000      -0.925274       -25.1780
  16   2.0000      -0.920509       -25.0483
  17   2.0000      -0.910528       -24.7767
  18   2.0000      -0.702131       -19.1060
  19   2.0000      -0.693334       -18.8666
  20   2.0000      -0.617932       -16.8148
  21   2.0000      -0.585018       -15.9191
  22   2.0000      -0.554307       -15.0835
  23   2.0000      -0.542744       -14.7688
  24   2.0000      -0.507801       -13.8180
  25   2.0000      -0.493389       -13.4258
  26   2.0000      -0.476630       -12.9698
  27   2.0000      -0.457359       -12.4454
  28   2.0000      -0.439357       -11.9555
  29   2.0000      -0.433482       -11.7957
  30   2.0000      -0.422920       -11.5083
  31   2.0000      -0.410556       -11.1718
  32   2.0000      -0.390069       -10.6143
  33   2.0000      -0.367493       -10.0000
  34   2.0000      -0.351634        -9.5684
  35   2.0000      -0.349219        -9.5027
  36   2.0000      -0.327487        -8.9114
  37   2.0000      -0.322336        -8.7712
  38   2.0000      -0.301602        -8.2070
  39   2.0000      -0.299896        -8.1606
  40   2.0000      -0.284533        -7.7425
  41   2.0000      -0.273092        -7.4312
  42   2.0000      -0.261404        -7.1132
  43   2.0000      -0.243156        -6.6166
  44   2.0000      -0.230209        -6.2643
  45   2.0000      -0.220695        -6.0054
  46   2.0000      -0.212383        -5.7792
  47   2.0000      -0.198314        -5.3964
  48   0.0000       0.017244         0.4692
  49   0.0000       0.019354         0.5266
  50   0.0000       0.032375         0.8810
  51   0.0000       0.046194         1.2570
  52   0.0000       0.055554         1.5117

MULLIKEN ATOMIC CHARGES
-----------------------
   0 C :    0.095987
   1 C :   -0.018957
   2 H :    0.058237
   3 C :    0.072955
   4 H :    0.063340
   5 C :    0.077212
   6 H :    0.037798
   7 C :    0.025289
   8 H :    0.042131
   9 C :    0.182800
  10 H :    0.053925
  11 O :   -0.307772
  12 O :   -0.389916
  13 O :   -0.423842
  14 O :   -0.404716
  15 O :   -0.397290
  16 O :   -0.437174
  17 H :    0.078478
  18 H :    0.071450
  19 H :    0.306506
  20 H :    0.306012
  21 H :    0.306661
  22 H :    0.298194
  23 H :    0.302692
Sum of atomic charges:    0.0000000

LOEWDIN ATOMIC CHARGES
----------------------
   0 C :   -0.118834
   1 C :   -0.065629
   2 H :    0.104620
   3 C :   -0.069508
   4 H :    0.118423
   5 C :   -0.075462
   6 H :    0.096436
   7 C :   -0.101272
   8 H :    0.100153
   9 C :   -0.004399
  10 H :    0.096825
  11 O :   -0.149178
  12 O :   -0.297204
  13 O :   -0.325322
  14 O :   -0.316343
  15 O :   -0.296199
  16 O :   -0.341347
  17 H :    0.100738
  18 H :    0.103447
  19 H :    0.291008
  20 H :    0.287211
  21 H :    0.287802
  22 H :    0.285436
  23 H :    0.288598

  Mayer bond orders larger than 0.100000
B(  0-C ,  1-C ) :   1.0382 B(  0-C , 16-O ) :   1.0961 B(  0-C , 17-H ) :   0.9155
B(  0-C , 18-H ) :   0.9062 B(  1-C ,  2-H ) :   0.8793 B(  1-C ,  3-C ) :   1.0102
B(  1-C , 11-O ) :   0.9809 B(  3-C ,  4-H ) :   0.8590 B(  3-C ,  5-C ) :   1.0004
B(  3-C , 15-O ) :   1.0703 B(  5-C ,  6-H ) :   0.8733 B(  5-C ,  7-C ) :   1.0047
B(  5-C , 14-O ) :   1.1089 B(  7-C ,  8-H ) :   0.8609 B(  7-C ,  9-C ) :   0.9770
B(  7-C , 13-O ) :   1.0650 B(  9-C , 10-H ) :   0.8778 B(  9-C , 11-O ) :   1.0204
B(  9-C , 12-O ) :   1.1167 B( 12-O , 19-H ) :   0.8401 B( 13-O , 20-H ) :   0.8333
B( 14-O , 21-H ) :   0.8400 B( 15-O , 22-H ) :   0.8447 B( 16-O , 23-H ) :   0.8488

Dispersion correction           -0.023674166
FINAL SINGLE POINT ENERGY      -685.693550327554

DIPOLE MOMENT
-------------

Method             : SCF
Type of density    : Electron Density
Multiplicity       :   1
Irrep              :   0
Energy             :  -685.8228549645028806 Eh
Relativity type    :
Basis              : AO
                                X                 Y                 Z
Electronic contribution:      2.013554449       0.308898203       0.043254682
Nuclear contribution   :     -2.033805193      -1.049631099      -0.241568612
                        -----------------------------------------
Total Dipole Moment    :     -0.020250743      -0.740732897      -0.198313930
                        -----------------------------------------
Magnitude (a.u.)       :      0.767087825
Magnitude (Debye)      :      1.949782300

Rotational constants in cm-1:             0.042682             0.024418             0.016443
Rotational constants in MHz :          1279.580406           732.040528           492.944386

                             ****ORCA TERMINATED NORMALLY****
TOTAL RUN TIME: 0 days 0 hours 0 minutes 11 seconds 538 msec
