                         Program Version 6.0.0  -   RELEASE  -
|  1> ! pbe def2-sv(p) def2/J RI DEFGRID1 loosescf d4 GCP(DFT/SV(P)) printgap
|  2> %output
|  3>     printlevel normal
|  4> end
|  5> * xyz 0 1
|  6> C -2.2671318368 -0.9793621943 0.7724802979
|  7> C -0.8291778994 -0.4452218301 0.7616836139
|  8> H -0.5747284901 -0.0873126347 1.7706863821
|  9> C -0.6333176672 0.709148845 -0.2315846122
| 10> H -0.6851288998 0.3073774954 -1.2518730601
| 11> C 0.763955743 1.2955426415 -0.0011177463
| 12> H 0.7160698743 1.9140775262 0.9094591603
| 13> C 1.7942776428 0.1841831222 0.2631035187
| 14> H 2.6719615861 0.4086590745 -0.3569411585
| 15> C 1.2612968007 -1.1933927191 -0.1708977195
| 16> H 1.9586323761 -1.9760871632 0.1741006827
| 17> O 0.039289376 -1.5284715055 0.4366339239
| 18> O 1.1769158898 -1.2048098621 -1.5615913712
| 19> O 2.1033618097 0.1964535639 1.6333428953
| 20> O 1.2028109572 2.0620725047 -1.0920397889
| 21> O -1.5706181605 1.7413801189 -0.0534705093
| 22> O -2.8435356694 -0.8498174199 -0.5093917552
| 23> H -2.8466397485 -0.4085591292 1.5081361382
| 24> H -2.2164467521 -2.027189565 1.0837518232
| 25> H 0.861670829 -2.0717855895 -1.8629867949
| 26> H 2.8812535383 -0.353777848 1.8065333326
| 27> H 0.5341865579 2.7385656044 -1.2777141689
| 28> H -2.4317337676 1.4223422932 -0.3639638897
| 29> H -3.6584061982 -1.3691601242 -0.5475233929
| 30> *
| 31>
| 32>                          ****END OF INPUT****

CARTESIAN COORDINATES (ANGSTROEM)
---------------------------------
  C     -2.267132   -0.979362    0.772480
  C     -0.829178   -0.445222    0.761684
  H     -0.574728   -0.087313    1.770686
  C     -0.633318    0.709149   -0.231585
  H     -0.685129    0.307377   -1.251873
  C      0.763956    1.295543   -0.001118
  H      0.716070    1.914078    0.909459
  C      1.794278    0.184183    0.263104
  H      2.671962    0.408659   -0.356941
  C      1.261297   -1.193393   -0.170898
  H      1.958632   -1.976087    0.174101
  O      0.039289   -1.528472    0.436634
  O      1.176916   -1.204810   -1.561591
  O      2.103362    0.196454    1.633343
  O      1.202811    2.062073   -1.092040
  O     -1.570618    1.741380   -0.053471
  O     -2.843536   -0.849817   -0.509392
  H     -2.846640   -0.408559    1.508136
  H     -2.216447   -2.027190    1.083752
  H      0.861671   -2.071786   -1.862987
  H      2.881254   -0.353778    1.806533
  H      0.534187    2.738566   -1.277714
  H     -2.431734    1.422342   -0.363964
  H     -3.658406   -1.369160   -0.547523

 Total Charge           Charge          ....    0
 Multiplicity           Mult            ....    1
 Number of Electrons    NEL             ....   96
 Basis Dimension        Dim             ....  192

ORBITAL ENERGIES
----------------

  NO   OCC          E(Eh)            E(eV)
   0   2.0000     -18.763870      -510.5909
   1   2.0000     -18.757705      -510.4231
   2   2.0000     -18.752730      -510.2877
   3   2.0000     -18.752585      -510.2838
   4   2.0000     -18.742843      -510.0187
   5   2.0000     -18.733316      -509.7594
   6   2.0000      -9.978290      -271.5231
   7   2.0000      -9.936711      -270.3916
   8   2.0000      -9.935874      -270.3689
   9   2.0000      -9.933917      -270.3156
  10   2.0000      -9.927310      -270.1358
  11   2.0000      -9.923287      -270.0264
  12   2.0000      -0.971489       -26.4356
  13   2.0000      -0.938853       -25.5475
  14   2.0000      -0.929977       -25.3060
  15   2.0000      -0.922342       -25.0982
  16   2.0000      -0.906064       -24.6552
  17   2.0000      -0.901345       -24.5268
  18   2.0000      -0.696073       -18.9411
  19   2.0000      -0.684875       -18.6364
  20   2.0000      -0.617611       -16.8061
  21   2.0000      -0.576715       -15.6932
  22   2.0000      -0.548740       -14.9320
  23   2.0000      -0.509098       -13.8533
  24   2.0000      -0.499495       -13.5919
  25   2.0000      -0.480915       -13.0864
  26   2.0000      -0.468011       -12.7352
  27   2.0000      -0.458481       -12.4759
  28   2.0000      -0.441623       -12.0172
  29   2.0000      -0.427830       -11.6418
  30   2.0000      -0.404956       -11.0194
  31   2.0000      -0.391580       -10.6554
  32   2.0000      -0.370987       -10.0951
  33   2.0000      -0.365535        -9.9467
  34   2.0000      -0.354247        -9.6396
  35   2.0000      -0.346327        -9.4240
  36   2.0000      -0.326883        -8.8949
  37   2.0000      -0.304744        -8.2925
  38   2.0000      -0.301247        -8.1974
  39   2.0000      -0.292214        -7.9515
  40   2.0000      -0.270147        -7.3511
  41   2.0000      -0.256754        -6.9866
  42   2.0000      -0.241493        -6.5714
  43   2.0000      -0.231940        -6.3114
  44   2.0000      -0.227921        -6.2021
  45   2.0000      -0.215533        -5.8650
  46   2.0000      -0.207350        -5.6423
  47   2.0000      -0.195754        -5.3267
  48   0.0000       0.011052         0.3007
  49   0.0000       0.023779         0.6471
  50   0.0000       0.035450         0.9646
  51   0.0000       0.053349         1.4517
  52   0.0000       0.067636         1.8405

MULLIKEN ATOMIC CHARGES
-----------------------
   0 C :    0.031939
   1 C :    0.033072
   2 H :    0.067097
   3 C :    0.042079
   4 H :    0.064862
   5 C :    0.083993
   6 H :    0.068631
   7 C :    0.044861
   8 H :    0.081669
   9 C :    0.156898
  10 H :    0.038801
  11 O :   -0.319690
  12 O :   -0.378151
  13 O :   -0.417047
  14 O :   -0.414473
  15 O :   -0.426364
  16 O :   -0.440522
  17 H :    0.075778
  18 H :    0.087846
  19 H :    0.300606
  20 H :    0.301580
  21 H :    0.302206
  22 H :    0.307400
  23 H :    0.306928
Sum of atomic charges:    0.0000000

LOEWDIN ATOMIC CHARGES
----------------------
   0 C :   -0.131455
   1 C :   -0.060881
   2 H :    0.111315
   3 C :   -0.091728
   4 H :    0.111529
   5 C :   -0.054302
   6 H :    0.110577
   7 C :   -0.072388
   8 H :    0.117701
   9 C :   -0.012117
  10 H :    0.085828
  11 O :   -0.153201
  12 O :   -0.307222
  13 O :   -0.311028
  14 O :   -0.316934
  15 O :   -0.326016
  16 O :   -0.340239
  17 H :    0.099502
  18 H :    0.110402
  19 H :    0.284814
  20 H :    0.287201
  21 H :    0.286025
  22 H :    0.281404
  23 H :    0.291213

  Mayer bond orders larger than 0.100000
B(  0-C ,  1-C ) :   1.0482 B(  0-C , 16-O ) :   1.0703 B(  0-C , 17-H ) :   0.9137
B(  0-C , 18-H ) :   0.9167 B(  1-C ,  2-H ) :   0.8799 B(  1-C ,  3-C ) :   1.0438
B(  1-C , 11-O ) :   0.9737 B(  3-C ,  4-H ) :   0.8201 B(  3-C ,  5-C ) :   1.0941
B(  3-C , 15-O ) :   1.0845 B(  5-C ,  6-H ) :   0.8760 B(  5-C ,  7-C ) :   0.9863
B(  5-C , 14-O ) :   1.0928 B(  7-C ,  8-H ) :   0.8705 B(  7-C ,  9-C ) :   1.0412
B(  7-C , 13-O ) :   1.0347 B(  9-C , 10-H ) :   0.8940 B(  9-C , 11-O ) :   1.0667
B(  9-C , 12-O ) :   1.1438 B( 12-O , 19-H ) :   0.8403 B( 13-O , 20-H ) :   0.8475
B( 14-O , 21-H ) :   0.8436 B( 15-O , 22-H ) :   0.8306 B( 16-O , 23-H ) :   0.8474

Dispersion correction           -0.024768466
FINAL SINGLE POINT ENERGY      -685.689759626531

DIPOLE MOMENT
-------------

Method             : SCF
Type of density    : Electron Density
Multiplicity       :   1
Irrep              :   0
Energy             :  -685.8197441829273657 Eh
Relativity type    :
Basis              : AO
                                X                 Y                 Z
Electronic contribution:      1.821377106       0.307166067      -1.368762670
Nuclear contribution   :     -2.615243156      -1.403754229       1.476267531
                        -----------------------------------------
Total Dipole Moment    :     -0.793866050      -1.096588162       0.107504861
                        -----------------------------------------
Magnitude (a.u.)       :      1.358044991
Magnitude (Debye)      :      3.451876041

Rotational constants in cm-1:             0.041368             0.026878             0.022257
Rotational constants in MHz :          1240.170968           805.780540           667.250793

                             ****ORCA TERMINATED NORMALLY****
TOTAL RUN TIME: 0 days 0 hours 0 minutes 12 seconds 211 msec
