                         Program Version 6.0.0  -   RELEASE  -
|  1> ! pbe def2-sv(p) def2/J RI DEFGRID1 loosescf d4 GCP(DFT/SV(P)) printgap
|  2> %output
|  3>     printlevel normal
|  4> end
|  5> * xyz 0 1
|  6> C -2.1079983771 -1.04207328 -0.1908860677
|  7> C -1.1097798878 -0.4215478474 0.8034715977
|  8> H -1.5998117556 -0.4441252863 1.7848156264
|  9> C -0.7723726804 1.0553057007 0.5120481191
| 10> H -1.6576893638 1.5266255963 0.0709729651
| 11> C 0.4382952424 1.2655807858 -0.4264077144
| 12> H 0.7635667729 2.3086055287 -0.2623986028
| 13> C 1.5943905924 0.3334578916 -0.0209610588
| 14> H 2.3456613489 0.349700701 -0.8195938534
| 15> C 1.0961525228 -1.1215966826 0.0911929433
| 16> H 1.8925145605 -1.7308436773 0.536855322
| 17> O 0.0417961284 -1.2342083661 1.0143401294
| 18> O 0.8158530991 -1.679610587 -1.1445497417
| 19> O 2.1360259176 0.7005468898 1.2261177867
| 20> O 0.188566749 1.0485773274 -1.7879294835
| 21> O -0.538945976 1.748685674 1.7173034879
| 22> O -1.7911629387 -0.7149428148 -1.5260238254
| 23> H -3.1061999095 -0.6624929093 0.05949982
| 24> H -2.0834723865 -2.1270419008 -0.0361375663
| 25> H 0.121849742 -1.1481212385 -1.5908440165
| 26> H 2.77537021 1.4177734984 1.1088025944
| 27> H -0.5738477958 1.5705538518 -2.0747113273
| 28> H 0.256446178 1.3752095987 2.1328336738
| 29> H -2.3970038336 -1.1808856847 -2.1189258342
| 30> *
| 31>
| 32>                          ****END OF INPUT****

CARTESIAN COORDINATES (ANGSTROEM)
---------------------------------
  C     -2.107998   -1.042073   -0.190886
  C     -1.109780   -0.421548    0.803472
  H     -1.599812   -0.444125    1.784816
  C     -0.772373    1.055306    0.512048
  H     -1.657689    1.526626    0.070973
  C      0.438295    1.265581   -0.426408
  H      0.763567    2.308606   -0.262399
  C      1.594391    0.333458   -0.020961
  H      2.345661    0.349701   -0.819594
  C      1.096153   -1.121597    0.091193
  H      1.892515   -1.730844    0.536855
  O      0.041796   -1.234208    1.014340
  O      0.815853   -1.679611   -1.144550
  O      2.136026    0.700547    1.226118
  O      0.188567    1.048577   -1.787929
  O     -0.538946    1.748686    1.717303
  O     -1.791163   -0.714943   -1.526024
  H     -3.106200   -0.662493    0.059500
  H     -2.083472   -2.127042   -0.036138
  H      0.121850   -1.148121   -1.590844
  H      2.775370    1.417773    1.108803
  H     -0.573848    1.570554   -2.074711
  H      0.256446    1.375210    2.132834
  H     -2.397004   -1.180886   -2.118926

 Total Charge           Charge          ....    0
 Multiplicity           Mult            ....    1
 Number of Electrons    NEL             ....   96
 Basis Dimension        Dim             ....  192

ORBITAL ENERGIES
----------------

  NO   OCC          E(Eh)            E(eV)
   0   2.0000     -18.773717      -510.8588
   1   2.0000     -18.767621      -510.6929
   2   2.0000     -18.757990      -510.4309
   3   2.0000     -18.751134      -510.2443
   4   2.0000     -18.738384      -509.8974
   5   2.0000     -18.729061      -509.6437
   6   2.0000      -9.968213      -271.2489
   7   2.0000      -9.942575      -270.5512
   8   2.0000      -9.942498      -270.5491
   9   2.0000      -9.942470      -270.5484
  10   2.0000      -9.941506      -270.5221
  11   2.0000      -9.939703      -270.4731
  12   2.0000      -0.968558       -26.3558
  13   2.0000      -0.945542       -25.7295
  14   2.0000      -0.937605       -25.5135
  15   2.0000      -0.932338       -25.3702
  16   2.0000      -0.917623       -24.9698
  17   2.0000      -0.887083       -24.1388
  18   2.0000      -0.698431       -19.0053
  19   2.0000      -0.686857       -18.6903
  20   2.0000      -0.618728       -16.8365
  21   2.0000      -0.586782       -15.9671
  22   2.0000      -0.566888       -15.4258
  23   2.0000      -0.517066       -14.0701
  24   2.0000      -0.498308       -13.5597
  25   2.0000      -0.484184       -13.1753
  26   2.0000      -0.471338       -12.8258
  27   2.0000      -0.453970       -12.3532
  28   2.0000      -0.439836       -11.9685
  29   2.0000      -0.424137       -11.5414
  30   2.0000      -0.416992       -11.3469
  31   2.0000      -0.409974       -11.1560
  32   2.0000      -0.393090       -10.6965
  33   2.0000      -0.375193       -10.2095
  34   2.0000      -0.356973        -9.7137
  35   2.0000      -0.341266        -9.2863
  36   2.0000      -0.323633        -8.8065
  37   2.0000      -0.310215        -8.4414
  38   2.0000      -0.308600        -8.3974
  39   2.0000      -0.284677        -7.7464
  40   2.0000      -0.279188        -7.5971
  41   2.0000      -0.266888        -7.2624
  42   2.0000      -0.251921        -6.8551
  43   2.0000      -0.242309        -6.5936
  44   2.0000      -0.231115        -6.2890
  45   2.0000      -0.215347        -5.8599
  46   2.0000      -0.203449        -5.5361
  47   2.0000      -0.199361        -5.4249
  48   0.0000       0.004694         0.1277
  49   0.0000       0.013912         0.3786
  50   0.0000       0.032052         0.8722
  51   0.0000       0.057023         1.5517
  52   0.0000       0.066160         1.8003

MULLIKEN ATOMIC CHARGES
-----------------------
   0 C :    0.015551
   1 C :    0.032101
   2 H :    0.082017
   3 C :    0.074010
   4 H :    0.058140
   5 C :    0.026394
   6 H :    0.054654
   7 C :    0.001234
   8 H :    0.085047
   9 C :    0.205213
  10 H :    0.065770
  11 O :   -0.306719
  12 O :   -0.421553
  13 O :   -0.412645
  14 O :   -0.398688
  15 O :   -0.437284
  16 O :   -0.437694
  17 H :    0.076801
  18 H :    0.094730
  19 H :    0.317275
  20 H :    0.310456
  21 H :    0.302428
  22 H :    0.301024
  23 H :    0.311739
Sum of atomic charges:   -0.0000000

LOEWDIN ATOMIC CHARGES
----------------------
   0 C :   -0.141136
   1 C :   -0.069895
   2 H :    0.127330
   3 C :   -0.067867
   4 H :    0.111597
   5 C :   -0.085742
   6 H :    0.095443
   7 C :   -0.090121
   8 H :    0.114755
   9 C :   -0.000804
  10 H :    0.109081
  11 O :   -0.146276
  12 O :   -0.317370
  13 O :   -0.307679
  14 O :   -0.303068
  15 O :   -0.323826
  16 O :   -0.326713
  17 H :    0.103942
  18 H :    0.110787
  19 H :    0.264973
  20 H :    0.292933
  21 H :    0.283350
  22 H :    0.274321
  23 H :    0.291987

  Mayer bond orders larger than 0.100000
B(  0-C ,  1-C ) :   1.0630 B(  0-C , 16-O ) :   1.0402 B(  0-C , 17-H ) :   0.9098
B(  0-C , 18-H ) :   0.9113 B(  1-C ,  2-H ) :   0.8899 B(  1-C ,  3-C ) :   0.9836
B(  1-C , 11-O ) :   1.0300 B(  3-C ,  4-H ) :   0.8918 B(  3-C ,  5-C ) :   0.9622
B(  3-C , 15-O ) :   1.0400 B(  5-C ,  6-H ) :   0.8982 B(  5-C ,  7-C ) :   0.9725
B(  5-C , 14-O ) :   1.0740 B(  7-C ,  8-H ) :   0.8966 B(  7-C ,  9-C ) :   0.9897
B(  7-C , 13-O ) :   1.0462 B(  9-C , 10-H ) :   0.9030 B(  9-C , 11-O ) :   1.0336
B(  9-C , 12-O ) :   1.1626 B( 12-O , 19-H ) :   0.7723 B( 13-O , 20-H ) :   0.8429
B( 14-O , 21-H ) :   0.8369 B( 15-O , 22-H ) :   0.8204 B( 16-O , 23-H ) :   0.8408

Dispersion correction           -0.026590465
FINAL SINGLE POINT ENERGY      -685.694405912507

DIPOLE MOMENT
-------------

Method             : SCF
Type of density    : Electron Density
Multiplicity       :   1
Irrep              :   0
Energy             :  -685.8275879837708544 Eh
Relativity type    :
Basis              : AO
                                X                 Y                 Z
Electronic contribution:      2.366991581      -0.511829487       0.501542017
Nuclear contribution   :     -3.048265139       1.175424183      -1.141507541
                        -----------------------------------------
Total Dipole Moment    :     -0.681273559       0.663594696      -0.639965524
                        -----------------------------------------
Magnitude (a.u.)       :      1.146319089
Magnitude (Debye)      :      2.913711569

Rotational constants in cm-1:             0.040340             0.031331             0.027937
Rotational constants in MHz :          1209.363431           939.289600           837.523442

                             ****ORCA TERMINATED NORMALLY****
TOTAL RUN TIME: 0 days 0 hours 0 minutes 12 seconds 316 msec
