                         Program Version 6.0.0  -   RELEASE  -
|  1> ! wb97x-v def2-tzvp def2/J RIJCOSX DEFGRID2 scfconv7 GCP(DFT/TZ) printgap
|  2> %output
|  3>     printlevel normal
|  4> end
|  5> * xyz 0 1
|  6> C 1.2043909813055877 -1.318697724536704 0.004316040479238226
|  7> C 0.4878416335459416 -0.022678343186220817 -0.4066323773665415
|  8> C 0.9583187377529718 1.153382661276527 0.44278087068780536
|  9> C -0.9987136359215866 -0.24389292739843926 -0.37540651669445396
| 10> C -1.8969537428335608 0.44579554033024876 0.3278158155218639
| 11> H 0.8865415845234061 -2.1630746955047857 -0.6161158973474131
| 12> H 0.9820870426579422 -1.5622109584878316 1.0496732162656268
| 13> H 2.288947509599919 -1.2093373751827614 -0.0984764734969702
| 14> H 0.7575017273654321 0.1765689795320376 -1.4553055827698103
| 15> H 2.042850709040124 1.2712657010536692 0.35493203701529086
| 16> H 0.4905114564403347 2.0925593926509203 0.13023549565815234
| 17> H 0.7230708332185743 0.9914725275838455 1.5009448566441896
| 18> H -1.345456605834426 -1.0737405201612862 -0.9935294374380913
| 19> H -2.952053605025547 0.19065930401790937 0.28438745652956426
| 20> H -1.6194967864957515 1.2809946564499364 0.9649529489544403
| 21> *
| 22>
| 23>                          ****END OF INPUT****

CARTESIAN COORDINATES (ANGSTROEM)
---------------------------------
  C      1.204391   -1.318698    0.004316
  C      0.487842   -0.022678   -0.406632
  C      0.958319    1.153383    0.442781
  C     -0.998714   -0.243893   -0.375407
  C     -1.896954    0.445796    0.327816
  H      0.886542   -2.163075   -0.616116
  H      0.982087   -1.562211    1.049673
  H      2.288948   -1.209337   -0.098476
  H      0.757502    0.176569   -1.455306
  H      2.042851    1.271266    0.354932
  H      0.490511    2.092559    0.130235
  H      0.723071    0.991473    1.500945
  H     -1.345457   -1.073741   -0.993529
  H     -2.952054    0.190659    0.284387
  H     -1.619497    1.280995    0.964953

 Total Charge           Charge          ....    0
 Multiplicity           Mult            ....    1
 Number of Electrons    NEL             ....   40
 Basis Dimension        Dim             ....  215

ORBITAL ENERGIES
----------------

  NO   OCC          E(Eh)            E(eV)
   0   2.0000     -12.054601      -328.0224
   1   2.0000     -12.047693      -327.8344
   2   2.0000     -12.036374      -327.5264
   3   2.0000     -12.035156      -327.4932
   4   2.0000     -12.033846      -327.4576
   5   2.0000      -1.328585       -36.1526
   6   2.0000      -1.251921       -34.0665
   7   2.0000      -1.177891       -32.0520
   8   2.0000      -1.099193       -29.9106
   9   2.0000      -0.996449       -27.1148
  10   2.0000      -0.912935       -24.8422
  11   2.0000      -0.896260       -24.3885
  12   2.0000      -0.875631       -23.8271
  13   2.0000      -0.833580       -22.6829
  14   2.0000      -0.814394       -22.1608
  15   2.0000      -0.808296       -21.9948
  16   2.0000      -0.783103       -21.3093
  17   2.0000      -0.769981       -20.9523
  18   2.0000      -0.761426       -20.7194
  19   2.0000      -0.646867       -17.6021
  20   0.0000      -0.192321        -5.2333
  21   0.0000      -0.025447        -0.6924
  22   0.0000      -0.012757        -0.3471
  23   0.0000      -0.006461        -0.1758
  24   0.0000       0.000562         0.0153

MULLIKEN ATOMIC CHARGES
-----------------------
   0 C :   -0.350836
   1 C :    0.072073
   2 C :   -0.385443
   3 C :   -0.160852
   4 C :   -0.279702
   5 H :    0.110418
   6 H :    0.111119
   7 H :    0.110116
   8 H :    0.073191
   9 H :    0.114191
  10 H :    0.124510
  11 H :    0.114651
  12 H :    0.106409
  13 H :    0.118466
  14 H :    0.121689
Sum of atomic charges:    0.0000000

LOEWDIN ATOMIC CHARGES
----------------------
   0 C :   -0.274899
   1 C :   -0.301353
   2 C :   -0.279414
   3 C :   -0.178253
   4 C :   -0.215737
   5 H :    0.117826
   6 H :    0.120871
   7 H :    0.117378
   8 H :    0.154113
   9 H :    0.119725
  10 H :    0.120566
  11 H :    0.120816
  12 H :    0.140134
  13 H :    0.118574
  14 H :    0.119653

  Mayer bond orders larger than 0.100000
B(  0-C ,  1-C ) :   0.9591 B(  0-C ,  5-H ) :   0.9817 B(  0-C ,  6-H ) :   0.9751
B(  0-C ,  7-H ) :   0.9796 B(  1-C ,  2-C ) :   0.9712 B(  1-C ,  3-C ) :   0.9703
B(  1-C ,  8-H ) :   0.9597 B(  2-C ,  9-H ) :   0.9808 B(  2-C , 10-H ) :   0.9828
B(  2-C , 11-H ) :   0.9753 B(  3-C ,  4-C ) :   1.9654 B(  3-C , 12-H ) :   0.9636
B(  4-C , 13-H ) :   0.9710 B(  4-C , 14-H ) :   0.9670

FINAL SINGLE POINT ENERGY      -196.535748361693

DIPOLE MOMENT
-------------

Method             : SCF
Type of density    : Electron Density
Multiplicity       :   1
Irrep              :   0
Energy             :  -196.5454602568931364 Eh
Relativity type    :
Basis              : AO
                                X                 Y                 Z
Electronic contribution:     -2.050970606      -0.009023912      -0.986123958
Nuclear contribution   :      2.204953561      -0.026238179       0.912553768
                        -----------------------------------------
Total Dipole Moment    :      0.153982955      -0.035262092      -0.073570191
                        -----------------------------------------
Magnitude (a.u.)       :      0.174260547
Magnitude (Debye)      :      0.442935111

Rotational constants in cm-1:             0.243200             0.131241             0.096445
Rotational constants in MHz :          7290.954027          3934.500063          2891.361796

                             ****ORCA TERMINATED NORMALLY****
TOTAL RUN TIME: 0 days 0 hours 1 minutes 11 seconds 629 msec
