                         Program Version 6.0.0  -   RELEASE  -
|  1> ! wb97x-v def2-tzvp def2/J RIJCOSX DEFGRID2 scfconv7 GCP(DFT/TZ) printgap
|  2> %output
|  3>     printlevel normal
|  4> end
|  5> %cpcm
|  6>     smd true
|  7>     smdsolvent "water"
|  8> end
|  9> * xyz 0 1
| 10> C 1.2043909813055877 -1.318697724536704 0.004316040479238226
| 11> C 0.4878416335459416 -0.022678343186220817 -0.4066323773665415
| 12> C 0.9583187377529718 1.153382661276527 0.44278087068780536
| 13> C -0.9987136359215866 -0.24389292739843926 -0.37540651669445396
| 14> C -1.8969537428335608 0.44579554033024876 0.3278158155218639
| 15> H 0.8865415845234061 -2.1630746955047857 -0.6161158973474131
| 16> H 0.9820870426579422 -1.5622109584878316 1.0496732162656268
| 17> H 2.288947509599919 -1.2093373751827614 -0.0984764734969702
| 18> H 0.7575017273654321 0.1765689795320376 -1.4553055827698103
| 19> H 2.042850709040124 1.2712657010536692 0.35493203701529086
| 20> H 0.4905114564403347 2.0925593926509203 0.13023549565815234
| 21> H 0.7230708332185743 0.9914725275838455 1.5009448566441896
| 22> H -1.345456605834426 -1.0737405201612862 -0.9935294374380913
| 23> H -2.952053605025547 0.19065930401790937 0.28438745652956426
| 24> H -1.6194967864957515 1.2809946564499364 0.9649529489544403
| 25> *
| 26>
| 27>                          ****END OF INPUT****

CARTESIAN COORDINATES (ANGSTROEM)
---------------------------------
  C      1.204391   -1.318698    0.004316
  C      0.487842   -0.022678   -0.406632
  C      0.958319    1.153383    0.442781
  C     -0.998714   -0.243893   -0.375407
  C     -1.896954    0.445796    0.327816
  H      0.886542   -2.163075   -0.616116
  H      0.982087   -1.562211    1.049673
  H      2.288948   -1.209337   -0.098476
  H      0.757502    0.176569   -1.455306
  H      2.042851    1.271266    0.354932
  H      0.490511    2.092559    0.130235
  H      0.723071    0.991473    1.500945
  H     -1.345457   -1.073741   -0.993529
  H     -2.952054    0.190659    0.284387
  H     -1.619497    1.280995    0.964953

 Total Charge           Charge          ....    0
 Multiplicity           Mult            ....    1
 Number of Electrons    NEL             ....   40
 Basis Dimension        Dim             ....  215

ORBITAL ENERGIES
----------------

  NO   OCC          E(Eh)            E(eV)
   0   2.0000     -12.046867      -327.8119
   1   2.0000     -12.044799      -327.7556
   2   2.0000     -12.031304      -327.3884
   3   2.0000     -12.027360      -327.2811
   4   2.0000     -12.024704      -327.2088
   5   2.0000      -1.323123       -36.0040
   6   2.0000      -1.247441       -33.9446
   7   2.0000      -1.169420       -31.8215
   8   2.0000      -1.092932       -29.7402
   9   2.0000      -0.990837       -26.9620
  10   2.0000      -0.907411       -24.6919
  11   2.0000      -0.890848       -24.2412
  12   2.0000      -0.867934       -23.6177
  13   2.0000      -0.826209       -22.4823
  14   2.0000      -0.807031       -21.9604
  15   2.0000      -0.799602       -21.7583
  16   2.0000      -0.774547       -21.0765
  17   2.0000      -0.762772       -20.7561
  18   2.0000      -0.754050       -20.5188
  19   2.0000      -0.645863       -17.5748
  20   0.0000      -0.190992        -5.1971
  21   0.0000      -0.017138        -0.4663
  22   0.0000      -0.005569        -0.1515
  23   0.0000       0.002118         0.0576
  24   0.0000       0.009567         0.2603

MULLIKEN ATOMIC CHARGES
-----------------------
   0 C :   -0.402213
   1 C :    0.082225
   2 C :   -0.419924
   3 C :   -0.214266
   4 C :   -0.366487
   5 H :    0.130404
   6 H :    0.120294
   7 H :    0.129234
   8 H :    0.089762
   9 H :    0.133178
  10 H :    0.134154
  11 H :    0.125075
  12 H :    0.144800
  13 H :    0.156224
  14 H :    0.157539
Sum of atomic charges:    0.0000000

LOEWDIN ATOMIC CHARGES
----------------------
   0 C :   -0.280257
   1 C :   -0.300587
   2 C :   -0.284048
   3 C :   -0.185393
   4 C :   -0.237174
   5 H :    0.121472
   6 H :    0.121388
   7 H :    0.121200
   8 H :    0.159059
   9 H :    0.122987
  10 H :    0.122016
  11 H :    0.122562
  12 H :    0.147493
  13 H :    0.123819
  14 H :    0.125461

  Mayer bond orders larger than 0.100000
B(  0-C ,  1-C ) :   0.9514 B(  0-C ,  5-H ) :   0.9787 B(  0-C ,  6-H ) :   0.9729
B(  0-C ,  7-H ) :   0.9773 B(  1-C ,  2-C ) :   0.9704 B(  1-C ,  3-C ) :   0.9643
B(  1-C ,  8-H ) :   0.9558 B(  2-C ,  9-H ) :   0.9783 B(  2-C , 10-H ) :   0.9797
B(  2-C , 11-H ) :   0.9710 B(  3-C ,  4-C ) :   1.9401 B(  3-C , 12-H ) :   0.9633
B(  4-C , 13-H ) :   0.9697 B(  4-C , 14-H ) :   0.9651

FINAL SINGLE POINT ENERGY      -196.533791675259

DIPOLE MOMENT
-------------

Method             : SCF
Type of density    : Electron Density
Multiplicity       :   1
Irrep              :   0
Energy             :  -196.5435035704594213 Eh
Relativity type    :
Basis              : AO
                                X                 Y                 Z
Electronic contribution:     -1.975320763      -0.033743646      -1.038315364
Nuclear contribution   :      2.204953561      -0.026238179       0.912553768
                        -----------------------------------------
Total Dipole Moment    :      0.229632798      -0.059981825      -0.125761597
                        -----------------------------------------
Magnitude (a.u.)       :      0.268598251
Magnitude (Debye)      :      0.682722497

Rotational constants in cm-1:             0.243200             0.131241             0.096445
Rotational constants in MHz :          7290.954027          3934.500063          2891.361796

                             ****ORCA TERMINATED NORMALLY****
TOTAL RUN TIME: 0 days 0 hours 1 minutes 12 seconds 217 msec
