                         Program Version 6.0.0  -   RELEASE  -
|  1> ! pbe def2-sv(p) def2/J RI DEFGRID1 loosescf d4 GCP(DFT/SV(P)) printgap
|  2> %output
|  3>     printlevel normal
|  4> end
|  5> * xyz 0 1
|  6> C 1.532285783 1.1922974527 4.4309e-05
|  7> C 0.1501596806 1.2398715011 -4.64709e-05
|  8> C -0.5525549563 0.0322182735 -0.0001358528
|  9> C 0.1757268684 -1.1640116636 -3.6842e-05
| 10> N 1.4921677052 -1.1981198646 4.81239e-05
| 11> C 2.1540952119 -0.0497288975 0.000194529
| 12> C -1.9620390176 0.0056796811 -0.0003206489
| 13> N -3.1098924842 -0.0244240059 0.0002910492
| 14> H 2.1164490194 2.0974313671 -9.67287e-05
| 15> H -0.3833351245 2.1783323373 2.19907e-05
| 16> H -0.3302048669 -2.1195470935 -0.0003255575
| 17> H 3.2311224286 -0.1378388523 -0.0007265028
| 18> *
| 19>
| 20>                          ****END OF INPUT****

CARTESIAN COORDINATES (ANGSTROEM)
---------------------------------
  C      1.532286    1.192297    0.000044
  C      0.150160    1.239872   -0.000046
  C     -0.552555    0.032218   -0.000136
  C      0.175727   -1.164012   -0.000037
  N      1.492168   -1.198120    0.000048
  C      2.154095   -0.049729    0.000195
  C     -1.962039    0.005680   -0.000321
  N     -3.109892   -0.024424    0.000291
  H      2.116449    2.097431   -0.000097
  H     -0.383335    2.178332    0.000022
  H     -0.330205   -2.119547   -0.000326
  H      3.231122   -0.137839   -0.000727

 Total Charge           Charge          ....    0
 Multiplicity           Mult            ....    1
 Number of Electrons    NEL             ....   54
 Basis Dimension        Dim             ....  120

ORBITAL ENERGIES
----------------

  NO   OCC          E(Eh)            E(eV)
   0   2.0000     -14.011118      -381.2619
   1   2.0000     -13.995902      -380.8479
   2   2.0000      -9.958823      -270.9933
   3   2.0000      -9.957518      -270.9578
   4   2.0000      -9.952524      -270.8219
   5   2.0000      -9.945040      -270.6183
   6   2.0000      -9.940024      -270.4818
   7   2.0000      -9.930857      -270.2323
   8   2.0000      -0.890895       -24.2425
   9   2.0000      -0.829282       -22.5659
  10   2.0000      -0.764801       -20.8113
  11   2.0000      -0.725665       -19.7463
  12   2.0000      -0.622006       -16.9257
  13   2.0000      -0.597728       -16.2650
  14   2.0000      -0.527521       -14.3546
  15   2.0000      -0.478828       -13.0296
  16   2.0000      -0.471000       -12.8166
  17   2.0000      -0.420863       -11.4523
  18   2.0000      -0.401036       -10.9127
  19   2.0000      -0.389317       -10.5939
  20   2.0000      -0.361895        -9.8477
  21   2.0000      -0.340754        -9.2724
  22   2.0000      -0.313485        -8.5304
  23   2.0000      -0.309634        -8.4256
  24   2.0000      -0.289443        -7.8762
  25   2.0000      -0.261258        -7.1092
  26   2.0000      -0.231400        -6.2967
  27   0.0000      -0.100033        -2.7220
  28   0.0000      -0.081351        -2.2137
  29   0.0000      -0.008855        -0.2410
  30   0.0000       0.022939         0.6242
  31   0.0000       0.028923         0.7870

MULLIKEN ATOMIC CHARGES
-----------------------
   0 C :   -0.060650
   1 C :    0.003649
   2 C :   -0.120311
   3 C :   -0.032208
   4 N :   -0.043319
   5 C :   -0.047262
   6 C :   -0.107140
   7 N :    0.078175
   8 H :    0.078215
   9 H :    0.081240
  10 H :    0.083049
  11 H :    0.086562
Sum of atomic charges:    0.0000000

LOEWDIN ATOMIC CHARGES
----------------------
   0 C :   -0.130798
   1 C :   -0.064063
   2 C :   -0.093628
   3 C :   -0.045005
   4 N :   -0.059843
   5 C :   -0.060803
   6 C :   -0.037033
   7 N :   -0.040965
   8 H :    0.137441
   9 H :    0.142425
  10 H :    0.129506
  11 H :    0.122767

  Mayer bond orders larger than 0.100000
B(  0-C ,  1-C ) :   1.4056 B(  0-C ,  5-C ) :   1.3705 B(  0-C ,  8-H ) :   0.9463
B(  1-C ,  2-C ) :   1.3918 B(  1-C ,  9-H ) :   0.9580 B(  2-C ,  3-C ) :   1.3259
B(  2-C ,  6-C ) :   1.1053 B(  3-C ,  4-N ) :   1.5626 B(  3-C , 10-H ) :   0.9566
B(  4-N ,  5-C ) :   1.5314 B(  5-C , 11-H ) :   0.9525 B(  6-C ,  7-N ) :   2.9910

Dispersion correction           -0.012432289
FINAL SINGLE POINT ENERGY      -339.820992648678

DIPOLE MOMENT
-------------

Method             : SCF
Type of density    : Electron Density
Multiplicity       :   1
Irrep              :   0
Energy             :  -339.8496792701890286 Eh
Relativity type    :
Basis              : AO
                                X                 Y                 Z
Electronic contribution:     -3.115056558      -1.148131615       0.000592174
Nuclear contribution   :      4.338623908       1.886859086      -0.001055266
                        -----------------------------------------
Total Dipole Moment    :      1.223567349       0.738727471      -0.000463092
                        -----------------------------------------
Magnitude (a.u.)       :      1.429277982
Magnitude (Debye)      :      3.632935916

Rotational constants in cm-1:             0.196623             0.053274             0.041917
Rotational constants in MHz :          5894.621056          1597.120273          1256.639619

                             ****ORCA TERMINATED NORMALLY****
TOTAL RUN TIME: 0 days 0 hours 0 minutes 5 seconds 595 msec
