                         Program Version 6.0.0  -   RELEASE  -
|  1> ! pbe def2-sv(p) def2/J RI DEFGRID1 loosescf d4 GCP(DFT/SV(P)) printgap
|  2> %output
|  3>     printlevel normal
|  4> end
|  5> * xyz 0 1
|  6> C -2.2255749687 -0.9726502003 -0.3902057252
|  7> C -1.1641849944 -0.2153408649 0.4271636565
|  8> H -1.6336112851 0.1884754693 1.3344759572
|  9> C -0.5791178548 0.9386965172 -0.4000151712
| 10> H -0.4382043635 0.6202974655 -1.4386100761
| 11> C 0.7910837452 1.3279280841 0.1779032336
| 12> H 0.6808710852 1.5203664132 1.2606595544
| 13> C 1.7644914383 0.1561398283 -0.0182064942
| 14> H 2.1581280264 0.2000983883 -1.0384107011
| 15> C 1.0154337726 -1.1927856805 0.1413012826
| 16> H 1.6576842279 -1.8712051906 0.7212018923
| 17> O -0.1436518108 -1.0758553678 0.9300439161
| 18> O 0.7526380468 -1.7011721846 -1.1269121085
| 19> O 2.8835247049 0.2260081233 0.8209251857
| 20> O 1.2982849026 2.4794061638 -0.4452387385
| 21> O -1.4376191089 2.0464209504 -0.4610404033
| 22> O -2.8283251862 -2.0290583177 0.3107378965
| 23> H -1.7569417337 -1.4229406333 -1.266673529
| 24> H -2.971455454 -0.2405418013 -0.727479344
| 25> H 0.4797088308 -2.6298176851 -1.0640825347
| 26> H 2.6036197934 0.3291099003 1.7428713519
| 27> H 0.547822863 3.0030152901 -0.7743716129
| 28> H -1.6500560403 2.3527922376 0.4345010933
| 29> H -3.267710773 -1.6888367773 1.1028099116
| 30> *
| 31>
| 32>                          ****END OF INPUT****

CARTESIAN COORDINATES (ANGSTROEM)
---------------------------------
  C     -2.225575   -0.972650   -0.390206
  C     -1.164185   -0.215341    0.427164
  H     -1.633611    0.188475    1.334476
  C     -0.579118    0.938697   -0.400015
  H     -0.438204    0.620297   -1.438610
  C      0.791084    1.327928    0.177903
  H      0.680871    1.520366    1.260660
  C      1.764491    0.156140   -0.018206
  H      2.158128    0.200098   -1.038411
  C      1.015434   -1.192786    0.141301
  H      1.657684   -1.871205    0.721202
  O     -0.143652   -1.075855    0.930044
  O      0.752638   -1.701172   -1.126912
  O      2.883525    0.226008    0.820925
  O      1.298285    2.479406   -0.445239
  O     -1.437619    2.046421   -0.461040
  O     -2.828325   -2.029058    0.310738
  H     -1.756942   -1.422941   -1.266674
  H     -2.971455   -0.240542   -0.727479
  H      0.479709   -2.629818   -1.064083
  H      2.603620    0.329110    1.742871
  H      0.547823    3.003015   -0.774372
  H     -1.650056    2.352792    0.434501
  H     -3.267711   -1.688837    1.102810

 Total Charge           Charge          ....    0
 Multiplicity           Mult            ....    1
 Number of Electrons    NEL             ....   96
 Basis Dimension        Dim             ....  192

ORBITAL ENERGIES
----------------

  NO   OCC          E(Eh)            E(eV)
   0   2.0000     -18.778867      -510.9990
   1   2.0000     -18.770017      -510.7581
   2   2.0000     -18.769897      -510.7549
   3   2.0000     -18.749461      -510.1988
   4   2.0000     -18.748438      -510.1709
   5   2.0000     -18.744741      -510.0703
   6   2.0000      -9.985321      -271.7144
   7   2.0000      -9.953386      -270.8454
   8   2.0000      -9.953065      -270.8367
   9   2.0000      -9.944983      -270.6168
  10   2.0000      -9.938468      -270.4395
  11   2.0000      -9.932717      -270.2830
  12   2.0000      -0.984810       -26.7980
  13   2.0000      -0.959997       -26.1229
  14   2.0000      -0.931962       -25.3600
  15   2.0000      -0.927709       -25.2442
  16   2.0000      -0.914960       -24.8973
  17   2.0000      -0.913772       -24.8650
  18   2.0000      -0.710690       -19.3389
  19   2.0000      -0.691923       -18.8282
  20   2.0000      -0.620785       -16.8924
  21   2.0000      -0.595528       -16.2051
  22   2.0000      -0.570535       -15.5251
  23   2.0000      -0.536743       -14.6055
  24   2.0000      -0.509573       -13.8662
  25   2.0000      -0.492401       -13.3989
  26   2.0000      -0.480933       -13.0868
  27   2.0000      -0.451495       -12.2858
  28   2.0000      -0.439741       -11.9660
  29   2.0000      -0.433582       -11.7984
  30   2.0000      -0.422163       -11.4876
  31   2.0000      -0.407962       -11.1012
  32   2.0000      -0.385808       -10.4984
  33   2.0000      -0.380117       -10.3435
  34   2.0000      -0.361240        -9.8298
  35   2.0000      -0.354959        -9.6589
  36   2.0000      -0.343801        -9.3553
  37   2.0000      -0.310926        -8.4607
  38   2.0000      -0.305189        -8.3046
  39   2.0000      -0.287723        -7.8294
  40   2.0000      -0.282430        -7.6853
  41   2.0000      -0.276170        -7.5150
  42   2.0000      -0.269516        -7.3339
  43   2.0000      -0.245019        -6.6673
  44   2.0000      -0.235011        -6.3950
  45   2.0000      -0.228579        -6.2200
  46   2.0000      -0.213025        -5.7967
  47   2.0000      -0.201385        -5.4800
  48   0.0000       0.004460         0.1214
  49   0.0000       0.016753         0.4559
  50   0.0000       0.023871         0.6496
  51   0.0000       0.035200         0.9578
  52   0.0000       0.051844         1.4108

MULLIKEN ATOMIC CHARGES
-----------------------
   0 C :    0.067511
   1 C :    0.054081
   2 H :    0.035170
   3 C :   -0.032060
   4 H :    0.090963
   5 C :    0.060183
   6 H :    0.019186
   7 C :    0.110447
   8 H :    0.083999
   9 C :    0.142785
  10 H :    0.065731
  11 O :   -0.313064
  12 O :   -0.394384
  13 O :   -0.411388
  14 O :   -0.404743
  15 O :   -0.409088
  16 O :   -0.425029
  17 H :    0.082270
  18 H :    0.074783
  19 H :    0.313326
  20 H :    0.296931
  21 H :    0.297394
  22 H :    0.301877
  23 H :    0.293118
Sum of atomic charges:    0.0000000

LOEWDIN ATOMIC CHARGES
----------------------
   0 C :   -0.139011
   1 C :   -0.075185
   2 H :    0.100826
   3 C :   -0.088601
   4 H :    0.127256
   5 C :   -0.077293
   6 H :    0.089420
   7 C :   -0.073222
   8 H :    0.130100
   9 C :   -0.012302
  10 H :    0.100225
  11 O :   -0.151186
  12 O :   -0.305120
  13 O :   -0.305185
  14 O :   -0.318927
  15 O :   -0.301339
  16 O :   -0.333652
  17 H :    0.114390
  18 H :    0.099867
  19 H :    0.292378
  20 H :    0.282086
  21 H :    0.277176
  22 H :    0.285533
  23 H :    0.281765

  Mayer bond orders larger than 0.100000
B(  0-C ,  1-C ) :   1.0440 B(  0-C , 16-O ) :   1.0873 B(  0-C , 17-H ) :   0.9020
B(  0-C , 18-H ) :   0.9121 B(  1-C ,  2-H ) :   0.8778 B(  1-C ,  3-C ) :   0.9550
B(  1-C , 11-O ) :   0.9947 B(  3-C ,  4-H ) :   0.8724 B(  3-C ,  5-C ) :   1.0280
B(  3-C , 15-O ) :   1.0037 B(  5-C ,  6-H ) :   0.8460 B(  5-C ,  7-C ) :   1.0132
B(  5-C , 14-O ) :   1.1276 B(  7-C ,  8-H ) :   0.8658 B(  7-C ,  9-C ) :   0.9675
B(  7-C , 13-O ) :   1.0543 B(  9-C , 10-H ) :   0.8981 B(  9-C , 11-O ) :   1.0669
B(  9-C , 12-O ) :   1.0991 B( 12-O , 19-H ) :   0.8316 B( 13-O , 20-H ) :   0.8489
B( 14-O , 21-H ) :   0.8238 B( 15-O , 22-H ) :   0.8431 B( 16-O , 23-H ) :   0.8537

Dispersion correction           -0.024440335
FINAL SINGLE POINT ENERGY      -685.687597880954

DIPOLE MOMENT
-------------

Method             : SCF
Type of density    : Electron Density
Multiplicity       :   1
Irrep              :   0
Energy             :  -685.8173990148823123 Eh
Relativity type    :
Basis              : AO
                                X                 Y                 Z
Electronic contribution:      2.302824738      -0.210083712       0.633949463
Nuclear contribution   :     -3.360391183       0.337700351       0.269575913
                        -----------------------------------------
Total Dipole Moment    :     -1.057566445       0.127616640       0.903525376
                        -----------------------------------------
Magnitude (a.u.)       :      1.396814553
Magnitude (Debye)      :      3.550420438

Rotational constants in cm-1:             0.042669             0.025805             0.018602
Rotational constants in MHz :          1279.196766           773.607477           557.662591

                             ****ORCA TERMINATED NORMALLY****
TOTAL RUN TIME: 0 days 0 hours 0 minutes 11 seconds 853 msec
