                         Program Version 6.0.0  -   RELEASE  -
|  1> ! pbe def2-sv(p) def2/J RI DEFGRID1 loosescf d4 GCP(DFT/SV(P)) printgap
|  2> %output
|  3>     printlevel normal
|  4> end
|  5> * xyz 0 1
|  6> C -1.9300740529 -0.6702477278 -0.8180609343
|  7> C -1.1654413884 -0.174356172 0.4238104302
|  8> H -1.8791434349 -0.1762442835 1.2582339051
|  9> C -0.6146199183 1.2542896707 0.273686352
| 10> H -1.3470853719 1.8544584758 -0.2823550828
| 11> C 0.7145083737 1.2968375103 -0.5118442975
| 12> H 1.1161887795 2.3132057225 -0.4099406142
| 13> C 1.7129078976 0.3135933542 0.113676561
| 14> H 2.5870067906 0.2230412376 -0.5416489955
| 15> C 1.0767221239 -1.0899640483 0.2128448681
| 16> H 1.7113832442 -1.7001246657 0.870164231
| 17> O -0.1709107627 -1.1068049859 0.8562511733
| 18> O 1.021081381 -1.6217483335 -1.0823656299
| 19> O 2.1931650683 0.7430760118 1.3570869542
| 20> O 0.5246931252 1.07306844 -1.8839398213
| 21> O -0.3517762541 1.8336176754 1.5336342343
| 22> O -2.9234388547 -1.6084356042 -0.4761453351
| 23> H -1.2356180955 -1.0937403216 -1.5494441269
| 24> H -2.4592810432 0.1639836048 -1.281234269
| 25> H 0.9445456735 -2.5870087748 -1.0556516795
| 26> H 1.4467941124 1.0895180832 1.8780505845
| 27> H 0.6118532173 0.1241887182 -2.0683089343
| 28> H -1.1787702623 1.9714100881 2.0176557501
| 29> H -2.5111606646 -2.3581480663 -0.024283038
| 30> *
| 31>
| 32>                          ****END OF INPUT****

CARTESIAN COORDINATES (ANGSTROEM)
---------------------------------
  C     -1.930074   -0.670248   -0.818061
  C     -1.165441   -0.174356    0.423810
  H     -1.879143   -0.176244    1.258234
  C     -0.614620    1.254290    0.273686
  H     -1.347085    1.854458   -0.282355
  C      0.714508    1.296838   -0.511844
  H      1.116189    2.313206   -0.409941
  C      1.712908    0.313593    0.113677
  H      2.587007    0.223041   -0.541649
  C      1.076722   -1.089964    0.212845
  H      1.711383   -1.700125    0.870164
  O     -0.170911   -1.106805    0.856251
  O      1.021081   -1.621748   -1.082366
  O      2.193165    0.743076    1.357087
  O      0.524693    1.073068   -1.883940
  O     -0.351776    1.833618    1.533634
  O     -2.923439   -1.608436   -0.476145
  H     -1.235618   -1.093740   -1.549444
  H     -2.459281    0.163984   -1.281234
  H      0.944546   -2.587009   -1.055652
  H      1.446794    1.089518    1.878051
  H      0.611853    0.124189   -2.068309
  H     -1.178770    1.971410    2.017656
  H     -2.511161   -2.358148   -0.024283

 Total Charge           Charge          ....    0
 Multiplicity           Mult            ....    1
 Number of Electrons    NEL             ....   96
 Basis Dimension        Dim             ....  192

ORBITAL ENERGIES
----------------

  NO   OCC          E(Eh)            E(eV)
   0   2.0000     -18.787266      -511.2275
   1   2.0000     -18.777462      -510.9607
   2   2.0000     -18.773678      -510.8578
   3   2.0000     -18.749172      -510.1909
   4   2.0000     -18.747179      -510.1367
   5   2.0000     -18.739350      -509.9236
   6   2.0000      -9.991471      -271.8817
   7   2.0000      -9.951752      -270.8009
   8   2.0000      -9.949588      -270.7420
   9   2.0000      -9.943118      -270.5660
  10   2.0000      -9.940476      -270.4941
  11   2.0000      -9.932319      -270.2721
  12   2.0000      -0.991412       -26.9777
  13   2.0000      -0.954732       -25.9796
  14   2.0000      -0.931081       -25.3360
  15   2.0000      -0.927589       -25.2410
  16   2.0000      -0.919864       -25.0308
  17   2.0000      -0.914256       -24.8782
  18   2.0000      -0.708179       -19.2705
  19   2.0000      -0.688872       -18.7452
  20   2.0000      -0.628835       -17.1115
  21   2.0000      -0.590350       -16.0642
  22   2.0000      -0.576905       -15.6984
  23   2.0000      -0.528084       -14.3699
  24   2.0000      -0.520197       -14.1553
  25   2.0000      -0.490412       -13.3448
  26   2.0000      -0.478494       -13.0205
  27   2.0000      -0.461803       -12.5663
  28   2.0000      -0.446331       -12.1453
  29   2.0000      -0.424158       -11.5419
  30   2.0000      -0.417112       -11.3502
  31   2.0000      -0.402254       -10.9459
  32   2.0000      -0.390773       -10.6335
  33   2.0000      -0.385414       -10.4876
  34   2.0000      -0.367094        -9.9891
  35   2.0000      -0.360641        -9.8135
  36   2.0000      -0.335512        -9.1297
  37   2.0000      -0.326510        -8.8848
  38   2.0000      -0.311096        -8.4654
  39   2.0000      -0.296670        -8.0728
  40   2.0000      -0.279717        -7.6115
  41   2.0000      -0.269405        -7.3309
  42   2.0000      -0.262529        -7.1438
  43   2.0000      -0.249058        -6.7772
  44   2.0000      -0.243889        -6.6366
  45   2.0000      -0.225854        -6.1458
  46   2.0000      -0.209255        -5.6941
  47   2.0000      -0.205788        -5.5998
  48   0.0000       0.000958         0.0261
  49   0.0000       0.007060         0.1921
  50   0.0000       0.037987         1.0337
  51   0.0000       0.045868         1.2481
  52   0.0000       0.060428         1.6443

MULLIKEN ATOMIC CHARGES
-----------------------
   0 C :    0.045056
   1 C :    0.021466
   2 H :    0.059183
   3 C :    0.028919
   4 H :    0.080658
   5 C :    0.051022
   6 H :    0.084743
   7 C :    0.031756
   8 H :    0.085013
   9 C :    0.175330
  10 H :    0.075981
  11 O :   -0.322349
  12 O :   -0.409293
  13 O :   -0.427585
  14 O :   -0.423982
  15 O :   -0.426603
  16 O :   -0.436705
  17 H :    0.076770
  18 H :    0.086790
  19 H :    0.313338
  20 H :    0.304651
  21 H :    0.319182
  22 H :    0.312705
  23 H :    0.293952
Sum of atomic charges:    0.0000000

LOEWDIN ATOMIC CHARGES
----------------------
   0 C :   -0.143561
   1 C :   -0.075861
   2 H :    0.112975
   3 C :   -0.077106
   4 H :    0.111851
   5 C :   -0.065737
   6 H :    0.118900
   7 C :   -0.082847
   8 H :    0.120936
   9 C :   -0.012411
  10 H :    0.105972
  11 O :   -0.152161
  12 O :   -0.311299
  13 O :   -0.317663
  14 O :   -0.315299
  15 O :   -0.309917
  16 O :   -0.339634
  17 H :    0.099188
  18 H :    0.116633
  19 H :    0.293402
  20 H :    0.273933
  21 H :    0.276280
  22 H :    0.292856
  23 H :    0.280571

  Mayer bond orders larger than 0.100000
B(  0-C ,  1-C ) :   1.0408 B(  0-C , 16-O ) :   1.0519 B(  0-C , 17-H ) :   0.8971
B(  0-C , 18-H ) :   0.9148 B(  1-C ,  2-H ) :   0.8914 B(  1-C ,  3-C ) :   0.9781
B(  1-C , 11-O ) :   0.9785 B(  3-C ,  4-H ) :   0.8955 B(  3-C ,  5-C ) :   0.9648
B(  3-C , 15-O ) :   0.9982 B(  5-C ,  6-H ) :   0.8992 B(  5-C ,  7-C ) :   1.0150
B(  5-C , 14-O ) :   1.0922 B(  7-C ,  8-H ) :   0.8947 B(  7-C ,  9-C ) :   0.9709
B(  7-C , 13-O ) :   1.0754 B(  9-C , 10-H ) :   0.9037 B(  9-C , 11-O ) :   1.0680
B(  9-C , 12-O ) :   1.0647 B( 12-O , 19-H ) :   0.8321 B( 13-O , 20-H ) :   0.8093
B( 14-O , 21-H ) :   0.8052 B( 15-O , 22-H ) :   0.8402 B( 16-O , 23-H ) :   0.8510

Dispersion correction           -0.025780195
FINAL SINGLE POINT ENERGY      -685.695850165165

DIPOLE MOMENT
-------------

Method             : SCF
Type of density    : Electron Density
Multiplicity       :   1
Irrep              :   0
Energy             :  -685.8283972880705051 Eh
Relativity type    :
Basis              : AO
                                X                 Y                 Z
Electronic contribution:      1.612431410      -0.551978629       1.481612078
Nuclear contribution   :     -2.053338489      -0.174792415      -1.110749906
                        -----------------------------------------
Total Dipole Moment    :     -0.440907079      -0.726771044       0.370862172
                        -----------------------------------------
Magnitude (a.u.)       :      0.927434069
Magnitude (Debye)      :      2.357350063

Rotational constants in cm-1:             0.041721             0.027285             0.024063
Rotational constants in MHz :          1250.777089           817.990216           721.389378

                             ****ORCA TERMINATED NORMALLY****
TOTAL RUN TIME: 0 days 0 hours 0 minutes 12 seconds 622 msec
