                         Program Version 6.0.0  -   RELEASE  -
|  1> ! pbe def2-sv(p) def2/J RI DEFGRID1 loosescf d4 GCP(DFT/SV(P)) printgap
|  2> %output
|  3>     printlevel normal
|  4> end
|  5> * xyz 0 1
|  6> C -3.2380701733 -0.7197940583 0.8848071076
|  7> N -2.0160679378 -0.0696055138 0.446747804
|  8> C -1.4523116685 0.9402198752 1.3142979191
|  9> C -1.5929796372 -0.3315668598 -0.8046812607
| 10> O -2.2774998252 -0.973415175 -1.6083692453
| 11> N -0.3815819761 0.2039445545 -1.2066671476
| 12> C 0.8292313571 0.1802111634 -0.4994117804
| 13> C 1.8696506325 1.0006596514 -0.9312250203
| 14> C 3.077270788 1.0047191618 -0.259888686
| 15> C 3.2663543217 0.1921229703 0.8463499309
| 16> C 2.2424072765 -0.6403387137 1.2647516226
| 17> C 1.0319155006 -0.6552708321 0.5958442855
| 18> H -3.0671885656 -1.788847512 1.0239214869
| 19> H -4.0152691444 -0.6013645114 0.1280523962
| 20> H -3.5614398137 -0.2793669539 1.8216823587
| 21> H -0.7849734842 1.5875163314 0.75278986
| 22> H -0.8952433869 0.4876589718 2.1376074419
| 23> H -2.2622499424 1.5446920518 1.7225092497
| 24> H -0.2833648819 0.2101503923 -2.2138392915
| 25> H 1.7225586218 1.6319615664 -1.7942915129
| 26> H 3.8745496067 1.6468037818 -0.6019452796
| 27> H 4.2088619532 0.1997001073 1.3709788988
| 28> H 2.3880316539 -1.293373633 2.1117937775
| 29> H 0.2487056856 -1.3312601033 0.9028365251
| 30> *
| 31>
| 32>                          ****END OF INPUT****

CARTESIAN COORDINATES (ANGSTROEM)
---------------------------------
  C     -3.238070   -0.719794    0.884807
  N     -2.016068   -0.069606    0.446748
  C     -1.452312    0.940220    1.314298
  C     -1.592980   -0.331567   -0.804681
  O     -2.277500   -0.973415   -1.608369
  N     -0.381582    0.203945   -1.206667
  C      0.829231    0.180211   -0.499412
  C      1.869651    1.000660   -0.931225
  C      3.077271    1.004719   -0.259889
  C      3.266354    0.192123    0.846350
  C      2.242407   -0.640339    1.264752
  C      1.031916   -0.655271    0.595844
  H     -3.067189   -1.788848    1.023921
  H     -4.015269   -0.601365    0.128052
  H     -3.561440   -0.279367    1.821682
  H     -0.784973    1.587516    0.752790
  H     -0.895243    0.487659    2.137607
  H     -2.262250    1.544692    1.722509
  H     -0.283365    0.210150   -2.213839
  H      1.722559    1.631962   -1.794292
  H      3.874550    1.646804   -0.601945
  H      4.208862    0.199700    1.370979
  H      2.388032   -1.293374    2.111794
  H      0.248706   -1.331260    0.902837

 Total Charge           Charge          ....    0
 Multiplicity           Mult            ....    1
 Number of Electrons    NEL             ....   88
 Basis Dimension        Dim             ....  192

ORBITAL ENERGIES
----------------

  NO   OCC          E(Eh)            E(eV)
   0   2.0000     -18.700390      -508.8635
   1   2.0000     -14.024327      -381.6213
   2   2.0000     -14.016747      -381.4151
   3   2.0000      -9.997237      -272.0386
   4   2.0000      -9.941487      -270.5216
   5   2.0000      -9.921669      -269.9823
   6   2.0000      -9.914994      -269.8007
   7   2.0000      -9.897328      -269.3200
   8   2.0000      -9.897121      -269.3144
   9   2.0000      -9.895589      -269.2727
  10   2.0000      -9.895114      -269.2597
  11   2.0000      -9.890520      -269.1347
  12   2.0000      -0.941811       -25.6280
  13   2.0000      -0.847993       -23.0751
  14   2.0000      -0.842823       -22.9344
  15   2.0000      -0.769973       -20.9520
  16   2.0000      -0.678189       -18.4545
  17   2.0000      -0.670701       -18.2507
  18   2.0000      -0.654675       -17.8146
  19   2.0000      -0.631963       -17.1966
  20   2.0000      -0.561636       -15.2829
  21   2.0000      -0.554146       -15.0791
  22   2.0000      -0.508700       -13.8424
  23   2.0000      -0.494503       -13.4561
  24   2.0000      -0.467153       -12.7119
  25   2.0000      -0.439576       -11.9615
  26   2.0000      -0.431810       -11.7502
  27   2.0000      -0.420626       -11.4458
  28   2.0000      -0.401815       -10.9340
  29   2.0000      -0.392929       -10.6921
  30   2.0000      -0.380949       -10.3661
  31   2.0000      -0.376712       -10.2509
  32   2.0000      -0.365703        -9.9513
  33   2.0000      -0.355462        -9.6726
  34   2.0000      -0.346388        -9.4257
  35   2.0000      -0.333858        -9.0848
  36   2.0000      -0.327457        -8.9106
  37   2.0000      -0.320061        -8.7093
  38   2.0000      -0.307944        -8.3796
  39   2.0000      -0.266262        -7.2454
  40   2.0000      -0.234648        -6.3851
  41   2.0000      -0.209531        -5.7016
  42   2.0000      -0.198608        -5.4044
  43   2.0000      -0.186502        -5.0750
  44   0.0000      -0.040644        -1.1060
  45   0.0000      -0.035880        -0.9763
  46   0.0000       0.017268         0.4699
  47   0.0000       0.035847         0.9754
  48   0.0000       0.048754         1.3267

MULLIKEN ATOMIC CHARGES
-----------------------
   0 C :   -0.152584
   1 N :   -0.256368
   2 C :   -0.186175
   3 C :    0.103368
   4 O :   -0.246335
   5 N :   -0.229379
   6 C :    0.150117
   7 C :   -0.118687
   8 C :   -0.058831
   9 C :   -0.041193
  10 C :   -0.065309
  11 C :   -0.110655
  12 H :    0.114484
  13 H :    0.128091
  14 H :    0.103687
  15 H :    0.147528
  16 H :    0.116279
  17 H :    0.115889
  18 H :    0.241335
  19 H :    0.031468
  20 H :    0.054220
  21 H :    0.050631
  22 H :    0.052807
  23 H :    0.055613
Sum of atomic charges:    0.0000000

LOEWDIN ATOMIC CHARGES
----------------------
   0 C :   -0.244917
   1 N :   -0.066355
   2 C :   -0.252784
   3 C :    0.016275
   4 O :   -0.235539
   5 N :   -0.147937
   6 C :   -0.005567
   7 C :   -0.145894
   8 C :   -0.115381
   9 C :   -0.141839
  10 C :   -0.116286
  11 C :   -0.146130
  12 H :    0.120829
  13 H :    0.128267
  14 H :    0.117716
  15 H :    0.134127
  16 H :    0.113628
  17 H :    0.117734
  18 H :    0.245320
  19 H :    0.123214
  20 H :    0.124915
  21 H :    0.123271
  22 H :    0.124667
  23 H :    0.128666

  Mayer bond orders larger than 0.100000
B(  0-C ,  1-N ) :   1.0025 B(  0-C , 12-H ) :   0.9562 B(  0-C , 13-H ) :   0.9447
B(  0-C , 14-H ) :   0.9478 B(  1-N ,  2-C ) :   1.0148 B(  1-N ,  3-C ) :   1.1710
B(  2-C , 15-H ) :   0.9407 B(  2-C , 16-H ) :   0.9383 B(  2-C , 17-H ) :   0.9421
B(  3-C ,  4-O ) :   2.0213 B(  3-C ,  5-N ) :   1.1020 B(  5-N ,  6-C ) :   1.0367
B(  5-N , 18-H ) :   0.8456 B(  6-C ,  7-C ) :   1.3540 B(  6-C , 11-C ) :   1.3678
B(  7-C ,  8-C ) :   1.3775 B(  7-C , 19-H ) :   0.9672 B(  8-C ,  9-C ) :   1.3666
B(  8-C , 20-H ) :   0.9603 B(  9-C , 10-C ) :   1.3744 B(  9-C , 21-H ) :   0.9674
B( 10-C , 11-C ) :   1.3605 B( 10-C , 22-H ) :   0.9619 B( 11-C , 23-H ) :   0.9502

Dispersion correction           -0.027296060
FINAL SINGLE POINT ENERGY      -533.765965268604

DIPOLE MOMENT
-------------

Method             : SCF
Type of density    : Electron Density
Multiplicity       :   1
Irrep              :   0
Energy             :  -533.8438347740244581 Eh
Relativity type    :
Basis              : AO
                                X                 Y                 Z
Electronic contribution:      2.716721144      -1.219852723      -5.970546116
Nuclear contribution   :     -2.323856665       1.876041334       6.878894360
                        -----------------------------------------
Total Dipole Moment    :      0.392864479       0.656188610       0.908348244
                        -----------------------------------------
Magnitude (a.u.)       :      1.187443693
Magnitude (Debye)      :      3.018242003

Rotational constants in cm-1:             0.068798             0.019496             0.017373
Rotational constants in MHz :          2062.510650           584.464120           520.830035

                             ****ORCA TERMINATED NORMALLY****
TOTAL RUN TIME: 0 days 0 hours 0 minutes 13 seconds 359 msec
