                         Program Version 6.0.0  -   RELEASE  -
|  1> ! wb97x-v def2-tzvp def2/J RIJCOSX DEFGRID2 scfconv7 GCP(DFT/TZ) printgap
|  2> %output
|  3>     printlevel normal
|  4> end
|  5> * xyz 0 1
|  6> C -2.499677023938798 -1.186665986405729 -0.012618885819807734
|  7> C -1.7204736495084114 0.0899325362961505 0.0011319176672025828
|  8> O -2.2773086966418394 1.1834955806092338 0.010503725179864937
|  9> C -0.22287313258793118 0.018623934270715254 -0.0003359582691095985
| 10> C 0.5237462703031552 1.1984222651775154 -0.006212509243912653
| 11> C 1.907464736913207 1.116235092787102 -0.006222443050852774
| 12> N 2.5841272488375653 -0.04364781178611626 -3.987103231784231e-05
| 13> C 1.8585890637261924 -1.1698972841917017 0.006284995062590116
| 14> C 0.4689316890640753 -1.1931509132852212 0.005740590238112835
| 15> H -3.567327134843398 -0.9675730002779837 -0.02001506766255694
| 16> H -2.2503501108392654 -1.790222064484051 0.8673545231845915
| 17> H -2.2355800385289792 -1.7838195081163295 -0.8925023371267026
| 18> H 0.03147551608487691 2.164067420604623 -0.010998113505011078
| 19> H 2.5056325826776886 2.0240836899924624 -0.011032159338252873
| 20> H 2.4145590227557006 -2.104143281208299 0.011101653930099183
| 21> H -0.04730177144615806 -2.1457992228071636 0.010845061995168652
| 22> *
| 23>
| 24>                          ****END OF INPUT****

CARTESIAN COORDINATES (ANGSTROEM)
---------------------------------
  C     -2.499677   -1.186666   -0.012619
  C     -1.720474    0.089933    0.001132
  O     -2.277309    1.183496    0.010504
  C     -0.222873    0.018624   -0.000336
  C      0.523746    1.198422   -0.006213
  C      1.907465    1.116235   -0.006222
  N      2.584127   -0.043648   -0.000040
  C      1.858589   -1.169897    0.006285
  C      0.468932   -1.193151    0.005741
  H     -3.567327   -0.967573   -0.020015
  H     -2.250350   -1.790222    0.867355
  H     -2.235580   -1.783820   -0.892502
  H      0.031476    2.164067   -0.010998
  H      2.505633    2.024084   -0.011032
  H      2.414559   -2.104143    0.011102
  H     -0.047302   -2.145799    0.010845

 Total Charge           Charge          ....    0
 Multiplicity           Mult            ....    1
 Number of Electrons    NEL             ....   64
 Basis Dimension        Dim             ....  321

ORBITAL ENERGIES
----------------

  NO   OCC          E(Eh)            E(eV)
   0   2.0000     -21.675365      -589.8167
   1   2.0000     -16.540977      -450.1029
   2   2.0000     -12.156707      -330.8008
   3   2.0000     -12.098166      -329.2078
   4   2.0000     -12.095623      -329.1386
   5   2.0000     -12.089460      -328.9709
   6   2.0000     -12.078215      -328.6649
   7   2.0000     -12.071126      -328.4720
   8   2.0000     -12.065078      -328.3075
   9   2.0000      -1.719224       -46.7825
  10   2.0000      -1.531358       -41.6704
  11   2.0000      -1.373301       -37.3694
  12   2.0000      -1.311846       -35.6972
  13   2.0000      -1.278957       -34.8022
  14   2.0000      -1.184122       -32.2216
  15   2.0000      -1.166998       -31.7556
  16   2.0000      -1.101636       -29.9770
  17   2.0000      -1.033695       -28.1283
  18   2.0000      -1.017299       -27.6821
  19   2.0000      -0.969250       -26.3746
  20   2.0000      -0.958524       -26.0828
  21   2.0000      -0.934508       -25.4293
  22   2.0000      -0.922745       -25.1092
  23   2.0000      -0.899581       -24.4788
  24   2.0000      -0.850106       -23.1326
  25   2.0000      -0.847058       -23.0496
  26   2.0000      -0.844335       -22.9755
  27   2.0000      -0.841772       -22.9058
  28   2.0000      -0.828891       -22.5553
  29   2.0000      -0.779269       -21.2050
  30   2.0000      -0.721260       -19.6265
  31   2.0000      -0.664603       -18.0848
  32   0.0000      -0.372407       -10.1337
  33   0.0000      -0.259971        -7.0742
  34   0.0000      -0.255739        -6.9590
  35   0.0000      -0.096922        -2.6374
  36   0.0000      -0.085917        -2.3379

MULLIKEN ATOMIC CHARGES
-----------------------
   0 C :   -0.364804
   1 C :    0.208800
   2 O :   -0.306420
   3 C :    0.019207
   4 C :   -0.104324
   5 C :   -0.034676
   6 N :   -0.207752
   7 C :   -0.064537
   8 C :   -0.123276
   9 H :    0.148446
  10 H :    0.138509
  11 H :    0.139068
  12 H :    0.157681
  13 H :    0.129574
  14 H :    0.127729
  15 H :    0.136773
Sum of atomic charges:    0.0000000

LOEWDIN ATOMIC CHARGES
----------------------
   0 C :   -0.254129
   1 C :   -0.292032
   2 O :    0.124203
   3 C :   -0.113831
   4 C :   -0.088018
   5 C :   -0.190688
   6 N :    0.131770
   7 C :   -0.195297
   8 C :   -0.113078
   9 H :    0.134682
  10 H :    0.137418
  11 H :    0.137202
  12 H :    0.157275
  13 H :    0.138006
  14 H :    0.137202
  15 H :    0.149316

  Mayer bond orders larger than 0.100000
B(  0-C ,  1-C ) :   1.0090 B(  0-C ,  9-H ) :   0.9771 B(  0-C , 10-H ) :   0.9541
B(  0-C , 11-H ) :   0.9559 B(  1-C ,  2-O ) :   2.1177 B(  1-C ,  3-C ) :   0.9310
B(  2-O ,  3-C ) :  -0.1128 B(  3-C ,  4-C ) :   1.4032 B(  3-C ,  8-C ) :   1.3468
B(  4-C ,  5-C ) :   1.4044 B(  4-C , 12-H ) :   0.9404 B(  5-C ,  6-N ) :   1.4774
B(  5-C , 13-H ) :   0.9886 B(  6-N ,  7-C ) :   1.5190 B(  7-C ,  8-C ) :   1.4123
B(  7-C , 14-H ) :   0.9914 B(  8-C , 15-H ) :   0.9590

FINAL SINGLE POINT ENERGY      -400.948586020732

DIPOLE MOMENT
-------------

Method             : SCF
Type of density    : Electron Density
Multiplicity       :   1
Irrep              :   0
Energy             :  -400.9571585013315485 Eh
Relativity type    :
Basis              : AO
                                X                 Y                 Z
Electronic contribution:      2.732084665       3.342593946       0.031573629
Nuclear contribution   :     -2.994281144      -4.309850292      -0.040932352
                        -----------------------------------------
Total Dipole Moment    :     -0.262196479      -0.967256346      -0.009358723
                        -----------------------------------------
Magnitude (a.u.)       :      1.002207273
Magnitude (Debye)      :      2.547408442

Rotational constants in cm-1:             0.127608             0.040564             0.030957
Rotational constants in MHz :          3825.602921          1216.075386           928.065278

                             ****ORCA TERMINATED NORMALLY****
TOTAL RUN TIME: 0 days 0 hours 3 minutes 25 seconds 451 msec
