                         Program Version 6.0.0  -   RELEASE  -
|  1> ! wb97x-v def2-tzvp def2/J RIJCOSX DEFGRID2 scfconv7 GCP(DFT/TZ) printgap
|  2> %output
|  3>     printlevel normal
|  4> end
|  5> %cpcm
|  6>     smd true
|  7>     smdsolvent "water"
|  8> end
|  9> * xyz 0 1
| 10> C -2.499677023938798 -1.186665986405729 -0.012618885819807734
| 11> C -1.7204736495084114 0.0899325362961505 0.0011319176672025828
| 12> O -2.2773086966418394 1.1834955806092338 0.010503725179864937
| 13> C -0.22287313258793118 0.018623934270715254 -0.0003359582691095985
| 14> C 0.5237462703031552 1.1984222651775154 -0.006212509243912653
| 15> C 1.907464736913207 1.116235092787102 -0.006222443050852774
| 16> N 2.5841272488375653 -0.04364781178611626 -3.987103231784231e-05
| 17> C 1.8585890637261924 -1.1698972841917017 0.006284995062590116
| 18> C 0.4689316890640753 -1.1931509132852212 0.005740590238112835
| 19> H -3.567327134843398 -0.9675730002779837 -0.02001506766255694
| 20> H -2.2503501108392654 -1.790222064484051 0.8673545231845915
| 21> H -2.2355800385289792 -1.7838195081163295 -0.8925023371267026
| 22> H 0.03147551608487691 2.164067420604623 -0.010998113505011078
| 23> H 2.5056325826776886 2.0240836899924624 -0.011032159338252873
| 24> H 2.4145590227557006 -2.104143281208299 0.011101653930099183
| 25> H -0.04730177144615806 -2.1457992228071636 0.010845061995168652
| 26> *
| 27>
| 28>                          ****END OF INPUT****

CARTESIAN COORDINATES (ANGSTROEM)
---------------------------------
  C     -2.499677   -1.186666   -0.012619
  C     -1.720474    0.089933    0.001132
  O     -2.277309    1.183496    0.010504
  C     -0.222873    0.018624   -0.000336
  C      0.523746    1.198422   -0.006213
  C      1.907465    1.116235   -0.006222
  N      2.584127   -0.043648   -0.000040
  C      1.858589   -1.169897    0.006285
  C      0.468932   -1.193151    0.005741
  H     -3.567327   -0.967573   -0.020015
  H     -2.250350   -1.790222    0.867355
  H     -2.235580   -1.783820   -0.892502
  H      0.031476    2.164067   -0.010998
  H      2.505633    2.024084   -0.011032
  H      2.414559   -2.104143    0.011102
  H     -0.047302   -2.145799    0.010845

 Total Charge           Charge          ....    0
 Multiplicity           Mult            ....    1
 Number of Electrons    NEL             ....   64
 Basis Dimension        Dim             ....  321

ORBITAL ENERGIES
----------------

  NO   OCC          E(Eh)            E(eV)
   0   2.0000     -21.678118      -589.8916
   1   2.0000     -16.539191      -450.0543
   2   2.0000     -12.157348      -330.8183
   3   2.0000     -12.089170      -328.9630
   4   2.0000     -12.088417      -328.9426
   5   2.0000     -12.082068      -328.7698
   6   2.0000     -12.066346      -328.3420
   7   2.0000     -12.063979      -328.2776
   8   2.0000     -12.044110      -327.7369
   9   2.0000      -1.724898       -46.9369
  10   2.0000      -1.528203       -41.5845
  11   2.0000      -1.365719       -37.1631
  12   2.0000      -1.304127       -35.4871
  13   2.0000      -1.265899       -34.4469
  14   2.0000      -1.175786       -31.9948
  15   2.0000      -1.160030       -31.5660
  16   2.0000      -1.102691       -30.0058
  17   2.0000      -1.030698       -28.0467
  18   2.0000      -1.009684       -27.4749
  19   2.0000      -0.963161       -26.2089
  20   2.0000      -0.951546       -25.8929
  21   2.0000      -0.927718       -25.2445
  22   2.0000      -0.923968       -25.1425
  23   2.0000      -0.889133       -24.1946
  24   2.0000      -0.839162       -22.8347
  25   2.0000      -0.838035       -22.8041
  26   2.0000      -0.831300       -22.6208
  27   2.0000      -0.825880       -22.4733
  28   2.0000      -0.823806       -22.4169
  29   2.0000      -0.777520       -21.1574
  30   2.0000      -0.715762       -19.4769
  31   2.0000      -0.656249       -17.8574
  32   0.0000      -0.365417        -9.9435
  33   0.0000      -0.252762        -6.8780
  34   0.0000      -0.248212        -6.7542
  35   0.0000      -0.088833        -2.4173
  36   0.0000      -0.076259        -2.0751

MULLIKEN ATOMIC CHARGES
-----------------------
   0 C :   -0.385459
   1 C :    0.280130
   2 O :   -0.427409
   3 C :    0.042392
   4 C :   -0.139863
   5 C :   -0.054111
   6 N :   -0.278140
   7 C :   -0.067296
   8 C :   -0.150970
   9 H :    0.151259
  10 H :    0.170572
  11 H :    0.170697
  12 H :    0.168733
  13 H :    0.166803
  14 H :    0.167763
  15 H :    0.184898
Sum of atomic charges:    0.0000000

LOEWDIN ATOMIC CHARGES
----------------------
   0 C :   -0.245244
   1 C :   -0.270536
   2 O :    0.054881
   3 C :   -0.109422
   4 C :   -0.091474
   5 C :   -0.196457
   6 N :    0.093281
   7 C :   -0.195886
   8 C :   -0.093192
   9 H :    0.134760
  10 H :    0.150521
  11 H :    0.150193
  12 H :    0.160276
  13 H :    0.146359
  14 H :    0.146742
  15 H :    0.165199

  Mayer bond orders larger than 0.100000
B(  0-C ,  1-C ) :   1.0421 B(  0-C ,  9-H ) :   0.9675 B(  0-C , 10-H ) :   0.9407
B(  0-C , 11-H ) :   0.9423 B(  1-C ,  2-O ) :   1.9932 B(  1-C ,  3-C ) :   0.9407
B(  2-O ,  3-C ) :  -0.1071 B(  3-C ,  4-C ) :   1.3517 B(  3-C ,  8-C ) :   1.3533
B(  4-C ,  5-C ) :   1.4421 B(  4-C , 12-H ) :   0.9516 B(  5-C ,  6-N ) :   1.4713
B(  5-C , 13-H ) :   0.9688 B(  6-N ,  7-C ) :   1.4989 B(  7-C ,  8-C ) :   1.4295
B(  7-C , 14-H ) :   0.9696 B(  8-C , 15-H ) :   0.9554

FINAL SINGLE POINT ENERGY      -400.961604138269

DIPOLE MOMENT
-------------

Method             : SCF
Type of density    : Electron Density
Multiplicity       :   1
Irrep              :   0
Energy             :  -400.9701766188685497 Eh
Relativity type    :
Basis              : AO
                                X                 Y                 Z
Electronic contribution:      2.657467153       2.798391230       0.028318168
Nuclear contribution   :     -2.994281144      -4.309850292      -0.040932352
                        -----------------------------------------
Total Dipole Moment    :     -0.336813992      -1.511459062      -0.012614184
                        -----------------------------------------
Magnitude (a.u.)       :      1.548583636
Magnitude (Debye)      :      3.936186790

Rotational constants in cm-1:             0.127608             0.040564             0.030957
Rotational constants in MHz :          3825.602921          1216.075386           928.065278

                             ****ORCA TERMINATED NORMALLY****
TOTAL RUN TIME: 0 days 0 hours 3 minutes 19 seconds 951 msec
