                         Program Version 6.0.0  -   RELEASE  -
|  1> ! pbe def2-sv(p) def2/J RI DEFGRID1 loosescf d4 GCP(DFT/SV(P)) printgap
|  2> %output
|  3>     printlevel normal
|  4> end
|  5> * xyz 0 1
|  6> C -3.408493655 -0.5682475345 0.4075348362
|  7> C -2.1529700406 -0.2866411542 -0.4145933394
|  8> H -2.4283288183 -0.2935338918 -1.4738272616
|  9> C -1.0736036432 -1.3543688445 -0.188537698
| 10> C -0.1298916777 -0.9745961897 0.949745998
| 11> C 0.6770610249 0.2914959008 0.6132078028
| 12> H 0.7786338179 0.8874584051 1.5305116112
| 13> C -0.1211303151 1.1836259408 -0.3106252722
| 14> O 0.380705681 1.9142106828 -1.1433617686
| 15> C -1.6030538075 1.1142560982 -0.0715227623
| 16> C 2.1127084949 0.0647861551 0.0978064567
| 17> C 3.0245000867 -0.449950681 1.2095963716
| 18> C 2.1730102218 -0.8596647066 -1.1155083292
| 19> H -4.1356137049 0.2291740266 0.2756652948
| 20> H -3.8644123761 -1.5030138397 0.0909584582
| 21> H -3.1659834997 -0.6435606179 1.4646617317
| 22> H -1.5504194275 -2.3099217295 0.0336842624
| 23> H -0.4941775181 -1.4768183254 -1.1039886968
| 24> H -0.7145089092 -0.8115520541 1.8557644795
| 25> H 0.5533296927 -1.7985810416 1.1504486178
| 26> H -1.7762650157 1.3112741285 0.9874057987
| 27> H -2.1080768756 1.8805284746 -0.6601172919
| 28> H 2.4776535455 1.0495397214 -0.2190932489
| 29> H 4.0451234641 -0.5304873264 0.8442353467
| 30> H 2.7090656861 -1.4330744973 1.5496394261
| 31> H 3.0185612453 0.2283185624 2.0595244867
| 32> H 1.5519748325 -0.4698364498 -1.9194890269
| 33> H 1.8449608606 -1.8645061082 -0.862862641
| 34> H 3.1957959795 -0.9188445395 -1.4807824568
| 35> *
| 36>
| 37>                          ****END OF INPUT****

CARTESIAN COORDINATES (ANGSTROEM)
---------------------------------
  C     -3.408494   -0.568248    0.407535
  C     -2.152970   -0.286641   -0.414593
  H     -2.428329   -0.293534   -1.473827
  C     -1.073604   -1.354369   -0.188538
  C     -0.129892   -0.974596    0.949746
  C      0.677061    0.291496    0.613208
  H      0.778634    0.887458    1.530512
  C     -0.121130    1.183626   -0.310625
  O      0.380706    1.914211   -1.143362
  C     -1.603054    1.114256   -0.071523
  C      2.112708    0.064786    0.097806
  C      3.024500   -0.449951    1.209596
  C      2.173010   -0.859665   -1.115508
  H     -4.135614    0.229174    0.275665
  H     -3.864412   -1.503014    0.090958
  H     -3.165983   -0.643561    1.464662
  H     -1.550419   -2.309922    0.033684
  H     -0.494178   -1.476818   -1.103989
  H     -0.714509   -0.811552    1.855764
  H      0.553330   -1.798581    1.150449
  H     -1.776265    1.311274    0.987406
  H     -2.108077    1.880528   -0.660117
  H      2.477654    1.049540   -0.219093
  H      4.045123   -0.530487    0.844235
  H      2.709066   -1.433074    1.549639
  H      3.018561    0.228319    2.059524
  H      1.551975   -0.469836   -1.919489
  H      1.844961   -1.864506   -0.862863
  H      3.195796   -0.918845   -1.480782

 Total Charge           Charge          ....    0
 Multiplicity           Mult            ....    1
 Number of Electrons    NEL             ....   86
 Basis Dimension        Dim             ....  190

ORBITAL ENERGIES
----------------

  NO   OCC          E(Eh)            E(eV)
   0   2.0000     -18.733001      -509.7509
   1   2.0000      -9.967430      -271.2276
   2   2.0000      -9.907304      -269.5914
   3   2.0000      -9.898779      -269.3595
   4   2.0000      -9.894657      -269.2473
   5   2.0000      -9.892833      -269.1977
   6   2.0000      -9.889098      -269.0960
   7   2.0000      -9.888979      -269.0928
   8   2.0000      -9.880861      -268.8719
   9   2.0000      -9.872647      -268.6484
  10   2.0000      -9.869982      -268.5759
  11   2.0000      -0.931135       -25.3375
  12   2.0000      -0.768876       -20.9222
  13   2.0000      -0.728180       -19.8148
  14   2.0000      -0.675401       -18.3786
  15   2.0000      -0.656712       -17.8700
  16   2.0000      -0.616217       -16.7681
  17   2.0000      -0.609385       -16.5822
  18   2.0000      -0.562822       -15.3152
  19   2.0000      -0.516297       -14.0492
  20   2.0000      -0.497613       -13.5407
  21   2.0000      -0.454109       -12.3569
  22   2.0000      -0.447810       -12.1855
  23   2.0000      -0.429988       -11.7006
  24   2.0000      -0.410890       -11.1809
  25   2.0000      -0.401483       -10.9249
  26   2.0000      -0.388260       -10.5651
  27   2.0000      -0.374567       -10.1925
  28   2.0000      -0.360423        -9.8076
  29   2.0000      -0.350941        -9.5496
  30   2.0000      -0.349264        -9.5040
  31   2.0000      -0.346655        -9.4330
  32   2.0000      -0.340832        -9.2745
  33   2.0000      -0.335989        -9.1427
  34   2.0000      -0.327937        -8.9236
  35   2.0000      -0.316601        -8.6151
  36   2.0000      -0.299766        -8.1570
  37   2.0000      -0.292559        -7.9609
  38   2.0000      -0.288409        -7.8480
  39   2.0000      -0.278073        -7.5667
  40   2.0000      -0.271430        -7.3860
  41   2.0000      -0.267181        -7.2704
  42   2.0000      -0.188392        -5.1264
  43   0.0000      -0.048832        -1.3288
  44   0.0000       0.025020         0.6808
  45   0.0000       0.042315         1.1515
  46   0.0000       0.050150         1.3646
  47   0.0000       0.063221         1.7203

MULLIKEN ATOMIC CHARGES
-----------------------
   0 C :   -0.241966
   1 C :   -0.205624
   2 H :    0.080940
   3 C :   -0.114047
   4 C :   -0.124912
   5 C :   -0.141620
   6 H :    0.091720
   7 C :   -0.016081
   8 O :   -0.160912
   9 C :   -0.036556
  10 C :   -0.144950
  11 C :   -0.234826
  12 C :   -0.264026
  13 H :    0.105403
  14 H :    0.103770
  15 H :    0.097609
  16 H :    0.081868
  17 H :    0.092858
  18 H :    0.074520
  19 H :    0.099435
  20 H :    0.081213
  21 H :    0.088103
  22 H :    0.083277
  23 H :    0.099979
  24 H :    0.093810
  25 H :    0.094914
  26 H :    0.118082
  27 H :    0.098371
  28 H :    0.099648
Sum of atomic charges:   -0.0000000

LOEWDIN ATOMIC CHARGES
----------------------
   0 C :   -0.329910
   1 C :   -0.141897
   2 H :    0.122078
   3 C :   -0.223361
   4 C :   -0.216554
   5 C :   -0.162328
   6 H :    0.142418
   7 C :    0.050756
   8 O :   -0.128474
   9 C :   -0.235378
  10 C :   -0.146468
  11 C :   -0.329451
  12 C :   -0.332693
  13 H :    0.120486
  14 H :    0.119352
  15 H :    0.115862
  16 H :    0.120042
  17 H :    0.122038
  18 H :    0.118008
  19 H :    0.121845
  20 H :    0.134128
  21 H :    0.130610
  22 H :    0.123755
  23 H :    0.119879
  24 H :    0.113446
  25 H :    0.115929
  26 H :    0.121230
  27 H :    0.113755
  28 H :    0.120895

  Mayer bond orders larger than 0.100000
B(  0-C ,  1-C ) :   1.1142 B(  0-C , 13-H ) :   0.9482 B(  0-C , 14-H ) :   0.9455
B(  0-C , 15-H ) :   0.9454 B(  1-C ,  2-H ) :   0.8984 B(  1-C ,  3-C ) :   1.0978
B(  1-C ,  9-C ) :   1.0744 B(  3-C ,  4-C ) :   1.1859 B(  3-C , 16-H ) :   0.9136
B(  3-C , 17-H ) :   0.8915 B(  4-C ,  5-C ) :   1.0536 B(  4-C , 18-H ) :   0.8877
B(  4-C , 19-H ) :   0.9084 B(  5-C ,  6-H ) :   0.8488 B(  5-C ,  7-C ) :   0.9266
B(  5-C , 10-C ) :   1.0605 B(  7-C ,  8-O ) :   2.1754 B(  7-C ,  9-C ) :   1.0925
B(  9-C , 20-H ) :   0.8671 B(  9-C , 21-H ) :   0.8876 B( 10-C , 11-C ) :   1.1124
B( 10-C , 12-C ) :   1.1233 B( 10-C , 22-H ) :   0.8822 B( 11-C , 23-H ) :   0.9493
B( 11-C , 24-H ) :   0.9405 B( 11-C , 25-H ) :   0.9488 B( 12-C , 26-H ) :   0.9393
B( 12-C , 27-H ) :   0.9371 B( 12-C , 28-H ) :   0.9453

Dispersion correction           -0.030675174
FINAL SINGLE POINT ENERGY      -466.029328588830

DIPOLE MOMENT
-------------

Method             : SCF
Type of density    : Electron Density
Multiplicity       :   1
Irrep              :   0
Energy             :  -466.1254836399596115 Eh
Relativity type    :
Basis              : AO
                                X                 Y                 Z
Electronic contribution:     -0.369355123       7.270308575      -3.214440189
Nuclear contribution   :     -0.053163742      -7.915463286       3.850476326
                        -----------------------------------------
Total Dipole Moment    :     -0.422518864      -0.645154711       0.636036137
                        -----------------------------------------
Magnitude (a.u.)       :      0.999644316
Magnitude (Debye)      :      2.540893924

Rotational constants in cm-1:             0.061945             0.025297             0.021771
Rotational constants in MHz :          1857.051912           758.378603           652.687000

                             ****ORCA TERMINATED NORMALLY****
TOTAL RUN TIME: 0 days 0 hours 0 minutes 13 seconds 474 msec
