                         Program Version 6.0.0  -   RELEASE  -
|  1> ! pbe def2-sv(p) def2/J RI DEFGRID1 loosescf d4 GCP(DFT/SV(P)) printgap
|  2> %output
|  3>     printlevel normal
|  4> end
|  5> * xyz 0 1
|  6> C -1.1489808474 -1.2825723373 -0.5848626438
|  7> C -0.6769900539 -0.2271472887 0.4182224855
|  8> C -1.5370668217 1.0227814185 0.3828465544
|  9> N 0.7130569878 0.0860210939 0.0490830418
| 10> O 1.5815810966 -0.6444331791 0.4872306646
| 11> O 0.9294934235 1.0160548364 -0.6964046175
| 12> H -0.4934401406 -2.150058188 -0.5628648647
| 13> H -2.1548486381 -1.5964632156 -0.3252648441
| 14> H -1.157948762 -0.8681066847 -1.5902094754
| 15> H -0.6313112646 -0.6659613081 1.4185161047
| 16> H -1.16568882 1.7674361206 1.0821155982
| 17> H -2.5558013207 0.7656636531 0.6535250357
| 18> H -1.5347031884 1.4556368085 -0.6139396639
| 19> *
| 20>
| 21>                          ****END OF INPUT****

CARTESIAN COORDINATES (ANGSTROEM)
---------------------------------
  C     -1.148981   -1.282572   -0.584863
  C     -0.676990   -0.227147    0.418222
  C     -1.537067    1.022781    0.382847
  N      0.713057    0.086021    0.049083
  O      1.581581   -0.644433    0.487231
  O      0.929493    1.016055   -0.696405
  H     -0.493440   -2.150058   -0.562865
  H     -2.154849   -1.596463   -0.325265
  H     -1.157949   -0.868107   -1.590209
  H     -0.631311   -0.665961    1.418516
  H     -1.165689    1.767436    1.082116
  H     -2.555801    0.765664    0.653525
  H     -1.534703    1.455637   -0.613940

 Total Charge           Charge          ....    0
 Multiplicity           Mult            ....    1
 Number of Electrons    NEL             ....   48
 Basis Dimension        Dim             ....   98

ORBITAL ENERGIES
----------------

  NO   OCC          E(Eh)            E(eV)
   0   2.0000     -18.778752      -510.9958
   1   2.0000     -18.771441      -510.7969
   2   2.0000     -14.203182      -386.4882
   3   2.0000      -9.956211      -270.9223
   4   2.0000      -9.905525      -269.5430
   5   2.0000      -9.898214      -269.3441
   6   2.0000      -1.130981       -30.7756
   7   2.0000      -0.959793       -26.1173
   8   2.0000      -0.776682       -21.1346
   9   2.0000      -0.643700       -17.5160
  10   2.0000      -0.635075       -17.2813
  11   2.0000      -0.513041       -13.9606
  12   2.0000      -0.491593       -13.3769
  13   2.0000      -0.474415       -12.9095
  14   2.0000      -0.448674       -12.2091
  15   2.0000      -0.420678       -11.4472
  16   2.0000      -0.381747       -10.3879
  17   2.0000      -0.374665       -10.1952
  18   2.0000      -0.365664        -9.9502
  19   2.0000      -0.332948        -9.0600
  20   2.0000      -0.328773        -8.9464
  21   2.0000      -0.270196        -7.3524
  22   2.0000      -0.250366        -6.8128
  23   2.0000      -0.230216        -6.2645
  24   0.0000      -0.092116        -2.5066
  25   0.0000       0.028128         0.7654
  26   0.0000       0.064641         1.7590
  27   0.0000       0.075538         2.0555
  28   0.0000       0.079806         2.1716

MULLIKEN ATOMIC CHARGES
-----------------------
   0 C :   -0.249256
   1 C :   -0.104261
   2 C :   -0.242261
   3 N :    0.194855
   4 O :   -0.219695
   5 O :   -0.214448
   6 H :    0.128548
   7 H :    0.123456
   8 H :    0.120057
   9 H :    0.105114
  10 H :    0.121896
  11 H :    0.111498
  12 H :    0.124497
Sum of atomic charges:    0.0000000

LOEWDIN ATOMIC CHARGES
----------------------
   0 C :   -0.327726
   1 C :   -0.122472
   2 C :   -0.341294
   3 N :    0.242947
   4 O :   -0.190274
   5 O :   -0.183149
   6 H :    0.131657
   7 H :    0.133076
   8 H :    0.130591
   9 H :    0.133426
  10 H :    0.130107
  11 H :    0.130270
  12 H :    0.132840

  Mayer bond orders larger than 0.100000
B(  0-C ,  1-C ) :   1.1107 B(  0-C ,  6-H ) :   0.9413 B(  0-C ,  7-H ) :   0.9488
B(  0-C ,  8-H ) :   0.9402 B(  1-C ,  2-C ) :   1.1062 B(  1-C ,  3-N ) :   0.8544
B(  1-C ,  9-H ) :   0.8998 B(  2-C , 10-H ) :   0.9472 B(  2-C , 11-H ) :   0.9378
B(  2-C , 12-H ) :   0.9309 B(  3-N ,  4-O ) :   1.5420 B(  3-N ,  5-O ) :   1.5538
B(  4-O ,  5-O ) :   0.3091

Dispersion correction           -0.009138564
FINAL SINGLE POINT ENERGY      -322.973260456143

DIPOLE MOMENT
-------------

Method             : SCF
Type of density    : Electron Density
Multiplicity       :   1
Irrep              :   0
Energy             :  -323.0237164122047488 Eh
Relativity type    :
Basis              : AO
                                X                 Y                 Z
Electronic contribution:      7.739359861       0.943454017       0.188979340
Nuclear contribution   :     -9.053208623      -1.205991671       0.055217266
                        -----------------------------------------
Total Dipole Moment    :     -1.313848761      -0.262537653       0.244196606
                        -----------------------------------------
Magnitude (a.u.)       :      1.361894478
Magnitude (Debye)      :      3.461660661

Rotational constants in cm-1:             0.173659             0.109277             0.085042
Rotational constants in MHz :          5206.180475          3276.053314          2549.487171

                             ****ORCA TERMINATED NORMALLY****
TOTAL RUN TIME: 0 days 0 hours 0 minutes 6 seconds 350 msec
