                         Program Version 6.0.0  -   RELEASE  -
|  1> ! pbe def2-sv(p) def2/J RI DEFGRID1 loosescf d4 GCP(DFT/SV(P)) printgap
|  2> %output
|  3>     printlevel normal
|  4> end
|  5> * xyz 0 1
|  6> C -2.0742693218 -1.3668663674 -0.1357735943
|  7> C -1.0194490397 -0.4960037851 0.5668380088
|  8> H -1.4610291406 -0.1176308463 1.4978438057
|  9> C -0.622307089 0.7042861965 -0.2989908281
| 10> H -0.4579509479 0.3755042407 -1.336121065
| 11> C 0.7120339682 1.2451551323 0.2435399321
| 12> H 0.6511123467 1.3342021979 1.3360187514
| 13> C 1.7836965216 0.2045052398 -0.1022185491
| 14> H 2.0277425208 0.3088806118 -1.1694925141
| 15> C 1.2281192939 -1.2197085062 0.1093695183
| 16> H 1.993739036 -1.7931771493 0.6491902661
| 17> O 0.1160022265 -1.2574990979 0.9676565116
| 18> O 0.9482828614 -1.7684235132 -1.1398692556
| 19> O 2.934849041 0.3415860808 0.6872869489
| 20> O 1.0765540141 2.4719160136 -0.3455222073
| 21> O -1.6668568055 1.6456484054 -0.2463561607
| 22> O -3.3439586576 -0.7644124822 -0.1199446524
| 23> H -2.1723255116 -2.3118036957 0.4036656134
| 24> H -1.75545351 -1.5736114987 -1.1670441951
| 25> H 0.8264350943 -2.7272435666 -1.0652193406
| 26> H 3.3187272409 1.2182043487 0.5314016529
| 27> H 0.6198008154 3.1965253402 0.1047737139
| 28> H -1.4664513979 2.3692803213 -0.8594032975
| 29> H -3.2473766288 0.1704726558 -0.3637731914
| 30> *
| 31>
| 32>                          ****END OF INPUT****

CARTESIAN COORDINATES (ANGSTROEM)
---------------------------------
  C     -2.074269   -1.366866   -0.135774
  C     -1.019449   -0.496004    0.566838
  H     -1.461029   -0.117631    1.497844
  C     -0.622307    0.704286   -0.298991
  H     -0.457951    0.375504   -1.336121
  C      0.712034    1.245155    0.243540
  H      0.651112    1.334202    1.336019
  C      1.783697    0.204505   -0.102219
  H      2.027743    0.308881   -1.169493
  C      1.228119   -1.219709    0.109370
  H      1.993739   -1.793177    0.649190
  O      0.116002   -1.257499    0.967657
  O      0.948283   -1.768424   -1.139869
  O      2.934849    0.341586    0.687287
  O      1.076554    2.471916   -0.345522
  O     -1.666857    1.645648   -0.246356
  O     -3.343959   -0.764412   -0.119945
  H     -2.172326   -2.311804    0.403666
  H     -1.755454   -1.573611   -1.167044
  H      0.826435   -2.727244   -1.065219
  H      3.318727    1.218204    0.531402
  H      0.619801    3.196525    0.104774
  H     -1.466451    2.369280   -0.859403
  H     -3.247377    0.170473   -0.363773

 Total Charge           Charge          ....    0
 Multiplicity           Mult            ....    1
 Number of Electrons    NEL             ....   96
 Basis Dimension        Dim             ....  192

ORBITAL ENERGIES
----------------

  NO   OCC          E(Eh)            E(eV)
   0   2.0000     -18.777549      -510.9631
   1   2.0000     -18.773422      -510.8508
   2   2.0000     -18.768315      -510.7118
   3   2.0000     -18.767208      -510.6817
   4   2.0000     -18.753612      -510.3117
   5   2.0000     -18.729913      -509.6669
   6   2.0000      -9.987403      -271.7710
   7   2.0000      -9.947378      -270.6819
   8   2.0000      -9.945766      -270.6380
   9   2.0000      -9.943440      -270.5747
  10   2.0000      -9.940914      -270.5060
  11   2.0000      -9.918981      -269.9092
  12   2.0000      -0.982936       -26.7471
  13   2.0000      -0.960664       -26.1410
  14   2.0000      -0.942641       -25.6506
  15   2.0000      -0.926298       -25.2059
  16   2.0000      -0.915974       -24.9249
  17   2.0000      -0.905321       -24.6350
  18   2.0000      -0.712677       -19.3929
  19   2.0000      -0.692737       -18.8503
  20   2.0000      -0.613544       -16.6954
  21   2.0000      -0.590681       -16.0733
  22   2.0000      -0.561963       -15.2918
  23   2.0000      -0.524534       -14.2733
  24   2.0000      -0.508734       -13.8434
  25   2.0000      -0.501547       -13.6478
  26   2.0000      -0.473585       -12.8869
  27   2.0000      -0.464933       -12.6515
  28   2.0000      -0.450287       -12.2529
  29   2.0000      -0.422960       -11.5093
  30   2.0000      -0.406581       -11.0636
  31   2.0000      -0.398179       -10.8350
  32   2.0000      -0.390254       -10.6194
  33   2.0000      -0.379657       -10.3310
  34   2.0000      -0.361536        -9.8379
  35   2.0000      -0.351060        -9.5528
  36   2.0000      -0.339095        -9.2273
  37   2.0000      -0.321268        -8.7421
  38   2.0000      -0.310367        -8.4455
  39   2.0000      -0.294275        -8.0076
  40   2.0000      -0.278740        -7.5849
  41   2.0000      -0.265913        -7.2359
  42   2.0000      -0.262618        -7.1462
  43   2.0000      -0.248347        -6.7579
  44   2.0000      -0.237664        -6.4672
  45   2.0000      -0.232061        -6.3147
  46   2.0000      -0.211343        -5.7509
  47   2.0000      -0.196952        -5.3593
  48   0.0000      -0.008081        -0.2199
  49   0.0000       0.021918         0.5964
  50   0.0000       0.032335         0.8799
  51   0.0000       0.043845         1.1931
  52   0.0000       0.065462         1.7813

MULLIKEN ATOMIC CHARGES
-----------------------
   0 C :    0.087716
   1 C :    0.029830
   2 H :    0.079096
   3 C :   -0.008225
   4 H :    0.075896
   5 C :    0.031481
   6 H :    0.063483
   7 C :    0.076182
   8 H :    0.075684
   9 C :    0.159284
  10 H :    0.078689
  11 O :   -0.311933
  12 O :   -0.394359
  13 O :   -0.414070
  14 O :   -0.416555
  15 O :   -0.418924
  16 O :   -0.449194
  17 H :    0.080645
  18 H :    0.060231
  19 H :    0.309371
  20 H :    0.305333
  21 H :    0.303456
  22 H :    0.298767
  23 H :    0.298119
Sum of atomic charges:    0.0000000

LOEWDIN ATOMIC CHARGES
----------------------
   0 C :   -0.130406
   1 C :   -0.066964
   2 H :    0.119313
   3 C :   -0.088253
   4 H :    0.109179
   5 C :   -0.086299
   6 H :    0.110623
   7 C :   -0.073534
   8 H :    0.112740
   9 C :    0.000927
  10 H :    0.108742
  11 O :   -0.141646
  12 O :   -0.306119
  13 O :   -0.315875
  14 O :   -0.320524
  15 O :   -0.310113
  16 O :   -0.344221
  17 H :    0.110144
  18 H :    0.091999
  19 H :    0.290038
  20 H :    0.288818
  21 H :    0.287221
  22 H :    0.282978
  23 H :    0.271232

  Mayer bond orders larger than 0.100000
B(  0-C ,  1-C ) :   1.0606 B(  0-C , 16-O ) :   1.0790 B(  0-C , 17-H ) :   0.9192
B(  0-C , 18-H ) :   0.9034 B(  1-C ,  2-H ) :   0.8832 B(  1-C ,  3-C ) :   0.9863
B(  1-C , 11-O ) :   0.9680 B(  3-C ,  4-H ) :   0.8823 B(  3-C ,  5-C ) :   0.9995
B(  3-C , 15-O ) :   1.0384 B(  5-C ,  6-H ) :   0.8659 B(  5-C ,  7-C ) :   1.0386
B(  5-C , 14-O ) :   1.0968 B(  7-C ,  8-H ) :   0.8834 B(  7-C ,  9-C ) :   0.9857
B(  7-C , 13-O ) :   1.0891 B(  9-C , 10-H ) :   0.8945 B(  9-C , 11-O ) :   1.0798
B(  9-C , 12-O ) :   1.1096 B( 12-O , 19-H ) :   0.8366 B( 13-O , 20-H ) :   0.8438
B( 14-O , 21-H ) :   0.8427 B( 15-O , 22-H ) :   0.8332 B( 16-O , 23-H ) :   0.8249

Dispersion correction           -0.024587511
FINAL SINGLE POINT ENERGY      -685.693612290250

DIPOLE MOMENT
-------------

Method             : SCF
Type of density    : Electron Density
Multiplicity       :   1
Irrep              :   0
Energy             :  -685.8244828101938992 Eh
Relativity type    :
Basis              : AO
                                X                 Y                 Z
Electronic contribution:      1.658688814       0.539505377       0.953434124
Nuclear contribution   :     -1.052632209       0.431712222      -1.352153283
                        -----------------------------------------
Total Dipole Moment    :      0.606056605       0.971217598      -0.398719160
                        -----------------------------------------
Magnitude (a.u.)       :      1.212247994
Magnitude (Debye)      :      3.081289528

Rotational constants in cm-1:             0.044274             0.025961             0.018628
Rotational constants in MHz :          1327.296510           778.277657           558.452017

                             ****ORCA TERMINATED NORMALLY****
TOTAL RUN TIME: 0 days 0 hours 0 minutes 12 seconds 167 msec
