                         Program Version 6.0.0  -   RELEASE  -
|  1> ! wb97x-v def2-tzvp def2/J RIJCOSX DEFGRID2 scfconv7 GCP(DFT/TZ) printgap
|  2> %output
|  3>     printlevel normal
|  4> end
|  5> * xyz 0 1
|  6> C 1.7503927242836157 -0.3144181449930373 -0.2238349113032144
|  7> C 0.567594290322731 0.5813762842417706 0.15933352561840283
|  8> C -0.6836804667852077 -0.20761734547671395 0.3852883654765709
|  9> C -1.8244056619941875 -0.046539528151135066 -0.2837556964322217
| 10> H 1.9459419337344732 -1.058883640107655 0.5553897975677068
| 11> H 2.660244753201713 0.2784494882037724 -0.35962637584648566
| 12> H 1.5487887577158943 -0.8489529503528642 -1.1578494575373
| 13> H 0.3943765175060504 1.3347697191587986 -0.6177136290183972
| 14> H 0.8213844356718555 1.1206389823772638 1.082369444452148
| 15> H -0.6240390293301243 -0.9793847403202621 1.1550340271140047
| 16> H -2.6963472633449235 -0.6602528422738176 -0.07511228740836268
| 17> H -1.9209839240390136 0.7087573261189638 -1.0613186973075786
| 18> *
| 19>
| 20>                          ****END OF INPUT****

CARTESIAN COORDINATES (ANGSTROEM)
---------------------------------
  C      1.750393   -0.314418   -0.223835
  C      0.567594    0.581376    0.159334
  C     -0.683680   -0.207617    0.385288
  C     -1.824406   -0.046540   -0.283756
  H      1.945942   -1.058884    0.555390
  H      2.660245    0.278449   -0.359626
  H      1.548789   -0.848953   -1.157849
  H      0.394377    1.334770   -0.617714
  H      0.821384    1.120639    1.082369
  H     -0.624039   -0.979385    1.155034
  H     -2.696347   -0.660253   -0.075112
  H     -1.920984    0.708757   -1.061319

 Total Charge           Charge          ....    0
 Multiplicity           Mult            ....    1
 Number of Electrons    NEL             ....   32
 Basis Dimension        Dim             ....  172

ORBITAL ENERGIES
----------------

  NO   OCC          E(Eh)            E(eV)
   0   2.0000     -12.049367      -327.8799
   1   2.0000     -12.047022      -327.8161
   2   2.0000     -12.037487      -327.5567
   3   2.0000     -12.036356      -327.5259
   4   2.0000      -1.315353       -35.7926
   5   2.0000      -1.238129       -33.6912
   6   2.0000      -1.116148       -30.3719
   7   2.0000      -1.012402       -27.5488
   8   2.0000      -0.908304       -24.7162
   9   2.0000      -0.891655       -24.2632
  10   2.0000      -0.856212       -23.2987
  11   2.0000      -0.826174       -22.4813
  12   2.0000      -0.807899       -21.9841
  13   2.0000      -0.773543       -21.0492
  14   2.0000      -0.762230       -20.7413
  15   2.0000      -0.648164       -17.6374
  16   0.0000      -0.193175        -5.2566
  17   0.0000      -0.017421        -0.4741
  18   0.0000       0.000576         0.0157
  19   0.0000       0.004859         0.1322
  20   0.0000       0.015896         0.4325

MULLIKEN ATOMIC CHARGES
-----------------------
   0 C :   -0.339373
   1 C :   -0.113027
   2 C :   -0.122032
   3 C :   -0.279384
   4 H :    0.104927
   5 H :    0.112284
   6 H :    0.112132
   7 H :    0.091317
   8 H :    0.095575
   9 H :    0.106229
  10 H :    0.118636
  11 H :    0.112715
Sum of atomic charges:   -0.0000000

LOEWDIN ATOMIC CHARGES
----------------------
   0 C :   -0.300937
   1 C :   -0.276445
   2 C :   -0.202108
   3 C :   -0.217699
   4 H :    0.116261
   5 H :    0.115729
   6 H :    0.117978
   7 H :    0.135419
   8 H :    0.137799
   9 H :    0.137464
  10 H :    0.118293
  11 H :    0.118246

  Mayer bond orders larger than 0.100000
B(  0-C ,  1-C ) :   0.9719 B(  0-C ,  4-H ) :   0.9815 B(  0-C ,  5-H ) :   0.9788
B(  0-C ,  6-H ) :   0.9781 B(  1-C ,  2-C ) :   0.9693 B(  1-C ,  7-H ) :   0.9755
B(  1-C ,  8-H ) :   0.9711 B(  2-C ,  3-C ) :   1.9760 B(  2-C ,  9-H ) :   0.9566
B(  3-C , 10-H ) :   0.9704 B(  3-C , 11-H ) :   0.9670

FINAL SINGLE POINT ENERGY      -157.219775092718

DIPOLE MOMENT
-------------

Method             : SCF
Type of density    : Electron Density
Multiplicity       :   1
Irrep              :   0
Energy             :  -157.2271054477180883 Eh
Relativity type    :
Basis              : AO
                                X                 Y                 Z
Electronic contribution:     -1.863140625       0.134289834       0.478748542
Nuclear contribution   :      2.016031103      -0.104804568      -0.444157926
                        -----------------------------------------
Total Dipole Moment    :      0.152890479       0.029485266       0.034590616
                        -----------------------------------------
Magnitude (a.u.)       :      0.159503574
Magnitude (Debye)      :      0.405425866

Rotational constants in cm-1:             0.759329             0.138851             0.135286
Rotational constants in MHz :         22764.110597          4162.638464          4055.765221

                             ****ORCA TERMINATED NORMALLY****
TOTAL RUN TIME: 0 days 0 hours 0 minutes 45 seconds 149 msec
