                         Program Version 6.0.0  -   RELEASE  -
|  1> ! wb97x-v def2-tzvp def2/J RIJCOSX DEFGRID2 scfconv7 GCP(DFT/TZ) printgap
|  2> %output
|  3>     printlevel normal
|  4> end
|  5> %cpcm
|  6>     smd true
|  7>     smdsolvent "water"
|  8> end
|  9> * xyz 0 1
| 10> C 1.7503927242836157 -0.3144181449930373 -0.2238349113032144
| 11> C 0.567594290322731 0.5813762842417706 0.15933352561840283
| 12> C -0.6836804667852077 -0.20761734547671395 0.3852883654765709
| 13> C -1.8244056619941875 -0.046539528151135066 -0.2837556964322217
| 14> H 1.9459419337344732 -1.058883640107655 0.5553897975677068
| 15> H 2.660244753201713 0.2784494882037724 -0.35962637584648566
| 16> H 1.5487887577158943 -0.8489529503528642 -1.1578494575373
| 17> H 0.3943765175060504 1.3347697191587986 -0.6177136290183972
| 18> H 0.8213844356718555 1.1206389823772638 1.082369444452148
| 19> H -0.6240390293301243 -0.9793847403202621 1.1550340271140047
| 20> H -2.6963472633449235 -0.6602528422738176 -0.07511228740836268
| 21> H -1.9209839240390136 0.7087573261189638 -1.0613186973075786
| 22> *
| 23>
| 24>                          ****END OF INPUT****

CARTESIAN COORDINATES (ANGSTROEM)
---------------------------------
  C      1.750393   -0.314418   -0.223835
  C      0.567594    0.581376    0.159334
  C     -0.683680   -0.207617    0.385288
  C     -1.824406   -0.046540   -0.283756
  H      1.945942   -1.058884    0.555390
  H      2.660245    0.278449   -0.359626
  H      1.548789   -0.848953   -1.157849
  H      0.394377    1.334770   -0.617714
  H      0.821384    1.120639    1.082369
  H     -0.624039   -0.979385    1.155034
  H     -2.696347   -0.660253   -0.075112
  H     -1.920984    0.708757   -1.061319

 Total Charge           Charge          ....    0
 Multiplicity           Mult            ....    1
 Number of Electrons    NEL             ....   32
 Basis Dimension        Dim             ....  172

ORBITAL ENERGIES
----------------

  NO   OCC          E(Eh)            E(eV)
   0   2.0000     -12.046454      -327.8007
   1   2.0000     -12.038818      -327.5929
   2   2.0000     -12.032385      -327.4178
   3   2.0000     -12.028783      -327.3198
   4   2.0000      -1.311071       -35.6761
   5   2.0000      -1.232512       -33.5383
   6   2.0000      -1.109471       -30.1902
   7   2.0000      -1.007102       -27.4046
   8   2.0000      -0.903386       -24.5824
   9   2.0000      -0.886169       -24.1139
  10   2.0000      -0.848770       -23.0962
  11   2.0000      -0.818682       -22.2775
  12   2.0000      -0.800804       -21.7910
  13   2.0000      -0.766152       -20.8481
  14   2.0000      -0.754831       -20.5400
  15   2.0000      -0.647150       -17.6098
  16   0.0000      -0.191811        -5.2194
  17   0.0000      -0.010252        -0.2790
  18   0.0000       0.009743         0.2651
  19   0.0000       0.013367         0.3637
  20   0.0000       0.026102         0.7103

MULLIKEN ATOMIC CHARGES
-----------------------
   0 C :   -0.386334
   1 C :   -0.122409
   2 C :   -0.172238
   3 C :   -0.367739
   4 H :    0.123848
   5 H :    0.129703
   6 H :    0.120641
   7 H :    0.111321
   8 H :    0.111436
   9 H :    0.144413
  10 H :    0.155615
  11 H :    0.151742
Sum of atomic charges:   -0.0000000

LOEWDIN ATOMIC CHARGES
----------------------
   0 C :   -0.306286
   1 C :   -0.277490
   2 C :   -0.209501
   3 C :   -0.239044
   4 H :    0.119906
   5 H :    0.119230
   6 H :    0.118409
   7 H :    0.139283
   8 H :    0.142321
   9 H :    0.144861
  10 H :    0.123673
  11 H :    0.124638

  Mayer bond orders larger than 0.100000
B(  0-C ,  1-C ) :   0.9667 B(  0-C ,  4-H ) :   0.9790 B(  0-C ,  5-H ) :   0.9760
B(  0-C ,  6-H ) :   0.9758 B(  1-C ,  2-C ) :   0.9635 B(  1-C ,  7-H ) :   0.9756
B(  1-C ,  8-H ) :   0.9644 B(  2-C ,  3-C ) :   1.9522 B(  2-C ,  9-H ) :   0.9546
B(  3-C , 10-H ) :   0.9686 B(  3-C , 11-H ) :   0.9631

FINAL SINGLE POINT ENERGY      -157.218163454580

DIPOLE MOMENT
-------------

Method             : SCF
Type of density    : Electron Density
Multiplicity       :   1
Irrep              :   0
Energy             :  -157.2254938095802572 Eh
Relativity type    :
Basis              : AO
                                X                 Y                 Z
Electronic contribution:     -1.791913174       0.150314801       0.511793920
Nuclear contribution   :      2.016031103      -0.104804568      -0.444157926
                        -----------------------------------------
Total Dipole Moment    :      0.224117929       0.045510233       0.067635994
                        -----------------------------------------
Magnitude (a.u.)       :      0.238484078
Magnitude (Debye)      :      0.606178352

Rotational constants in cm-1:             0.759329             0.138851             0.135286
Rotational constants in MHz :         22764.110597          4162.638464          4055.765221

                             ****ORCA TERMINATED NORMALLY****
TOTAL RUN TIME: 0 days 0 hours 0 minutes 43 seconds 440 msec
