                         Program Version 6.0.0  -   RELEASE  -
|  1> ! r2scan-3c def2/J RI DEFGRID2 scfconv6 printgap
|  2> %output
|  3>     printlevel normal
|  4> end
|  5> * xyz 0 1
|  6> C -0.9954695613 -1.8116285645 2.01839e-05
|  7> C 0.3711614678 -1.6128776413 -1.97218e-05
|  8> C 0.8768102845 -0.3102453084 4.5999e-06
|  9> C 0.0046656134 0.7771441146 -5.25208e-05
| 10> C -1.3696592211 0.5719273002 -5.73712e-05
| 11> C -1.8640183837 -0.7322439549 2.85233e-05
| 12> O -2.1773822799 1.6559174038 3.04647e-05
| 13> C 2.3168699796 -0.0839340522 -1.59722e-05
| 14> O 2.8655695592 0.9995771675 2.05552e-05
| 15> H -1.3953613481 -2.8133133161 0.0001806449
| 16> H 1.0504218088 -2.4506003291 -4.41287e-05
| 17> H 0.4012964264 1.7805314144 -6.31773e-05
| 18> H -2.930469103 -0.9023585405 -2.93024e-05
| 19> H -3.1124232387 1.3966612864 0.0001767424
| 20> H 2.9230346827 -1.0088348792 6.89691e-05
| 21> *
| 22>
| 23>                          ****END OF INPUT****

CARTESIAN COORDINATES (ANGSTROEM)
---------------------------------
  C     -0.995470   -1.811629    0.000020
  C      0.371161   -1.612878   -0.000020
  C      0.876810   -0.310245    0.000005
  C      0.004666    0.777144   -0.000053
  C     -1.369659    0.571927   -0.000057
  C     -1.864018   -0.732244    0.000029
  O     -2.177382    1.655917    0.000030
  C      2.316870   -0.083934   -0.000016
  O      2.865570    0.999577    0.000021
  H     -1.395361   -2.813313    0.000181
  H      1.050422   -2.450600   -0.000044
  H      0.401296    1.780531   -0.000063
  H     -2.930469   -0.902359   -0.000029
  H     -3.112423    1.396661    0.000177
  H      2.923035   -1.008835    0.000069

 Total Charge           Charge          ....    0
 Multiplicity           Mult            ....    1
 Number of Electrons    NEL             ....   64
 Basis Dimension        Dim             ....  211

ORBITAL ENERGIES
----------------

  NO   OCC          E(Eh)            E(eV)
   0   2.0000     -19.001995      -517.0706
   1   2.0000     -18.945997      -515.5468
   2   2.0000     -10.117556      -275.3127
   3   2.0000     -10.117092      -275.3001
   4   2.0000     -10.059378      -273.7296
   5   2.0000     -10.057744      -273.6851
   6   2.0000     -10.057673      -273.6832
   7   2.0000     -10.053181      -273.5610
   8   2.0000     -10.048852      -273.4432
   9   2.0000      -1.048228       -28.5237
  10   2.0000      -1.007730       -27.4217
  11   2.0000      -0.844097       -22.9691
  12   2.0000      -0.749667       -20.3995
  13   2.0000      -0.732796       -19.9404
  14   2.0000      -0.639009       -17.3883
  15   2.0000      -0.600368       -16.3368
  16   2.0000      -0.572159       -15.5692
  17   2.0000      -0.509727       -13.8704
  18   2.0000      -0.488136       -13.2829
  19   2.0000      -0.467653       -12.7255
  20   2.0000      -0.424670       -11.5559
  21   2.0000      -0.418414       -11.3856
  22   2.0000      -0.405090       -11.0231
  23   2.0000      -0.400406       -10.8956
  24   2.0000      -0.373540       -10.1646
  25   2.0000      -0.369019       -10.0415
  26   2.0000      -0.358929        -9.7670
  27   2.0000      -0.328319        -8.9340
  28   2.0000      -0.325297        -8.8518
  29   2.0000      -0.256446        -6.9783
  30   2.0000      -0.226620        -6.1666
  31   2.0000      -0.225208        -6.1282
  32   0.0000      -0.099471        -2.7068
  33   0.0000      -0.038325        -1.0429
  34   0.0000       0.006350         0.1728
  35   0.0000       0.042812         1.1650
  36   0.0000       0.074387         2.0242

MULLIKEN ATOMIC CHARGES
-----------------------
   0 C :   -0.137619
   1 C :   -0.249416
   2 C :    0.256904
   3 C :   -0.340647
   4 C :    0.429075
   5 C :   -0.285156
   6 O :   -0.400996
   7 C :    0.015048
   8 O :   -0.342617
   9 H :    0.149535
  10 H :    0.154297
  11 H :    0.189443
  12 H :    0.141302
  13 H :    0.316985
  14 H :    0.103864
Sum of atomic charges:    0.0000000

LOEWDIN ATOMIC CHARGES
----------------------
   0 C :   -0.147522
   1 C :   -0.157335
   2 C :   -0.090635
   3 C :   -0.081116
   4 C :    0.184271
   5 C :   -0.145970
   6 O :   -0.483622
   7 C :    0.215858
   8 O :   -0.454172
   9 H :    0.171066
  10 H :    0.173544
  11 H :    0.199720
  12 H :    0.171059
  13 H :    0.287633
  14 H :    0.157220

  Mayer bond orders larger than 0.100000
B(  0-C ,  1-C ) :   1.4478 B(  0-C ,  5-C ) :   1.4242 B(  0-C ,  9-H ) :   0.9464
B(  1-C ,  2-C ) :   1.3465 B(  1-C , 10-H ) :   0.9319 B(  2-C ,  3-C ) :   1.3662
B(  2-C ,  7-C ) :   0.8281 B(  2-C ,  8-O ) :  -0.1098 B(  2-C , 14-H ) :  -0.1223
B(  3-C ,  4-C ) :   1.3966 B(  3-C ,  6-O ) :   0.1211 B(  3-C , 11-H ) :   0.9725
B(  4-C ,  5-C ) :   1.3177 B(  4-C ,  6-O ) :   0.9028 B(  5-C , 12-H ) :   0.9339
B(  6-O , 13-H ) :   0.8792 B(  7-C ,  8-O ) :   1.9562 B(  7-C , 14-H ) :   1.0452

Dispersion correction           -0.004929883
FINAL SINGLE POINT ENERGY      -420.710320986833

DIPOLE MOMENT
-------------

Method             : SCF
Type of density    : Electron Density
Multiplicity       :   1
Irrep              :   0
Energy             :  -420.7103119309321073 Eh
Relativity type    :
Basis              : AO
                                X                 Y                 Z
Electronic contribution:      1.310528478       2.614660254      -0.000189254
Nuclear contribution   :     -2.863896974      -3.711376090       0.000272591
                        -----------------------------------------
Total Dipole Moment    :     -1.553368497      -1.096715836       0.000083337
                        -----------------------------------------
Magnitude (a.u.)       :      1.901509747
Magnitude (Debye)      :      4.833253672

Rotational constants in cm-1:             0.098921             0.043332             0.030132
Rotational constants in MHz :          2965.575494          1299.052313           903.346759

                             ****ORCA TERMINATED NORMALLY****
TOTAL RUN TIME: 0 days 0 hours 0 minutes 23 seconds 419 msec
