                         Program Version 6.0.0  -   RELEASE  -
|  1> ! r2scan-3c def2/J RI DEFGRID2 scfconv6 printgap
|  2> %output
|  3>     printlevel normal
|  4> end
|  5> %cpcm
|  6>     smd true
|  7>     smdsolvent "water"
|  8> end
|  9> * xyz 0 1
| 10> C -0.9954695613 -1.8116285645 2.01839e-05
| 11> C 0.3711614678 -1.6128776413 -1.97218e-05
| 12> C 0.8768102845 -0.3102453084 4.5999e-06
| 13> C 0.0046656134 0.7771441146 -5.25208e-05
| 14> C -1.3696592211 0.5719273002 -5.73712e-05
| 15> C -1.8640183837 -0.7322439549 2.85233e-05
| 16> O -2.1773822799 1.6559174038 3.04647e-05
| 17> C 2.3168699796 -0.0839340522 -1.59722e-05
| 18> O 2.8655695592 0.9995771675 2.05552e-05
| 19> H -1.3953613481 -2.8133133161 0.0001806449
| 20> H 1.0504218088 -2.4506003291 -4.41287e-05
| 21> H 0.4012964264 1.7805314144 -6.31773e-05
| 22> H -2.930469103 -0.9023585405 -2.93024e-05
| 23> H -3.1124232387 1.3966612864 0.0001767424
| 24> H 2.9230346827 -1.0088348792 6.89691e-05
| 25> *
| 26>
| 27>                          ****END OF INPUT****

CARTESIAN COORDINATES (ANGSTROEM)
---------------------------------
  C     -0.995470   -1.811629    0.000020
  C      0.371161   -1.612878   -0.000020
  C      0.876810   -0.310245    0.000005
  C      0.004666    0.777144   -0.000053
  C     -1.369659    0.571927   -0.000057
  C     -1.864018   -0.732244    0.000029
  O     -2.177382    1.655917    0.000030
  C      2.316870   -0.083934   -0.000016
  O      2.865570    0.999577    0.000021
  H     -1.395361   -2.813313    0.000181
  H      1.050422   -2.450600   -0.000044
  H      0.401296    1.780531   -0.000063
  H     -2.930469   -0.902359   -0.000029
  H     -3.112423    1.396661    0.000177
  H      2.923035   -1.008835    0.000069

 Total Charge           Charge          ....    0
 Multiplicity           Mult            ....    1
 Number of Electrons    NEL             ....   64
 Basis Dimension        Dim             ....  211

ORBITAL ENERGIES
----------------

  NO   OCC          E(Eh)            E(eV)
   0   2.0000     -18.988879      -516.7137
   1   2.0000     -18.956549      -515.8339
   2   2.0000     -10.123417      -275.4722
   3   2.0000     -10.108583      -275.0685
   4   2.0000     -10.052943      -273.5545
   5   2.0000     -10.046877      -273.3894
   6   2.0000     -10.045218      -273.3443
   7   2.0000     -10.044012      -273.3114
   8   2.0000     -10.043793      -273.3055
   9   2.0000      -1.035215       -28.1696
  10   2.0000      -1.020663       -27.7736
  11   2.0000      -0.836931       -22.7741
  12   2.0000      -0.742353       -20.2004
  13   2.0000      -0.724054       -19.7025
  14   2.0000      -0.631641       -17.1878
  15   2.0000      -0.590204       -16.0603
  16   2.0000      -0.563716       -15.3395
  17   2.0000      -0.503665       -13.7054
  18   2.0000      -0.475795       -12.9470
  19   2.0000      -0.460751       -12.5377
  20   2.0000      -0.423015       -11.5108
  21   2.0000      -0.415316       -11.3013
  22   2.0000      -0.402500       -10.9526
  23   2.0000      -0.400977       -10.9111
  24   2.0000      -0.378510       -10.2998
  25   2.0000      -0.362821        -9.8729
  26   2.0000      -0.346096        -9.4177
  27   2.0000      -0.321519        -8.7490
  28   2.0000      -0.318851        -8.6764
  29   2.0000      -0.252837        -6.8800
  30   2.0000      -0.237021        -6.4497
  31   2.0000      -0.219751        -5.9797
  32   0.0000      -0.099963        -2.7201
  33   0.0000      -0.031245        -0.8502
  34   0.0000       0.009560         0.2601
  35   0.0000       0.078501         2.1361
  36   0.0000       0.092566         2.5188

MULLIKEN ATOMIC CHARGES
-----------------------
   0 C :   -0.167031
   1 C :   -0.254568
   2 C :    0.221815
   3 C :   -0.358554
   4 C :    0.355205
   5 C :   -0.262175
   6 O :   -0.442510
   7 C :    0.061225
   8 O :   -0.441439
   9 H :    0.186208
  10 H :    0.190763
  11 H :    0.199548
  12 H :    0.193533
  13 H :    0.376310
  14 H :    0.141670
Sum of atomic charges:    0.0000000

LOEWDIN ATOMIC CHARGES
----------------------
   0 C :   -0.150528
   1 C :   -0.151003
   2 C :   -0.103197
   3 C :   -0.099656
   4 C :    0.178012
   5 C :   -0.126203
   6 O :   -0.497286
   7 C :    0.231921
   8 O :   -0.530928
   9 H :    0.183989
  10 H :    0.187049
  11 H :    0.199506
  12 H :    0.191456
  13 H :    0.310166
  14 H :    0.176701

  Mayer bond orders larger than 0.100000
B(  0-C ,  1-C ) :   1.4066 B(  0-C ,  5-C ) :   1.3799 B(  0-C ,  9-H ) :   0.9571
B(  1-C ,  2-C ) :   1.3415 B(  1-C , 10-H ) :   0.9356 B(  2-C ,  3-C ) :   1.3004
B(  2-C ,  7-C ) :   0.8891 B(  2-C ,  8-O ) :  -0.1063 B(  3-C ,  4-C ) :   1.4085
B(  3-C ,  6-O ) :   0.1148 B(  3-C , 11-H ) :   0.9602 B(  4-C ,  5-C ) :   1.3260
B(  4-C ,  6-O ) :   0.9219 B(  5-C , 12-H ) :   0.9402 B(  6-O , 13-H ) :   0.8463
B(  7-C ,  8-O ) :   1.8827 B(  7-C , 14-H ) :   1.0145

Dispersion correction           -0.004929883
FINAL SINGLE POINT ENERGY      -420.724415805404

DIPOLE MOMENT
-------------

Method             : SCF
Type of density    : Electron Density
Multiplicity       :   1
Irrep              :   0
Energy             :  -420.7244067495037143 Eh
Relativity type    :
Basis              : AO
                                X                 Y                 Z
Electronic contribution:      0.640901251       1.994322494      -0.000157777
Nuclear contribution   :     -2.863896974      -3.711376090       0.000272591
                        -----------------------------------------
Total Dipole Moment    :     -2.222995724      -1.717053596       0.000114814
                        -----------------------------------------
Magnitude (a.u.)       :      2.808911364
Magnitude (Debye)      :      7.139685288

Rotational constants in cm-1:             0.098921             0.043332             0.030132
Rotational constants in MHz :          2965.575494          1299.052313           903.346759

                             ****ORCA TERMINATED NORMALLY****
TOTAL RUN TIME: 0 days 0 hours 0 minutes 28 seconds 76 msec
