                         Program Version 6.0.0  -   RELEASE  -
|  1> ! r2scan-3c def2/J RI DEFGRID2 scfconv6 printgap
|  2> %output
|  3>     printlevel normal
|  4> end
|  5> * xyz 0 1
|  6> C 2.8377368493 -0.7648710665 0.1367100202
|  7> C 1.9834309555 0.4704991381 -0.1171013055
|  8> C 0.4972794174 0.2501068325 -0.056920439
|  9> C -0.3623129 1.3316081776 -0.2436311344
| 10> C -1.7304928418 1.1389450867 -0.1914281467
| 11> C -2.2033313202 -0.142715277 0.048684421
| 12> N -1.4057567167 -1.1821779642 0.2283862013
| 13> C -0.0962268799 -0.9855226266 0.1759479117
| 14> H 2.6415683775 -1.1753005883 1.1243025975
| 15> H 3.890005932 -0.4971834076 0.0813736696
| 16> H 2.6418913837 -1.5322631587 -0.6082016792
| 17> H 2.2239633408 0.8769406489 -1.1038501949
| 18> H 2.2397846979 1.2413637487 0.6153078319
| 19> H 0.0455530622 2.3154815917 -0.4282830307
| 20> H -2.4156655854 1.9596161974 -0.333141245
| 21> H -3.2631171997 -0.35285994 0.0992854508
| 22> H 0.4956948501 -1.8758483119 0.3316094105
| 23> *
| 24>
| 25>                          ****END OF INPUT****

CARTESIAN COORDINATES (ANGSTROEM)
---------------------------------
  C      2.837737   -0.764871    0.136710
  C      1.983431    0.470499   -0.117101
  C      0.497279    0.250107   -0.056920
  C     -0.362313    1.331608   -0.243631
  C     -1.730493    1.138945   -0.191428
  C     -2.203331   -0.142715    0.048684
  N     -1.405757   -1.182178    0.228386
  C     -0.096227   -0.985523    0.175948
  H      2.641568   -1.175301    1.124303
  H      3.890006   -0.497183    0.081374
  H      2.641891   -1.532263   -0.608202
  H      2.223963    0.876941   -1.103850
  H      2.239785    1.241364    0.615308
  H      0.045553    2.315482   -0.428283
  H     -2.415666    1.959616   -0.333141
  H     -3.263117   -0.352860    0.099285
  H      0.495695   -1.875848    0.331609

 Total Charge           Charge          ....    0
 Multiplicity           Mult            ....    1
 Number of Electrons    NEL             ....   58
 Basis Dimension        Dim             ....  202

ORBITAL ENERGIES
----------------

  NO   OCC          E(Eh)            E(eV)
   0   2.0000     -14.150401      -385.0520
   1   2.0000     -10.061148      -273.7778
   2   2.0000     -10.060168      -273.7511
   3   2.0000     -10.050555      -273.4895
   4   2.0000     -10.048952      -273.4459
   5   2.0000     -10.044398      -273.3220
   6   2.0000     -10.042278      -273.2643
   7   2.0000     -10.028236      -272.8822
   8   2.0000      -0.910982       -24.7891
   9   2.0000      -0.791257       -21.5312
  10   2.0000      -0.751866       -20.4593
  11   2.0000      -0.706298       -19.2193
  12   2.0000      -0.624052       -16.9813
  13   2.0000      -0.594718       -16.1831
  14   2.0000      -0.563456       -15.3324
  15   2.0000      -0.490967       -13.3599
  16   2.0000      -0.455217       -12.3871
  17   2.0000      -0.433195       -11.7878
  18   2.0000      -0.424435       -11.5495
  19   2.0000      -0.407264       -11.0822
  20   2.0000      -0.371592       -10.1115
  21   2.0000      -0.370078       -10.0703
  22   2.0000      -0.361397        -9.8341
  23   2.0000      -0.334341        -9.0979
  24   2.0000      -0.332882        -9.0582
  25   2.0000      -0.318304        -8.6615
  26   2.0000      -0.264678        -7.2023
  27   2.0000      -0.237599        -6.4654
  28   2.0000      -0.218467        -5.9448
  29   0.0000      -0.052931        -1.4403
  30   0.0000      -0.034006        -0.9253
  31   0.0000       0.083324         2.2673
  32   0.0000       0.096194         2.6176
  33   0.0000       0.100060         2.7228

MULLIKEN ATOMIC CHARGES
-----------------------
   0 C :   -0.499244
   1 C :   -0.323141
   2 C :    0.217185
   3 C :   -0.187620
   4 C :   -0.110025
   5 C :   -0.097445
   6 N :   -0.162484
   7 C :   -0.184828
   8 H :    0.159312
   9 H :    0.151527
  10 H :    0.157450
  11 H :    0.159935
  12 H :    0.158574
  13 H :    0.147908
  14 H :    0.147129
  15 H :    0.132449
  16 H :    0.133317
Sum of atomic charges:    0.0000000

LOEWDIN ATOMIC CHARGES
----------------------
   0 C :   -0.418308
   1 C :   -0.286339
   2 C :   -0.073389
   3 C :   -0.121702
   4 C :   -0.144838
   5 C :    0.072605
   6 N :   -0.615847
   7 C :    0.077471
   8 H :    0.154857
   9 H :    0.154080
  10 H :    0.154452
  11 H :    0.167189
  12 H :    0.166724
  13 H :    0.171095
  14 H :    0.169331
  15 H :    0.183576
  16 H :    0.189044

  Mayer bond orders larger than 0.100000
B(  0-C ,  1-C ) :   0.8410 B(  0-C ,  8-H ) :   0.9840 B(  0-C ,  9-H ) :   0.9682
B(  0-C , 10-H ) :   0.9807 B(  1-C ,  2-C ) :   0.8505 B(  1-C , 11-H ) :   0.9739
B(  1-C , 12-H ) :   0.9807 B(  2-C ,  3-C ) :   1.3427 B(  2-C ,  7-C ) :   1.3473
B(  3-C ,  4-C ) :   1.4470 B(  3-C , 13-H ) :   0.9555 B(  4-C ,  5-C ) :   1.3384
B(  4-C , 14-H ) :   0.9407 B(  5-C ,  6-N ) :   1.4802 B(  5-C , 15-H ) :   0.9839
B(  6-N ,  7-C ) :   1.4871 B(  7-C , 16-H ) :   0.9914

Dispersion correction           -0.005229715
FINAL SINGLE POINT ENERGY      -326.814613821511

DIPOLE MOMENT
-------------

Method             : SCF
Type of density    : Electron Density
Multiplicity       :   1
Irrep              :   0
Energy             :  -326.8172487961533079 Eh
Relativity type    :
Basis              : AO
                                X                 Y                 Z
Electronic contribution:     -7.396268055      -0.088161303       0.051116235
Nuclear contribution   :      7.966423471       0.894109981      -0.206643269
                        -----------------------------------------
Total Dipole Moment    :      0.570155416       0.805948678      -0.155527034
                        -----------------------------------------
Magnitude (a.u.)       :      0.999409389
Magnitude (Debye)      :      2.540296787

Rotational constants in cm-1:             0.165183             0.050717             0.039373
Rotational constants in MHz :          4952.060114          1520.459997          1180.370819

                             ****ORCA TERMINATED NORMALLY****
TOTAL RUN TIME: 0 days 0 hours 0 minutes 18 seconds 732 msec
