                         Program Version 6.0.0  -   RELEASE  -
|  1> ! r2scan-3c def2/J RI DEFGRID2 scfconv6 printgap
|  2> %output
|  3>     printlevel normal
|  4> end
|  5> %cpcm
|  6>     smd true
|  7>     smdsolvent "water"
|  8> end
|  9> * xyz 0 1
| 10> C 2.8377368493 -0.7648710665 0.1367100202
| 11> C 1.9834309555 0.4704991381 -0.1171013055
| 12> C 0.4972794174 0.2501068325 -0.056920439
| 13> C -0.3623129 1.3316081776 -0.2436311344
| 14> C -1.7304928418 1.1389450867 -0.1914281467
| 15> C -2.2033313202 -0.142715277 0.048684421
| 16> N -1.4057567167 -1.1821779642 0.2283862013
| 17> C -0.0962268799 -0.9855226266 0.1759479117
| 18> H 2.6415683775 -1.1753005883 1.1243025975
| 19> H 3.890005932 -0.4971834076 0.0813736696
| 20> H 2.6418913837 -1.5322631587 -0.6082016792
| 21> H 2.2239633408 0.8769406489 -1.1038501949
| 22> H 2.2397846979 1.2413637487 0.6153078319
| 23> H 0.0455530622 2.3154815917 -0.4282830307
| 24> H -2.4156655854 1.9596161974 -0.333141245
| 25> H -3.2631171997 -0.35285994 0.0992854508
| 26> H 0.4956948501 -1.8758483119 0.3316094105
| 27> *
| 28>
| 29>                          ****END OF INPUT****

CARTESIAN COORDINATES (ANGSTROEM)
---------------------------------
  C      2.837737   -0.764871    0.136710
  C      1.983431    0.470499   -0.117101
  C      0.497279    0.250107   -0.056920
  C     -0.362313    1.331608   -0.243631
  C     -1.730493    1.138945   -0.191428
  C     -2.203331   -0.142715    0.048684
  N     -1.405757   -1.182178    0.228386
  C     -0.096227   -0.985523    0.175948
  H      2.641568   -1.175301    1.124303
  H      3.890006   -0.497183    0.081374
  H      2.641891   -1.532263   -0.608202
  H      2.223963    0.876941   -1.103850
  H      2.239785    1.241364    0.615308
  H      0.045553    2.315482   -0.428283
  H     -2.415666    1.959616   -0.333141
  H     -3.263117   -0.352860    0.099285
  H      0.495695   -1.875848    0.331609

 Total Charge           Charge          ....    0
 Multiplicity           Mult            ....    1
 Number of Electrons    NEL             ....   58
 Basis Dimension        Dim             ....  202

ORBITAL ENERGIES
----------------

  NO   OCC          E(Eh)            E(eV)
   0   2.0000     -14.156034      -385.2053
   1   2.0000     -10.060363      -273.7564
   2   2.0000     -10.059060      -273.7209
   3   2.0000     -10.047298      -273.4009
   4   2.0000     -10.043695      -273.3028
   5   2.0000     -10.037926      -273.1459
   6   2.0000     -10.030612      -272.9468
   7   2.0000     -10.013029      -272.4684
   8   2.0000      -0.914540       -24.8859
   9   2.0000      -0.785893       -21.3852
  10   2.0000      -0.746939       -20.3252
  11   2.0000      -0.699344       -19.0301
  12   2.0000      -0.617024       -16.7901
  13   2.0000      -0.590265       -16.0619
  14   2.0000      -0.556505       -15.1433
  15   2.0000      -0.486346       -13.2341
  16   2.0000      -0.452256       -12.3065
  17   2.0000      -0.420385       -11.4392
  18   2.0000      -0.416232       -11.3263
  19   2.0000      -0.398837       -10.8529
  20   2.0000      -0.372865       -10.1462
  21   2.0000      -0.364940        -9.9305
  22   2.0000      -0.353060        -9.6073
  23   2.0000      -0.321495        -8.7483
  24   2.0000      -0.320360        -8.7174
  25   2.0000      -0.309986        -8.4352
  26   2.0000      -0.264997        -7.2109
  27   2.0000      -0.236280        -6.4295
  28   2.0000      -0.226674        -6.1681
  29   0.0000      -0.053341        -1.4515
  30   0.0000      -0.033427        -0.9096
  31   0.0000       0.090089         2.4514
  32   0.0000       0.103223         2.8088
  33   0.0000       0.109930         2.9914

MULLIKEN ATOMIC CHARGES
-----------------------
   0 C :   -0.525686
   1 C :   -0.325578
   2 C :    0.185236
   3 C :   -0.182686
   4 C :   -0.149657
   5 C :   -0.117981
   6 N :   -0.223594
   7 C :   -0.196439
   8 H :    0.166970
   9 H :    0.164481
  10 H :    0.165639
  11 H :    0.178172
  12 H :    0.177221
  13 H :    0.183998
  14 H :    0.182924
  15 H :    0.158913
  16 H :    0.158066
Sum of atomic charges:    0.0000000

LOEWDIN ATOMIC CHARGES
----------------------
   0 C :   -0.423653
   1 C :   -0.284445
   2 C :   -0.071025
   3 C :   -0.114785
   4 C :   -0.145420
   5 C :    0.061788
   6 N :   -0.667825
   7 C :    0.068556
   8 H :    0.156855
   9 H :    0.157672
  10 H :    0.156656
  11 H :    0.174691
  12 H :    0.174300
  13 H :    0.184877
  14 H :    0.182393
  15 H :    0.192139
  16 H :    0.197226

  Mayer bond orders larger than 0.100000
B(  0-C ,  1-C ) :   0.8266 B(  0-C ,  8-H ) :   0.9811 B(  0-C ,  9-H ) :   0.9657
B(  0-C , 10-H ) :   0.9778 B(  1-C ,  2-C ) :   0.8616 B(  1-C , 11-H ) :   0.9693
B(  1-C , 12-H ) :   0.9762 B(  2-C ,  3-C ) :   1.3318 B(  2-C ,  7-C ) :   1.3499
B(  3-C ,  4-C ) :   1.4224 B(  3-C , 13-H ) :   0.9537 B(  4-C ,  5-C ) :   1.3393
B(  4-C , 14-H ) :   0.9446 B(  5-C ,  6-N ) :   1.4677 B(  5-C , 15-H ) :   0.9734
B(  6-N ,  7-C ) :   1.5011 B(  7-C , 16-H ) :   0.9768

Dispersion correction           -0.005229715
FINAL SINGLE POINT ENERGY      -326.821490534504

DIPOLE MOMENT
-------------

Method             : SCF
Type of density    : Electron Density
Multiplicity       :   1
Irrep              :   0
Energy             :  -326.8241255091464268 Eh
Relativity type    :
Basis              : AO
                                X                 Y                 Z
Electronic contribution:     -7.181412829       0.304470404      -0.024750532
Nuclear contribution   :      7.966423471       0.894109981      -0.206643269
                        -----------------------------------------
Total Dipole Moment    :      0.785010642       1.198580384      -0.231393801
                        -----------------------------------------
Magnitude (a.u.)       :      1.451337223
Magnitude (Debye)      :      3.689006052

Rotational constants in cm-1:             0.165183             0.050717             0.039373
Rotational constants in MHz :          4952.060114          1520.459997          1180.370819

                             ****ORCA TERMINATED NORMALLY****
TOTAL RUN TIME: 0 days 0 hours 0 minutes 25 seconds 850 msec
