                         Program Version 6.0.0  -   RELEASE  -
|  1> ! wb97x-v def2-tzvp def2/J RIJCOSX DEFGRID2 scfconv7 GCP(DFT/TZ) printgap
|  2> %output
|  3>     printlevel normal
|  4> end
|  5> * xyz 0 1
|  6> C -1.7919246910138666 -0.0001371872593004406 0.17011525282025006
|  7> C -0.940817931972617 -1.259588288092723 0.34738270855458403
|  8> C 0.24317909727685844 -1.261723104843395 -0.6239653055060934
|  9> C 1.097734288321905 4.544903195387224e-05 -0.4972372561061359
| 10> C 0.24305168484621764 1.2617473360873375 -0.6237826522220911
| 11> C -0.9409052809665566 1.2593413510654292 0.34760630360650063
| 12> O 1.8552500886636545 8.851015231610748e-06 0.7406664730461257
| 13> H -2.625738860630655 -0.0002336090736021587 0.8813061182396223
| 14> H -2.2277586832822873 -6.247788951501947e-05 -0.8389823430185579
| 15> H -0.5777805365472236 -1.3085303827215904 1.383970338121033
| 16> H -1.5468141069039647 -2.158840480246698 0.19033151582358046
| 17> H 0.8748906423169973 -2.1442077935545827 -0.47128698721950063
| 18> H -0.137134533704452 -1.3074410414899602 -1.653069639409202
| 19> H 1.8659087813048065 0.00013720823677408926 -1.2780375067651077
| 20> H 0.8746826679255788 2.1442690023256694 -0.4709870496566527
| 21> H -0.13728946390400093 1.3075806799708993 -1.6528730797212734
| 22> H -0.577795269454773 1.3080762696617139 1.3841761514853932
| 23> H -1.5469781141365657 2.1585798659522006 0.19077183608513604
| 24> H 1.2255170809707643 -0.0006300384104821278 1.4732230209833856
| 25> *
| 26>
| 27>                          ****END OF INPUT****

CARTESIAN COORDINATES (ANGSTROEM)
---------------------------------
  C     -1.791925   -0.000137    0.170115
  C     -0.940818   -1.259588    0.347383
  C      0.243179   -1.261723   -0.623965
  C      1.097734    0.000045   -0.497237
  C      0.243052    1.261747   -0.623783
  C     -0.940905    1.259341    0.347606
  O      1.855250    0.000009    0.740666
  H     -2.625739   -0.000234    0.881306
  H     -2.227759   -0.000062   -0.838982
  H     -0.577781   -1.308530    1.383970
  H     -1.546814   -2.158840    0.190332
  H      0.874891   -2.144208   -0.471287
  H     -0.137135   -1.307441   -1.653070
  H      1.865909    0.000137   -1.278038
  H      0.874683    2.144269   -0.470987
  H     -0.137289    1.307581   -1.652873
  H     -0.577795    1.308076    1.384176
  H     -1.546978    2.158580    0.190772
  H      1.225517   -0.000630    1.473223

 Total Charge           Charge          ....    0
 Multiplicity           Mult            ....    1
 Number of Electrons    NEL             ....   56
 Basis Dimension        Dim             ....  289

ORBITAL ENERGIES
----------------

  NO   OCC          E(Eh)            E(eV)
   0   2.0000     -21.662650      -589.4707
   1   2.0000     -12.091564      -329.0282
   2   2.0000     -12.045799      -327.7829
   3   2.0000     -12.045703      -327.7802
   4   2.0000     -12.043609      -327.7233
   5   2.0000     -12.040245      -327.6317
   6   2.0000     -12.040010      -327.6253
   7   2.0000      -1.660014       -45.1713
   8   2.0000      -1.340345       -36.4726
   9   2.0000      -1.254231       -34.1294
  10   2.0000      -1.253964       -34.1221
  11   2.0000      -1.124337       -30.5948
  12   2.0000      -1.104443       -30.0534
  13   2.0000      -1.048651       -28.5353
  14   2.0000      -0.989042       -26.9132
  15   2.0000      -0.937204       -25.5026
  16   2.0000      -0.920221       -25.0405
  17   2.0000      -0.911317       -24.7982
  18   2.0000      -0.876869       -23.8608
  19   2.0000      -0.865557       -23.5530
  20   2.0000      -0.834286       -22.7021
  21   2.0000      -0.826743       -22.4968
  22   2.0000      -0.821375       -22.3508
  23   2.0000      -0.818825       -22.2814
  24   2.0000      -0.777994       -21.1703
  25   2.0000      -0.755148       -20.5486
  26   2.0000      -0.751225       -20.4419
  27   2.0000      -0.750904       -20.4331
  28   0.0000      -0.145657        -3.9635
  29   0.0000      -0.064427        -1.7531
  30   0.0000      -0.030599        -0.8326
  31   0.0000      -0.027974        -0.7612
  32   0.0000      -0.023436        -0.6377

MULLIKEN ATOMIC CHARGES
-----------------------
   0 C :   -0.156666
   1 C :   -0.250298
   2 C :   -0.175789
   3 C :    0.078238
   4 C :   -0.175652
   5 C :   -0.250329
   6 O :   -0.443561
   7 H :    0.102424
   8 H :    0.089159
   9 H :    0.096110
  10 H :    0.106253
  11 H :    0.107673
  12 H :    0.091123
  13 H :    0.087653
  14 H :    0.107652
  15 H :    0.091106
  16 H :    0.096132
  17 H :    0.106250
  18 H :    0.292521
Sum of atomic charges:    0.0000000

LOEWDIN ATOMIC CHARGES
----------------------
   0 C :   -0.259672
   1 C :   -0.263604
   2 C :   -0.244942
   3 C :   -0.326472
   4 C :   -0.244939
   5 C :   -0.263601
   6 O :   -0.036155
   7 H :    0.130824
   8 H :    0.134424
   9 H :    0.128935
  10 H :    0.133265
  11 H :    0.136498
  12 H :    0.138932
  13 H :    0.140386
  14 H :    0.136499
  15 H :    0.138926
  16 H :    0.128944
  17 H :    0.133263
  18 H :    0.158488

  Mayer bond orders larger than 0.100000
B(  0-C ,  1-C ) :   0.9759 B(  0-C ,  5-C ) :   0.9759 B(  0-C ,  7-H ) :   0.9769
B(  0-C ,  8-H ) :   0.9707 B(  1-C ,  2-C ) :   0.9683 B(  1-C ,  9-H ) :   0.9864
B(  1-C , 10-H ) :   0.9770 B(  2-C ,  3-C ) :   0.9968 B(  2-C , 11-H ) :   0.9705
B(  2-C , 12-H ) :   0.9661 B(  3-C ,  4-C ) :   0.9968 B(  3-C ,  6-O ) :   1.0040
B(  3-C , 13-H ) :   0.9661 B(  4-C ,  5-C ) :   0.9683 B(  4-C , 14-H ) :   0.9705
B(  4-C , 15-H ) :   0.9661 B(  5-C , 16-H ) :   0.9864 B(  5-C , 17-H ) :   0.9770
B(  6-O , 18-H ) :   0.9023

FINAL SINGLE POINT ENERGY      -311.113492529916

DIPOLE MOMENT
-------------

Method             : SCF
Type of density    : Electron Density
Multiplicity       :   1
Irrep              :   0
Energy             :  -311.1270473267164220 Eh
Relativity type    :
Basis              : AO
                                X                 Y                 Z
Electronic contribution:      3.479192288       0.000306514       0.710275670
Nuclear contribution   :     -4.229571623      -0.000665191      -0.843763971
                        -----------------------------------------
Total Dipole Moment    :     -0.750379336      -0.000358677      -0.133488301
                        -----------------------------------------
Magnitude (a.u.)       :      0.762160352
Magnitude (Debye)      :      1.937257659

Rotational constants in cm-1:             0.119243             0.086713             0.065632
Rotational constants in MHz :          3574.819908          2599.593373          1967.592311

                             ****ORCA TERMINATED NORMALLY****
TOTAL RUN TIME: 0 days 0 hours 2 minutes 33 seconds 71 msec
