                         Program Version 6.0.0  -   RELEASE  -
|  1> ! wb97x-v def2-tzvp def2/J RIJCOSX DEFGRID2 scfconv7 GCP(DFT/TZ) printgap
|  2> %output
|  3>     printlevel normal
|  4> end
|  5> %cpcm
|  6>     smd true
|  7>     smdsolvent "water"
|  8> end
|  9> * xyz 0 1
| 10> C -1.7919246910138666 -0.0001371872593004406 0.17011525282025006
| 11> C -0.940817931972617 -1.259588288092723 0.34738270855458403
| 12> C 0.24317909727685844 -1.261723104843395 -0.6239653055060934
| 13> C 1.097734288321905 4.544903195387224e-05 -0.4972372561061359
| 14> C 0.24305168484621764 1.2617473360873375 -0.6237826522220911
| 15> C -0.9409052809665566 1.2593413510654292 0.34760630360650063
| 16> O 1.8552500886636545 8.851015231610748e-06 0.7406664730461257
| 17> H -2.625738860630655 -0.0002336090736021587 0.8813061182396223
| 18> H -2.2277586832822873 -6.247788951501947e-05 -0.8389823430185579
| 19> H -0.5777805365472236 -1.3085303827215904 1.383970338121033
| 20> H -1.5468141069039647 -2.158840480246698 0.19033151582358046
| 21> H 0.8748906423169973 -2.1442077935545827 -0.47128698721950063
| 22> H -0.137134533704452 -1.3074410414899602 -1.653069639409202
| 23> H 1.8659087813048065 0.00013720823677408926 -1.2780375067651077
| 24> H 0.8746826679255788 2.1442690023256694 -0.4709870496566527
| 25> H -0.13728946390400093 1.3075806799708993 -1.6528730797212734
| 26> H -0.577795269454773 1.3080762696617139 1.3841761514853932
| 27> H -1.5469781141365657 2.1585798659522006 0.19077183608513604
| 28> H 1.2255170809707643 -0.0006300384104821278 1.4732230209833856
| 29> *
| 30>
| 31>                          ****END OF INPUT****

CARTESIAN COORDINATES (ANGSTROEM)
---------------------------------
  C     -1.791925   -0.000137    0.170115
  C     -0.940818   -1.259588    0.347383
  C      0.243179   -1.261723   -0.623965
  C      1.097734    0.000045   -0.497237
  C      0.243052    1.261747   -0.623783
  C     -0.940905    1.259341    0.347606
  O      1.855250    0.000009    0.740666
  H     -2.625739   -0.000234    0.881306
  H     -2.227759   -0.000062   -0.838982
  H     -0.577781   -1.308530    1.383970
  H     -1.546814   -2.158840    0.190332
  H      0.874891   -2.144208   -0.471287
  H     -0.137135   -1.307441   -1.653070
  H      1.865909    0.000137   -1.278038
  H      0.874683    2.144269   -0.470987
  H     -0.137289    1.307581   -1.652873
  H     -0.577795    1.308076    1.384176
  H     -1.546978    2.158580    0.190772
  H      1.225517   -0.000630    1.473223

 Total Charge           Charge          ....    0
 Multiplicity           Mult            ....    1
 Number of Electrons    NEL             ....   56
 Basis Dimension        Dim             ....  289

ORBITAL ENERGIES
----------------

  NO   OCC          E(Eh)            E(eV)
   0   2.0000     -21.668612      -589.6329
   1   2.0000     -12.086974      -328.9033
   2   2.0000     -12.031646      -327.3977
   3   2.0000     -12.031517      -327.3942
   4   2.0000     -12.030283      -327.3606
   5   2.0000     -12.030159      -327.3573
   6   2.0000     -12.029136      -327.3294
   7   2.0000      -1.666493       -45.3476
   8   2.0000      -1.329461       -36.1765
   9   2.0000      -1.245337       -33.8873
  10   2.0000      -1.242387       -33.8071
  11   2.0000      -1.120358       -30.4865
  12   2.0000      -1.093304       -29.7503
  13   2.0000      -1.041442       -28.3391
  14   2.0000      -0.990821       -26.9616
  15   2.0000      -0.934524       -25.4297
  16   2.0000      -0.923811       -25.1382
  17   2.0000      -0.901855       -24.5407
  18   2.0000      -0.864774       -23.5317
  19   2.0000      -0.854325       -23.2474
  20   2.0000      -0.826539       -22.4913
  21   2.0000      -0.817505       -22.2455
  22   2.0000      -0.810488       -22.0545
  23   2.0000      -0.808751       -22.0072
  24   2.0000      -0.765770       -20.8377
  25   2.0000      -0.744376       -20.2555
  26   2.0000      -0.740904       -20.1610
  27   2.0000      -0.736550       -20.0425
  28   0.0000      -0.141866        -3.8604
  29   0.0000      -0.044758        -1.2179
  30   0.0000      -0.020821        -0.5666
  31   0.0000      -0.017360        -0.4724
  32   0.0000      -0.008268        -0.2250

MULLIKEN ATOMIC CHARGES
-----------------------
   0 C :   -0.189274
   1 C :   -0.247932
   2 C :   -0.208923
   3 C :    0.082130
   4 C :   -0.208855
   5 C :   -0.247945
   6 O :   -0.557553
   7 H :    0.112328
   8 H :    0.099351
   9 H :    0.112435
  10 H :    0.116699
  11 H :    0.112852
  12 H :    0.109640
  13 H :    0.109406
  14 H :    0.112843
  15 H :    0.109624
  16 H :    0.112431
  17 H :    0.116699
  18 H :    0.354044
Sum of atomic charges:    0.0000000

LOEWDIN ATOMIC CHARGES
----------------------
   0 C :   -0.261215
   1 C :   -0.264057
   2 C :   -0.246284
   3 C :   -0.328827
   4 C :   -0.246289
   5 C :   -0.264058
   6 O :   -0.081071
   7 H :    0.132417
   8 H :    0.136376
   9 H :    0.135229
  10 H :    0.134526
  11 H :    0.135363
  12 H :    0.144875
  13 H :    0.143230
  14 H :    0.135360
  15 H :    0.144870
  16 H :    0.135230
  17 H :    0.134524
  18 H :    0.179802

  Mayer bond orders larger than 0.100000
B(  0-C ,  1-C ) :   0.9837 B(  0-C ,  5-C ) :   0.9837 B(  0-C ,  7-H ) :   0.9728
B(  0-C ,  8-H ) :   0.9710 B(  1-C ,  2-C ) :   0.9750 B(  1-C ,  9-H ) :   0.9775
B(  1-C , 10-H ) :   0.9739 B(  2-C ,  3-C ) :   1.0063 B(  2-C , 11-H ) :   0.9697
B(  2-C , 12-H ) :   0.9638 B(  3-C ,  4-C ) :   1.0063 B(  3-C ,  6-O ) :   0.9568
B(  3-C , 13-H ) :   0.9624 B(  4-C ,  5-C ) :   0.9750 B(  4-C , 14-H ) :   0.9697
B(  4-C , 15-H ) :   0.9638 B(  5-C , 16-H ) :   0.9775 B(  5-C , 17-H ) :   0.9739
B(  6-O , 18-H ) :   0.8691

FINAL SINGLE POINT ENERGY      -311.122077570801

DIPOLE MOMENT
-------------

Method             : SCF
Type of density    : Electron Density
Multiplicity       :   1
Irrep              :   0
Energy             :  -311.1356323676008060 Eh
Relativity type    :
Basis              : AO
                                X                 Y                 Z
Electronic contribution:      3.208882102       0.000128896       0.690937046
Nuclear contribution   :     -4.229571623      -0.000665191      -0.843763971
                        -----------------------------------------
Total Dipole Moment    :     -1.020689521      -0.000536295      -0.152826925
                        -----------------------------------------
Magnitude (a.u.)       :      1.032067564
Magnitude (Debye)      :      2.623307269

Rotational constants in cm-1:             0.119243             0.086713             0.065632
Rotational constants in MHz :          3574.819908          2599.593373          1967.592311

                             ****ORCA TERMINATED NORMALLY****
TOTAL RUN TIME: 0 days 0 hours 2 minutes 54 seconds 916 msec
