                         Program Version 6.0.0  -   RELEASE  -
|  1> ! pbe def2-sv(p) def2/J RI DEFGRID1 loosescf d4 GCP(DFT/SV(P)) printgap
|  2> %output
|  3>     printlevel normal
|  4> end
|  5> * xyz 0 1
|  6> C -2.2069796807 -0.9754653323 -0.4431198243
|  7> C -1.1636757542 -0.2251971529 0.3911075868
|  8> H -1.6699658097 0.1866464446 1.2715722706
|  9> C -0.5705554172 0.9312489542 -0.422574007
| 10> H -0.394213064 0.6073356471 -1.460983687
| 11> C 0.780679638 1.3172245867 0.1874667034
| 12> H 0.6381319871 1.5000734862 1.265162708
| 13> C 1.7592880651 0.1494246869 -0.0065003949
| 14> H 2.1465359158 0.1810316079 -1.0304540551
| 15> C 1.0250258067 -1.202037975 0.1688780112
| 16> H 1.6559113383 -1.8621812925 0.7825781225
| 17> O -0.1568659434 -1.0813720185 0.9218498717
| 18> O 0.8095357394 -1.7475654635 -1.0944280913
| 19> O 2.880346506 0.2630170679 0.8300580432
| 20> O 1.223129356 2.4914111358 -0.4475682893
| 21> O -1.4840545178 1.9949252077 -0.3983994454
| 22> O -2.8917151663 -1.8906847542 0.3804392906
| 23> H -1.7056744357 -1.4889349657 -1.2721728401
| 24> H -2.8909204862 -0.2178183657 -0.8455183525
| 25> H 0.5411852837 -2.6760780665 -1.0129233371
| 26> H 2.609399098 0.2012996075 1.758318455
| 27> H 2.1254031949 2.6905671589 -0.1588175911
| 28> H -1.0255627644 2.7878276295 -0.7204072671
| 29> H -3.5849885258 -2.3244939153 -0.1368580845
| 30> *
| 31>
| 32>                          ****END OF INPUT****

CARTESIAN COORDINATES (ANGSTROEM)
---------------------------------
  C     -2.206980   -0.975465   -0.443120
  C     -1.163676   -0.225197    0.391108
  H     -1.669966    0.186646    1.271572
  C     -0.570555    0.931249   -0.422574
  H     -0.394213    0.607336   -1.460984
  C      0.780680    1.317225    0.187467
  H      0.638132    1.500073    1.265163
  C      1.759288    0.149425   -0.006500
  H      2.146536    0.181032   -1.030454
  C      1.025026   -1.202038    0.168878
  H      1.655911   -1.862181    0.782578
  O     -0.156866   -1.081372    0.921850
  O      0.809536   -1.747565   -1.094428
  O      2.880347    0.263017    0.830058
  O      1.223129    2.491411   -0.447568
  O     -1.484055    1.994925   -0.398399
  O     -2.891715   -1.890685    0.380439
  H     -1.705674   -1.488935   -1.272173
  H     -2.890920   -0.217818   -0.845518
  H      0.541185   -2.676078   -1.012923
  H      2.609399    0.201300    1.758318
  H      2.125403    2.690567   -0.158818
  H     -1.025563    2.787828   -0.720407
  H     -3.584989   -2.324494   -0.136858

 Total Charge           Charge          ....    0
 Multiplicity           Mult            ....    1
 Number of Electrons    NEL             ....   96
 Basis Dimension        Dim             ....  192

ORBITAL ENERGIES
----------------

  NO   OCC          E(Eh)            E(eV)
   0   2.0000     -18.768216      -510.7091
   1   2.0000     -18.762387      -510.5505
   2   2.0000     -18.761012      -510.5131
   3   2.0000     -18.760630      -510.5027
   4   2.0000     -18.745477      -510.0904
   5   2.0000     -18.740964      -509.9676
   6   2.0000      -9.986250      -271.7397
   7   2.0000      -9.942940      -270.5611
   8   2.0000      -9.941942      -270.5340
   9   2.0000      -9.939463      -270.4666
  10   2.0000      -9.938187      -270.4318
  11   2.0000      -9.923192      -270.0238
  12   2.0000      -0.980431       -26.6789
  13   2.0000      -0.948621       -25.8133
  14   2.0000      -0.934082       -25.4177
  15   2.0000      -0.920921       -25.0595
  16   2.0000      -0.915043       -24.8996
  17   2.0000      -0.908073       -24.7099
  18   2.0000      -0.704627       -19.1739
  19   2.0000      -0.691044       -18.8043
  20   2.0000      -0.618781       -16.8379
  21   2.0000      -0.581192       -15.8150
  22   2.0000      -0.563002       -15.3201
  23   2.0000      -0.523653       -14.2493
  24   2.0000      -0.503951       -13.7132
  25   2.0000      -0.493831       -13.4378
  26   2.0000      -0.463301       -12.6071
  27   2.0000      -0.458127       -12.4663
  28   2.0000      -0.437625       -11.9084
  29   2.0000      -0.432294       -11.7633
  30   2.0000      -0.414273       -11.2729
  31   2.0000      -0.404425       -11.0050
  32   2.0000      -0.388667       -10.5762
  33   2.0000      -0.365712        -9.9515
  34   2.0000      -0.356882        -9.7113
  35   2.0000      -0.349374        -9.5070
  36   2.0000      -0.322724        -8.7818
  37   2.0000      -0.314031        -8.5452
  38   2.0000      -0.304419        -8.2836
  39   2.0000      -0.296944        -8.0803
  40   2.0000      -0.285104        -7.7581
  41   2.0000      -0.264154        -7.1880
  42   2.0000      -0.252097        -6.8599
  43   2.0000      -0.247424        -6.7328
  44   2.0000      -0.225162        -6.1270
  45   2.0000      -0.214426        -5.8348
  46   2.0000      -0.211889        -5.7658
  47   2.0000      -0.206295        -5.6136
  48   0.0000       0.014680         0.3995
  49   0.0000       0.023051         0.6272
  50   0.0000       0.032486         0.8840
  51   0.0000       0.037289         1.0147
  52   0.0000       0.063254         1.7212

MULLIKEN ATOMIC CHARGES
-----------------------
   0 C :    0.034567
   1 C :    0.094966
   2 H :    0.077085
   3 C :   -0.001015
   4 H :    0.068639
   5 C :    0.059454
   6 H :    0.041138
   7 C :    0.063267
   8 H :    0.081050
   9 C :    0.154772
  10 H :    0.060238
  11 O :   -0.314266
  12 O :   -0.394106
  13 O :   -0.421676
  14 O :   -0.426029
  15 O :   -0.416784
  16 O :   -0.429449
  17 H :    0.056166
  18 H :    0.082582
  19 H :    0.310648
  20 H :    0.301153
  21 H :    0.309989
  22 H :    0.309124
  23 H :    0.298486
Sum of atomic charges:    0.0000000

LOEWDIN ATOMIC CHARGES
----------------------
   0 C :   -0.138138
   1 C :   -0.050589
   2 H :    0.123384
   3 C :   -0.071223
   4 H :    0.106611
   5 C :   -0.079393
   6 H :    0.099981
   7 C :   -0.088705
   8 H :    0.126132
   9 C :   -0.010568
  10 H :    0.097345
  11 O :   -0.145748
  12 O :   -0.306416
  13 O :   -0.312579
  14 O :   -0.323710
  15 O :   -0.318070
  16 O :   -0.345022
  17 H :    0.092606
  18 H :    0.105594
  19 H :    0.290176
  20 H :    0.284641
  21 H :    0.291634
  22 H :    0.286881
  23 H :    0.285175

  Mayer bond orders larger than 0.100000
B(  0-C ,  1-C ) :   1.0900 B(  0-C , 16-O ) :   1.1092 B(  0-C , 17-H ) :   0.8948
B(  0-C , 18-H ) :   0.9102 B(  1-C ,  2-H ) :   0.8764 B(  1-C ,  3-C ) :   0.9720
B(  1-C , 11-O ) :   0.9755 B(  3-C ,  4-H ) :   0.8804 B(  3-C ,  5-C ) :   1.0289
B(  3-C , 15-O ) :   1.0705 B(  5-C ,  6-H ) :   0.8598 B(  5-C ,  7-C ) :   1.0215
B(  5-C , 14-O ) :   1.0771 B(  7-C ,  8-H ) :   0.8628 B(  7-C ,  9-C ) :   0.9784
B(  7-C , 13-O ) :   1.0316 B(  9-C , 10-H ) :   0.8995 B(  9-C , 11-O ) :   1.0937
B(  9-C , 12-O ) :   1.1003 B( 12-O , 19-H ) :   0.8332 B( 13-O , 20-H ) :   0.8472
B( 14-O , 21-H ) :   0.8376 B( 15-O , 22-H ) :   0.8310 B( 16-O , 23-H ) :   0.8533

Dispersion correction           -0.024331716
FINAL SINGLE POINT ENERGY      -685.691191756246

DIPOLE MOMENT
-------------

Method             : SCF
Type of density    : Electron Density
Multiplicity       :   1
Irrep              :   0
Energy             :  -685.8207414326175240 Eh
Relativity type    :
Basis              : AO
                                X                 Y                 Z
Electronic contribution:      1.670226139       0.101060939       1.302157990
Nuclear contribution   :     -1.452992671      -0.388642172      -1.461174240
                        -----------------------------------------
Total Dipole Moment    :      0.217233468      -0.287581234      -0.159016250
                        -----------------------------------------
Magnitude (a.u.)       :      0.393928310
Magnitude (Debye)      :      1.001286190

Rotational constants in cm-1:             0.042969             0.025697             0.018515
Rotational constants in MHz :          1288.184380           770.365434           555.060524

                             ****ORCA TERMINATED NORMALLY****
TOTAL RUN TIME: 0 days 0 hours 0 minutes 12 seconds 37 msec
