                         Program Version 6.0.0  -   RELEASE  -
|  1> ! wb97x-v def2-tzvp def2/J RIJCOSX DEFGRID2 scfconv7 GCP(DFT/TZ) printgap
|  2> %output
|  3>     printlevel normal
|  4> end
|  5> * xyz 0 1
|  6> C -2.552406555414265 -0.9371811256687061 0.3352309486838268
|  7> C -1.1305937272025448 -0.4732293352904894 0.5886696520547655
|  8> H -0.9669694350021086 -0.444621757720315 1.6790441003579692
|  9> C -0.8179007958238509 0.9048547924473564 -0.0036860682587972447
| 10> H -1.0242185960876813 0.8927401200593543 -1.0822399929389344
| 11> C 0.6482614515867995 1.2547961594993924 0.21694026911808115
| 12> H 0.8213802978882185 1.3687982847187634 1.3001060892170577
| 13> C 1.5464859250497716 0.1497917371709094 -0.30623224831721485
| 14> H 1.450454739158671 0.0839859249950989 -1.4011859455016678
| 15> C 1.118836294715905 -1.1894650465098424 0.2915447103156033
| 16> H 1.2528883579898185 -1.1861119655641923 1.386097958286789
| 17> O -0.25575816579511845 -1.4464027141019846 -0.013534839978498667
| 18> O 1.8888611601079845 -2.195816886219363 -0.31136743300618613
| 19> O 2.8898727315240587 0.4608481648936936 0.06770936310940864
| 20> O 0.9970187728781051 2.465888489888204 -0.4621205623450637
| 21> O -1.585225794008626 1.9293215712349177 0.6424742869590996
| 22> O -2.8958486402252808 -0.9644008624327719 -1.0551163291522458
| 23> H -3.247163998919614 -0.24425186659776674 0.8187324190204976
| 24> H -2.6868459453617892 -1.9287783983817288 0.7882144690374343
| 25> H 1.879610223231391 -2.972556317754315 0.26463613516394185
| 26> H 3.46244522499826 -0.20291028050961193 -0.33986292287021813
| 27> H 0.41547173358493694 3.156667921091962 -0.11599386714361307
| 28> H -2.454458819924686 1.961845523656859 0.22337799064347555
| 29> H -2.3188574541590206 -1.6114476865604501 -1.4820324310360444
| 30> *
| 31>
| 32>                          ****END OF INPUT****

CARTESIAN COORDINATES (ANGSTROEM)
---------------------------------
  C     -2.552407   -0.937181    0.335231
  C     -1.130594   -0.473229    0.588670
  H     -0.966969   -0.444622    1.679044
  C     -0.817901    0.904855   -0.003686
  H     -1.024219    0.892740   -1.082240
  C      0.648261    1.254796    0.216940
  H      0.821380    1.368798    1.300106
  C      1.546486    0.149792   -0.306232
  H      1.450455    0.083986   -1.401186
  C      1.118836   -1.189465    0.291545
  H      1.252888   -1.186112    1.386098
  O     -0.255758   -1.446403   -0.013535
  O      1.888861   -2.195817   -0.311367
  O      2.889873    0.460848    0.067709
  O      0.997019    2.465888   -0.462121
  O     -1.585226    1.929322    0.642474
  O     -2.895849   -0.964401   -1.055116
  H     -3.247164   -0.244252    0.818732
  H     -2.686846   -1.928778    0.788214
  H      1.879610   -2.972556    0.264636
  H      3.462445   -0.202910   -0.339863
  H      0.415472    3.156668   -0.115994
  H     -2.454459    1.961846    0.223378
  H     -2.318857   -1.611448   -1.482032

 Total Charge           Charge          ....    0
 Multiplicity           Mult            ....    1
 Number of Electrons    NEL             ....   96
 Basis Dimension        Dim             ....  444

ORBITAL ENERGIES
----------------

  NO   OCC          E(Eh)            E(eV)
   0   2.0000     -21.702429      -590.5531
   1   2.0000     -21.696860      -590.4016
   2   2.0000     -21.692962      -590.2955
   3   2.0000     -21.682457      -590.0097
   4   2.0000     -21.674545      -589.7944
   5   2.0000     -21.669313      -589.6520
   6   2.0000     -12.162249      -330.9516
   7   2.0000     -12.114653      -329.6565
   8   2.0000     -12.108348      -329.4849
   9   2.0000     -12.107162      -329.4526
  10   2.0000     -12.105685      -329.4124
  11   2.0000     -12.104134      -329.3702
  12   2.0000      -1.730805       -47.0976
  13   2.0000      -1.696054       -46.1520
  14   2.0000      -1.689300       -45.9682
  15   2.0000      -1.681334       -45.7514
  16   2.0000      -1.679164       -45.6924
  17   2.0000      -1.669235       -45.4222
  18   2.0000      -1.338668       -36.4270
  19   2.0000      -1.326572       -36.0979
  20   2.0000      -1.242274       -33.8040
  21   2.0000      -1.204692       -32.7813
  22   2.0000      -1.167460       -31.7682
  23   2.0000      -1.116099       -30.3706
  24   2.0000      -1.097093       -29.8534
  25   2.0000      -1.072344       -29.1800
  26   2.0000      -1.058788       -28.8111
  27   2.0000      -1.044725       -28.4284
  28   2.0000      -1.035090       -28.1662
  29   2.0000      -1.025689       -27.9104
  30   2.0000      -0.993304       -27.0292
  31   2.0000      -0.984357       -26.7857
  32   2.0000      -0.977598       -26.6018
  33   2.0000      -0.967318       -26.3221
  34   2.0000      -0.960316       -26.1315
  35   2.0000      -0.950596       -25.8670
  36   2.0000      -0.949113       -25.8267
  37   2.0000      -0.933505       -25.4020
  38   2.0000      -0.922924       -25.1141
  39   2.0000      -0.906768       -24.6744
  40   2.0000      -0.899419       -24.4744
  41   2.0000      -0.879951       -23.9447
  42   2.0000      -0.855714       -23.2852
  43   2.0000      -0.845331       -23.0026
  44   2.0000      -0.821042       -22.3417
  45   2.0000      -0.806042       -21.9335
  46   2.0000      -0.801133       -21.7999
  47   2.0000      -0.774840       -21.0845
  48   0.0000      -0.240485        -6.5439
  49   0.0000      -0.197147        -5.3647
  50   0.0000      -0.176697        -4.8082
  51   0.0000      -0.159915        -4.3515
  52   0.0000      -0.131069        -3.5666

MULLIKEN ATOMIC CHARGES
-----------------------
   0 C :   -0.048002
   1 C :    0.000732
   2 H :    0.074768
   3 C :    0.026238
   4 H :    0.098246
   5 C :    0.113230
   6 H :    0.082879
   7 C :    0.103043
   8 H :    0.084094
   9 C :    0.054090
  10 H :    0.073058
  11 O :   -0.274281
  12 O :   -0.412420
  13 O :   -0.422655
  14 O :   -0.427586
  15 O :   -0.457875
  16 O :   -0.456995
  17 H :    0.109546
  18 H :    0.109441
  19 H :    0.317174
  20 H :    0.308222
  21 H :    0.308074
  22 H :    0.319818
  23 H :    0.317160
Sum of atomic charges:   -0.0000000

LOEWDIN ATOMIC CHARGES
----------------------
   0 C :   -0.315491
   1 C :   -0.308892
   2 H :    0.144964
   3 C :   -0.307315
   4 H :    0.145571
   5 C :   -0.305456
   6 H :    0.145494
   7 C :   -0.306628
   8 H :    0.147079
   9 C :   -0.411600
  10 H :    0.123320
  11 O :    0.176960
  12 O :    0.013056
  13 O :   -0.002352
  14 O :   -0.006610
  15 O :   -0.013620
  16 O :   -0.047260
  17 H :    0.129656
  18 H :    0.123358
  19 H :    0.179058
  20 H :    0.173851
  21 H :    0.173285
  22 H :    0.175187
  23 H :    0.174387

  Mayer bond orders larger than 0.100000
B(  0-C ,  1-C ) :   0.9552 B(  0-C , 16-O ) :   1.0035 B(  0-C , 17-H ) :   0.9770
B(  0-C , 18-H ) :   0.9822 B(  1-C ,  2-H ) :   0.9612 B(  1-C ,  3-C ) :   0.9369
B(  1-C , 11-O ) :   0.9875 B(  3-C ,  4-H ) :   0.9646 B(  3-C ,  5-C ) :   0.9387
B(  3-C , 15-O ) :   1.0672 B(  5-C ,  6-H ) :   0.9715 B(  5-C ,  7-C ) :   0.9373
B(  5-C , 14-O ) :   1.0952 B(  7-C ,  8-H ) :   0.9673 B(  7-C ,  9-C ) :   0.9368
B(  7-C , 13-O ) :   1.1507 B(  9-C , 10-H ) :   0.9859 B(  9-C , 11-O ) :   1.0226
B(  9-C , 12-O ) :   1.2012 B( 12-O , 19-H ) :   0.8925 B( 13-O , 20-H ) :   0.8911
B( 14-O , 21-H ) :   0.8897 B( 15-O , 22-H ) :   0.8955 B( 16-O , 23-H ) :   0.8884

FINAL SINGLE POINT ENERGY      -687.248272575771

DIPOLE MOMENT
-------------

Method             : SCF
Type of density    : Electron Density
Multiplicity       :   1
Irrep              :   0
Energy             :  -687.2671033504705065 Eh
Relativity type    :
Basis              : AO
                                X                 Y                 Z
Electronic contribution:      2.633406170       0.055092689      -1.392423907
Nuclear contribution   :     -3.121495787      -1.013411887       2.058157748
                        -----------------------------------------
Total Dipole Moment    :     -0.488089617      -0.958319197       0.665733841
                        -----------------------------------------
Magnitude (a.u.)       :      1.264835446
Magnitude (Debye)      :      3.214956207

Rotational constants in cm-1:             0.039379             0.026526             0.017491
Rotational constants in MHz :          1180.561514           795.221303           524.363943

                             ****ORCA TERMINATED NORMALLY****
TOTAL RUN TIME: 0 days 0 hours 4 minutes 51 seconds 212 msec
