                         Program Version 6.0.0  -   RELEASE  -
|  1> ! wb97x-v def2-tzvp def2/J RIJCOSX DEFGRID2 scfconv7 GCP(DFT/TZ) printgap
|  2> %output
|  3>     printlevel normal
|  4> end
|  5> %cpcm
|  6>     smd true
|  7>     smdsolvent "water"
|  8> end
|  9> * xyz 0 1
| 10> C -2.552406555414265 -0.9371811256687061 0.3352309486838268
| 11> C -1.1305937272025448 -0.4732293352904894 0.5886696520547655
| 12> H -0.9669694350021086 -0.444621757720315 1.6790441003579692
| 13> C -0.8179007958238509 0.9048547924473564 -0.0036860682587972447
| 14> H -1.0242185960876813 0.8927401200593543 -1.0822399929389344
| 15> C 0.6482614515867995 1.2547961594993924 0.21694026911808115
| 16> H 0.8213802978882185 1.3687982847187634 1.3001060892170577
| 17> C 1.5464859250497716 0.1497917371709094 -0.30623224831721485
| 18> H 1.450454739158671 0.0839859249950989 -1.4011859455016678
| 19> C 1.118836294715905 -1.1894650465098424 0.2915447103156033
| 20> H 1.2528883579898185 -1.1861119655641923 1.386097958286789
| 21> O -0.25575816579511845 -1.4464027141019846 -0.013534839978498667
| 22> O 1.8888611601079845 -2.195816886219363 -0.31136743300618613
| 23> O 2.8898727315240587 0.4608481648936936 0.06770936310940864
| 24> O 0.9970187728781051 2.465888489888204 -0.4621205623450637
| 25> O -1.585225794008626 1.9293215712349177 0.6424742869590996
| 26> O -2.8958486402252808 -0.9644008624327719 -1.0551163291522458
| 27> H -3.247163998919614 -0.24425186659776674 0.8187324190204976
| 28> H -2.6868459453617892 -1.9287783983817288 0.7882144690374343
| 29> H 1.879610223231391 -2.972556317754315 0.26463613516394185
| 30> H 3.46244522499826 -0.20291028050961193 -0.33986292287021813
| 31> H 0.41547173358493694 3.156667921091962 -0.11599386714361307
| 32> H -2.454458819924686 1.961845523656859 0.22337799064347555
| 33> H -2.3188574541590206 -1.6114476865604501 -1.4820324310360444
| 34> *
| 35>
| 36>                          ****END OF INPUT****

CARTESIAN COORDINATES (ANGSTROEM)
---------------------------------
  C     -2.552407   -0.937181    0.335231
  C     -1.130594   -0.473229    0.588670
  H     -0.966969   -0.444622    1.679044
  C     -0.817901    0.904855   -0.003686
  H     -1.024219    0.892740   -1.082240
  C      0.648261    1.254796    0.216940
  H      0.821380    1.368798    1.300106
  C      1.546486    0.149792   -0.306232
  H      1.450455    0.083986   -1.401186
  C      1.118836   -1.189465    0.291545
  H      1.252888   -1.186112    1.386098
  O     -0.255758   -1.446403   -0.013535
  O      1.888861   -2.195817   -0.311367
  O      2.889873    0.460848    0.067709
  O      0.997019    2.465888   -0.462121
  O     -1.585226    1.929322    0.642474
  O     -2.895849   -0.964401   -1.055116
  H     -3.247164   -0.244252    0.818732
  H     -2.686846   -1.928778    0.788214
  H      1.879610   -2.972556    0.264636
  H      3.462445   -0.202910   -0.339863
  H      0.415472    3.156668   -0.115994
  H     -2.454459    1.961846    0.223378
  H     -2.318857   -1.611448   -1.482032

 Total Charge           Charge          ....    0
 Multiplicity           Mult            ....    1
 Number of Electrons    NEL             ....   96
 Basis Dimension        Dim             ....  444

ORBITAL ENERGIES
----------------

  NO   OCC          E(Eh)            E(eV)
   0   2.0000     -21.692334      -590.2784
   1   2.0000     -21.690974      -590.2414
   2   2.0000     -21.683566      -590.0398
   3   2.0000     -21.682415      -590.0085
   4   2.0000     -21.679453      -589.9279
   5   2.0000     -21.677765      -589.8820
   6   2.0000     -12.151812      -330.6676
   7   2.0000     -12.103592      -329.3555
   8   2.0000     -12.102362      -329.3220
   9   2.0000     -12.102025      -329.3128
  10   2.0000     -12.100056      -329.2593
  11   2.0000     -12.091948      -329.0386
  12   2.0000      -1.722949       -46.8838
  13   2.0000      -1.689872       -45.9838
  14   2.0000      -1.686525       -45.8927
  15   2.0000      -1.681444       -45.7544
  16   2.0000      -1.677697       -45.6525
  17   2.0000      -1.676101       -45.6090
  18   2.0000      -1.333668       -36.2910
  19   2.0000      -1.318497       -35.8781
  20   2.0000      -1.233296       -33.5597
  21   2.0000      -1.200596       -32.6699
  22   2.0000      -1.162411       -31.6308
  23   2.0000      -1.115022       -30.3413
  24   2.0000      -1.088584       -29.6219
  25   2.0000      -1.068192       -29.0670
  26   2.0000      -1.055046       -28.7093
  27   2.0000      -1.042508       -28.3681
  28   2.0000      -1.036227       -28.1972
  29   2.0000      -1.018521       -27.7154
  30   2.0000      -0.992430       -27.0054
  31   2.0000      -0.983841       -26.7717
  32   2.0000      -0.975945       -26.5568
  33   2.0000      -0.969987       -26.3947
  34   2.0000      -0.958423       -26.0800
  35   2.0000      -0.950964       -25.8770
  36   2.0000      -0.944840       -25.7104
  37   2.0000      -0.933476       -25.4012
  38   2.0000      -0.925046       -25.1718
  39   2.0000      -0.902551       -24.5597
  40   2.0000      -0.895890       -24.3784
  41   2.0000      -0.878660       -23.9096
  42   2.0000      -0.854584       -23.2544
  43   2.0000      -0.832742       -22.6600
  44   2.0000      -0.814562       -22.1654
  45   2.0000      -0.799172       -21.7466
  46   2.0000      -0.793036       -21.5796
  47   2.0000      -0.769179       -20.9304
  48   0.0000      -0.233591        -6.3563
  49   0.0000      -0.190461        -5.1827
  50   0.0000      -0.171404        -4.6641
  51   0.0000      -0.148234        -4.0336
  52   0.0000      -0.124953        -3.4002

MULLIKEN ATOMIC CHARGES
-----------------------
   0 C :   -0.029907
   1 C :    0.018500
   2 H :    0.111784
   3 C :    0.023326
   4 H :    0.103508
   5 C :    0.133151
   6 H :    0.106468
   7 C :    0.113003
   8 H :    0.102603
   9 C :    0.070710
  10 H :    0.107411
  11 O :   -0.330216
  12 O :   -0.490422
  13 O :   -0.522536
  14 O :   -0.529174
  15 O :   -0.532551
  16 O :   -0.553927
  17 H :    0.135355
  18 H :    0.133117
  19 H :    0.377875
  20 H :    0.361230
  21 H :    0.358452
  22 H :    0.372395
  23 H :    0.359846
Sum of atomic charges:   -0.0000000

LOEWDIN ATOMIC CHARGES
----------------------
   0 C :   -0.308961
   1 C :   -0.300065
   2 H :    0.157703
   3 C :   -0.301197
   4 H :    0.148795
   5 C :   -0.306483
   6 H :    0.153136
   7 C :   -0.308301
   8 H :    0.151740
   9 C :   -0.403451
  10 H :    0.138258
  11 O :    0.159368
  12 O :   -0.011353
  13 O :   -0.040287
  14 O :   -0.047617
  15 O :   -0.035685
  16 O :   -0.082098
  17 H :    0.138922
  18 H :    0.130294
  19 H :    0.201678
  20 H :    0.192095
  21 H :    0.189720
  22 H :    0.195636
  23 H :    0.188151

  Mayer bond orders larger than 0.100000
B(  0-C ,  1-C ) :   0.9567 B(  0-C , 16-O ) :   0.9636 B(  0-C , 17-H ) :   0.9675
B(  0-C , 18-H ) :   0.9809 B(  1-C ,  2-H ) :   0.9514 B(  1-C ,  3-C ) :   0.9648
B(  1-C , 11-O ) :   0.9562 B(  3-C ,  4-H ) :   0.9648 B(  3-C ,  5-C ) :   0.9630
B(  3-C , 15-O ) :   1.0458 B(  5-C ,  6-H ) :   0.9568 B(  5-C ,  7-C ) :   0.9549
B(  5-C , 14-O ) :   1.0416 B(  7-C ,  8-H ) :   0.9567 B(  7-C ,  9-C ) :   0.9593
B(  7-C , 13-O ) :   1.0899 B(  9-C , 10-H ) :   0.9829 B(  9-C , 11-O ) :   1.0175
B(  9-C , 12-O ) :   1.1893 B( 12-O , 19-H ) :   0.8531 B( 13-O , 20-H ) :   0.8587
B( 14-O , 21-H ) :   0.8593 B( 15-O , 22-H ) :   0.8610 B( 16-O , 23-H ) :   0.8620

FINAL SINGLE POINT ENERGY      -687.288220610877

DIPOLE MOMENT
-------------

Method             : SCF
Type of density    : Electron Density
Multiplicity       :   1
Irrep              :   0
Energy             :  -687.3070513855769832 Eh
Relativity type    :
Basis              : AO
                                X                 Y                 Z
Electronic contribution:      2.378586871      -0.284432607      -1.005989875
Nuclear contribution   :     -3.121495787      -1.013411887       2.058157748
                        -----------------------------------------
Total Dipole Moment    :     -0.742908916      -1.297844494       1.052167874
                        -----------------------------------------
Magnitude (a.u.)       :      1.828488781
Magnitude (Debye)      :      4.647649127

Rotational constants in cm-1:             0.039379             0.026526             0.017491
Rotational constants in MHz :          1180.561514           795.221303           524.363943

                             ****ORCA TERMINATED NORMALLY****
TOTAL RUN TIME: 0 days 0 hours 5 minutes 27 seconds 312 msec
