                         Program Version 6.0.0  -   RELEASE  -
|  1> ! pbe def2-sv(p) def2/J RI DEFGRID1 loosescf d4 GCP(DFT/SV(P)) printgap
|  2> %output
|  3>     printlevel normal
|  4> end
|  5> * xyz 0 1
|  6> C -1.9014666327 -0.6458351397 -0.851655827
|  7> C -1.172258329 -0.1726230243 0.4156908895
|  8> H -1.9148720194 -0.1983113785 1.2232367915
|  9> C -0.6172338414 1.2565709083 0.2909137017
| 10> H -1.3486802762 1.8755215234 -0.2466291292
| 11> C 0.7058200805 1.2958099134 -0.5061805633
| 12> H 1.1122169965 2.31103915 -0.4092100105
| 13> C 1.7079497328 0.3093443936 0.1088411884
| 14> H 2.5706099442 0.2082649016 -0.5599919104
| 15> C 1.0638689815 -1.0895342492 0.2318983105
| 16> H 1.6967534382 -1.6931849095 0.8986646073
| 17> O -0.1817726162 -1.088770094 0.8772197629
| 18> O 1.008244528 -1.6451836858 -1.0528013343
| 19> O 2.2134675958 0.7465793518 1.3392270342
| 20> O 0.4999728573 1.066363728 -1.8761049128
| 21> O -0.3386821567 1.8093525681 1.5580849008
| 22> O -2.8509150258 -1.6173776176 -0.4655213439
| 23> H -1.1893469123 -1.0619271141 -1.5680253492
| 24> H -2.4009240923 0.2173206892 -1.309374983
| 25> H 0.8024749342 -2.5909931441 -0.9971581422
| 26> H 1.4739787581 1.0786823393 1.8790740981
| 27> H 0.6355496423 0.1239427956 -2.0638831228
| 28> H -1.1551131391 1.8916563836 2.0718166513
| 29> H -3.3014448837 -1.9547983323 -1.2521980698
| 30> *
| 31>
| 32>                          ****END OF INPUT****

CARTESIAN COORDINATES (ANGSTROEM)
---------------------------------
  C     -1.901467   -0.645835   -0.851656
  C     -1.172258   -0.172623    0.415691
  H     -1.914872   -0.198311    1.223237
  C     -0.617234    1.256571    0.290914
  H     -1.348680    1.875522   -0.246629
  C      0.705820    1.295810   -0.506181
  H      1.112217    2.311039   -0.409210
  C      1.707950    0.309344    0.108841
  H      2.570610    0.208265   -0.559992
  C      1.063869   -1.089534    0.231898
  H      1.696753   -1.693185    0.898665
  O     -0.181773   -1.088770    0.877220
  O      1.008245   -1.645184   -1.052801
  O      2.213468    0.746579    1.339227
  O      0.499973    1.066364   -1.876105
  O     -0.338682    1.809353    1.558085
  O     -2.850915   -1.617378   -0.465521
  H     -1.189347   -1.061927   -1.568025
  H     -2.400924    0.217321   -1.309375
  H      0.802475   -2.590993   -0.997158
  H      1.473979    1.078682    1.879074
  H      0.635550    0.123943   -2.063883
  H     -1.155113    1.891656    2.071817
  H     -3.301445   -1.954798   -1.252198

 Total Charge           Charge          ....    0
 Multiplicity           Mult            ....    1
 Number of Electrons    NEL             ....   96
 Basis Dimension        Dim             ....  192

ORBITAL ENERGIES
----------------

  NO   OCC          E(Eh)            E(eV)
   0   2.0000     -18.781096      -511.0596
   1   2.0000     -18.774784      -510.8879
   2   2.0000     -18.764566      -510.6098
   3   2.0000     -18.748849      -510.1821
   4   2.0000     -18.748140      -510.1628
   5   2.0000     -18.735611      -509.8219
   6   2.0000      -9.984834      -271.7012
   7   2.0000      -9.948974      -270.7253
   8   2.0000      -9.947621      -270.6885
   9   2.0000      -9.940436      -270.4930
  10   2.0000      -9.936837      -270.3951
  11   2.0000      -9.933405      -270.3017
  12   2.0000      -0.985693       -26.8221
  13   2.0000      -0.951737       -25.8981
  14   2.0000      -0.927786       -25.2463
  15   2.0000      -0.925657       -25.1884
  16   2.0000      -0.916677       -24.9440
  17   2.0000      -0.910931       -24.7877
  18   2.0000      -0.706734       -19.2312
  19   2.0000      -0.685163       -18.6442
  20   2.0000      -0.627602       -17.0779
  21   2.0000      -0.584299       -15.8996
  22   2.0000      -0.571465       -15.5504
  23   2.0000      -0.521526       -14.1915
  24   2.0000      -0.515824       -14.0363
  25   2.0000      -0.494335       -13.4515
  26   2.0000      -0.474352       -12.9078
  27   2.0000      -0.451131       -12.2759
  28   2.0000      -0.439018       -11.9463
  29   2.0000      -0.422038       -11.4842
  30   2.0000      -0.417764       -11.3679
  31   2.0000      -0.402114       -10.9421
  32   2.0000      -0.391737       -10.6597
  33   2.0000      -0.382436       -10.4066
  34   2.0000      -0.360586        -9.8120
  35   2.0000      -0.359615        -9.7856
  36   2.0000      -0.333801        -9.0832
  37   2.0000      -0.325248        -8.8504
  38   2.0000      -0.307286        -8.3617
  39   2.0000      -0.292467        -7.9584
  40   2.0000      -0.278379        -7.5751
  41   2.0000      -0.268167        -7.2972
  42   2.0000      -0.257814        -7.0155
  43   2.0000      -0.242096        -6.5878
  44   2.0000      -0.231039        -6.2869
  45   2.0000      -0.218221        -5.9381
  46   2.0000      -0.216594        -5.8938
  47   2.0000      -0.202720        -5.5163
  48   0.0000       0.008358         0.2274
  49   0.0000       0.012176         0.3313
  50   0.0000       0.025827         0.7028
  51   0.0000       0.048707         1.3254
  52   0.0000       0.069519         1.8917

MULLIKEN ATOMIC CHARGES
-----------------------
   0 C :    0.017148
   1 C :    0.053136
   2 H :    0.067888
   3 C :    0.032763
   4 H :    0.078332
   5 C :    0.049899
   6 H :    0.083756
   7 C :    0.027292
   8 H :    0.084206
   9 C :    0.180437
  10 H :    0.074530
  11 O :   -0.310889
  12 O :   -0.411820
  13 O :   -0.428102
  14 O :   -0.425138
  15 O :   -0.426187
  16 O :   -0.435860
  17 H :    0.068306
  18 H :    0.071457
  19 H :    0.314642
  20 H :    0.304316
  21 H :    0.319585
  22 H :    0.311536
  23 H :    0.298770
Sum of atomic charges:    0.0000000

LOEWDIN ATOMIC CHARGES
----------------------
   0 C :   -0.145380
   1 C :   -0.061844
   2 H :    0.118426
   3 C :   -0.076752
   4 H :    0.109165
   5 C :   -0.065452
   6 H :    0.117554
   7 C :   -0.083295
   8 H :    0.120217
   9 C :   -0.011577
  10 H :    0.104807
  11 O :   -0.141987
  12 O :   -0.312606
  13 O :   -0.317620
  14 O :   -0.316448
  15 O :   -0.308507
  16 O :   -0.346484
  17 H :    0.097352
  18 H :    0.098563
  19 H :    0.293805
  20 H :    0.273735
  21 H :    0.276508
  22 H :    0.292463
  23 H :    0.285357

  Mayer bond orders larger than 0.100000
B(  0-C ,  1-C ) :   1.0486 B(  0-C , 16-O ) :   1.0821 B(  0-C , 17-H ) :   0.8902
B(  0-C , 18-H ) :   0.9139 B(  1-C ,  2-H ) :   0.8941 B(  1-C ,  3-C ) :   0.9831
B(  1-C , 11-O ) :   0.9933 B(  3-C ,  4-H ) :   0.8953 B(  3-C ,  5-C ) :   0.9635
B(  3-C , 15-O ) :   1.0010 B(  5-C ,  6-H ) :   0.9004 B(  5-C ,  7-C ) :   1.0153
B(  5-C , 14-O ) :   1.0904 B(  7-C ,  8-H ) :   0.8950 B(  7-C ,  9-C ) :   0.9703
B(  7-C , 13-O ) :   1.0746 B(  9-C , 10-H ) :   0.9035 B(  9-C , 11-O ) :   1.0749
B(  9-C , 12-O ) :   1.0601 B( 12-O , 19-H ) :   0.8309 B( 13-O , 20-H ) :   0.8098
B( 14-O , 21-H ) :   0.8057 B( 15-O , 22-H ) :   0.8405 B( 16-O , 23-H ) :   0.8519

Dispersion correction           -0.025820388
FINAL SINGLE POINT ENERGY      -685.694513038802

DIPOLE MOMENT
-------------

Method             : SCF
Type of density    : Electron Density
Multiplicity       :   1
Irrep              :   0
Energy             :  -685.8267809127767123 Eh
Relativity type    :
Basis              : AO
                                X                 Y                 Z
Electronic contribution:      1.754002009      -0.743088094       1.857687194
Nuclear contribution   :     -2.826955968       0.183600661      -2.183756449
                        -----------------------------------------
Total Dipole Moment    :     -1.072953959      -0.559487433      -0.326069255
                        -----------------------------------------
Magnitude (a.u.)       :      1.253226853
Magnitude (Debye)      :      3.185449509

Rotational constants in cm-1:             0.042069             0.027382             0.024218
Rotational constants in MHz :          1261.207601           820.901050           726.050956

                             ****ORCA TERMINATED NORMALLY****
TOTAL RUN TIME: 0 days 0 hours 0 minutes 12 seconds 107 msec
