                         Program Version 6.0.0  -   RELEASE  -
|  1> ! wb97x-v def2-tzvp def2/J RIJCOSX DEFGRID2 scfconv7 GCP(DFT/TZ) printgap
|  2> %output
|  3>     printlevel normal
|  4> end
|  5> * xyz 0 1
|  6> C -1.4692717279797864 -1.4066771379792369 0.36666232908617996
|  7> C -1.0428586013243268 -2.642217602188422e-05 9.83925816525149e-06
|  8> C -1.4690578843327173 1.0210871047339771 1.0349155302455886
|  9> C -1.46931866628234 0.38560431782346744 -1.4015606683401736
| 10> Br 1.0176572019570973 0.00033205541349436325 0.0002556960548042035
| 11> H -1.1132982599560246 -1.6892273898559265 1.360289494004027
| 12> H -2.5662596711098464 -1.43618201440862 0.37395382895108326
| 13> H -1.1128882418511985 -2.138281795864427 -0.36243420805535903
| 14> H -1.1122288828657063 0.7557495790546985 2.0330281288187737
| 15> H -1.1127971000134955 2.022739937749997 0.7824521200682407
| 16> H -2.5659763015729933 1.042494570894725 1.0570348317712068
| 17> H -2.5663000428506146 0.39373744021199153 -1.4308187440512106
| 18> H -1.1132897994683726 -0.3337901953903354 -2.142863010861998
| 19> H -1.1129084997958734 1.3827759277359708 -1.6707351954799168
| 20> *
| 21>
| 22>                          ****END OF INPUT****

CARTESIAN COORDINATES (ANGSTROEM)
---------------------------------
  C     -1.469272   -1.406677    0.366662
  C     -1.042859   -0.000026    0.000010
  C     -1.469058    1.021087    1.034916
  C     -1.469319    0.385604   -1.401561
  Br     1.017657    0.000332    0.000256
  H     -1.113298   -1.689227    1.360289
  H     -2.566260   -1.436182    0.373954
  H     -1.112888   -2.138282   -0.362434
  H     -1.112229    0.755750    2.033028
  H     -1.112797    2.022740    0.782452
  H     -2.565976    1.042495    1.057035
  H     -2.566300    0.393737   -1.430819
  H     -1.113290   -0.333790   -2.142863
  H     -1.112908    1.382776   -1.670735

 Total Charge           Charge          ....    0
 Multiplicity           Mult            ....    1
 Number of Electrons    NEL             ....   68
 Basis Dimension        Dim             ....  226

ORBITAL ENERGIES
----------------

  NO   OCC          E(Eh)            E(eV)
   0   2.0000    -494.695957    -13461.3613
   1   2.0000     -66.865623     -1819.5061
   2   2.0000     -60.922310     -1657.7803
   3   2.0000     -60.920974     -1657.7440
   4   2.0000     -60.920973     -1657.7440
   5   2.0000     -12.126444      -329.9773
   6   2.0000     -12.052149      -327.9556
   7   2.0000     -12.052141      -327.9554
   8   2.0000     -12.051670      -327.9426
   9   2.0000     -10.617245      -288.9099
  10   2.0000      -8.396487      -228.4800
  11   2.0000      -8.390543      -228.3183
  12   2.0000      -8.390541      -228.3182
  13   2.0000      -4.381460      -119.2256
  14   2.0000      -4.379180      -119.1636
  15   2.0000      -4.379180      -119.1635
  16   2.0000      -4.372575      -118.9838
  17   2.0000      -4.372567      -118.9836
  18   2.0000      -1.358434       -36.9649
  19   2.0000      -1.273249       -34.6469
  20   2.0000      -1.202506       -32.7218
  21   2.0000      -1.202499       -32.7217
  22   2.0000      -1.027647       -27.9637
  23   2.0000      -0.899203       -24.4686
  24   2.0000      -0.897853       -24.4318
  25   2.0000      -0.897831       -24.4312
  26   2.0000      -0.831815       -22.6348
  27   2.0000      -0.831767       -22.6335
  28   2.0000      -0.815279       -22.1849
  29   2.0000      -0.801238       -21.8028
  30   2.0000      -0.801225       -21.8024
  31   2.0000      -0.756366       -20.5818
  32   2.0000      -0.704062       -19.1585
  33   2.0000      -0.704058       -19.1584
  34   0.0000      -0.293390        -7.9836
  35   0.0000      -0.040538        -1.1031
  36   0.0000      -0.024231        -0.6594
  37   0.0000      -0.024204        -0.6586
  38   0.0000      -0.020570        -0.5597

MULLIKEN ATOMIC CHARGES
-----------------------
   0 C :   -0.334391
   1 C :    0.103187
   2 C :   -0.334179
   3 C :   -0.334366
   4 Br:   -0.213346
   5 H :    0.130578
   6 H :    0.109855
   7 H :    0.130604
   8 H :    0.130665
   9 H :    0.130634
  10 H :    0.109733
  11 H :    0.109850
  12 H :    0.130583
  13 H :    0.130592
Sum of atomic charges:   -0.0000000

LOEWDIN ATOMIC CHARGES
----------------------
   0 C :   -0.282508
   1 C :   -0.464436
   2 C :   -0.282537
   3 C :   -0.282502
   4 Br:    0.174835
   5 H :    0.125825
   6 H :    0.127413
   7 H :    0.125830
   8 H :    0.125830
   9 H :    0.125837
  10 H :    0.127352
  11 H :    0.127409
  12 H :    0.125827
  13 H :    0.125825

  Mayer bond orders larger than 0.100000
B(  0-C ,  1-C ) :   0.9953 B(  0-C ,  5-H ) :   0.9745 B(  0-C ,  6-H ) :   0.9578
B(  0-C ,  7-H ) :   0.9744 B(  1-C ,  2-C ) :   0.9953 B(  1-C ,  3-C ) :   0.9954
B(  1-C ,  4-Br) :   0.9666 B(  2-C ,  8-H ) :   0.9745 B(  2-C ,  9-H ) :   0.9745
B(  2-C , 10-H ) :   0.9577 B(  3-C , 11-H ) :   0.9578 B(  3-C , 12-H ) :   0.9744
B(  3-C , 13-H ) :   0.9745

FINAL SINGLE POINT ENERGY     -2731.780862062670

DIPOLE MOMENT
-------------

Method             : SCF
Type of density    : Electron Density
Multiplicity       :   1
Irrep              :   0
Energy             : -2731.7924047702695134 Eh
Relativity type    :
Basis              : AO
                                X                 Y                 Z
Electronic contribution:     21.876014112       0.002730286       0.002209140
Nuclear contribution   :    -22.927812033      -0.002905936      -0.002334278
                        -----------------------------------------
Total Dipole Moment    :     -1.051797921      -0.000175650      -0.000125138
                        -----------------------------------------
Magnitude (a.u.)       :      1.051797943
Magnitude (Debye)      :      2.673457909

Rotational constants in cm-1:             0.151518             0.065696             0.065691
Rotational constants in MHz :          4542.391689          1969.514327          1969.372433

                             ****ORCA TERMINATED NORMALLY****
TOTAL RUN TIME: 0 days 0 hours 1 minutes 57 seconds 911 msec
