                         Program Version 6.0.0  -   RELEASE  -
|  1> ! wb97x-v def2-tzvp def2/J RIJCOSX DEFGRID2 scfconv7 GCP(DFT/TZ) printgap
|  2> %output
|  3>     printlevel normal
|  4> end
|  5> %cpcm
|  6>     smd true
|  7>     smdsolvent "water"
|  8> end
|  9> * xyz 0 1
| 10> C -1.4692717279797864 -1.4066771379792369 0.36666232908617996
| 11> C -1.0428586013243268 -2.642217602188422e-05 9.83925816525149e-06
| 12> C -1.4690578843327173 1.0210871047339771 1.0349155302455886
| 13> C -1.46931866628234 0.38560431782346744 -1.4015606683401736
| 14> Br 1.0176572019570973 0.00033205541349436325 0.0002556960548042035
| 15> H -1.1132982599560246 -1.6892273898559265 1.360289494004027
| 16> H -2.5662596711098464 -1.43618201440862 0.37395382895108326
| 17> H -1.1128882418511985 -2.138281795864427 -0.36243420805535903
| 18> H -1.1122288828657063 0.7557495790546985 2.0330281288187737
| 19> H -1.1127971000134955 2.022739937749997 0.7824521200682407
| 20> H -2.5659763015729933 1.042494570894725 1.0570348317712068
| 21> H -2.5663000428506146 0.39373744021199153 -1.4308187440512106
| 22> H -1.1132897994683726 -0.3337901953903354 -2.142863010861998
| 23> H -1.1129084997958734 1.3827759277359708 -1.6707351954799168
| 24> *
| 25>
| 26>                          ****END OF INPUT****

CARTESIAN COORDINATES (ANGSTROEM)
---------------------------------
  C     -1.469272   -1.406677    0.366662
  C     -1.042859   -0.000026    0.000010
  C     -1.469058    1.021087    1.034916
  C     -1.469319    0.385604   -1.401561
  Br     1.017657    0.000332    0.000256
  H     -1.113298   -1.689227    1.360289
  H     -2.566260   -1.436182    0.373954
  H     -1.112888   -2.138282   -0.362434
  H     -1.112229    0.755750    2.033028
  H     -1.112797    2.022740    0.782452
  H     -2.565976    1.042495    1.057035
  H     -2.566300    0.393737   -1.430819
  H     -1.113290   -0.333790   -2.142863
  H     -1.112908    1.382776   -1.670735

 Total Charge           Charge          ....    0
 Multiplicity           Mult            ....    1
 Number of Electrons    NEL             ....   68
 Basis Dimension        Dim             ....  226

ORBITAL ENERGIES
----------------

  NO   OCC          E(Eh)            E(eV)
   0   2.0000    -494.692174    -13461.2584
   1   2.0000     -66.861983     -1819.4070
   2   2.0000     -60.918620     -1657.6799
   3   2.0000     -60.917374     -1657.6460
   4   2.0000     -60.917374     -1657.6460
   5   2.0000     -12.115879      -329.6898
   6   2.0000     -12.035746      -327.5093
   7   2.0000     -12.035688      -327.5077
   8   2.0000     -12.035240      -327.4955
   9   2.0000     -10.613662      -288.8124
  10   2.0000      -8.392675      -228.3763
  11   2.0000      -8.387180      -228.2268
  12   2.0000      -8.387178      -228.2267
  13   2.0000      -4.377581      -119.1200
  14   2.0000      -4.375483      -119.0629
  15   2.0000      -4.375482      -119.0629
  16   2.0000      -4.369336      -118.8957
  17   2.0000      -4.369328      -118.8955
  18   2.0000      -1.346892       -36.6508
  19   2.0000      -1.267108       -34.4797
  20   2.0000      -1.186960       -32.2988
  21   2.0000      -1.186920       -32.2977
  22   2.0000      -1.013158       -27.5694
  23   2.0000      -0.885213       -24.0879
  24   2.0000      -0.882957       -24.0265
  25   2.0000      -0.882940       -24.0260
  26   2.0000      -0.815112       -22.1803
  27   2.0000      -0.815025       -22.1780
  28   2.0000      -0.799173       -21.7466
  29   2.0000      -0.785816       -21.3831
  30   2.0000      -0.785806       -21.3829
  31   2.0000      -0.747076       -20.3290
  32   2.0000      -0.700918       -19.0729
  33   2.0000      -0.700915       -19.0729
  34   0.0000      -0.284135        -7.7317
  35   0.0000      -0.023493        -0.6393
  36   0.0000      -0.010076        -0.2742
  37   0.0000      -0.010052        -0.2735
  38   0.0000      -0.004784        -0.1302

MULLIKEN ATOMIC CHARGES
-----------------------
   0 C :   -0.377208
   1 C :    0.146585
   2 C :   -0.377019
   3 C :   -0.377118
   4 Br:   -0.266347
   5 H :    0.138893
   6 H :    0.139302
   7 H :    0.138882
   8 H :    0.138913
   9 H :    0.138827
  10 H :    0.139271
  11 H :    0.139307
  12 H :    0.138826
  13 H :    0.138885
Sum of atomic charges:    0.0000000

LOEWDIN ATOMIC CHARGES
----------------------
   0 C :   -0.283792
   1 C :   -0.455095
   2 C :   -0.283864
   3 C :   -0.283785
   4 Br:    0.138599
   5 H :    0.126511
   6 H :    0.136300
   7 H :    0.126542
   8 H :    0.126510
   9 H :    0.126500
  10 H :    0.136240
  11 H :    0.136299
  12 H :    0.126532
  13 H :    0.126503

  Mayer bond orders larger than 0.100000
B(  0-C ,  1-C ) :   0.9938 B(  0-C ,  5-H ) :   0.9705 B(  0-C ,  6-H ) :   0.9570
B(  0-C ,  7-H ) :   0.9705 B(  1-C ,  2-C ) :   0.9942 B(  1-C ,  3-C ) :   0.9939
B(  1-C ,  4-Br) :   0.9149 B(  2-C ,  8-H ) :   0.9705 B(  2-C ,  9-H ) :   0.9705
B(  2-C , 10-H ) :   0.9569 B(  3-C , 11-H ) :   0.9570 B(  3-C , 12-H ) :   0.9705
B(  3-C , 13-H ) :   0.9705

FINAL SINGLE POINT ENERGY     -2731.782905342341

DIPOLE MOMENT
-------------

Method             : SCF
Type of density    : Electron Density
Multiplicity       :   1
Irrep              :   0
Energy             : -2731.7944480499409110 Eh
Relativity type    :
Basis              : AO
                                X                 Y                 Z
Electronic contribution:     21.482497491       0.001942830       0.001661295
Nuclear contribution   :    -22.927812033      -0.002905936      -0.002334278
                        -----------------------------------------
Total Dipole Moment    :     -1.445314542      -0.000963107      -0.000672983
                        -----------------------------------------
Magnitude (a.u.)       :      1.445315020
Magnitude (Debye)      :      3.673698827

Rotational constants in cm-1:             0.151518             0.065696             0.065691
Rotational constants in MHz :          4542.391689          1969.514327          1969.372433

                             ****ORCA TERMINATED NORMALLY****
TOTAL RUN TIME: 0 days 0 hours 1 minutes 53 seconds 924 msec
