                         Program Version 6.0.0  -   RELEASE  -
|  1> ! r2scan-3c def2/J RI DEFGRID2 scfconv6 printgap
|  2> %output
|  3>     printlevel normal
|  4> end
|  5> * xyz 0 1
|  6> C -2.6042147108 -0.934266493 -0.0002419207
|  7> C -1.1486708919 -0.577609425 0.000146767
|  8> C -0.1814333511 -1.5706076 0.0001376094
|  9> C 1.1691419987 -1.2692864875 8.0191e-05
| 10> C 1.572103776 0.0578659068 1.58257e-05
| 11> C 0.61068163 1.0621372912 5.71865e-05
| 12> C -0.7410259863 0.7612655477 0.0001544588
| 13> C -1.7531251697 1.865186792 2.03668e-05
| 14> O 2.886713414 0.42760185 -0.0001770215
| 15> H -3.0997915508 -0.5231282779 0.8780697633
| 16> H -3.0983167796 -0.5263353981 -0.8809062062
| 17> H -2.7336664778 -2.0131047322 0.0015941494
| 18> H -0.4859562039 -2.6073780205 6.36181e-05
| 19> H 1.9019045118 -2.0634299872 -2.3365e-06
| 20> H 0.9463528148 2.0883683182 3.55615e-05
| 21> H -2.3905813209 1.7969833078 -0.8801982532
| 22> H -2.3928141977 1.7954396023 0.8784652595
| 23> H -1.2633345408 2.8347991588 0.0014506629
| 24> H 3.4552471388 -0.3565179378 -0.0001771924
| 25> *
| 26>
| 27>                          ****END OF INPUT****

CARTESIAN COORDINATES (ANGSTROEM)
---------------------------------
  C     -2.604215   -0.934266   -0.000242
  C     -1.148671   -0.577609    0.000147
  C     -0.181433   -1.570608    0.000138
  C      1.169142   -1.269286    0.000080
  C      1.572104    0.057866    0.000016
  C      0.610682    1.062137    0.000057
  C     -0.741026    0.761266    0.000154
  C     -1.753125    1.865187    0.000020
  O      2.886713    0.427602   -0.000177
  H     -3.099792   -0.523128    0.878070
  H     -3.098317   -0.526335   -0.880906
  H     -2.733666   -2.013105    0.001594
  H     -0.485956   -2.607378    0.000064
  H      1.901905   -2.063430   -0.000002
  H      0.946353    2.088368    0.000036
  H     -2.390581    1.796983   -0.880198
  H     -2.392814    1.795440    0.878465
  H     -1.263335    2.834799    0.001451
  H      3.455247   -0.356518   -0.000177

 Total Charge           Charge          ....    0
 Multiplicity           Mult            ....    1
 Number of Electrons    NEL             ....   66
 Basis Dimension        Dim             ....  226

ORBITAL ENERGIES
----------------

  NO   OCC          E(Eh)            E(eV)
   0   2.0000     -18.980191      -516.4773
   1   2.0000     -10.089391      -274.5463
   2   2.0000     -10.039229      -273.1813
   3   2.0000     -10.030393      -272.9409
   4   2.0000     -10.029282      -272.9106
   5   2.0000     -10.027384      -272.8590
   6   2.0000     -10.026242      -272.8279
   7   2.0000     -10.024296      -272.7750
   8   2.0000     -10.022424      -272.7240
   9   2.0000      -1.022513       -27.8240
  10   2.0000      -0.825598       -22.4657
  11   2.0000      -0.742189       -20.1960
  12   2.0000      -0.729872       -19.8608
  13   2.0000      -0.668309       -18.1856
  14   2.0000      -0.637519       -17.3478
  15   2.0000      -0.573723       -15.6118
  16   2.0000      -0.558542       -15.1987
  17   2.0000      -0.495348       -13.4791
  18   2.0000      -0.456778       -12.4296
  19   2.0000      -0.435207       -11.8426
  20   2.0000      -0.407413       -11.0863
  21   2.0000      -0.402771       -10.9600
  22   2.0000      -0.379745       -10.3334
  23   2.0000      -0.371139       -10.0992
  24   2.0000      -0.369420       -10.0524
  25   2.0000      -0.369316       -10.0496
  26   2.0000      -0.355516        -9.6741
  27   2.0000      -0.334494        -9.1020
  28   2.0000      -0.315049        -8.5729
  29   2.0000      -0.299705        -8.1554
  30   2.0000      -0.293376        -7.9832
  31   2.0000      -0.226245        -6.1564
  32   2.0000      -0.193903        -5.2764
  33   0.0000      -0.025537        -0.6949
  34   0.0000      -0.008573        -0.2333
  35   0.0000       0.060849         1.6558
  36   0.0000       0.081949         2.2299
  37   0.0000       0.096677         2.6307

MULLIKEN ATOMIC CHARGES
-----------------------
   0 C :   -0.553672
   1 C :    0.135508
   2 C :   -0.197587
   3 C :   -0.356888
   4 C :    0.434664
   5 C :   -0.396830
   6 C :    0.224899
   7 C :   -0.557731
   8 O :   -0.418553
   9 H :    0.158737
  10 H :    0.158971
  11 H :    0.148509
  12 H :    0.145038
  13 H :    0.135479
  14 H :    0.154890
  15 H :    0.161735
  16 H :    0.161628
  17 H :    0.152249
  18 H :    0.308952
Sum of atomic charges:    0.0000000

LOEWDIN ATOMIC CHARGES
----------------------
   0 C :   -0.387303
   1 C :   -0.117829
   2 C :   -0.151414
   3 C :   -0.179934
   4 C :    0.180733
   5 C :   -0.142059
   6 C :   -0.082840
   7 C :   -0.384646
   8 O :   -0.501555
   9 H :    0.160981
  10 H :    0.161022
  11 H :    0.158737
  12 H :    0.167527
  13 H :    0.167529
  14 H :    0.179708
  15 H :    0.164191
  16 H :    0.164146
  17 H :    0.160198
  18 H :    0.282808

  Mayer bond orders larger than 0.100000
B(  0-C ,  1-C ) :   0.7920 B(  0-C ,  9-H ) :   0.9811 B(  0-C , 10-H ) :   0.9811
B(  0-C , 11-H ) :   0.9900 B(  1-C ,  2-C ) :   1.4478 B(  1-C ,  6-C ) :   1.4368
B(  2-C ,  3-C ) :   1.4309 B(  2-C , 12-H ) :   0.9191 B(  3-C ,  4-C ) :   1.3497
B(  3-C , 13-H ) :   0.9339 B(  4-C ,  5-C ) :   1.4775 B(  4-C ,  8-O ) :   0.9037
B(  5-C ,  6-C ) :   1.3939 B(  5-C ,  8-O ) :   0.1138 B(  5-C , 14-H ) :   0.9218
B(  6-C ,  7-C ) :   0.7793 B(  7-C , 15-H ) :   0.9797 B(  7-C , 16-H ) :   0.9798
B(  7-C , 17-H ) :   0.9886 B(  8-O , 18-H ) :   0.8847

Dispersion correction           -0.006252194
FINAL SINGLE POINT ENERGY      -386.004783850991

DIPOLE MOMENT
-------------

Method             : SCF
Type of density    : Electron Density
Multiplicity       :   1
Irrep              :   0
Energy             :  -386.0058335144544230 Eh
Relativity type    :
Basis              : AO
                                X                 Y                 Z
Electronic contribution:      8.429418563      -0.792738873       0.001167383
Nuclear contribution   :     -8.551741699       0.405711792      -0.001508359
                        -----------------------------------------
Total Dipole Moment    :     -0.122323136      -0.387027081      -0.000340976
                        -----------------------------------------
Magnitude (a.u.)       :      0.405897804
Magnitude (Debye)      :      1.031710226

Rotational constants in cm-1:             0.101087             0.043776             0.030896
Rotational constants in MHz :          3030.502174          1312.365942           926.251105

                             ****ORCA TERMINATED NORMALLY****
TOTAL RUN TIME: 0 days 0 hours 0 minutes 25 seconds 572 msec
