                         Program Version 6.0.0  -   RELEASE  -
|  1> ! r2scan-3c def2/J RI DEFGRID2 scfconv6 printgap
|  2> %output
|  3>     printlevel normal
|  4> end
|  5> %cpcm
|  6>     smd true
|  7>     smdsolvent "water"
|  8> end
|  9> * xyz 0 1
| 10> C -2.6042147108 -0.934266493 -0.0002419207
| 11> C -1.1486708919 -0.577609425 0.000146767
| 12> C -0.1814333511 -1.5706076 0.0001376094
| 13> C 1.1691419987 -1.2692864875 8.0191e-05
| 14> C 1.572103776 0.0578659068 1.58257e-05
| 15> C 0.61068163 1.0621372912 5.71865e-05
| 16> C -0.7410259863 0.7612655477 0.0001544588
| 17> C -1.7531251697 1.865186792 2.03668e-05
| 18> O 2.886713414 0.42760185 -0.0001770215
| 19> H -3.0997915508 -0.5231282779 0.8780697633
| 20> H -3.0983167796 -0.5263353981 -0.8809062062
| 21> H -2.7336664778 -2.0131047322 0.0015941494
| 22> H -0.4859562039 -2.6073780205 6.36181e-05
| 23> H 1.9019045118 -2.0634299872 -2.3365e-06
| 24> H 0.9463528148 2.0883683182 3.55615e-05
| 25> H -2.3905813209 1.7969833078 -0.8801982532
| 26> H -2.3928141977 1.7954396023 0.8784652595
| 27> H -1.2633345408 2.8347991588 0.0014506629
| 28> H 3.4552471388 -0.3565179378 -0.0001771924
| 29> *
| 30>
| 31>                          ****END OF INPUT****

CARTESIAN COORDINATES (ANGSTROEM)
---------------------------------
  C     -2.604215   -0.934266   -0.000242
  C     -1.148671   -0.577609    0.000147
  C     -0.181433   -1.570608    0.000138
  C      1.169142   -1.269286    0.000080
  C      1.572104    0.057866    0.000016
  C      0.610682    1.062137    0.000057
  C     -0.741026    0.761266    0.000154
  C     -1.753125    1.865187    0.000020
  O      2.886713    0.427602   -0.000177
  H     -3.099792   -0.523128    0.878070
  H     -3.098317   -0.526335   -0.880906
  H     -2.733666   -2.013105    0.001594
  H     -0.485956   -2.607378    0.000064
  H      1.901905   -2.063430   -0.000002
  H      0.946353    2.088368    0.000036
  H     -2.390581    1.796983   -0.880198
  H     -2.392814    1.795440    0.878465
  H     -1.263335    2.834799    0.001451
  H      3.455247   -0.356518   -0.000177

 Total Charge           Charge          ....    0
 Multiplicity           Mult            ....    1
 Number of Electrons    NEL             ....   66
 Basis Dimension        Dim             ....  226

ORBITAL ENERGIES
----------------

  NO   OCC          E(Eh)            E(eV)
   0   2.0000     -18.979732      -516.4648
   1   2.0000     -10.090830      -274.5854
   2   2.0000     -10.039621      -273.1920
   3   2.0000     -10.030321      -272.9389
   4   2.0000     -10.027934      -272.8740
   5   2.0000     -10.025025      -272.7948
   6   2.0000     -10.023630      -272.7568
   7   2.0000     -10.017301      -272.5846
   8   2.0000     -10.015503      -272.5357
   9   2.0000      -1.022049       -27.8114
  10   2.0000      -0.826512       -22.4905
  11   2.0000      -0.739824       -20.1316
  12   2.0000      -0.728619       -19.8267
  13   2.0000      -0.664018       -18.0689
  14   2.0000      -0.633526       -17.2391
  15   2.0000      -0.571397       -15.5485
  16   2.0000      -0.556090       -15.1320
  17   2.0000      -0.491931       -13.3861
  18   2.0000      -0.455060       -12.3828
  19   2.0000      -0.431570       -11.7436
  20   2.0000      -0.403349       -10.9757
  21   2.0000      -0.399123       -10.8607
  22   2.0000      -0.375418       -10.2156
  23   2.0000      -0.372814       -10.1448
  24   2.0000      -0.366776        -9.9805
  25   2.0000      -0.362012        -9.8509
  26   2.0000      -0.347251        -9.4492
  27   2.0000      -0.332165        -9.0387
  28   2.0000      -0.311470        -8.4755
  29   2.0000      -0.296932        -8.0799
  30   2.0000      -0.295656        -8.0452
  31   2.0000      -0.229402        -6.2423
  32   2.0000      -0.196738        -5.3535
  33   0.0000      -0.027747        -0.7550
  34   0.0000      -0.011036        -0.3003
  35   0.0000       0.081701         2.2232
  36   0.0000       0.091794         2.4978
  37   0.0000       0.104842         2.8529

MULLIKEN ATOMIC CHARGES
-----------------------
   0 C :   -0.582216
   1 C :    0.107925
   2 C :   -0.225697
   3 C :   -0.356147
   4 C :    0.385417
   5 C :   -0.426716
   6 C :    0.185720
   7 C :   -0.586396
   8 O :   -0.466088
   9 H :    0.177279
  10 H :    0.177450
  11 H :    0.168060
  12 H :    0.177221
  13 H :    0.180791
  14 H :    0.181798
  15 H :    0.181467
  16 H :    0.181410
  17 H :    0.170304
  18 H :    0.368418
Sum of atomic charges:   -0.0000000

LOEWDIN ATOMIC CHARGES
----------------------
   0 C :   -0.393646
   1 C :   -0.125386
   2 C :   -0.164649
   3 C :   -0.181810
   4 C :    0.164644
   5 C :   -0.161016
   6 C :   -0.089760
   7 C :   -0.390397
   8 O :   -0.521809
   9 H :    0.167751
  10 H :    0.167778
  11 H :    0.164410
  12 H :    0.178927
  13 H :    0.184640
  14 H :    0.187650
  15 H :    0.171454
  16 H :    0.171423
  17 H :    0.165402
  18 H :    0.304393

  Mayer bond orders larger than 0.100000
B(  0-C ,  1-C ) :   0.8099 B(  0-C ,  9-H ) :   0.9744 B(  0-C , 10-H ) :   0.9744
B(  0-C , 11-H ) :   0.9839 B(  1-C ,  2-C ) :   1.4126 B(  1-C ,  6-C ) :   1.3802
B(  2-C ,  3-C ) :   1.3735 B(  2-C , 12-H ) :   0.9445 B(  3-C ,  4-C ) :   1.3437
B(  3-C , 13-H ) :   0.9558 B(  4-C ,  5-C ) :   1.4066 B(  4-C ,  8-O ) :   0.9121
B(  5-C ,  6-C ) :   1.3983 B(  5-C ,  8-O ) :   0.1046 B(  5-C , 14-H ) :   0.9368
B(  6-C ,  7-C ) :   0.7952 B(  7-C , 15-H ) :   0.9721 B(  7-C , 16-H ) :   0.9722
B(  7-C , 17-H ) :   0.9835 B(  8-O , 18-H ) :   0.8531

Dispersion correction           -0.006252194
FINAL SINGLE POINT ENERGY      -386.013432419648

DIPOLE MOMENT
-------------

Method             : SCF
Type of density    : Electron Density
Multiplicity       :   1
Irrep              :   0
Energy             :  -386.0144820831119432 Eh
Relativity type    :
Basis              : AO
                                X                 Y                 Z
Electronic contribution:      8.351782494      -0.995152018       0.001058417
Nuclear contribution   :     -8.551741699       0.405711792      -0.001508359
                        -----------------------------------------
Total Dipole Moment    :     -0.199959205      -0.589440226      -0.000449943
                        -----------------------------------------
Magnitude (a.u.)       :      0.622433664
Magnitude (Debye)      :      1.582100642

Rotational constants in cm-1:             0.101087             0.043776             0.030896
Rotational constants in MHz :          3030.502174          1312.365942           926.251105

                             ****ORCA TERMINATED NORMALLY****
TOTAL RUN TIME: 0 days 0 hours 0 minutes 30 seconds 713 msec
