                         Program Version 6.0.0  -   RELEASE  -
|  1> ! r2scan-3c def2/J RI DEFGRID2 scfconv6 printgap
|  2> %output
|  3>     printlevel normal
|  4> end
|  5> * xyz 0 1
|  6> C 2.5800617358 2.6633765051 1.0111389431
|  7> C 2.3425738217 1.7208921168 -0.1667172977
|  8> C 3.158345704 0.410197714 -0.0328151198
|  9> C 2.094299266 -0.6395223344 0.0696540852
| 10> C 2.1772639725 -2.0081914478 0.2123107649
| 11> C 0.9996061621 -2.7371672643 0.2793387244
| 12> C -0.2373372148 -2.1156950706 0.2054118821
| 13> C -0.3277472609 -0.7371474873 0.0623056971
| 14> C 0.8575388763 -0.0071353906 -0.0050861435
| 15> O 0.9374630662 1.3356133454 -0.144463172
| 16> O -1.4927080771 0.0183965379 -0.0278323403
| 17> C -2.7529343241 -0.4715714025 0.0455872775
| 18> O -3.0591461532 -1.6410806957 0.1993450564
| 19> N -3.619577925 0.5405977944 -0.0777431028
| 20> C -5.0533075503 0.3649486645 -0.0469560196
| 21> C 2.6064999409 2.4255026452 -1.4953169625
| 22> H 3.6154392369 2.9898542541 1.0213933445
| 23> H 1.9320040306 3.5312701605 0.9248597642
| 24> H 2.3533855102 2.1547488463 1.9452796331
| 25> H 3.7942575935 0.24637596 -0.9032063828
| 26> H 3.7906564684 0.423818934 0.8551595176
| 27> H 3.1354559106 -2.4987004972 0.270218664
| 28> H 1.0352908099 -3.8088792224 0.3908865776
| 29> H -1.140750566 -2.6997441729 0.2603445989
| 30> H -3.2423580613 1.4681768505 -0.2011301009
| 31> H -5.2560468678 -0.69469392 0.0950736573
| 32> H -5.4936909023 0.6961420372 -0.9866838213
| 33> H -5.484041912 0.9310003586 0.7780241759
| 34> H 3.6434065298 2.7432211608 -1.5459012944
| 35> H 1.9609458874 3.2948017073 -1.5861159478
| 36> H 2.3956148084 1.7510025129 -2.321922541
| 37> *
| 38>
| 39>                          ****END OF INPUT****

CARTESIAN COORDINATES (ANGSTROEM)
---------------------------------
  C      2.580062    2.663377    1.011139
  C      2.342574    1.720892   -0.166717
  C      3.158346    0.410198   -0.032815
  C      2.094299   -0.639522    0.069654
  C      2.177264   -2.008191    0.212311
  C      0.999606   -2.737167    0.279339
  C     -0.237337   -2.115695    0.205412
  C     -0.327747   -0.737147    0.062306
  C      0.857539   -0.007135   -0.005086
  O      0.937463    1.335613   -0.144463
  O     -1.492708    0.018397   -0.027832
  C     -2.752934   -0.471571    0.045587
  O     -3.059146   -1.641081    0.199345
  N     -3.619578    0.540598   -0.077743
  C     -5.053308    0.364949   -0.046956
  C      2.606500    2.425503   -1.495317
  H      3.615439    2.989854    1.021393
  H      1.932004    3.531270    0.924860
  H      2.353386    2.154749    1.945280
  H      3.794258    0.246376   -0.903206
  H      3.790656    0.423819    0.855160
  H      3.135456   -2.498700    0.270219
  H      1.035291   -3.808879    0.390887
  H     -1.140751   -2.699744    0.260345
  H     -3.242358    1.468177   -0.201130
  H     -5.256047   -0.694694    0.095074
  H     -5.493691    0.696142   -0.986684
  H     -5.484042    0.931000    0.778024
  H      3.643407    2.743221   -1.545901
  H      1.960946    3.294802   -1.586116
  H      2.395615    1.751003   -2.321923

 Total Charge           Charge          ....    0
 Multiplicity           Mult            ....    1
 Number of Electrons    NEL             ....  118
 Basis Dimension        Dim             ....  399

ORBITAL ENERGIES
----------------

  NO   OCC          E(Eh)            E(eV)
   0   2.0000     -19.003951      -517.1238
   1   2.0000     -18.978564      -516.4330
   2   2.0000     -18.915293      -514.7113
   3   2.0000     -14.191223      -386.1628
   4   2.0000     -10.174630      -276.8658
   5   2.0000     -10.106206      -275.0038
   6   2.0000     -10.097488      -274.7666
   7   2.0000     -10.086125      -274.4574
   8   2.0000     -10.067718      -273.9565
   9   2.0000     -10.043359      -273.2937
  10   2.0000     -10.036385      -273.1039
  11   2.0000     -10.027936      -272.8740
  12   2.0000     -10.027628      -272.8656
  13   2.0000     -10.027527      -272.8629
  14   2.0000     -10.024447      -272.7791
  15   2.0000     -10.023356      -272.7494
  16   2.0000      -1.077512       -29.3206
  17   2.0000      -1.036492       -28.2044
  18   2.0000      -0.980493       -26.6806
  19   2.0000      -0.900980       -24.5169
  20   2.0000      -0.821275       -22.3480
  21   2.0000      -0.784389       -21.3443
  22   2.0000      -0.737320       -20.0635
  23   2.0000      -0.721074       -19.6214
  24   2.0000      -0.679191       -18.4817
  25   2.0000      -0.668443       -18.1893
  26   2.0000      -0.655139       -17.8272
  27   2.0000      -0.605367       -16.4729
  28   2.0000      -0.577444       -15.7130
  29   2.0000      -0.555400       -15.1132
  30   2.0000      -0.541833       -14.7440
  31   2.0000      -0.519312       -14.1312
  32   2.0000      -0.477592       -12.9959
  33   2.0000      -0.455149       -12.3852
  34   2.0000      -0.450210       -12.2508
  35   2.0000      -0.446657       -12.1542
  36   2.0000      -0.442013       -12.0278
  37   2.0000      -0.432062       -11.7570
  38   2.0000      -0.416173       -11.3246
  39   2.0000      -0.406032       -11.0487
  40   2.0000      -0.404487       -11.0066
  41   2.0000      -0.387407       -10.5419
  42   2.0000      -0.381232       -10.3738
  43   2.0000      -0.373953       -10.1758
  44   2.0000      -0.368141       -10.0176
  45   2.0000      -0.361460        -9.8358
  46   2.0000      -0.356546        -9.7021
  47   2.0000      -0.348050        -9.4709
  48   2.0000      -0.337778        -9.1914
  49   2.0000      -0.333149        -9.0654
  50   2.0000      -0.324469        -8.8292
  51   2.0000      -0.313654        -8.5350
  52   2.0000      -0.303555        -8.2602
  53   2.0000      -0.298462        -8.1216
  54   2.0000      -0.285317        -7.7639
  55   2.0000      -0.237462        -6.4617
  56   2.0000      -0.236333        -6.4310
  57   2.0000      -0.213067        -5.7978
  58   2.0000      -0.186715        -5.0808
  59   0.0000      -0.025921        -0.7054
  60   0.0000      -0.009342        -0.2542
  61   0.0000       0.033820         0.9203
  62   0.0000       0.048659         1.3241
  63   0.0000       0.069384         1.8880

MULLIKEN ATOMIC CHARGES
-----------------------
   0 C :   -0.493062
   1 C :    0.311185
   2 C :   -0.465336
   3 C :    0.236264
   4 C :   -0.280416
   5 C :   -0.180958
   6 C :   -0.232335
   7 C :   -0.045451
   8 C :    0.113896
   9 O :   -0.178812
  10 O :   -0.122215
  11 C :    0.332476
  12 O :   -0.488207
  13 N :   -0.148185
  14 C :   -0.394299
  15 C :   -0.492432
  16 H :    0.157401
  17 H :    0.159591
  18 H :    0.159048
  19 H :    0.171207
  20 H :    0.171377
  21 H :    0.147995
  22 H :    0.145539
  23 H :    0.202015
  24 H :    0.252588
  25 H :    0.196287
  26 H :    0.144631
  27 H :    0.144654
  28 H :    0.157236
  29 H :    0.159494
  30 H :    0.158827
Sum of atomic charges:   -0.0000000

LOEWDIN ATOMIC CHARGES
----------------------
   0 C :   -0.368589
   1 C :    0.103592
   2 C :   -0.219267
   3 C :   -0.057691
   4 C :   -0.161337
   5 C :   -0.176580
   6 C :   -0.127132
   7 C :    0.226801
   8 C :    0.236839
   9 O :   -0.631652
  10 O :   -0.478672
  11 C :    0.465610
  12 O :   -0.433322
  13 N :   -0.604002
  14 C :   -0.107993
  15 C :   -0.368625
  16 H :    0.160973
  17 H :    0.164837
  18 H :    0.166058
  19 H :    0.174974
  20 H :    0.175022
  21 H :    0.168795
  22 H :    0.167775
  23 H :    0.207330
  24 H :    0.280124
  25 H :    0.205221
  26 H :    0.169488
  27 H :    0.169599
  28 H :    0.161085
  29 H :    0.164786
  30 H :    0.165955

  Mayer bond orders larger than 0.100000
B(  0-C ,  1-C ) :   0.9630 B(  0-C , 16-H ) :   0.9767 B(  0-C , 17-H ) :   0.9722
B(  0-C , 18-H ) :   0.9648 B(  1-C ,  2-C ) :   0.8939 B(  1-C ,  8-C ) :   0.1437
B(  1-C ,  9-O ) :   0.6341 B(  1-C , 15-C ) :   0.9617 B(  2-C ,  3-C ) :   0.6822
B(  2-C , 19-H ) :   0.9658 B(  2-C , 20-H ) :   0.9677 B(  3-C ,  4-C ) :   1.2679
B(  3-C ,  7-C ) :  -0.1152 B(  3-C ,  8-C ) :   1.4087 B(  4-C ,  5-C ) :   1.4011
B(  4-C , 21-H ) :   0.9419 B(  5-C ,  6-C ) :   1.3446 B(  5-C , 22-H ) :   0.9634
B(  6-C ,  7-C ) :   1.3952 B(  6-C , 23-H ) :   0.9387 B(  7-C ,  8-C ) :   1.4129
B(  7-C , 10-O ) :   0.9079 B(  8-C ,  9-O ) :   1.1401 B( 10-O , 11-C ) :   1.0910
B( 11-C , 12-O ) :   1.8141 B( 11-C , 13-N ) :   1.2702 B( 13-N , 14-C ) :   0.8989
B( 13-N , 24-H ) :   0.9075 B( 14-C , 25-H ) :   0.9602 B( 14-C , 26-H ) :   0.9615
B( 14-C , 27-H ) :   0.9617 B( 15-C , 28-H ) :   0.9765 B( 15-C , 29-H ) :   0.9724
B( 15-C , 30-H ) :   0.9654

Dispersion correction           -0.011753857
FINAL SINGLE POINT ENERGY      -746.589443965347

DIPOLE MOMENT
-------------

Method             : SCF
Type of density    : Electron Density
Multiplicity       :   1
Irrep              :   0
Energy             :  -746.5981874134417922 Eh
Relativity type    :
Basis              : AO
                                X                 Y                 Z
Electronic contribution:     -6.095647060      -8.552291879       0.784162735
Nuclear contribution   :      6.530903153       9.876138289      -0.941686053
                        -----------------------------------------
Total Dipole Moment    :      0.435256093       1.323846410      -0.157523318
                        -----------------------------------------
Magnitude (a.u.)       :      1.402437442
Magnitude (Debye)      :      3.564712685

Rotational constants in cm-1:             0.029772             0.010826             0.008391
Rotational constants in MHz :           892.529531           324.569290           251.545032

                             ****ORCA TERMINATED NORMALLY****
TOTAL RUN TIME: 0 days 0 hours 1 minutes 7 seconds 671 msec
