                         Program Version 6.0.0  -   RELEASE  -
|  1> ! r2scan-3c def2/J RI DEFGRID2 scfconv6 printgap
|  2> %output
|  3>     printlevel normal
|  4> end
|  5> %cpcm
|  6>     smd true
|  7>     smdsolvent "water"
|  8> end
|  9> * xyz 0 1
| 10> C 2.5800617358 2.6633765051 1.0111389431
| 11> C 2.3425738217 1.7208921168 -0.1667172977
| 12> C 3.158345704 0.410197714 -0.0328151198
| 13> C 2.094299266 -0.6395223344 0.0696540852
| 14> C 2.1772639725 -2.0081914478 0.2123107649
| 15> C 0.9996061621 -2.7371672643 0.2793387244
| 16> C -0.2373372148 -2.1156950706 0.2054118821
| 17> C -0.3277472609 -0.7371474873 0.0623056971
| 18> C 0.8575388763 -0.0071353906 -0.0050861435
| 19> O 0.9374630662 1.3356133454 -0.144463172
| 20> O -1.4927080771 0.0183965379 -0.0278323403
| 21> C -2.7529343241 -0.4715714025 0.0455872775
| 22> O -3.0591461532 -1.6410806957 0.1993450564
| 23> N -3.619577925 0.5405977944 -0.0777431028
| 24> C -5.0533075503 0.3649486645 -0.0469560196
| 25> C 2.6064999409 2.4255026452 -1.4953169625
| 26> H 3.6154392369 2.9898542541 1.0213933445
| 27> H 1.9320040306 3.5312701605 0.9248597642
| 28> H 2.3533855102 2.1547488463 1.9452796331
| 29> H 3.7942575935 0.24637596 -0.9032063828
| 30> H 3.7906564684 0.423818934 0.8551595176
| 31> H 3.1354559106 -2.4987004972 0.270218664
| 32> H 1.0352908099 -3.8088792224 0.3908865776
| 33> H -1.140750566 -2.6997441729 0.2603445989
| 34> H -3.2423580613 1.4681768505 -0.2011301009
| 35> H -5.2560468678 -0.69469392 0.0950736573
| 36> H -5.4936909023 0.6961420372 -0.9866838213
| 37> H -5.484041912 0.9310003586 0.7780241759
| 38> H 3.6434065298 2.7432211608 -1.5459012944
| 39> H 1.9609458874 3.2948017073 -1.5861159478
| 40> H 2.3956148084 1.7510025129 -2.321922541
| 41> *
| 42>
| 43>                          ****END OF INPUT****

CARTESIAN COORDINATES (ANGSTROEM)
---------------------------------
  C      2.580062    2.663377    1.011139
  C      2.342574    1.720892   -0.166717
  C      3.158346    0.410198   -0.032815
  C      2.094299   -0.639522    0.069654
  C      2.177264   -2.008191    0.212311
  C      0.999606   -2.737167    0.279339
  C     -0.237337   -2.115695    0.205412
  C     -0.327747   -0.737147    0.062306
  C      0.857539   -0.007135   -0.005086
  O      0.937463    1.335613   -0.144463
  O     -1.492708    0.018397   -0.027832
  C     -2.752934   -0.471571    0.045587
  O     -3.059146   -1.641081    0.199345
  N     -3.619578    0.540598   -0.077743
  C     -5.053308    0.364949   -0.046956
  C      2.606500    2.425503   -1.495317
  H      3.615439    2.989854    1.021393
  H      1.932004    3.531270    0.924860
  H      2.353386    2.154749    1.945280
  H      3.794258    0.246376   -0.903206
  H      3.790656    0.423819    0.855160
  H      3.135456   -2.498700    0.270219
  H      1.035291   -3.808879    0.390887
  H     -1.140751   -2.699744    0.260345
  H     -3.242358    1.468177   -0.201130
  H     -5.256047   -0.694694    0.095074
  H     -5.493691    0.696142   -0.986684
  H     -5.484042    0.931000    0.778024
  H      3.643407    2.743221   -1.545901
  H      1.960946    3.294802   -1.586116
  H      2.395615    1.751003   -2.321923

 Total Charge           Charge          ....    0
 Multiplicity           Mult            ....    1
 Number of Electrons    NEL             ....  118
 Basis Dimension        Dim             ....  399

ORBITAL ENERGIES
----------------

  NO   OCC          E(Eh)            E(eV)
   0   2.0000     -19.017052      -517.4803
   1   2.0000     -18.986588      -516.6513
   2   2.0000     -18.934130      -515.2239
   3   2.0000     -14.190234      -386.1359
   4   2.0000     -10.187687      -277.2210
   5   2.0000     -10.108116      -275.0558
   6   2.0000     -10.099999      -274.8350
   7   2.0000     -10.094165      -274.6762
   8   2.0000     -10.056060      -273.6393
   9   2.0000     -10.041596      -273.2457
  10   2.0000     -10.034970      -273.0654
  11   2.0000     -10.034116      -273.0422
  12   2.0000     -10.032098      -272.9873
  13   2.0000     -10.030602      -272.9466
  14   2.0000     -10.014924      -272.5199
  15   2.0000     -10.014868      -272.5184
  16   2.0000      -1.090700       -29.6794
  17   2.0000      -1.043554       -28.3965
  18   2.0000      -0.997884       -27.1538
  19   2.0000      -0.901920       -24.5425
  20   2.0000      -0.829357       -22.5680
  21   2.0000      -0.779716       -21.2172
  22   2.0000      -0.738937       -20.1075
  23   2.0000      -0.726279       -19.7631
  24   2.0000      -0.677716       -18.4416
  25   2.0000      -0.656899       -17.8751
  26   2.0000      -0.654644       -17.8138
  27   2.0000      -0.607872       -16.5410
  28   2.0000      -0.581480       -15.8229
  29   2.0000      -0.554012       -15.0754
  30   2.0000      -0.542892       -14.7728
  31   2.0000      -0.522291       -14.2123
  32   2.0000      -0.483472       -13.1559
  33   2.0000      -0.460317       -12.5259
  34   2.0000      -0.456896       -12.4328
  35   2.0000      -0.445014       -12.1094
  36   2.0000      -0.438906       -11.9432
  37   2.0000      -0.436928       -11.8894
  38   2.0000      -0.420972       -11.4552
  39   2.0000      -0.403540       -10.9809
  40   2.0000      -0.399559       -10.8725
  41   2.0000      -0.384465       -10.4618
  42   2.0000      -0.379938       -10.3386
  43   2.0000      -0.370281       -10.0759
  44   2.0000      -0.363277        -9.8853
  45   2.0000      -0.362368        -9.8605
  46   2.0000      -0.357087        -9.7168
  47   2.0000      -0.344372        -9.3708
  48   2.0000      -0.339646        -9.2423
  49   2.0000      -0.328593        -8.9415
  50   2.0000      -0.327864        -8.9216
  51   2.0000      -0.318620        -8.6701
  52   2.0000      -0.313276        -8.5247
  53   2.0000      -0.294895        -8.0245
  54   2.0000      -0.289538        -7.8787
  55   2.0000      -0.257315        -7.0019
  56   2.0000      -0.243018        -6.6129
  57   2.0000      -0.220294        -5.9945
  58   2.0000      -0.195174        -5.3110
  59   0.0000      -0.034422        -0.9367
  60   0.0000      -0.019116        -0.5202
  61   0.0000       0.022148         0.6027
  62   0.0000       0.045176         1.2293
  63   0.0000       0.075242         2.0474

MULLIKEN ATOMIC CHARGES
-----------------------
   0 C :   -0.536471
   1 C :    0.348949
   2 C :   -0.458571
   3 C :    0.206562
   4 C :   -0.303825
   5 C :   -0.230976
   6 C :   -0.278962
   7 C :   -0.023229
   8 C :    0.116597
   9 O :   -0.223581
  10 O :   -0.129075
  11 C :    0.352774
  12 O :   -0.562560
  13 N :   -0.171519
  14 C :   -0.409190
  15 C :   -0.535646
  16 H :    0.180882
  17 H :    0.172573
  18 H :    0.168736
  19 H :    0.197339
  20 H :    0.197541
  21 H :    0.180211
  22 H :    0.176574
  23 H :    0.209089
  24 H :    0.305310
  25 H :    0.187140
  26 H :    0.170528
  27 H :    0.170686
  28 H :    0.180763
  29 H :    0.172634
  30 H :    0.168717
Sum of atomic charges:   -0.0000000

LOEWDIN ATOMIC CHARGES
----------------------
   0 C :   -0.372587
   1 C :    0.108543
   2 C :   -0.212958
   3 C :   -0.050265
   4 C :   -0.164920
   5 C :   -0.187650
   6 C :   -0.149556
   7 C :    0.217587
   8 C :    0.228748
   9 O :   -0.656587
  10 O :   -0.486056
  11 C :    0.466024
  12 O :   -0.493258
  13 N :   -0.579842
  14 C :   -0.103949
  15 C :   -0.372671
  16 H :    0.171087
  17 H :    0.167274
  18 H :    0.167837
  19 H :    0.185864
  20 H :    0.185957
  21 H :    0.181911
  22 H :    0.178423
  23 H :    0.206426
  24 H :    0.295572
  25 H :    0.200135
  26 H :    0.181224
  27 H :    0.181387
  28 H :    0.171205
  29 H :    0.167277
  30 H :    0.167817

  Mayer bond orders larger than 0.100000
B(  0-C ,  1-C ) :   0.9524 B(  0-C , 16-H ) :   0.9676 B(  0-C , 17-H ) :   0.9711
B(  0-C , 18-H ) :   0.9627 B(  1-C ,  2-C ) :   0.8911 B(  1-C ,  8-C ) :   0.1376
B(  1-C ,  9-O ) :   0.6319 B(  1-C , 15-C ) :   0.9515 B(  2-C ,  3-C ) :   0.6899
B(  2-C , 19-H ) :   0.9616 B(  2-C , 20-H ) :   0.9640 B(  3-C ,  4-C ) :   1.2502
B(  3-C ,  7-C ) :  -0.1106 B(  3-C ,  8-C ) :   1.3802 B(  4-C ,  5-C ) :   1.3712
B(  4-C , 21-H ) :   0.9648 B(  5-C ,  6-C ) :   1.3210 B(  5-C , 22-H ) :   0.9764
B(  6-C ,  7-C ) :   1.3182 B(  6-C , 23-H ) :   0.9571 B(  7-C ,  8-C ) :   1.4012
B(  7-C , 10-O ) :   0.8973 B(  8-C ,  9-O ) :   1.1294 B( 10-O , 11-C ) :   1.0889
B( 11-C , 12-O ) :   1.7498 B( 11-C , 13-N ) :   1.3169 B( 13-N , 14-C ) :   0.8894
B( 13-N , 24-H ) :   0.8869 B( 14-C , 25-H ) :   0.9603 B( 14-C , 26-H ) :   0.9535
B( 14-C , 27-H ) :   0.9537 B( 15-C , 28-H ) :   0.9675 B( 15-C , 29-H ) :   0.9712
B( 15-C , 30-H ) :   0.9629

Dispersion correction           -0.011753857
FINAL SINGLE POINT ENERGY      -746.601112585752

DIPOLE MOMENT
-------------

Method             : SCF
Type of density    : Electron Density
Multiplicity       :   1
Irrep              :   0
Energy             :  -746.6098560338464267 Eh
Relativity type    :
Basis              : AO
                                X                 Y                 Z
Electronic contribution:     -5.635311245      -7.999875148       0.717443928
Nuclear contribution   :      6.530903153       9.876138289      -0.941686053
                        -----------------------------------------
Total Dipole Moment    :      0.895591908       1.876263141      -0.224242124
                        -----------------------------------------
Magnitude (a.u.)       :      2.091108024
Magnitude (Debye)      :      5.315174194

Rotational constants in cm-1:             0.029772             0.010826             0.008391
Rotational constants in MHz :           892.529531           324.569290           251.545032

                             ****ORCA TERMINATED NORMALLY****
TOTAL RUN TIME: 0 days 0 hours 1 minutes 26 seconds 963 msec
