                         Program Version 6.0.0  -   RELEASE  -
|  1> ! wb97x-v def2-tzvp def2/J RIJCOSX DEFGRID2 scfconv7 GCP(DFT/TZ) printgap
|  2> %output
|  3>     printlevel normal
|  4> end
|  5> %cpcm
|  6>     smd true
|  7>     smdsolvent "water"
|  8> end
|  9> * xyz 0 1
| 10> C 2.8678440230290247 0.7205735448129559 -0.23939553807302524
| 11> C 1.9982067388258733 -0.464394003303726 0.17186392584187607
| 12> C 0.5128840174611531 -0.23561569235224947 0.07941599721983053
| 13> C -0.07517920691213963 1.0197149610588656 0.24793315387389758
| 14> C -1.45726778833353 1.1433497827078527 0.18155939343517677
| 15> N -2.294668803954428 0.11973946964879892 -0.042245785342026054
| 16> C -1.724027032991012 -1.084275091749424 -0.20815054802777985
| 17> C -0.35555752255787637 -1.3047768689819095 -0.15822809644387423
| 18> H 2.636007825824063 1.0447660290913037 -1.2593267567506243
| 19> H 3.923872501233125 0.4370446056130111 -0.20589917235400634
| 20> H 2.7363983169406096 1.5763417794307026 0.4287037703800371
| 21> H 2.2306075081476027 -0.7424706013897734 1.2093404312789346
| 22> H 2.2476057276002908 -1.3415645612944702 -0.43489225192107883
| 23> H 0.5255626285028857 1.903866762332815 0.4309442085023308
| 24> H -1.916397213390178 2.1207130166277235 0.316538041035359
| 25> H -2.399174814943896 -1.9163125974664494 -0.39773129503003907
| 26> H 0.03347883474114666 -2.3078769467399507 -0.30697593461182515
| 27> *
| 28>
| 29>                          ****END OF INPUT****

CARTESIAN COORDINATES (ANGSTROEM)
---------------------------------
  C      2.867844    0.720574   -0.239396
  C      1.998207   -0.464394    0.171864
  C      0.512884   -0.235616    0.079416
  C     -0.075179    1.019715    0.247933
  C     -1.457268    1.143350    0.181559
  N     -2.294669    0.119739   -0.042246
  C     -1.724027   -1.084275   -0.208151
  C     -0.355558   -1.304777   -0.158228
  H      2.636008    1.044766   -1.259327
  H      3.923873    0.437045   -0.205899
  H      2.736398    1.576342    0.428704
  H      2.230608   -0.742471    1.209340
  H      2.247606   -1.341565   -0.434892
  H      0.525563    1.903867    0.430944
  H     -1.916397    2.120713    0.316538
  H     -2.399175   -1.916313   -0.397731
  H      0.033479   -2.307877   -0.306976

 Total Charge           Charge          ....    0
 Multiplicity           Mult            ....    1
 Number of Electrons    NEL             ....   58
 Basis Dimension        Dim             ....  302

ORBITAL ENERGIES
----------------

  NO   OCC          E(Eh)            E(eV)
   0   2.0000     -16.525859      -449.6915
   1   2.0000     -12.080845      -328.7365
   2   2.0000     -12.080370      -328.7236
   3   2.0000     -12.073535      -328.5376
   4   2.0000     -12.049214      -327.8758
   5   2.0000     -12.048889      -327.8670
   6   2.0000     -12.045355      -327.7708
   7   2.0000     -12.029974      -327.3522
   8   2.0000      -1.517591       -41.2957
   9   2.0000      -1.355065       -36.8732
  10   2.0000      -1.291877       -35.1537
  11   2.0000      -1.258487       -34.2452
  12   2.0000      -1.154573       -31.4175
  13   2.0000      -1.146000       -31.1842
  14   2.0000      -1.078748       -29.3542
  15   2.0000      -0.995330       -27.0843
  16   2.0000      -0.963058       -26.2061
  17   2.0000      -0.918315       -24.9886
  18   2.0000      -0.879911       -23.9436
  19   2.0000      -0.875668       -23.8281
  20   2.0000      -0.866360       -23.5749
  21   2.0000      -0.836925       -22.7739
  22   2.0000      -0.828255       -22.5380
  23   2.0000      -0.812454       -22.1080
  24   2.0000      -0.787313       -21.4239
  25   2.0000      -0.771333       -20.9890
  26   2.0000      -0.764900       -20.8140
  27   2.0000      -0.684628       -18.6297
  28   2.0000      -0.647598       -17.6221
  29   0.0000      -0.289636        -7.8814
  30   0.0000      -0.240124        -6.5341
  31   0.0000      -0.094048        -2.5592
  32   0.0000      -0.047977        -1.3055
  33   0.0000      -0.020154        -0.5484

MULLIKEN ATOMIC CHARGES
-----------------------
   0 C :   -0.392416
   1 C :   -0.165220
   2 C :    0.061509
   3 C :   -0.182600
   4 C :   -0.065062
   5 N :   -0.306187
   6 C :   -0.059778
   7 C :   -0.193394
   8 H :    0.129206
   9 H :    0.136972
  10 H :    0.129444
  11 H :    0.126953
  12 H :    0.131625
  13 H :    0.166783
  14 H :    0.159366
  15 H :    0.159572
  16 H :    0.163227
Sum of atomic charges:    0.0000000

LOEWDIN ATOMIC CHARGES
----------------------
   0 C :   -0.300755
   1 C :   -0.232386
   2 C :   -0.124842
   3 C :   -0.126248
   4 C :   -0.211140
   5 N :    0.064962
   6 C :   -0.211980
   7 C :   -0.126507
   8 H :    0.122277
   9 H :    0.122574
  10 H :    0.120738
  11 H :    0.153694
  12 H :    0.149021
  13 H :    0.157707
  14 H :    0.142764
  15 H :    0.142703
  16 H :    0.157419

  Mayer bond orders larger than 0.100000
B(  0-C ,  1-C ) :   0.9894 B(  0-C ,  8-H ) :   0.9779 B(  0-C ,  9-H ) :   0.9766
B(  0-C , 10-H ) :   0.9721 B(  1-C ,  2-C ) :   0.9582 B(  1-C , 11-H ) :   0.9403
B(  1-C , 12-H ) :   0.9853 B(  2-C ,  3-C ) :   1.3693 B(  2-C ,  7-C ) :   1.3712
B(  3-C ,  4-C ) :   1.4494 B(  3-C , 13-H ) :   0.9635 B(  4-C ,  5-N ) :   1.4971
B(  4-C , 14-H ) :   0.9694 B(  5-N ,  6-C ) :   1.4819 B(  6-C ,  7-C ) :   1.4578
B(  6-C , 15-H ) :   0.9681 B(  7-C , 16-H ) :   0.9668

FINAL SINGLE POINT ENERGY      -326.932962278319

DIPOLE MOMENT
-------------

Method             : SCF
Type of density    : Electron Density
Multiplicity       :   1
Irrep              :   0
Energy             :  -326.9427237030186575 Eh
Relativity type    :
Basis              : AO
                                X                 Y                 Z
Electronic contribution:     -7.848815544      -0.938826894       0.315885478
Nuclear contribution   :      9.450717400       0.728028807      -0.212913549
                        -----------------------------------------
Total Dipole Moment    :      1.601901856      -0.210798087       0.102971928
                        -----------------------------------------
Magnitude (a.u.)       :      1.618989996
Magnitude (Debye)      :      4.115145533

Rotational constants in cm-1:             0.166614             0.048953             0.038906
Rotational constants in MHz :          4994.959428          1467.568460          1166.368655

                             ****ORCA TERMINATED NORMALLY****
TOTAL RUN TIME: 0 days 0 hours 2 minutes 23 seconds 948 msec
