                         Program Version 6.0.0  -   RELEASE  -
|  1> ! pbe def2-sv(p) def2/J RI DEFGRID1 loosescf d4 GCP(DFT/SV(P)) printgap
|  2> %output
|  3>     printlevel normal
|  4> end
|  5> * xyz 0 1
|  6> C -2.2071886703 -0.9821031188 -0.4021355212
|  7> C -1.1739064678 -0.2011241421 0.4276544671
|  8> H -1.6671556577 0.2038486238 1.320615829
|  9> C -0.5991046303 0.9644046421 -0.4006489262
| 10> H -0.4691382324 0.6396797353 -1.440586499
| 11> C 0.7752596016 1.3273609527 0.1801150998
| 12> H 0.6973149163 1.4604453595 1.2663616983
| 13> C 1.7258261629 0.1498304957 -0.0942465043
| 14> H 2.0011609775 0.1497449975 -1.1606607045
| 15> C 1.0111402394 -1.1885926883 0.1877904929
| 16> H 1.6742746888 -1.790024218 0.8258233697
| 17> O -0.1491665958 -1.0390316965 0.961156381
| 18> O 0.7645454013 -1.8104207803 -1.0341689214
| 19> O 2.8768689196 0.2075850525 0.7075472207
| 20> O 1.2841583054 2.539017491 -0.3117746947
| 21> O -1.4805375585 2.0513636783 -0.4611318308
| 22> O -2.8025841331 -2.0457833263 0.2946943742
| 23> H -1.7180159746 -1.4297511417 -1.2690550221
| 24> H -2.9602944318 -0.2631577585 -0.7521033567
| 25> H 0.4741640506 -2.7236890504 -0.8860617066
| 26> H 3.2759376159 1.0872417908 0.6167501013
| 27> H 1.1790930001 2.5763964849 -1.2736243523
| 28> H -1.5001090029 2.5122850368 0.3908483982
| 29> H -3.2408489414 -1.7104752566 1.0894432234
| 30> *
| 31>
| 32>                          ****END OF INPUT****

CARTESIAN COORDINATES (ANGSTROEM)
---------------------------------
  C     -2.207189   -0.982103   -0.402136
  C     -1.173906   -0.201124    0.427654
  H     -1.667156    0.203849    1.320616
  C     -0.599105    0.964405   -0.400649
  H     -0.469138    0.639680   -1.440586
  C      0.775260    1.327361    0.180115
  H      0.697315    1.460445    1.266362
  C      1.725826    0.149830   -0.094247
  H      2.001161    0.149745   -1.160661
  C      1.011140   -1.188593    0.187790
  H      1.674275   -1.790024    0.825823
  O     -0.149167   -1.039032    0.961156
  O      0.764545   -1.810421   -1.034169
  O      2.876869    0.207585    0.707547
  O      1.284158    2.539017   -0.311775
  O     -1.480538    2.051364   -0.461132
  O     -2.802584   -2.045783    0.294694
  H     -1.718016   -1.429751   -1.269055
  H     -2.960294   -0.263158   -0.752103
  H      0.474164   -2.723689   -0.886062
  H      3.275938    1.087242    0.616750
  H      1.179093    2.576396   -1.273624
  H     -1.500109    2.512285    0.390848
  H     -3.240849   -1.710475    1.089443

 Total Charge           Charge          ....    0
 Multiplicity           Mult            ....    1
 Number of Electrons    NEL             ....   96
 Basis Dimension        Dim             ....  192

ORBITAL ENERGIES
----------------

  NO   OCC          E(Eh)            E(eV)
   0   2.0000     -18.767371      -510.6861
   1   2.0000     -18.764483      -510.6075
   2   2.0000     -18.761684      -510.5314
   3   2.0000     -18.761244      -510.5194
   4   2.0000     -18.751537      -510.2552
   5   2.0000     -18.744498      -510.0637
   6   2.0000      -9.985332      -271.7147
   7   2.0000      -9.949274      -270.7335
   8   2.0000      -9.945720      -270.6368
   9   2.0000      -9.945161      -270.6216
  10   2.0000      -9.940892      -270.5054
  11   2.0000      -9.926870      -270.1239
  12   2.0000      -0.981325       -26.7032
  13   2.0000      -0.952090       -25.9077
  14   2.0000      -0.934733       -25.4354
  15   2.0000      -0.922813       -25.1110
  16   2.0000      -0.920543       -25.0493
  17   2.0000      -0.909807       -24.7571
  18   2.0000      -0.707774       -19.2595
  19   2.0000      -0.692579       -18.8460
  20   2.0000      -0.620703       -16.8902
  21   2.0000      -0.587975       -15.9996
  22   2.0000      -0.572029       -15.5657
  23   2.0000      -0.528568       -14.3831
  24   2.0000      -0.514111       -13.9897
  25   2.0000      -0.494076       -13.4445
  26   2.0000      -0.476541       -12.9673
  27   2.0000      -0.447854       -12.1867
  28   2.0000      -0.437133       -11.8950
  29   2.0000      -0.423001       -11.5104
  30   2.0000      -0.413087       -11.2407
  31   2.0000      -0.407970       -11.1014
  32   2.0000      -0.388319       -10.5667
  33   2.0000      -0.384504       -10.4629
  34   2.0000      -0.360147        -9.8001
  35   2.0000      -0.353855        -9.6289
  36   2.0000      -0.331586        -9.0229
  37   2.0000      -0.318471        -8.6660
  38   2.0000      -0.308934        -8.4065
  39   2.0000      -0.285470        -7.7680
  40   2.0000      -0.280445        -7.6313
  41   2.0000      -0.272095        -7.4041
  42   2.0000      -0.259647        -7.0654
  43   2.0000      -0.245218        -6.6727
  44   2.0000      -0.235725        -6.4144
  45   2.0000      -0.225831        -6.1452
  46   2.0000      -0.215232        -5.8568
  47   2.0000      -0.197620        -5.3775
  48   0.0000       0.015691         0.4270
  49   0.0000       0.021120         0.5747
  50   0.0000       0.028303         0.7702
  51   0.0000       0.033175         0.9028
  52   0.0000       0.054613         1.4861

MULLIKEN ATOMIC CHARGES
-----------------------
   0 C :    0.057046
   1 C :    0.061757
   2 H :    0.040207
   3 C :   -0.023513
   4 H :    0.069653
   5 C :    0.039549
   6 H :    0.057343
   7 C :    0.076868
   8 H :    0.055018
   9 C :    0.179082
  10 H :    0.077143
  11 O :   -0.309686
  12 O :   -0.400916
  13 O :   -0.413982
  14 O :   -0.411895
  15 O :   -0.402953
  16 O :   -0.427569
  17 H :    0.081701
  18 H :    0.077809
  19 H :    0.313523
  20 H :    0.304798
  21 H :    0.303096
  22 H :    0.302472
  23 H :    0.293447
Sum of atomic charges:    0.0000000

LOEWDIN ATOMIC CHARGES
----------------------
   0 C :   -0.140930
   1 C :   -0.074120
   2 H :    0.104073
   3 C :   -0.085692
   4 H :    0.116247
   5 C :   -0.090341
   6 H :    0.115398
   7 C :   -0.081489
   8 H :    0.102984
   9 C :    0.001419
  10 H :    0.107518
  11 O :   -0.144400
  12 O :   -0.308034
  13 O :   -0.317505
  14 O :   -0.312643
  15 O :   -0.306801
  16 O :   -0.335229
  17 H :    0.112597
  18 H :    0.100940
  19 H :    0.292518
  20 H :    0.286733
  21 H :    0.287856
  22 H :    0.287028
  23 H :    0.281873

  Mayer bond orders larger than 0.100000
B(  0-C ,  1-C ) :   1.0481 B(  0-C , 16-O ) :   1.0840 B(  0-C , 17-H ) :   0.9012
B(  0-C , 18-H ) :   0.9116 B(  1-C ,  2-H ) :   0.8810 B(  1-C ,  3-C ) :   0.9517
B(  1-C , 11-O ) :   0.9853 B(  3-C ,  4-H ) :   0.8752 B(  3-C ,  5-C ) :   1.0109
B(  3-C , 15-O ) :   1.0491 B(  5-C ,  6-H ) :   0.8483 B(  5-C ,  7-C ) :   1.0240
B(  5-C , 14-O ) :   1.0663 B(  7-C ,  8-H ) :   0.8798 B(  7-C ,  9-C ) :   0.9720
B(  7-C , 13-O ) :   1.0888 B(  9-C , 10-H ) :   0.8926 B(  9-C , 11-O ) :   1.0836
B(  9-C , 12-O ) :   1.1017 B( 12-O , 19-H ) :   0.8331 B( 13-O , 20-H ) :   0.8396
B( 14-O , 21-H ) :   0.8462 B( 15-O , 22-H ) :   0.8460 B( 16-O , 23-H ) :   0.8538

Dispersion correction           -0.024416180
FINAL SINGLE POINT ENERGY      -685.689441215167

DIPOLE MOMENT
-------------

Method             : SCF
Type of density    : Electron Density
Multiplicity       :   1
Irrep              :   0
Energy             :  -685.8187023284284578 Eh
Relativity type    :
Basis              : AO
                                X                 Y                 Z
Electronic contribution:      1.952934692      -0.193155131       1.250009671
Nuclear contribution   :     -2.106968362       0.667047055      -1.191270176
                        -----------------------------------------
Total Dipole Moment    :     -0.154033671       0.473891924       0.058739496
                        -----------------------------------------
Magnitude (a.u.)       :      0.501747203
Magnitude (Debye)      :      1.275340037

Rotational constants in cm-1:             0.042633             0.025958             0.018396
Rotational constants in MHz :          1278.095492           778.204910           551.504139

                             ****ORCA TERMINATED NORMALLY****
TOTAL RUN TIME: 0 days 0 hours 0 minutes 12 seconds 81 msec
