                         Program Version 6.0.0  -   RELEASE  -
|  1> ! pbe def2-sv(p) def2/J RI DEFGRID1 loosescf d4 GCP(DFT/SV(P)) printgap
|  2> %output
|  3>     printlevel normal
|  4> end
|  5> * xyz 0 1
|  6> C -1.73688921 -1.346040133 -0.5223640888
|  7> C -1.1383971044 -0.4815243801 0.6045881193
|  8> H -1.8551723441 -0.406982149 1.4304720272
|  9> C -0.8491154154 0.9571463505 0.1330975687
| 10> H -1.1505918623 1.063498186 -0.9202325055
| 11> C 0.6504615399 1.2585355961 0.2235533401
| 12> H 0.937940484 1.3449577805 1.2835080392
| 13> C 1.4272754617 0.0952701103 -0.3981702107
| 14> H 1.0609753306 -0.0728245535 -1.4206682574
| 15> C 1.1693322188 -1.1741542263 0.434579742
| 16> H 1.9667442717 -1.2637602435 1.1893277205
| 17> O -0.0087602381 -1.1057282223 1.1998297273
| 18> O 1.1815894841 -2.2649389828 -0.4349485778
| 19> O 2.7880797805 0.4444499277 -0.4097715486
| 20> O 0.8938151034 2.4668892711 -0.4490093993
| 21> O -1.6004275402 1.8365507472 0.9339036141
| 22> O -2.8509848219 -0.7473448457 -1.1293514841
| 23> H -1.9903353259 -2.3301121725 -0.1090063664
| 24> H -0.9988826915 -1.4830426463 -1.3158438341
| 25> H 1.1248345691 -3.0942156336 0.0637623924
| 26> H 3.2918109805 -0.206929551 -0.9178337069
| 27> H 1.8529229994 2.5716660931 -0.5449198591
| 28> H -1.3982407557 2.7454144705 0.6664401367
| 29> H -3.5558716415 -0.6345807569 -0.4757992097
| 30> *
| 31>
| 32>                          ****END OF INPUT****

CARTESIAN COORDINATES (ANGSTROEM)
---------------------------------
  C     -1.736889   -1.346040   -0.522364
  C     -1.138397   -0.481524    0.604588
  H     -1.855172   -0.406982    1.430472
  C     -0.849115    0.957146    0.133098
  H     -1.150592    1.063498   -0.920233
  C      0.650462    1.258536    0.223553
  H      0.937940    1.344958    1.283508
  C      1.427275    0.095270   -0.398170
  H      1.060975   -0.072825   -1.420668
  C      1.169332   -1.174154    0.434580
  H      1.966744   -1.263760    1.189328
  O     -0.008760   -1.105728    1.199830
  O      1.181589   -2.264939   -0.434949
  O      2.788080    0.444450   -0.409772
  O      0.893815    2.466889   -0.449009
  O     -1.600428    1.836551    0.933904
  O     -2.850985   -0.747345   -1.129351
  H     -1.990335   -2.330112   -0.109006
  H     -0.998883   -1.483043   -1.315844
  H      1.124835   -3.094216    0.063762
  H      3.291811   -0.206930   -0.917834
  H      1.852923    2.571666   -0.544920
  H     -1.398241    2.745414    0.666440
  H     -3.555872   -0.634581   -0.475799

 Total Charge           Charge          ....    0
 Multiplicity           Mult            ....    1
 Number of Electrons    NEL             ....   96
 Basis Dimension        Dim             ....  192

ORBITAL ENERGIES
----------------

  NO   OCC          E(Eh)            E(eV)
   0   2.0000     -18.768892      -510.7275
   1   2.0000     -18.768549      -510.7182
   2   2.0000     -18.767342      -510.6853
   3   2.0000     -18.749206      -510.1918
   4   2.0000     -18.748800      -510.1808
   5   2.0000     -18.742091      -509.9982
   6   2.0000      -9.987001      -271.7601
   7   2.0000      -9.945122      -270.6205
   8   2.0000      -9.939666      -270.4721
   9   2.0000      -9.936757      -270.3929
  10   2.0000      -9.933729      -270.3105
  11   2.0000      -9.927044      -270.1286
  12   2.0000      -0.981869       -26.7180
  13   2.0000      -0.947536       -25.7838
  14   2.0000      -0.932550       -25.3760
  15   2.0000      -0.924304       -25.1516
  16   2.0000      -0.914961       -24.8974
  17   2.0000      -0.910005       -24.7625
  18   2.0000      -0.701750       -19.0956
  19   2.0000      -0.691025       -18.8038
  20   2.0000      -0.617535       -16.8040
  21   2.0000      -0.580343       -15.7919
  22   2.0000      -0.570615       -15.5272
  23   2.0000      -0.524283       -14.2665
  24   2.0000      -0.505602       -13.7581
  25   2.0000      -0.478654       -13.0248
  26   2.0000      -0.472139       -12.8476
  27   2.0000      -0.456043       -12.4096
  28   2.0000      -0.449777       -12.2390
  29   2.0000      -0.434998       -11.8369
  30   2.0000      -0.413365       -11.2482
  31   2.0000      -0.386809       -10.5256
  32   2.0000      -0.383722       -10.4416
  33   2.0000      -0.379139       -10.3169
  34   2.0000      -0.358037        -9.7427
  35   2.0000      -0.341596        -9.2953
  36   2.0000      -0.334838        -9.1114
  37   2.0000      -0.315314        -8.5801
  38   2.0000      -0.304588        -8.2883
  39   2.0000      -0.288099        -7.8396
  40   2.0000      -0.284049        -7.7294
  41   2.0000      -0.264904        -7.2084
  42   2.0000      -0.255537        -6.9535
  43   2.0000      -0.243143        -6.6163
  44   2.0000      -0.230232        -6.2649
  45   2.0000      -0.219083        -5.9615
  46   2.0000      -0.212059        -5.7704
  47   2.0000      -0.207618        -5.6496
  48   0.0000       0.015797         0.4299
  49   0.0000       0.024222         0.6591
  50   0.0000       0.029730         0.8090
  51   0.0000       0.047320         1.2877
  52   0.0000       0.060056         1.6342

MULLIKEN ATOMIC CHARGES
-----------------------
   0 C :    0.010755
   1 C :    0.013272
   2 H :    0.073615
   3 C :    0.075274
   4 H :    0.074035
   5 C :    0.065350
   6 H :    0.059042
   7 C :   -0.019396
   8 H :    0.071786
   9 C :    0.202665
  10 H :    0.060903
  11 O :   -0.309030
  12 O :   -0.394953
  13 O :   -0.419674
  14 O :   -0.427927
  15 O :   -0.421989
  16 O :   -0.422870
  17 H :    0.073133
  18 H :    0.106328
  19 H :    0.303413
  20 H :    0.311814
  21 H :    0.307745
  22 H :    0.305824
  23 H :    0.300883
Sum of atomic charges:    0.0000000

LOEWDIN ATOMIC CHARGES
----------------------
   0 C :   -0.144451
   1 C :   -0.065900
   2 H :    0.119116
   3 C :   -0.066714
   4 H :    0.109891
   5 C :   -0.074560
   6 H :    0.106769
   7 C :   -0.089633
   8 H :    0.109701
   9 C :   -0.011692
  10 H :    0.099683
  11 O :   -0.142692
  12 O :   -0.310814
  13 O :   -0.317424
  14 O :   -0.324675
  15 O :   -0.322165
  16 O :   -0.326773
  17 H :    0.096365
  18 H :    0.114795
  19 H :    0.286360
  20 H :    0.294326
  21 H :    0.286347
  22 H :    0.287802
  23 H :    0.286338

  Mayer bond orders larger than 0.100000
B(  0-C ,  1-C ) :   1.0296 B(  0-C , 16-O ) :   1.0551 B(  0-C , 17-H ) :   0.9175
B(  0-C , 18-H ) :   0.9080 B(  1-C ,  2-H ) :   0.8874 B(  1-C ,  3-C ) :   0.9830
B(  1-C , 11-O ) :   1.0143 B(  3-C ,  4-H ) :   0.8816 B(  3-C ,  5-C ) :   1.0404
B(  3-C , 15-O ) :   1.0694 B(  5-C ,  6-H ) :   0.8642 B(  5-C ,  7-C ) :   1.0107
B(  5-C , 14-O ) :   1.0853 B(  7-C ,  8-H ) :   0.8812 B(  7-C ,  9-C ) :   0.9889
B(  7-C , 13-O ) :   1.0679 B(  9-C , 10-H ) :   0.8871 B(  9-C , 11-O ) :   1.0621
B(  9-C , 12-O ) :   1.1188 B( 12-O , 19-H ) :   0.8394 B( 13-O , 20-H ) :   0.8435
B( 14-O , 21-H ) :   0.8318 B( 15-O , 22-H ) :   0.8425 B( 16-O , 23-H ) :   0.8496

Dispersion correction           -0.024516272
FINAL SINGLE POINT ENERGY      -685.695717773057

DIPOLE MOMENT
-------------

Method             : SCF
Type of density    : Electron Density
Multiplicity       :   1
Irrep              :   0
Energy             :  -685.8255964907582438 Eh
Relativity type    :
Basis              : AO
                                X                 Y                 Z
Electronic contribution:      1.312722951       0.981846628       1.090623144
Nuclear contribution   :     -0.663752877      -1.648331946      -1.008872931
                        -----------------------------------------
Total Dipole Moment    :      0.648970073      -0.666485318       0.081750213
                        -----------------------------------------
Magnitude (a.u.)       :      0.933835067
Magnitude (Debye)      :      2.373620105

Rotational constants in cm-1:             0.036713             0.029231             0.019656
Rotational constants in MHz :          1100.631878           876.327600           589.285553

                             ****ORCA TERMINATED NORMALLY****
TOTAL RUN TIME: 0 days 0 hours 0 minutes 12 seconds 395 msec
