                         Program Version 6.0.0  -   RELEASE  -
|  1> ! pbe def2-sv(p) def2/J RI DEFGRID1 loosescf d4 GCP(DFT/SV(P)) printgap
|  2> %output
|  3>     printlevel normal
|  4> end
|  5> * xyz 0 1
|  6> C -2.5617619164 -0.6473225604 -0.337244087
|  7> C -1.1829754418 -0.2879994512 0.2243894251
|  8> H -1.240663308 -0.2437453573 1.3223711006
|  9> C -0.7056810807 1.0743135839 -0.2948978559
| 10> H -0.708387473 1.0598452371 -1.396438334
| 11> C 0.7334265074 1.3342124347 0.1726600533
| 12> H 0.7404597989 1.4329957933 1.2698551027
| 13> C 1.6314180148 0.1548913659 -0.211101419
| 14> H 1.6901887191 0.0972479553 -1.3098034231
| 15> C 1.0141728159 -1.1528454267 0.3245917336
| 16> H 1.0134579346 -1.1149551941 1.4277917243
| 17> O -0.291002908 -1.3176309054 -0.1678043451
| 18> O 1.7649340823 -2.2566916631 -0.0367060297
| 19> O 2.9058445673 0.3761946153 0.3390166902
| 20> O 1.1615522062 2.5339255175 -0.423243367
| 21> O -1.5826922881 2.0575995894 0.1828166169
| 22> O -3.0983789021 -1.7962167874 0.2616682928
| 23> H -2.4737305296 -0.778173909 -1.4229428904
| 24> H -3.2486005372 0.1721646902 -0.1227246888
| 25> H 1.5192028813 -2.5302076836 -0.9350462319
| 26> H 3.4282488888 -0.4373244131 0.2683268258
| 27> H 2.093093013 2.6759563479 -0.1994618943
| 28> H -1.2219998647 2.9263136485 -0.0545953903
| 29> H -2.4792478423 -2.5292456555 0.1294427212
| 30> *
| 31>
| 32>                          ****END OF INPUT****

CARTESIAN COORDINATES (ANGSTROEM)
---------------------------------
  C     -2.561762   -0.647323   -0.337244
  C     -1.182975   -0.287999    0.224389
  H     -1.240663   -0.243745    1.322371
  C     -0.705681    1.074314   -0.294898
  H     -0.708387    1.059845   -1.396438
  C      0.733427    1.334212    0.172660
  H      0.740460    1.432996    1.269855
  C      1.631418    0.154891   -0.211101
  H      1.690189    0.097248   -1.309803
  C      1.014173   -1.152845    0.324592
  H      1.013458   -1.114955    1.427792
  O     -0.291003   -1.317631   -0.167804
  O      1.764934   -2.256692   -0.036706
  O      2.905845    0.376195    0.339017
  O      1.161552    2.533926   -0.423243
  O     -1.582692    2.057600    0.182817
  O     -3.098379   -1.796217    0.261668
  H     -2.473731   -0.778174   -1.422943
  H     -3.248601    0.172165   -0.122725
  H      1.519203   -2.530208   -0.935046
  H      3.428249   -0.437324    0.268327
  H      2.093093    2.675956   -0.199462
  H     -1.222000    2.926314   -0.054595
  H     -2.479248   -2.529246    0.129443

 Total Charge           Charge          ....    0
 Multiplicity           Mult            ....    1
 Number of Electrons    NEL             ....   96
 Basis Dimension        Dim             ....  192

ORBITAL ENERGIES
----------------

  NO   OCC          E(Eh)            E(eV)
   0   2.0000     -18.786086      -511.1954
   1   2.0000     -18.776169      -510.9255
   2   2.0000     -18.764323      -510.6032
   3   2.0000     -18.759859      -510.4817
   4   2.0000     -18.755115      -510.3526
   5   2.0000     -18.742391      -510.0064
   6   2.0000      -9.996212      -272.0108
   7   2.0000      -9.947291      -270.6796
   8   2.0000      -9.946322      -270.6532
   9   2.0000      -9.946260      -270.6515
  10   2.0000      -9.945363      -270.6271
  11   2.0000      -9.928582      -270.1705
  12   2.0000      -0.998128       -27.1605
  13   2.0000      -0.951158       -25.8823
  14   2.0000      -0.942906       -25.6578
  15   2.0000      -0.928930       -25.2775
  16   2.0000      -0.921115       -25.0648
  17   2.0000      -0.915187       -24.9035
  18   2.0000      -0.710024       -19.3207
  19   2.0000      -0.695949       -18.9377
  20   2.0000      -0.617844       -16.8124
  21   2.0000      -0.590699       -16.0737
  22   2.0000      -0.562720       -15.3124
  23   2.0000      -0.542629       -14.7657
  24   2.0000      -0.512907       -13.9569
  25   2.0000      -0.498056       -13.5528
  26   2.0000      -0.472353       -12.8534
  27   2.0000      -0.457709       -12.4549
  28   2.0000      -0.451931       -12.2977
  29   2.0000      -0.445156       -12.1133
  30   2.0000      -0.420803       -11.4506
  31   2.0000      -0.401708       -10.9310
  32   2.0000      -0.398822       -10.8525
  33   2.0000      -0.372116       -10.1258
  34   2.0000      -0.364019        -9.9055
  35   2.0000      -0.349891        -9.5210
  36   2.0000      -0.332373        -9.0443
  37   2.0000      -0.328650        -8.9430
  38   2.0000      -0.311983        -8.4895
  39   2.0000      -0.302113        -8.2209
  40   2.0000      -0.296320        -8.0633
  41   2.0000      -0.269440        -7.3318
  42   2.0000      -0.264615        -7.2005
  43   2.0000      -0.249267        -6.7829
  44   2.0000      -0.233949        -6.3661
  45   2.0000      -0.222925        -6.0661
  46   2.0000      -0.217326        -5.9137
  47   2.0000      -0.211794        -5.7632
  48   0.0000       0.012394         0.3373
  49   0.0000       0.021543         0.5862
  50   0.0000       0.037538         1.0215
  51   0.0000       0.045778         1.2457
  52   0.0000       0.058582         1.5941

MULLIKEN ATOMIC CHARGES
-----------------------
   0 C :    0.099765
   1 C :   -0.015525
   2 H :    0.065263
   3 C :    0.062710
   4 H :    0.052685
   5 C :    0.067006
   6 H :    0.056563
   7 C :    0.038849
   8 H :    0.040551
   9 C :    0.179409
  10 H :    0.057715
  11 O :   -0.321424
  12 O :   -0.387956
  13 O :   -0.424154
  14 O :   -0.425448
  15 O :   -0.416943
  16 O :   -0.432292
  17 H :    0.062782
  18 H :    0.103099
  19 H :    0.306137
  20 H :    0.307155
  21 H :    0.314428
  22 H :    0.312610
  23 H :    0.297016
Sum of atomic charges:    0.0000000

LOEWDIN ATOMIC CHARGES
----------------------
   0 C :   -0.123788
   1 C :   -0.067547
   2 H :    0.111265
   3 C :   -0.065473
   4 H :    0.103286
   5 C :   -0.077351
   6 H :    0.106101
   7 C :   -0.100622
   8 H :    0.099145
   9 C :   -0.003889
  10 H :    0.099600
  11 O :   -0.154904
  12 O :   -0.295802
  13 O :   -0.325249
  14 O :   -0.325025
  15 O :   -0.314738
  16 O :   -0.333871
  17 H :    0.098737
  18 H :    0.126095
  19 H :    0.290659
  20 H :    0.287776
  21 H :    0.292988
  22 H :    0.291665
  23 H :    0.280942

  Mayer bond orders larger than 0.100000
B(  0-C ,  1-C ) :   1.0609 B(  0-C , 16-O ) :   1.0823 B(  0-C , 17-H ) :   0.9045
B(  0-C , 18-H ) :   0.9121 B(  1-C ,  2-H ) :   0.8682 B(  1-C ,  3-C ) :   1.0072
B(  1-C , 11-O ) :   0.9669 B(  3-C ,  4-H ) :   0.8680 B(  3-C ,  5-C ) :   1.0207
B(  3-C , 15-O ) :   1.0697 B(  5-C ,  6-H ) :   0.8749 B(  5-C ,  7-C ) :   1.0039
B(  5-C , 14-O ) :   1.0805 B(  7-C ,  8-H ) :   0.8594 B(  7-C ,  9-C ) :   0.9843
B(  7-C , 13-O ) :   1.0712 B(  9-C , 10-H ) :   0.8776 B(  9-C , 11-O ) :   1.0170
B(  9-C , 12-O ) :   1.1177 B( 12-O , 19-H ) :   0.8400 B( 13-O , 20-H ) :   0.8319
B( 14-O , 21-H ) :   0.8367 B( 15-O , 22-H ) :   0.8347 B( 16-O , 23-H ) :   0.8475

Dispersion correction           -0.023616030
FINAL SINGLE POINT ENERGY      -685.704936833797

DIPOLE MOMENT
-------------

Method             : SCF
Type of density    : Electron Density
Multiplicity       :   1
Irrep              :   0
Energy             :  -685.8352039069068269 Eh
Relativity type    :
Basis              : AO
                                X                 Y                 Z
Electronic contribution:      1.887011466      -0.770187458       0.350616269
Nuclear contribution   :     -0.820330458       0.679714196      -0.957652148
                        -----------------------------------------
Total Dipole Moment    :      1.066681008      -0.090473263      -0.607035880
                        -----------------------------------------
Magnitude (a.u.)       :      1.230644686
Magnitude (Debye)      :      3.128050202

Rotational constants in cm-1:             0.039289             0.026037             0.016376
Rotational constants in MHz :          1177.842225           780.559455           490.935207

                             ****ORCA TERMINATED NORMALLY****
TOTAL RUN TIME: 0 days 0 hours 0 minutes 12 seconds 231 msec
