                         Program Version 6.0.0  -   RELEASE  -
|  1> ! pbe def2-sv(p) def2/J RI DEFGRID1 loosescf d4 GCP(DFT/SV(P)) printgap
|  2> %output
|  3>     printlevel normal
|  4> end
|  5> * xyz 0 1
|  6> C -0.4213952169 -1.0415041685 4.94809e-05
|  7> C 0.943801416 -1.2073084876 2.54514e-05
|  8> C 1.7826958786 -0.0895510819 -0.0001005711
|  9> C 1.2250251957 1.1941661612 -1.77446e-05
| 10> C -0.1394972612 1.3549425143 7.6659e-06
| 11> C -0.9860906976 0.2395143673 -4.9534e-05
| 12> C -2.4248502521 0.4065340671 -2.89396e-05
| 13> O -3.2479785293 -0.4921285585 7.96e-06
| 14> O 3.1212635393 -0.1911175179 2.99024e-05
| 15> H -1.0855908596 -1.8927362182 0.0001463176
| 16> H 1.3672679818 -2.2003365185 3.04396e-05
| 17> H 1.8916816376 2.0413406361 0.0003507757
| 18> H -0.5675956137 2.3456229174 0.0003967824
| 19> H -2.7640161816 1.4596516089 -1.9673e-05
| 20> H 3.4116729327 -1.1177791392 -0.000144932
| 21> *
| 22>
| 23>                          ****END OF INPUT****

CARTESIAN COORDINATES (ANGSTROEM)
---------------------------------
  C     -0.421395   -1.041504    0.000049
  C      0.943801   -1.207308    0.000025
  C      1.782696   -0.089551   -0.000101
  C      1.225025    1.194166   -0.000018
  C     -0.139497    1.354943    0.000008
  C     -0.986091    0.239514   -0.000050
  C     -2.424850    0.406534   -0.000029
  O     -3.247979   -0.492129    0.000008
  O      3.121264   -0.191118    0.000030
  H     -1.085591   -1.892736    0.000146
  H      1.367268   -2.200337    0.000030
  H      1.891682    2.041341    0.000351
  H     -0.567596    2.345623    0.000397
  H     -2.764016    1.459652   -0.000020
  H      3.411673   -1.117779   -0.000145

 Total Charge           Charge          ....    0
 Multiplicity           Mult            ....    1
 Number of Electrons    NEL             ....   64
 Basis Dimension        Dim             ....  138

ORBITAL ENERGIES
----------------

  NO   OCC          E(Eh)            E(eV)
   0   2.0000     -18.810216      -511.8520
   1   2.0000     -18.738309      -509.8953
   2   2.0000      -9.979129      -271.5459
   3   2.0000      -9.960878      -271.0493
   4   2.0000      -9.913782      -269.7677
   5   2.0000      -9.910861      -269.6882
   6   2.0000      -9.910115      -269.6679
   7   2.0000      -9.905106      -269.5316
   8   2.0000      -9.902384      -269.4576
   9   2.0000      -0.993527       -27.0352
  10   2.0000      -0.928640       -25.2696
  11   2.0000      -0.790597       -21.5132
  12   2.0000      -0.694637       -18.9020
  13   2.0000      -0.692316       -18.8389
  14   2.0000      -0.598865       -16.2960
  15   2.0000      -0.576101       -15.6765
  16   2.0000      -0.517595       -14.0845
  17   2.0000      -0.515957       -14.0399
  18   2.0000      -0.463553       -12.6139
  19   2.0000      -0.423722       -11.5301
  20   2.0000      -0.404765       -11.0142
  21   2.0000      -0.393465       -10.7067
  22   2.0000      -0.390351       -10.6220
  23   2.0000      -0.380802       -10.3621
  24   2.0000      -0.355085        -9.6624
  25   2.0000      -0.351039        -9.5523
  26   2.0000      -0.343747        -9.3538
  27   2.0000      -0.308789        -8.4026
  28   2.0000      -0.304385        -8.2827
  29   2.0000      -0.249633        -6.7929
  30   2.0000      -0.216029        -5.8785
  31   2.0000      -0.199014        -5.4154
  32   0.0000      -0.085825        -2.3354
  33   0.0000      -0.050924        -1.3857
  34   0.0000       0.005478         0.1491
  35   0.0000       0.011162         0.3037
  36   0.0000       0.046537         1.2663

MULLIKEN ATOMIC CHARGES
-----------------------
   0 C :   -0.096859
   1 C :   -0.148946
   2 C :    0.241806
   3 C :   -0.110103
   4 C :   -0.095191
   5 C :    0.097907
   6 C :    0.027472
   7 O :   -0.175997
   8 O :   -0.309103
   9 H :    0.064383
  10 H :    0.039028
  11 H :    0.054829
  12 H :    0.056024
  13 H :    0.029251
  14 H :    0.325498
Sum of atomic charges:   -0.0000000

LOEWDIN ATOMIC CHARGES
----------------------
   0 C :   -0.070901
   1 C :   -0.169596
   2 C :    0.035535
   3 C :   -0.146230
   4 C :   -0.086701
   5 C :   -0.115563
   6 C :   -0.003638
   7 O :   -0.141625
   8 O :   -0.207376
   9 H :    0.135565
  10 H :    0.124913
  11 H :    0.134670
  12 H :    0.129534
  13 H :    0.076993
  14 H :    0.304418

  Mayer bond orders larger than 0.100000
B(  0-C ,  1-C ) :   1.3829 B(  0-C ,  5-C ) :   1.3277 B(  0-C ,  9-H ) :   0.9561
B(  1-C ,  2-C ) :   1.2699 B(  1-C , 10-H ) :   0.9619 B(  2-C ,  3-C ) :   1.3332
B(  2-C ,  8-O ) :   1.2241 B(  3-C ,  4-C ) :   1.3903 B(  3-C , 11-H ) :   0.9654
B(  4-C ,  5-C ) :   1.2892 B(  4-C , 12-H ) :   0.9606 B(  5-C ,  6-C ) :   1.0185
B(  6-C ,  7-O ) :   2.1226 B(  6-C , 13-H ) :   0.9171 B(  8-O , 14-H ) :   0.8358

Dispersion correction           -0.015446094
FINAL SINGLE POINT ENERGY      -419.927862912749

DIPOLE MOMENT
-------------

Method             : SCF
Type of density    : Electron Density
Multiplicity       :   1
Irrep              :   0
Energy             :  -419.9741729958637961 Eh
Relativity type    :
Basis              : AO
                                X                 Y                 Z
Electronic contribution:     -0.597828374      -0.706105479      -0.000671226
Nuclear contribution   :      2.112223062       0.586328343       0.000713302
                        -----------------------------------------
Total Dipole Moment    :      1.514394688      -0.119777136       0.000042076
                        -----------------------------------------
Magnitude (a.u.)       :      1.519124036
Magnitude (Debye)      :      3.861306436

Rotational constants in cm-1:             0.170989             0.033538             0.028038
Rotational constants in MHz :          5126.128912          1005.434755           840.566690

                             ****ORCA TERMINATED NORMALLY****
TOTAL RUN TIME: 0 days 0 hours 0 minutes 8 seconds 566 msec
