                         Program Version 6.0.0  -   RELEASE  -
|  1> ! wb97x-v def2-tzvp def2/J RIJCOSX DEFGRID2 scfconv7 GCP(DFT/TZ) printgap
|  2> %output
|  3>     printlevel normal
|  4> end
|  5> * xyz 0 1
|  6> C 0.5208908080326198 0.872175769017753 -1.2595616844495057
|  7> C 0.42316747430134194 0.013975885835769692 2.4926533318995064e-05
|  8> C 0.5198963167276088 0.876446576550863 1.2567651754896585
|  9> C 1.5126259112898157 -1.0512468559199124 0.0022702091004963136
| 10> O -0.81550199578413 -0.7610389535555239 0.0007565993983459415
| 11> C -2.0276192036867187 -0.006635915165681424 2.4546205714736602e-05
| 12> H 1.516837202725749 1.3211999576274565 -1.31952158581336
| 13> H 0.3651107396140073 0.2602909700700632 -2.154161760383846
| 14> H -0.20925538080909317 1.686295525068193 -1.256049460505879
| 15> H 0.36411663675532197 0.2675452492202542 2.1533941776163017
| 16> H -0.21067573140005497 1.6901562477636798 1.2501068480453674
| 17> H 1.515593173021725 1.3261655387381195 1.3155984916308028
| 18> H 1.4309710165653085 -1.6826866978686177 0.8925074613944785
| 19> H 1.4316100526405373 -1.6859012770287953 -0.885744608868172
| 20> H 2.499369688101284 -0.5803073177946773 0.0017642903327921436
| 21> H -2.1250605046168833 0.6220945816765578 -0.8939679037616185
| 22> H -2.1261410837015933 0.6220435615722311 0.8939354748947661
| 23> H -2.8417506809908266 -0.7359629628277672 -0.0004829969173278326
| 24> *
| 25>
| 26>                          ****END OF INPUT****

CARTESIAN COORDINATES (ANGSTROEM)
---------------------------------
  C      0.520891    0.872176   -1.259562
  C      0.423167    0.013976    0.000025
  C      0.519896    0.876447    1.256765
  C      1.512626   -1.051247    0.002270
  O     -0.815502   -0.761039    0.000757
  C     -2.027619   -0.006636    0.000025
  H      1.516837    1.321200   -1.319522
  H      0.365111    0.260291   -2.154162
  H     -0.209255    1.686296   -1.256049
  H      0.364117    0.267545    2.153394
  H     -0.210676    1.690156    1.250107
  H      1.515593    1.326166    1.315598
  H      1.430971   -1.682687    0.892507
  H      1.431610   -1.685901   -0.885745
  H      2.499370   -0.580307    0.001764
  H     -2.125061    0.622095   -0.893968
  H     -2.126141    0.622044    0.893935
  H     -2.841751   -0.735963   -0.000483

 Total Charge           Charge          ....    0
 Multiplicity           Mult            ....    1
 Number of Electrons    NEL             ....   50
 Basis Dimension        Dim             ....  258

ORBITAL ENERGIES
----------------

  NO   OCC          E(Eh)            E(eV)
   0   2.0000     -21.663013      -589.4806
   1   2.0000     -12.102539      -329.3268
   2   2.0000     -12.080252      -328.7204
   3   2.0000     -12.034825      -327.4842
   4   2.0000     -12.034481      -327.4749
   5   2.0000     -12.029728      -327.3455
   6   2.0000      -1.661905       -45.2227
   7   2.0000      -1.321046       -35.9475
   8   2.0000      -1.203430       -32.7470
   9   2.0000      -1.186215       -32.2785
  10   2.0000      -1.174936       -31.9716
  11   2.0000      -1.055358       -28.7178
  12   2.0000      -0.963484       -26.2177
  13   2.0000      -0.948175       -25.8011
  14   2.0000      -0.947361       -25.7790
  15   2.0000      -0.867767       -23.6131
  16   2.0000      -0.864226       -23.5168
  17   2.0000      -0.830504       -22.5992
  18   2.0000      -0.813207       -22.1285
  19   2.0000      -0.810155       -22.0454
  20   2.0000      -0.802485       -21.8367
  21   2.0000      -0.798352       -21.7243
  22   2.0000      -0.792923       -21.5765
  23   2.0000      -0.776154       -21.1202
  24   2.0000      -0.766415       -20.8552
  25   0.0000      -0.168479        -4.5845
  26   0.0000      -0.102047        -2.7768
  27   0.0000      -0.027905        -0.7593
  28   0.0000      -0.012766        -0.3474
  29   0.0000      -0.011949        -0.3252

MULLIKEN ATOMIC CHARGES
-----------------------
   0 C :   -0.374547
   1 C :    0.198729
   2 C :   -0.374610
   3 C :   -0.315710
   4 O :   -0.293715
   5 C :   -0.196912
   6 H :    0.113026
   7 H :    0.124752
   8 H :    0.113357
   9 H :    0.124746
  10 H :    0.113432
  11 H :    0.113044
  12 H :    0.114685
  13 H :    0.114709
  14 H :    0.099675
  15 H :    0.099605
  16 H :    0.099717
  17 H :    0.126019
Sum of atomic charges:    0.0000000

LOEWDIN ATOMIC CHARGES
----------------------
   0 C :   -0.263930
   1 C :   -0.422566
   2 C :   -0.263923
   3 C :   -0.257235
   4 O :    0.142320
   5 C :   -0.344347
   6 H :    0.125434
   7 H :    0.125418
   8 H :    0.118302
   9 H :    0.125410
  10 H :    0.118326
  11 H :    0.125443
  12 H :    0.123596
  13 H :    0.123602
  14 H :    0.120863
  15 H :    0.097239
  16 H :    0.097239
  17 H :    0.108808

  Mayer bond orders larger than 0.100000
B(  0-C ,  1-C ) :   0.9774 B(  0-C ,  6-H ) :   0.9727 B(  0-C ,  7-H ) :   0.9817
B(  0-C ,  8-H ) :   0.9728 B(  1-C ,  2-C ) :   0.9773 B(  1-C ,  3-C ) :   0.9618
B(  1-C ,  4-O ) :   1.0250 B(  2-C ,  9-H ) :   0.9817 B(  2-C , 10-H ) :   0.9728
B(  2-C , 11-H ) :   0.9727 B(  3-C , 12-H ) :   0.9801 B(  3-C , 13-H ) :   0.9801
B(  3-C , 14-H ) :   0.9723 B(  4-O ,  5-C ) :   1.0012 B(  5-C , 15-H ) :   0.9737
B(  5-C , 16-H ) :   0.9737 B(  5-C , 17-H ) :   0.9828

FINAL SINGLE POINT ENERGY      -272.984330838312

DIPOLE MOMENT
-------------

Method             : SCF
Type of density    : Electron Density
Multiplicity       :   1
Irrep              :   0
Energy             :  -272.9976112297124473 Eh
Relativity type    :
Basis              : AO
                                X                 Y                 Z
Electronic contribution:     -1.436981752      -2.460986205       0.002424893
Nuclear contribution   :      1.502361433       2.980971976      -0.002925967
                        -----------------------------------------
Total Dipole Moment    :      0.065379681       0.519985771      -0.000501074
                        -----------------------------------------
Magnitude (a.u.)       :      0.524080104
Magnitude (Debye)      :      1.332105761

Rotational constants in cm-1:             0.146681             0.090584             0.090375
Rotational constants in MHz :          4397.380506          2715.644322          2709.369652

                             ****ORCA TERMINATED NORMALLY****
TOTAL RUN TIME: 0 days 0 hours 1 minutes 45 seconds 252 msec
