                         Program Version 6.0.0  -   RELEASE  -
|  1> ! wb97x-v def2-tzvp def2/J RIJCOSX DEFGRID2 scfconv7 GCP(DFT/TZ) printgap
|  2> %output
|  3>     printlevel normal
|  4> end
|  5> %cpcm
|  6>     smd true
|  7>     smdsolvent "water"
|  8> end
|  9> * xyz 0 1
| 10> C 0.5208908080326198 0.872175769017753 -1.2595616844495057
| 11> C 0.42316747430134194 0.013975885835769692 2.4926533318995064e-05
| 12> C 0.5198963167276088 0.876446576550863 1.2567651754896585
| 13> C 1.5126259112898157 -1.0512468559199124 0.0022702091004963136
| 14> O -0.81550199578413 -0.7610389535555239 0.0007565993983459415
| 15> C -2.0276192036867187 -0.006635915165681424 2.4546205714736602e-05
| 16> H 1.516837202725749 1.3211999576274565 -1.31952158581336
| 17> H 0.3651107396140073 0.2602909700700632 -2.154161760383846
| 18> H -0.20925538080909317 1.686295525068193 -1.256049460505879
| 19> H 0.36411663675532197 0.2675452492202542 2.1533941776163017
| 20> H -0.21067573140005497 1.6901562477636798 1.2501068480453674
| 21> H 1.515593173021725 1.3261655387381195 1.3155984916308028
| 22> H 1.4309710165653085 -1.6826866978686177 0.8925074613944785
| 23> H 1.4316100526405373 -1.6859012770287953 -0.885744608868172
| 24> H 2.499369688101284 -0.5803073177946773 0.0017642903327921436
| 25> H -2.1250605046168833 0.6220945816765578 -0.8939679037616185
| 26> H -2.1261410837015933 0.6220435615722311 0.8939354748947661
| 27> H -2.8417506809908266 -0.7359629628277672 -0.0004829969173278326
| 28> *
| 29>
| 30>                          ****END OF INPUT****

CARTESIAN COORDINATES (ANGSTROEM)
---------------------------------
  C      0.520891    0.872176   -1.259562
  C      0.423167    0.013976    0.000025
  C      0.519896    0.876447    1.256765
  C      1.512626   -1.051247    0.002270
  O     -0.815502   -0.761039    0.000757
  C     -2.027619   -0.006636    0.000025
  H      1.516837    1.321200   -1.319522
  H      0.365111    0.260291   -2.154162
  H     -0.209255    1.686296   -1.256049
  H      0.364117    0.267545    2.153394
  H     -0.210676    1.690156    1.250107
  H      1.515593    1.326166    1.315598
  H      1.430971   -1.682687    0.892507
  H      1.431610   -1.685901   -0.885745
  H      2.499370   -0.580307    0.001764
  H     -2.125061    0.622095   -0.893968
  H     -2.126141    0.622044    0.893935
  H     -2.841751   -0.735963   -0.000483

 Total Charge           Charge          ....    0
 Multiplicity           Mult            ....    1
 Number of Electrons    NEL             ....   50
 Basis Dimension        Dim             ....  258

ORBITAL ENERGIES
----------------

  NO   OCC          E(Eh)            E(eV)
   0   2.0000     -21.669916      -589.6684
   1   2.0000     -12.099210      -329.2363
   2   2.0000     -12.074624      -328.5672
   3   2.0000     -12.025127      -327.2204
   4   2.0000     -12.025123      -327.2202
   5   2.0000     -12.024623      -327.2066
   6   2.0000      -1.668986       -45.4154
   7   2.0000      -1.317120       -35.8407
   8   2.0000      -1.200665       -32.6718
   9   2.0000      -1.177784       -32.0491
  10   2.0000      -1.170809       -31.8593
  11   2.0000      -1.054515       -28.6948
  12   2.0000      -0.963122       -26.2079
  13   2.0000      -0.952566       -25.9206
  14   2.0000      -0.947584       -25.7851
  15   2.0000      -0.862069       -23.4581
  16   2.0000      -0.858230       -23.3536
  17   2.0000      -0.823649       -22.4126
  18   2.0000      -0.804459       -21.8904
  19   2.0000      -0.803854       -21.8740
  20   2.0000      -0.798576       -21.7304
  21   2.0000      -0.792846       -21.5744
  22   2.0000      -0.787404       -21.4264
  23   2.0000      -0.769501       -20.9392
  24   2.0000      -0.762103       -20.7379
  25   0.0000      -0.166138        -4.5209
  26   0.0000      -0.100768        -2.7420
  27   0.0000      -0.017138        -0.4663
  28   0.0000      -0.005394        -0.1468
  29   0.0000      -0.004667        -0.1270

MULLIKEN ATOMIC CHARGES
-----------------------
   0 C :   -0.424591
   1 C :    0.234132
   2 C :   -0.424593
   3 C :   -0.378741
   4 O :   -0.381739
   5 C :   -0.224245
   6 H :    0.137637
   7 H :    0.131905
   8 H :    0.139663
   9 H :    0.131920
  10 H :    0.139707
  11 H :    0.137649
  12 H :    0.128383
  13 H :    0.128394
  14 H :    0.129607
  15 H :    0.126175
  16 H :    0.126236
  17 H :    0.142504
Sum of atomic charges:    0.0000000

LOEWDIN ATOMIC CHARGES
----------------------
   0 C :   -0.266259
   1 C :   -0.422857
   2 C :   -0.266243
   3 C :   -0.266550
   4 O :    0.105134
   5 C :   -0.345117
   6 H :    0.131479
   7 H :    0.125812
   8 H :    0.124356
   9 H :    0.125815
  10 H :    0.124374
  11 H :    0.131486
  12 H :    0.123665
  13 H :    0.123667
  14 H :    0.128986
  15 H :    0.105327
  16 H :    0.105313
  17 H :    0.111611

  Mayer bond orders larger than 0.100000
B(  0-C ,  1-C ) :   0.9770 B(  0-C ,  6-H ) :   0.9698 B(  0-C ,  7-H ) :   0.9744
B(  0-C ,  8-H ) :   0.9695 B(  1-C ,  2-C ) :   0.9769 B(  1-C ,  3-C ) :   0.9595
B(  1-C ,  4-O ) :   0.9844 B(  2-C ,  9-H ) :   0.9744 B(  2-C , 10-H ) :   0.9695
B(  2-C , 11-H ) :   0.9698 B(  3-C , 12-H ) :   0.9758 B(  3-C , 13-H ) :   0.9758
B(  3-C , 14-H ) :   0.9710 B(  4-O ,  5-C ) :   0.9676 B(  5-C , 15-H ) :   0.9728
B(  5-C , 16-H ) :   0.9729 B(  5-C , 17-H ) :   0.9748

FINAL SINGLE POINT ENERGY      -272.986652757883

DIPOLE MOMENT
-------------

Method             : SCF
Type of density    : Electron Density
Multiplicity       :   1
Irrep              :   0
Energy             :  -272.9999331492834358 Eh
Relativity type    :
Basis              : AO
                                X                 Y                 Z
Electronic contribution:     -1.384178187      -2.135107054       0.002104608
Nuclear contribution   :      1.502361433       2.980971976      -0.002925967
                        -----------------------------------------
Total Dipole Moment    :      0.118183245       0.845864923      -0.000821359
                        -----------------------------------------
Magnitude (a.u.)       :      0.854081625
Magnitude (Debye)      :      2.170902966

Rotational constants in cm-1:             0.146681             0.090584             0.090375
Rotational constants in MHz :          4397.380506          2715.644322          2709.369652

                             ****ORCA TERMINATED NORMALLY****
TOTAL RUN TIME: 0 days 0 hours 1 minutes 58 seconds 783 msec
