                         Program Version 6.0.0  -   RELEASE  -
|  1> ! wb97x-v def2-tzvp def2/J RIJCOSX DEFGRID2 scfconv7 GCP(DFT/TZ) printgap
|  2> %output
|  3>     printlevel normal
|  4> end
|  5> * xyz 0 1
|  6> C -1.943942719839923 0.4722171426053739 -0.0954870544205676
|  7> C -0.8877125638759004 -0.5821745454135286 0.2121969029691222
|  8> C 0.5631531518434411 -0.15846238932656523 0.16660734491282034
|  9> O 1.4687523592622787 -1.0048917744323254 0.2920834028149322
| 10> N 0.8342138072226648 1.1470678744608984 0.005646320921919283
| 11> H -1.9210024454546983 1.2958321972888858 0.6261586544731168
| 12> H -1.8190957079149694 0.8852596524508826 -1.1020713482630986
| 13> H -2.9394376522498904 0.02196841853045358 -0.04399111132692819
| 14> H -0.974455414091699 -1.4288541182730647 -0.47786091324238944
| 15> H -1.0433168686450371 -0.9980619816578072 1.2155214720134166
| 16> H 0.10460360289353016 1.8322825632884128 -0.10498238693028923
| 17> H 1.7958251341672806 1.4525742335554261 -0.01926082875413063
| 18> *
| 19>
| 20>                          ****END OF INPUT****

CARTESIAN COORDINATES (ANGSTROEM)
---------------------------------
  C     -1.943943    0.472217   -0.095487
  C     -0.887713   -0.582175    0.212197
  C      0.563153   -0.158462    0.166607
  O      1.468752   -1.004892    0.292083
  N      0.834214    1.147068    0.005646
  H     -1.921002    1.295832    0.626159
  H     -1.819096    0.885260   -1.102071
  H     -2.939438    0.021968   -0.043991
  H     -0.974455   -1.428854   -0.477861
  H     -1.043317   -0.998062    1.215521
  H      0.104604    1.832283   -0.104982
  H      1.795825    1.452574   -0.019261

 Total Charge           Charge          ....    0
 Multiplicity           Mult            ....    1
 Number of Electrons    NEL             ....   40
 Basis Dimension        Dim             ....  197

ORBITAL ENERGIES
----------------

  NO   OCC          E(Eh)            E(eV)
   0   2.0000     -21.623129      -588.3953
   1   2.0000     -16.552993      -450.4298
   2   2.0000     -12.149036      -330.5921
   3   2.0000     -12.060158      -328.1736
   4   2.0000     -12.057017      -328.0881
   5   2.0000      -1.671482       -45.4833
   6   2.0000      -1.507238       -41.0140
   7   2.0000      -1.296009       -35.2662
   8   2.0000      -1.175769       -31.9943
   9   2.0000      -1.112017       -30.2595
  10   2.0000      -1.047147       -28.4943
  11   2.0000      -1.013609       -27.5817
  12   2.0000      -0.925568       -25.1860
  13   2.0000      -0.913112       -24.8470
  14   2.0000      -0.867294       -23.6003
  15   2.0000      -0.858876       -23.3712
  16   2.0000      -0.829243       -22.5648
  17   2.0000      -0.795747       -21.6534
  18   2.0000      -0.791341       -21.5335
  19   2.0000      -0.785908       -21.3856
  20   0.0000      -0.268927        -7.3179
  21   0.0000      -0.076505        -2.0818
  22   0.0000      -0.052627        -1.4321
  23   0.0000      -0.032660        -0.8887
  24   0.0000      -0.007314        -0.1990

MULLIKEN ATOMIC CHARGES
-----------------------
   0 C :   -0.397284
   1 C :   -0.134628
   2 C :    0.241948
   3 O :   -0.398983
   4 N :   -0.410768
   5 H :    0.114743
   6 H :    0.126546
   7 H :    0.127807
   8 H :    0.122888
   9 H :    0.119956
  10 H :    0.241828
  11 H :    0.245946
Sum of atomic charges:   -0.0000000

LOEWDIN ATOMIC CHARGES
----------------------
   0 C :   -0.312154
   1 C :   -0.250585
   2 C :   -0.466719
   3 O :    0.012730
   4 N :    0.014911
   5 H :    0.114839
   6 H :    0.117903
   7 H :    0.124083
   8 H :    0.153311
   9 H :    0.153541
  10 H :    0.165900
  11 H :    0.172240

  Mayer bond orders larger than 0.100000
B(  0-C ,  1-C ) :   0.9375 B(  0-C ,  5-H ) :   0.9763 B(  0-C ,  6-H ) :   0.9784
B(  0-C ,  7-H ) :   0.9743 B(  1-C ,  2-C ) :   0.9684 B(  1-C ,  8-H ) :   0.9630
B(  1-C ,  9-H ) :   0.9541 B(  2-C ,  3-O ) :   2.0790 B(  2-C ,  4-N ) :   1.2386
B(  4-N , 10-H ) :   0.9134 B(  4-N , 11-H ) :   0.9043

FINAL SINGLE POINT ENERGY      -248.543521633119

DIPOLE MOMENT
-------------

Method             : SCF
Type of density    : Electron Density
Multiplicity       :   1
Irrep              :   0
Energy             :  -248.5513945711184931 Eh
Relativity type    :
Basis              : AO
                                X                 Y                 Z
Electronic contribution:      5.417596474      -1.571734302       0.460626285
Nuclear contribution   :     -6.448154847       2.876622702      -0.651368896
                        -----------------------------------------
Total Dipole Moment    :     -1.030558373       1.304888400      -0.190742611
                        -----------------------------------------
Magnitude (a.u.)       :      1.673668736
Magnitude (Debye)      :      4.254127846

Rotational constants in cm-1:             0.313869             0.128689             0.094600
Rotational constants in MHz :          9409.546529          3857.990417          2836.043389

                             ****ORCA TERMINATED NORMALLY****
TOTAL RUN TIME: 0 days 0 hours 0 minutes 57 seconds 140 msec
