                         Program Version 6.0.0  -   RELEASE  -
|  1> ! wb97x-v def2-tzvp def2/J RIJCOSX DEFGRID2 scfconv7 GCP(DFT/TZ) printgap
|  2> %output
|  3>     printlevel normal
|  4> end
|  5> %cpcm
|  6>     smd true
|  7>     smdsolvent "water"
|  8> end
|  9> * xyz 0 1
| 10> C -1.943942719839923 0.4722171426053739 -0.0954870544205676
| 11> C -0.8877125638759004 -0.5821745454135286 0.2121969029691222
| 12> C 0.5631531518434411 -0.15846238932656523 0.16660734491282034
| 13> O 1.4687523592622787 -1.0048917744323254 0.2920834028149322
| 14> N 0.8342138072226648 1.1470678744608984 0.005646320921919283
| 15> H -1.9210024454546983 1.2958321972888858 0.6261586544731168
| 16> H -1.8190957079149694 0.8852596524508826 -1.1020713482630986
| 17> H -2.9394376522498904 0.02196841853045358 -0.04399111132692819
| 18> H -0.974455414091699 -1.4288541182730647 -0.47786091324238944
| 19> H -1.0433168686450371 -0.9980619816578072 1.2155214720134166
| 20> H 0.10460360289353016 1.8322825632884128 -0.10498238693028923
| 21> H 1.7958251341672806 1.4525742335554261 -0.01926082875413063
| 22> *
| 23>
| 24>                          ****END OF INPUT****

CARTESIAN COORDINATES (ANGSTROEM)
---------------------------------
  C     -1.943943    0.472217   -0.095487
  C     -0.887713   -0.582175    0.212197
  C      0.563153   -0.158462    0.166607
  O      1.468752   -1.004892    0.292083
  N      0.834214    1.147068    0.005646
  H     -1.921002    1.295832    0.626159
  H     -1.819096    0.885260   -1.102071
  H     -2.939438    0.021968   -0.043991
  H     -0.974455   -1.428854   -0.477861
  H     -1.043317   -0.998062    1.215521
  H      0.104604    1.832283   -0.104982
  H      1.795825    1.452574   -0.019261

 Total Charge           Charge          ....    0
 Multiplicity           Mult            ....    1
 Number of Electrons    NEL             ....   40
 Basis Dimension        Dim             ....  197

ORBITAL ENERGIES
----------------

  NO   OCC          E(Eh)            E(eV)
   0   2.0000     -21.641644      -588.8991
   1   2.0000     -16.545826      -450.2348
   2   2.0000     -12.158214      -330.8418
   3   2.0000     -12.049940      -327.8955
   4   2.0000     -12.034899      -327.4862
   5   2.0000      -1.692730       -46.0615
   6   2.0000      -1.501981       -40.8710
   7   2.0000      -1.283716       -34.9317
   8   2.0000      -1.167208       -31.7613
   9   2.0000      -1.104587       -30.0573
  10   2.0000      -1.050386       -28.5825
  11   2.0000      -1.018817       -27.7234
  12   2.0000      -0.927787       -25.2464
  13   2.0000      -0.923132       -25.1197
  14   2.0000      -0.860399       -23.4126
  15   2.0000      -0.850642       -23.1472
  16   2.0000      -0.826431       -22.4883
  17   2.0000      -0.791008       -21.5244
  18   2.0000      -0.785444       -21.3730
  19   2.0000      -0.770325       -20.9616
  20   0.0000      -0.271108        -7.3772
  21   0.0000      -0.061365        -1.6698
  22   0.0000      -0.041820        -1.1380
  23   0.0000      -0.014525        -0.3953
  24   0.0000       0.008028         0.2185

MULLIKEN ATOMIC CHARGES
-----------------------
   0 C :   -0.426861
   1 C :   -0.157647
   2 C :    0.299378
   3 O :   -0.569580
   4 N :   -0.422210
   5 H :    0.137666
   6 H :    0.140234
   7 H :    0.141260
   8 H :    0.135920
   9 H :    0.139626
  10 H :    0.297836
  11 H :    0.284380
Sum of atomic charges:   -0.0000000

LOEWDIN ATOMIC CHARGES
----------------------
   0 C :   -0.306935
   1 C :   -0.249436
   2 C :   -0.458873
   3 O :   -0.090339
   4 N :    0.043828
   5 H :    0.122920
   6 H :    0.123550
   7 H :    0.126818
   8 H :    0.155907
   9 H :    0.158733
  10 H :    0.187589
  11 H :    0.186238

  Mayer bond orders larger than 0.100000
B(  0-C ,  1-C ) :   0.9594 B(  0-C ,  5-H ) :   0.9722 B(  0-C ,  6-H ) :   0.9756
B(  0-C ,  7-H ) :   0.9691 B(  1-C ,  2-C ) :   0.9771 B(  1-C ,  8-H ) :   0.9560
B(  1-C ,  9-H ) :   0.9432 B(  2-C ,  3-O ) :   1.8869 B(  2-C ,  4-N ) :   1.3356
B(  4-N , 10-H ) :   0.8895 B(  4-N , 11-H ) :   0.8859

FINAL SINGLE POINT ENERGY      -248.561204363070

DIPOLE MOMENT
-------------

Method             : SCF
Type of density    : Electron Density
Multiplicity       :   1
Irrep              :   0
Energy             :  -248.5690773010697399 Eh
Relativity type    :
Basis              : AO
                                X                 Y                 Z
Electronic contribution:      5.033190088      -0.999819004       0.387472000
Nuclear contribution   :     -6.448154847       2.876622702      -0.651368896
                        -----------------------------------------
Total Dipole Moment    :     -1.414964759       1.876803698      -0.263896896
                        -----------------------------------------
Magnitude (a.u.)       :      2.365197447
Magnitude (Debye)      :      6.011854140

Rotational constants in cm-1:             0.313869             0.128689             0.094600
Rotational constants in MHz :          9409.546529          3857.990417          2836.043389

                             ****ORCA TERMINATED NORMALLY****
TOTAL RUN TIME: 0 days 0 hours 0 minutes 52 seconds 977 msec
