                         Program Version 6.0.0  -   RELEASE  -
|  1> ! wb97x-v def2-tzvp def2/J RIJCOSX DEFGRID2 scfconv7 GCP(DFT/TZ) printgap
|  2> %output
|  3>     printlevel normal
|  4> end
|  5> * xyz 0 1
|  6> C -3.012517692648592 0.2531847831489364 -0.0001195174561262318
|  7> C -1.6468324318973702 -0.43068509540828315 1.3977725430239583e-05
|  8> C -0.5059641474911108 0.5863534286681309 -0.000364306819515029
|  9> C 0.9318684395483839 0.024893338157995316 9.489709058054825e-06
| 10> C 1.1872879140514745 -0.822231306850282 -1.2523465147591164
| 11> C 1.9015829292203343 1.2138979877242335 0.0004962028409449143
| 12> C 1.1864979108973623 -0.8225772910968996 1.2523051399404501
| 13> H -3.8272223917204724 -0.47845011546847405 0.0002612716545686653
| 14> H -3.1340766353230745 0.8890938074832394 0.8842461785640167
| 15> H -3.1342845225480946 0.8884104707808602 -0.8849452944135051
| 16> H -1.5700616914128505 -1.0812742545417169 0.8796293526383835
| 17> H -1.570164412633558 -1.0818844820225115 -0.8791637353122767
| 18> H -0.617526814336389 1.236890048670686 0.8794554110150276
| 19> H -0.6173933554207068 1.2361749180848014 -0.8807287017352938
| 20> H 0.5691716571248954 -1.7259036464708253 -1.2652439798378539
| 21> H 0.971974272870897 -0.25044277186485436 -2.162891886804019
| 22> H 2.236173592763288 -1.1380910402805802 -1.2929233575717027
| 23> H 1.7517006903668553 1.8410188833013248 -0.8860168105949144
| 24> H 2.942296022760665 0.8702149989793367 0.0002423497068862534
| 25> H 1.7518463879744983 1.8401396035172146 0.8876543493538869
| 26> H 0.9693286791882998 -0.25147100592741684 2.1628420721213875
| 27> H 0.5693461753437247 -1.7269299409605257 1.2639282530795717
| 28> H 2.2356697986440586 -1.1373263365950557 1.2941380898067634
| 29> *
| 30>
| 31>                          ****END OF INPUT****

CARTESIAN COORDINATES (ANGSTROEM)
---------------------------------
  C     -3.012518    0.253185   -0.000120
  C     -1.646832   -0.430685    0.000014
  C     -0.505964    0.586353   -0.000364
  C      0.931868    0.024893    0.000009
  C      1.187288   -0.822231   -1.252347
  C      1.901583    1.213898    0.000496
  C      1.186498   -0.822577    1.252305
  H     -3.827222   -0.478450    0.000261
  H     -3.134077    0.889094    0.884246
  H     -3.134285    0.888410   -0.884945
  H     -1.570062   -1.081274    0.879629
  H     -1.570164   -1.081884   -0.879164
  H     -0.617527    1.236890    0.879455
  H     -0.617393    1.236175   -0.880729
  H      0.569172   -1.725904   -1.265244
  H      0.971974   -0.250443   -2.162892
  H      2.236174   -1.138091   -1.292923
  H      1.751701    1.841019   -0.886017
  H      2.942296    0.870215    0.000242
  H      1.751846    1.840140    0.887654
  H      0.969329   -0.251471    2.162842
  H      0.569346   -1.726930    1.263928
  H      2.235670   -1.137326    1.294138

 Total Charge           Charge          ....    0
 Multiplicity           Mult            ....    1
 Number of Electrons    NEL             ....   58
 Basis Dimension        Dim             ....  313

ORBITAL ENERGIES
----------------

  NO   OCC          E(Eh)            E(eV)
   0   2.0000     -12.053197      -327.9842
   1   2.0000     -12.037203      -327.5489
   2   2.0000     -12.034365      -327.4717
   3   2.0000     -12.031445      -327.3923
   4   2.0000     -12.029318      -327.3344
   5   2.0000     -12.029202      -327.3312
   6   2.0000     -12.028725      -327.3182
   7   2.0000      -1.333743       -36.2930
   8   2.0000      -1.271019       -34.5862
   9   2.0000      -1.173923       -31.9441
  10   2.0000      -1.173772       -31.9400
  11   2.0000      -1.169079       -31.8123
  12   2.0000      -1.069438       -29.1009
  13   2.0000      -0.997045       -27.1310
  14   2.0000      -0.893248       -24.3065
  15   2.0000      -0.892412       -24.2838
  16   2.0000      -0.875096       -23.8126
  17   2.0000      -0.862050       -23.4576
  18   2.0000      -0.833240       -22.6736
  19   2.0000      -0.821948       -22.3663
  20   2.0000      -0.814868       -22.1737
  21   2.0000      -0.803883       -21.8748
  22   2.0000      -0.792494       -21.5649
  23   2.0000      -0.790552       -21.5120
  24   2.0000      -0.776091       -21.1185
  25   2.0000      -0.764146       -20.7935
  26   2.0000      -0.755359       -20.5544
  27   2.0000      -0.748156       -20.3584
  28   2.0000      -0.741689       -20.1824
  29   0.0000      -0.048390        -1.3168
  30   0.0000      -0.031245        -0.8502
  31   0.0000      -0.023669        -0.6441
  32   0.0000      -0.017729        -0.4824
  33   0.0000      -0.010603        -0.2885

MULLIKEN ATOMIC CHARGES
-----------------------
   0 C :   -0.337918
   1 C :   -0.174268
   2 C :   -0.227406
   3 C :    0.150509
   4 C :   -0.381893
   5 C :   -0.346177
   6 C :   -0.381994
   7 H :    0.114193
   8 H :    0.104145
   9 H :    0.104150
  10 H :    0.093379
  11 H :    0.093310
  12 H :    0.093373
  13 H :    0.093360
  14 H :    0.115409
  15 H :    0.110294
  16 H :    0.111708
  17 H :    0.108759
  18 H :    0.110830
  19 H :    0.108761
  20 H :    0.110319
  21 H :    0.115443
  22 H :    0.111713
Sum of atomic charges:    0.0000000

LOEWDIN ATOMIC CHARGES
----------------------
   0 C :   -0.307974
   1 C :   -0.287061
   2 C :   -0.226043
   3 C :   -0.362531
   4 C :   -0.259440
   5 C :   -0.259891
   6 C :   -0.259452
   7 H :    0.114902
   8 H :    0.115594
   9 H :    0.115593
  10 H :    0.130814
  11 H :    0.130796
  12 H :    0.137885
  13 H :    0.137878
  14 H :    0.118235
  15 H :    0.120958
  16 H :    0.120863
  17 H :    0.119842
  18 H :    0.119119
  19 H :    0.119843
  20 H :    0.120963
  21 H :    0.118244
  22 H :    0.120864

  Mayer bond orders larger than 0.100000
B(  0-C ,  1-C ) :   0.9893 B(  0-C ,  7-H ) :   0.9868 B(  0-C ,  8-H ) :   0.9826
B(  0-C ,  9-H ) :   0.9826 B(  1-C ,  2-C ) :   0.9733 B(  1-C , 10-H ) :   0.9750
B(  1-C , 11-H ) :   0.9750 B(  2-C ,  3-C ) :   0.9504 B(  2-C , 12-H ) :   0.9747
B(  2-C , 13-H ) :   0.9747 B(  3-C ,  4-C ) :   0.9661 B(  3-C ,  5-C ) :   0.9762
B(  3-C ,  6-C ) :   0.9660 B(  4-C , 14-H ) :   0.9809 B(  4-C , 15-H ) :   0.9775
B(  4-C , 16-H ) :   0.9800 B(  5-C , 17-H ) :   0.9772 B(  5-C , 18-H ) :   0.9821
B(  5-C , 19-H ) :   0.9772 B(  6-C , 20-H ) :   0.9775 B(  6-C , 21-H ) :   0.9809
B(  6-C , 22-H ) :   0.9800

FINAL SINGLE POINT ENERGY      -276.401098731658

DIPOLE MOMENT
-------------

Method             : SCF
Type of density    : Electron Density
Multiplicity       :   1
Irrep              :   0
Energy             :  -276.4179526488579768 Eh
Relativity type    :
Basis              : AO
                                X                 Y                 Z
Electronic contribution:      0.439820459       0.035525858      -0.000371852
Nuclear contribution   :     -0.447940140      -0.060071666       0.000390596
                        -----------------------------------------
Total Dipole Moment    :     -0.008119681      -0.024545808       0.000018744
                        -----------------------------------------
Magnitude (a.u.)       :      0.025853941
Magnitude (Debye)      :      0.065715495

Rotational constants in cm-1:             0.135219             0.046802             0.046199
Rotational constants in MHz :          4053.777268          1403.086008          1385.024406

                             ****ORCA TERMINATED NORMALLY****
TOTAL RUN TIME: 0 days 0 hours 2 minutes 30 seconds 646 msec
