                         Program Version 6.0.0  -   RELEASE  -
|  1> ! wb97x-v def2-tzvp def2/J RIJCOSX DEFGRID2 scfconv7 GCP(DFT/TZ) printgap
|  2> %output
|  3>     printlevel normal
|  4> end
|  5> %cpcm
|  6>     smd true
|  7>     smdsolvent "water"
|  8> end
|  9> * xyz 0 1
| 10> C -3.012517692648592 0.2531847831489364 -0.0001195174561262318
| 11> C -1.6468324318973702 -0.43068509540828315 1.3977725430239583e-05
| 12> C -0.5059641474911108 0.5863534286681309 -0.000364306819515029
| 13> C 0.9318684395483839 0.024893338157995316 9.489709058054825e-06
| 14> C 1.1872879140514745 -0.822231306850282 -1.2523465147591164
| 15> C 1.9015829292203343 1.2138979877242335 0.0004962028409449143
| 16> C 1.1864979108973623 -0.8225772910968996 1.2523051399404501
| 17> H -3.8272223917204724 -0.47845011546847405 0.0002612716545686653
| 18> H -3.1340766353230745 0.8890938074832394 0.8842461785640167
| 19> H -3.1342845225480946 0.8884104707808602 -0.8849452944135051
| 20> H -1.5700616914128505 -1.0812742545417169 0.8796293526383835
| 21> H -1.570164412633558 -1.0818844820225115 -0.8791637353122767
| 22> H -0.617526814336389 1.236890048670686 0.8794554110150276
| 23> H -0.6173933554207068 1.2361749180848014 -0.8807287017352938
| 24> H 0.5691716571248954 -1.7259036464708253 -1.2652439798378539
| 25> H 0.971974272870897 -0.25044277186485436 -2.162891886804019
| 26> H 2.236173592763288 -1.1380910402805802 -1.2929233575717027
| 27> H 1.7517006903668553 1.8410188833013248 -0.8860168105949144
| 28> H 2.942296022760665 0.8702149989793367 0.0002423497068862534
| 29> H 1.7518463879744983 1.8401396035172146 0.8876543493538869
| 30> H 0.9693286791882998 -0.25147100592741684 2.1628420721213875
| 31> H 0.5693461753437247 -1.7269299409605257 1.2639282530795717
| 32> H 2.2356697986440586 -1.1373263365950557 1.2941380898067634
| 33> *
| 34>
| 35>                          ****END OF INPUT****

CARTESIAN COORDINATES (ANGSTROEM)
---------------------------------
  C     -3.012518    0.253185   -0.000120
  C     -1.646832   -0.430685    0.000014
  C     -0.505964    0.586353   -0.000364
  C      0.931868    0.024893    0.000009
  C      1.187288   -0.822231   -1.252347
  C      1.901583    1.213898    0.000496
  C      1.186498   -0.822577    1.252305
  H     -3.827222   -0.478450    0.000261
  H     -3.134077    0.889094    0.884246
  H     -3.134285    0.888410   -0.884945
  H     -1.570062   -1.081274    0.879629
  H     -1.570164   -1.081884   -0.879164
  H     -0.617527    1.236890    0.879455
  H     -0.617393    1.236175   -0.880729
  H      0.569172   -1.725904   -1.265244
  H      0.971974   -0.250443   -2.162892
  H      2.236174   -1.138091   -1.292923
  H      1.751701    1.841019   -0.886017
  H      2.942296    0.870215    0.000242
  H      1.751846    1.840140    0.887654
  H      0.969329   -0.251471    2.162842
  H      0.569346   -1.726930    1.263928
  H      2.235670   -1.137326    1.294138

 Total Charge           Charge          ....    0
 Multiplicity           Mult            ....    1
 Number of Electrons    NEL             ....   58
 Basis Dimension        Dim             ....  313

ORBITAL ENERGIES
----------------

  NO   OCC          E(Eh)            E(eV)
   0   2.0000     -12.045076      -327.7632
   1   2.0000     -12.028142      -327.3024
   2   2.0000     -12.025053      -327.2183
   3   2.0000     -12.023481      -327.1756
   4   2.0000     -12.020466      -327.0935
   5   2.0000     -12.020243      -327.0874
   6   2.0000     -12.019799      -327.0753
   7   2.0000      -1.325055       -36.0566
   8   2.0000      -1.262719       -34.3603
   9   2.0000      -1.165626       -31.7183
  10   2.0000      -1.165545       -31.7161
  11   2.0000      -1.161064       -31.5942
  12   2.0000      -1.061262       -28.8784
  13   2.0000      -0.988764       -26.9056
  14   2.0000      -0.884468       -24.0676
  15   2.0000      -0.883831       -24.0503
  16   2.0000      -0.866712       -23.5844
  17   2.0000      -0.853674       -23.2296
  18   2.0000      -0.825033       -22.4503
  19   2.0000      -0.813864       -22.1464
  20   2.0000      -0.806480       -21.9454
  21   2.0000      -0.795649       -21.6507
  22   2.0000      -0.783990       -21.3335
  23   2.0000      -0.782045       -21.2805
  24   2.0000      -0.767824       -20.8936
  25   2.0000      -0.755813       -20.5667
  26   2.0000      -0.746986       -20.3265
  27   2.0000      -0.739600       -20.1255
  28   2.0000      -0.732732       -19.9387
  29   0.0000      -0.039605        -1.0777
  30   0.0000      -0.021370        -0.5815
  31   0.0000      -0.015227        -0.4144
  32   0.0000      -0.008770        -0.2386
  33   0.0000      -0.001859        -0.0506

MULLIKEN ATOMIC CHARGES
-----------------------
   0 C :   -0.389970
   1 C :   -0.190046
   2 C :   -0.261804
   3 C :    0.204375
   4 C :   -0.443990
   5 C :   -0.414242
   6 C :   -0.444049
   7 H :    0.128889
   8 H :    0.118774
   9 H :    0.118777
  10 H :    0.105315
  11 H :    0.105269
  12 H :    0.107121
  13 H :    0.107117
  14 H :    0.131836
  15 H :    0.125538
  16 H :    0.128109
  17 H :    0.124747
  18 H :    0.127965
  19 H :    0.124749
  20 H :    0.125560
  21 H :    0.131846
  22 H :    0.128114
Sum of atomic charges:   -0.0000000

LOEWDIN ATOMIC CHARGES
----------------------
   0 C :   -0.316211
   1 C :   -0.288907
   2 C :   -0.228405
   3 C :   -0.360440
   4 C :   -0.266230
   5 C :   -0.267588
   6 C :   -0.266237
   7 H :    0.116592
   8 H :    0.117411
   9 H :    0.117410
  10 H :    0.132874
  11 H :    0.132862
  12 H :    0.139776
  13 H :    0.139769
  14 H :    0.120689
  15 H :    0.122968
  16 H :    0.122577
  17 H :    0.121770
  18 H :    0.121304
  19 H :    0.121771
  20 H :    0.122975
  21 H :    0.120693
  22 H :    0.122576

  Mayer bond orders larger than 0.100000
B(  0-C ,  1-C ) :   0.9792 B(  0-C ,  7-H ) :   0.9842 B(  0-C ,  8-H ) :   0.9805
B(  0-C ,  9-H ) :   0.9805 B(  1-C ,  2-C ) :   0.9752 B(  1-C , 10-H ) :   0.9745
B(  1-C , 11-H ) :   0.9745 B(  2-C ,  3-C ) :   0.9480 B(  2-C , 12-H ) :   0.9744
B(  2-C , 13-H ) :   0.9744 B(  3-C ,  4-C ) :   0.9522 B(  3-C ,  5-C ) :   0.9558
B(  3-C ,  6-C ) :   0.9521 B(  4-C , 14-H ) :   0.9784 B(  4-C , 15-H ) :   0.9767
B(  4-C , 16-H ) :   0.9794 B(  5-C , 17-H ) :   0.9772 B(  5-C , 18-H ) :   0.9809
B(  5-C , 19-H ) :   0.9772 B(  6-C , 20-H ) :   0.9768 B(  6-C , 21-H ) :   0.9784
B(  6-C , 22-H ) :   0.9794

FINAL SINGLE POINT ENERGY      -276.397339249218

DIPOLE MOMENT
-------------

Method             : SCF
Type of density    : Electron Density
Multiplicity       :   1
Irrep              :   0
Energy             :  -276.4141931664180447 Eh
Relativity type    :
Basis              : AO
                                X                 Y                 Z
Electronic contribution:      0.438588877       0.023895971      -0.000359721
Nuclear contribution   :     -0.447940140      -0.060071666       0.000390596
                        -----------------------------------------
Total Dipole Moment    :     -0.009351263      -0.036175695       0.000030875
                        -----------------------------------------
Magnitude (a.u.)       :      0.037364796
Magnitude (Debye)      :      0.094973763

Rotational constants in cm-1:             0.135219             0.046802             0.046199
Rotational constants in MHz :          4053.777268          1403.086008          1385.024406

                             ****ORCA TERMINATED NORMALLY****
TOTAL RUN TIME: 0 days 0 hours 2 minutes 36 seconds 680 msec
