                         Program Version 6.0.0  -   RELEASE  -
|  1> ! r2scan-3c def2/J RI DEFGRID2 scfconv6 printgap
|  2> %output
|  3>     printlevel normal
|  4> end
|  5> * xyz 0 1
|  6> C 1.4350903919 0.0002075638 -0.5820308352
|  7> C 0.969169572 1.1783480381 0.2136480672
|  8> C -0.3295646685 1.4920846122 0.2930928228
|  9> C -1.3999752008 0.6755013214 -0.2072750678
| 10> C -1.3998204775 -0.6758308307 -0.2071938859
| 11> C -0.3292333797 -1.4921673796 0.2932103874
| 12> C 0.9694743803 -1.178145349 0.2135030853
| 13> H 2.515270735 0.0003429711 -0.7071209319
| 14> H 0.9497806962 0.0001061798 -1.5620339088
| 15> H 1.7121968283 1.7770613711 0.7206527111
| 16> H -0.6254262147 2.4097922754 0.7849185111
| 17> H -2.3144985042 1.1915628604 -0.4716017036
| 18> H -2.3139756239 -1.1920543084 -0.4718431548
| 19> H -0.624868298 -2.4099532389 0.7850188165
| 20> H 1.7127143703 -1.7768339948 0.7199770419
| 21> *
| 22>
| 23>                          ****END OF INPUT****

CARTESIAN COORDINATES (ANGSTROEM)
---------------------------------
  C      1.435090    0.000208   -0.582031
  C      0.969170    1.178348    0.213648
  C     -0.329565    1.492085    0.293093
  C     -1.399975    0.675501   -0.207275
  C     -1.399820   -0.675831   -0.207194
  C     -0.329233   -1.492167    0.293210
  C      0.969474   -1.178145    0.213503
  H      2.515271    0.000343   -0.707121
  H      0.949781    0.000106   -1.562034
  H      1.712197    1.777061    0.720653
  H     -0.625426    2.409792    0.784919
  H     -2.314499    1.191563   -0.471602
  H     -2.313976   -1.192054   -0.471843
  H     -0.624868   -2.409953    0.785019
  H      1.712714   -1.776834    0.719977

 Total Charge           Charge          ....    0
 Multiplicity           Mult            ....    1
 Number of Electrons    NEL             ....   50
 Basis Dimension        Dim             ....  173

ORBITAL ENERGIES
----------------

  NO   OCC          E(Eh)            E(eV)
   0   2.0000     -10.039075      -273.1771
   1   2.0000     -10.039070      -273.1770
   2   2.0000     -10.035271      -273.0736
   3   2.0000     -10.034979      -273.0656
   4   2.0000     -10.034354      -273.0486
   5   2.0000     -10.028340      -272.8850
   6   2.0000     -10.028326      -272.8846
   7   2.0000      -0.814992       -22.1771
   8   2.0000      -0.736298       -20.0357
   9   2.0000      -0.734603       -19.9896
  10   2.0000      -0.629268       -17.1232
  11   2.0000      -0.597682       -16.2638
  12   2.0000      -0.507423       -13.8077
  13   2.0000      -0.483859       -13.1665
  14   2.0000      -0.468591       -12.7510
  15   2.0000      -0.419948       -11.4274
  16   2.0000      -0.417619       -11.3640
  17   2.0000      -0.399618       -10.8742
  18   2.0000      -0.346582        -9.4310
  19   2.0000      -0.346226        -9.4213
  20   2.0000      -0.326036        -8.8719
  21   2.0000      -0.311219        -8.4687
  22   2.0000      -0.287937        -7.8352
  23   2.0000      -0.229638        -6.2488
  24   2.0000      -0.208048        -5.6613
  25   0.0000      -0.055999        -1.5238
  26   0.0000      -0.010641        -0.2896
  27   0.0000       0.059086         1.6078
  28   0.0000       0.091124         2.4796
  29   0.0000       0.119306         3.2465

MULLIKEN ATOMIC CHARGES
-----------------------
   0 C :   -0.299556
   1 C :   -0.155174
   2 C :   -0.148009
   3 C :   -0.175759
   4 C :   -0.175735
   5 C :   -0.148017
   6 C :   -0.155217
   7 H :    0.142942
   8 H :    0.195691
   9 H :    0.158073
  10 H :    0.152275
  11 H :    0.149058
  12 H :    0.149068
  13 H :    0.152284
  14 H :    0.158076
Sum of atomic charges:    0.0000000

LOEWDIN ATOMIC CHARGES
----------------------
   0 C :   -0.284285
   1 C :   -0.159447
   2 C :   -0.192031
   3 C :   -0.179458
   4 C :   -0.179447
   5 C :   -0.192012
   6 C :   -0.159435
   7 H :    0.163023
   8 H :    0.176595
   9 H :    0.165383
  10 H :    0.170824
  11 H :    0.167061
  12 H :    0.167041
  13 H :    0.170828
  14 H :    0.165359

  Mayer bond orders larger than 0.100000
B(  0-C ,  1-C ) :   0.8962 B(  0-C ,  6-C ) :   0.8961 B(  0-C ,  7-H ) :   0.9698
B(  0-C ,  8-H ) :   1.0025 B(  1-C ,  2-C ) :   1.7757 B(  1-C ,  9-H ) :   0.9352
B(  2-C ,  3-C ) :   1.1712 B(  2-C , 10-H ) :   0.9348 B(  3-C ,  4-C ) :   1.6713
B(  3-C , 11-H ) :   0.9458 B(  4-C ,  5-C ) :   1.1711 B(  4-C , 12-H ) :   0.9458
B(  5-C ,  6-C ) :   1.7756 B(  5-C , 13-H ) :   0.9348 B(  6-C , 14-H ) :   0.9353

Dispersion correction           -0.004675152
FINAL SINGLE POINT ENERGY      -271.425741120915

DIPOLE MOMENT
-------------

Method             : SCF
Type of density    : Electron Density
Multiplicity       :   1
Irrep              :   0
Energy             :  -271.4247171686052980 Eh
Relativity type    :
Basis              : AO
                                X                 Y                 Z
Electronic contribution:     -0.823151973      -0.000136410       0.252263696
Nuclear contribution   :      0.948675298       0.000022625      -0.189541628
                        -----------------------------------------
Total Dipole Moment    :      0.125523325      -0.000113786       0.062722068
                        -----------------------------------------
Magnitude (a.u.)       :      0.140321687
Magnitude (Debye)      :      0.356669383

Rotational constants in cm-1:             0.127039             0.124196             0.070091
Rotational constants in MHz :          3808.519665          3723.301180          2101.287739

                             ****ORCA TERMINATED NORMALLY****
TOTAL RUN TIME: 0 days 0 hours 0 minutes 15 seconds 775 msec
