                         Program Version 6.0.0  -   RELEASE  -
|  1> ! r2scan-3c def2/J RI DEFGRID2 scfconv6 printgap
|  2> %output
|  3>     printlevel normal
|  4> end
|  5> %cpcm
|  6>     smd true
|  7>     smdsolvent "water"
|  8> end
|  9> * xyz 0 1
| 10> C 1.4350903919 0.0002075638 -0.5820308352
| 11> C 0.969169572 1.1783480381 0.2136480672
| 12> C -0.3295646685 1.4920846122 0.2930928228
| 13> C -1.3999752008 0.6755013214 -0.2072750678
| 14> C -1.3998204775 -0.6758308307 -0.2071938859
| 15> C -0.3292333797 -1.4921673796 0.2932103874
| 16> C 0.9694743803 -1.178145349 0.2135030853
| 17> H 2.515270735 0.0003429711 -0.7071209319
| 18> H 0.9497806962 0.0001061798 -1.5620339088
| 19> H 1.7121968283 1.7770613711 0.7206527111
| 20> H -0.6254262147 2.4097922754 0.7849185111
| 21> H -2.3144985042 1.1915628604 -0.4716017036
| 22> H -2.3139756239 -1.1920543084 -0.4718431548
| 23> H -0.624868298 -2.4099532389 0.7850188165
| 24> H 1.7127143703 -1.7768339948 0.7199770419
| 25> *
| 26>
| 27>                          ****END OF INPUT****

CARTESIAN COORDINATES (ANGSTROEM)
---------------------------------
  C      1.435090    0.000208   -0.582031
  C      0.969170    1.178348    0.213648
  C     -0.329565    1.492085    0.293093
  C     -1.399975    0.675501   -0.207275
  C     -1.399820   -0.675831   -0.207194
  C     -0.329233   -1.492167    0.293210
  C      0.969474   -1.178145    0.213503
  H      2.515271    0.000343   -0.707121
  H      0.949781    0.000106   -1.562034
  H      1.712197    1.777061    0.720653
  H     -0.625426    2.409792    0.784919
  H     -2.314499    1.191563   -0.471602
  H     -2.313976   -1.192054   -0.471843
  H     -0.624868   -2.409953    0.785019
  H      1.712714   -1.776834    0.719977

 Total Charge           Charge          ....    0
 Multiplicity           Mult            ....    1
 Number of Electrons    NEL             ....   50
 Basis Dimension        Dim             ....  173

ORBITAL ENERGIES
----------------

  NO   OCC          E(Eh)            E(eV)
   0   2.0000     -10.037392      -273.1313
   1   2.0000     -10.037388      -273.1312
   2   2.0000     -10.033394      -273.0225
   3   2.0000     -10.032768      -273.0055
   4   2.0000     -10.030125      -272.9336
   5   2.0000     -10.026372      -272.8315
   6   2.0000     -10.026359      -272.8311
   7   2.0000      -0.814212       -22.1558
   8   2.0000      -0.734306       -19.9815
   9   2.0000      -0.733872       -19.9697
  10   2.0000      -0.626816       -17.0565
  11   2.0000      -0.595260       -16.1978
  12   2.0000      -0.504138       -13.7183
  13   2.0000      -0.479912       -13.0591
  14   2.0000      -0.464951       -12.6520
  15   2.0000      -0.417461       -11.3597
  16   2.0000      -0.414033       -11.2664
  17   2.0000      -0.395880       -10.7724
  18   2.0000      -0.344560        -9.3759
  19   2.0000      -0.342817        -9.3285
  20   2.0000      -0.320526        -8.7220
  21   2.0000      -0.308063        -8.3828
  22   2.0000      -0.287985        -7.8365
  23   2.0000      -0.230893        -6.2829
  24   2.0000      -0.209791        -5.7087
  25   0.0000      -0.056655        -1.5417
  26   0.0000      -0.011459        -0.3118
  27   0.0000       0.059262         1.6126
  28   0.0000       0.097191         2.6447
  29   0.0000       0.120621         3.2823

MULLIKEN ATOMIC CHARGES
-----------------------
   0 C :   -0.290657
   1 C :   -0.194912
   2 C :   -0.196745
   3 C :   -0.205372
   4 C :   -0.205302
   5 C :   -0.196775
   6 C :   -0.194928
   7 H :    0.168391
   8 H :    0.203850
   9 H :    0.190732
  10 H :    0.184412
  11 H :    0.181076
  12 H :    0.181079
  13 H :    0.184424
  14 H :    0.190729
Sum of atomic charges:    0.0000000

LOEWDIN ATOMIC CHARGES
----------------------
   0 C :   -0.286291
   1 C :   -0.163997
   2 C :   -0.209147
   3 C :   -0.190894
   4 C :   -0.190872
   5 C :   -0.209127
   6 C :   -0.163977
   7 H :    0.172455
   8 H :    0.177137
   9 H :    0.175519
  10 H :    0.180240
  11 H :    0.176620
  12 H :    0.176597
  13 H :    0.180246
  14 H :    0.175492

  Mayer bond orders larger than 0.100000
B(  0-C ,  1-C ) :   0.8708 B(  0-C ,  6-C ) :   0.8707 B(  0-C ,  7-H ) :   0.9607
B(  0-C ,  8-H ) :   1.0038 B(  1-C ,  2-C ) :   1.7403 B(  1-C ,  6-C ) :   0.1116
B(  1-C ,  9-H ) :   0.9377 B(  2-C ,  3-C ) :   1.1388 B(  2-C , 10-H ) :   0.9378
B(  3-C ,  4-C ) :   1.6515 B(  3-C , 11-H ) :   0.9460 B(  4-C ,  5-C ) :   1.1387
B(  4-C , 12-H ) :   0.9460 B(  5-C ,  6-C ) :   1.7403 B(  5-C , 13-H ) :   0.9378
B(  6-C , 14-H ) :   0.9377

Dispersion correction           -0.004675152
FINAL SINGLE POINT ENERGY      -271.428050003554

DIPOLE MOMENT
-------------

Method             : SCF
Type of density    : Electron Density
Multiplicity       :   1
Irrep              :   0
Energy             :  -271.4270260512438995 Eh
Relativity type    :
Basis              : AO
                                X                 Y                 Z
Electronic contribution:     -0.730646883      -0.000185610       0.259527838
Nuclear contribution   :      0.948675298       0.000022625      -0.189541628
                        -----------------------------------------
Total Dipole Moment    :      0.218028415      -0.000162986       0.069986210
                        -----------------------------------------
Magnitude (a.u.)       :      0.228985777
Magnitude (Debye)      :      0.582035590

Rotational constants in cm-1:             0.127039             0.124196             0.070091
Rotational constants in MHz :          3808.519665          3723.301180          2101.287739

                             ****ORCA TERMINATED NORMALLY****
TOTAL RUN TIME: 0 days 0 hours 0 minutes 19 seconds 911 msec
