                         Program Version 6.0.0  -   RELEASE  -
|  1> ! pbe def2-sv(p) def2/J RI DEFGRID1 loosescf d4 GCP(DFT/SV(P)) printgap
|  2> %output
|  3>     printlevel normal
|  4> end
|  5> * xyz 0 1
|  6> C -3.0511240783 0.077369174 0.3046052388
|  7> C -1.9977979467 -0.2541648376 -0.751197068
|  8> H -2.5148570546 -0.4153585637 -1.7031887214
|  9> C -1.2053400147 -1.5178050863 -0.4108671313
| 10> C -0.3075730078 -1.3235548333 0.8061390613
| 11> C 0.6655806747 -0.1444057741 0.6384929817
| 12> H 1.1521139986 0.055048943 1.600843553
| 13> C -0.1534071491 1.0753369919 0.284920738
| 14> O -0.1316011867 2.0901042258 0.9571314331
| 15> C -1.0304186407 0.9288201199 -0.9270220763
| 16> C 1.779155508 -0.3870352289 -0.4042117795
| 17> C 2.5974987014 0.8904802387 -0.59328876
| 18> C 2.7026421558 -1.5246976407 0.0264043215
| 19> H -3.6902826822 -0.7824808524 0.4890771302
| 20> H -2.5870015759 0.3760527769 1.2419684612
| 21> H -3.6746936545 0.9019027324 -0.0329810066
| 22> H -1.900052396 -2.335891446 -0.2134013356
| 23> H -0.5993081311 -1.8027565533 -1.2720083663
| 24> H -0.9249803363 -1.1326869438 1.6859382437
| 25> H 0.2560887654 -2.2353642871 1.0007036648
| 26> H -1.5835599038 1.8566943038 -1.0826435827
| 27> H -0.3954247489 0.7481698982 -1.7951530105
| 28> H 1.3246319987 -0.6538913455 -1.3617816453
| 29> H 1.9718351787 1.7153438668 -0.9293516318
| 30> H 3.3828049138 0.732804593 -1.3285624055
| 31> H 3.0597496565 1.1852917483 0.3466328591
| 32> H 3.5252033455 -1.6154169245 -0.6786540766
| 33> H 2.178611109 -2.4753433925 0.0541420951
| 34> H 3.1174985553 -1.3257645572 1.011906532
| 35> *
| 36>
| 37>                          ****END OF INPUT****

CARTESIAN COORDINATES (ANGSTROEM)
---------------------------------
  C     -3.051124    0.077369    0.304605
  C     -1.997798   -0.254165   -0.751197
  H     -2.514857   -0.415359   -1.703189
  C     -1.205340   -1.517805   -0.410867
  C     -0.307573   -1.323555    0.806139
  C      0.665581   -0.144406    0.638493
  H      1.152114    0.055049    1.600844
  C     -0.153407    1.075337    0.284921
  O     -0.131601    2.090104    0.957131
  C     -1.030419    0.928820   -0.927022
  C      1.779156   -0.387035   -0.404212
  C      2.597499    0.890480   -0.593289
  C      2.702642   -1.524698    0.026404
  H     -3.690283   -0.782481    0.489077
  H     -2.587002    0.376053    1.241968
  H     -3.674694    0.901903   -0.032981
  H     -1.900052   -2.335891   -0.213401
  H     -0.599308   -1.802757   -1.272008
  H     -0.924980   -1.132687    1.685938
  H      0.256089   -2.235364    1.000704
  H     -1.583560    1.856694   -1.082644
  H     -0.395425    0.748170   -1.795153
  H      1.324632   -0.653891   -1.361782
  H      1.971835    1.715344   -0.929352
  H      3.382805    0.732805   -1.328562
  H      3.059750    1.185292    0.346633
  H      3.525203   -1.615417   -0.678654
  H      2.178611   -2.475343    0.054142
  H      3.117499   -1.325765    1.011907

 Total Charge           Charge          ....    0
 Multiplicity           Mult            ....    1
 Number of Electrons    NEL             ....   86
 Basis Dimension        Dim             ....  190

ORBITAL ENERGIES
----------------

  NO   OCC          E(Eh)            E(eV)
   0   2.0000     -18.729344      -509.6513
   1   2.0000      -9.965292      -271.1694
   2   2.0000      -9.907361      -269.5930
   3   2.0000      -9.906094      -269.5585
   4   2.0000      -9.895927      -269.2819
   5   2.0000      -9.893351      -269.2118
   6   2.0000      -9.891069      -269.1497
   7   2.0000      -9.888358      -269.0759
   8   2.0000      -9.879255      -268.8282
   9   2.0000      -9.877679      -268.7853
  10   2.0000      -9.874871      -268.7089
  11   2.0000      -0.927007       -25.2251
  12   2.0000      -0.770681       -20.9713
  13   2.0000      -0.731331       -19.9005
  14   2.0000      -0.678828       -18.4718
  15   2.0000      -0.653181       -17.7740
  16   2.0000      -0.616676       -16.7806
  17   2.0000      -0.614482       -16.7209
  18   2.0000      -0.555918       -15.1273
  19   2.0000      -0.517563       -14.0836
  20   2.0000      -0.513177       -13.9643
  21   2.0000      -0.464023       -12.6267
  22   2.0000      -0.431087       -11.7305
  23   2.0000      -0.423085       -11.5127
  24   2.0000      -0.410802       -11.1785
  25   2.0000      -0.404821       -11.0158
  26   2.0000      -0.389461       -10.5978
  27   2.0000      -0.386146       -10.5076
  28   2.0000      -0.367345        -9.9960
  29   2.0000      -0.352882        -9.6024
  30   2.0000      -0.349512        -9.5107
  31   2.0000      -0.344880        -9.3847
  32   2.0000      -0.341956        -9.3051
  33   2.0000      -0.331711        -9.0263
  34   2.0000      -0.323382        -8.7997
  35   2.0000      -0.311159        -8.4671
  36   2.0000      -0.304407        -8.2833
  37   2.0000      -0.300528        -8.1778
  38   2.0000      -0.293429        -7.9846
  39   2.0000      -0.282537        -7.6882
  40   2.0000      -0.273411        -7.4399
  41   2.0000      -0.269171        -7.3245
  42   2.0000      -0.183295        -4.9877
  43   0.0000      -0.047272        -1.2863
  44   0.0000       0.022348         0.6081
  45   0.0000       0.043527         1.1844
  46   0.0000       0.049136         1.3370
  47   0.0000       0.065499         1.7823

MULLIKEN ATOMIC CHARGES
-----------------------
   0 C :   -0.260127
   1 C :   -0.191461
   2 H :    0.073916
   3 C :   -0.134933
   4 C :   -0.124523
   5 C :   -0.059805
   6 H :    0.055524
   7 C :   -0.030179
   8 O :   -0.160729
   9 C :   -0.054943
  10 C :   -0.233327
  11 C :   -0.228532
  12 C :   -0.232596
  13 H :    0.101556
  14 H :    0.123921
  15 H :    0.105340
  16 H :    0.086906
  17 H :    0.088678
  18 H :    0.092716
  19 H :    0.090345
  20 H :    0.082225
  21 H :    0.100558
  22 H :    0.083097
  23 H :    0.119267
  24 H :    0.099984
  25 H :    0.101367
  26 H :    0.101893
  27 H :    0.107201
  28 H :    0.096660
Sum of atomic charges:    0.0000000

LOEWDIN ATOMIC CHARGES
----------------------
   0 C :   -0.332741
   1 C :   -0.142763
   2 H :    0.118026
   3 C :   -0.219587
   4 C :   -0.213029
   5 C :   -0.152954
   6 H :    0.123787
   7 C :    0.050171
   8 O :   -0.131010
   9 C :   -0.234456
  10 C :   -0.148187
  11 C :   -0.328542
  12 C :   -0.327511
  13 H :    0.119546
  14 H :    0.122037
  15 H :    0.123913
  16 H :    0.120454
  17 H :    0.115721
  18 H :    0.122020
  19 H :    0.120014
  20 H :    0.127022
  21 H :    0.133282
  22 H :    0.112464
  23 H :    0.121655
  24 H :    0.118456
  25 H :    0.123298
  26 H :    0.121283
  27 H :    0.117255
  28 H :    0.120379

  Mayer bond orders larger than 0.100000
B(  0-C ,  1-C ) :   1.0999 B(  0-C , 13-H ) :   0.9487 B(  0-C , 14-H ) :   0.9369
B(  0-C , 15-H ) :   0.9464 B(  1-C ,  2-H ) :   0.8964 B(  1-C ,  3-C ) :   1.0844
B(  1-C ,  9-C ) :   1.0623 B(  3-C ,  4-C ) :   1.1193 B(  3-C , 16-H ) :   0.9107
B(  3-C , 17-H ) :   0.9127 B(  4-C ,  5-C ) :   1.0669 B(  4-C , 18-H ) :   0.9091
B(  4-C , 19-H ) :   0.9027 B(  5-C ,  6-H ) :   0.8543 B(  5-C ,  7-C ) :   0.9653
B(  5-C , 10-C ) :   1.0159 B(  7-C ,  8-O ) :   2.1819 B(  7-C ,  9-C ) :   1.0257
B(  9-C , 20-H ) :   0.8883 B(  9-C , 21-H ) :   0.8820 B( 10-C , 11-C ) :   1.1190
B( 10-C , 12-C ) :   1.1174 B( 10-C , 22-H ) :   0.8851 B( 11-C , 23-H ) :   0.9314
B( 11-C , 24-H ) :   0.9479 B( 11-C , 25-H ) :   0.9460 B( 12-C , 26-H ) :   0.9470
B( 12-C , 27-H ) :   0.9411 B( 12-C , 28-H ) :   0.9458

Dispersion correction           -0.031382960
FINAL SINGLE POINT ENERGY      -466.033354259110

DIPOLE MOMENT
-------------

Method             : SCF
Type of density    : Electron Density
Multiplicity       :   1
Irrep              :   0
Energy             :  -466.1289936392804520 Eh
Relativity type    :
Basis              : AO
                                X                 Y                 Z
Electronic contribution:     -2.004880457       5.761623386       2.178583186
Nuclear contribution   :      1.966672800      -6.727209078      -2.768883006
                        -----------------------------------------
Total Dipole Moment    :     -0.038207657      -0.965585692      -0.590299820
                        -----------------------------------------
Magnitude (a.u.)       :      1.132373362
Magnitude (Debye)      :      2.878264347

Rotational constants in cm-1:             0.056892             0.028758             0.023161
Rotational constants in MHz :          1705.587271           862.139743           694.348545

                             ****ORCA TERMINATED NORMALLY****
TOTAL RUN TIME: 0 days 0 hours 0 minutes 13 seconds 852 msec
