                         Program Version 6.0.0  -   RELEASE  -
|  1> ! r2scan-3c def2/J RI DEFGRID2 scfconv6 printgap
|  2> %output
|  3>     printlevel normal
|  4> end
|  5> * xyz 0 1
|  6> C -1.4486795362 -0.0915577185 -2.51242e-05
|  7> C 0.0517839259 0.06536635 -0.00030062
|  8> O 0.5977321933 1.1666937977 -1.06697e-05
|  9> N 0.758037353 -1.0721811154 -2.3925e-05
| 10> H -1.7481623104 -1.1331346198 -0.0186270002
| 11> H -1.8493312564 0.3927760829 0.8871317712
| 12> H -1.8538426807 0.4260454155 -0.8660772667
| 13> H 1.7640584531 -1.0215113801 0.0012819696
| 14> H 0.3108696426 -1.9720149771 0.0006739642
| 15> *
| 16>
| 17>                          ****END OF INPUT****

CARTESIAN COORDINATES (ANGSTROEM)
---------------------------------
  C     -1.448680   -0.091558   -0.000025
  C      0.051784    0.065366   -0.000301
  O      0.597732    1.166694   -0.000011
  N      0.758037   -1.072181   -0.000024
  H     -1.748162   -1.133135   -0.018627
  H     -1.849331    0.392776    0.887132
  H     -1.853843    0.426045   -0.866077
  H      1.764058   -1.021511    0.001282
  H      0.310870   -1.972015    0.000674

 Total Charge           Charge          ....    0
 Multiplicity           Mult            ....    1
 Number of Electrons    NEL             ....   32
 Basis Dimension        Dim             ....  111

ORBITAL ENERGIES
----------------

  NO   OCC          E(Eh)            E(eV)
   0   2.0000     -18.906115      -514.4615
   1   2.0000     -14.186791      -386.0422
   2   2.0000     -10.130993      -275.6783
   3   2.0000     -10.037251      -273.1275
   4   2.0000      -0.992641       -27.0111
   5   2.0000      -0.878364       -23.9015
   6   2.0000      -0.710188       -19.3252
   7   2.0000      -0.565675       -15.3928
   8   2.0000      -0.515030       -14.0147
   9   2.0000      -0.438784       -11.9399
  10   2.0000      -0.418364       -11.3843
  11   2.0000      -0.375821       -10.2266
  12   2.0000      -0.362993        -9.8775
  13   2.0000      -0.338972        -9.2239
  14   2.0000      -0.245242        -6.6734
  15   2.0000      -0.215224        -5.8565
  16   0.0000       0.000781         0.0212
  17   0.0000       0.064453         1.7539
  18   0.0000       0.118686         3.2296
  19   0.0000       0.133004         3.6192
  20   0.0000       0.155733         4.2377

MULLIKEN ATOMIC CHARGES
-----------------------
   0 C :   -0.504549
   1 C :    0.320966
   2 O :   -0.416207
   3 N :   -0.379037
   4 H :    0.129971
   5 H :    0.175958
   6 H :    0.175886
   7 H :    0.248588
   8 H :    0.248425
Sum of atomic charges:   -0.0000000

LOEWDIN ATOMIC CHARGES
----------------------
   0 C :   -0.353453
   1 C :    0.292047
   2 O :   -0.470714
   3 N :   -0.501750
   4 H :    0.153804
   5 H :    0.179732
   6 H :    0.179752
   7 H :    0.263022
   8 H :    0.257561

  Mayer bond orders larger than 0.100000
B(  0-C ,  1-C ) :   0.9473 B(  0-C ,  4-H ) :   0.9868 B(  0-C ,  5-H ) :   0.9447
B(  0-C ,  6-H ) :   0.9461 B(  1-C ,  2-O ) :   1.9408 B(  1-C ,  3-N ) :   1.1078
B(  3-N ,  7-H ) :   0.9189 B(  3-N ,  8-H ) :   0.9194

Dispersion correction           -0.001497822
FINAL SINGLE POINT ENERGY      -209.173125136458

DIPOLE MOMENT
-------------

Method             : SCF
Type of density    : Electron Density
Multiplicity       :   1
Irrep              :   0
Energy             :  -209.1787333582428232 Eh
Relativity type    :
Basis              : AO
                                X                 Y                 Z
Electronic contribution:      2.781864013       1.558014057      -0.002187495
Nuclear contribution   :     -3.154605471      -3.091907293       0.004112135
                        -----------------------------------------
Total Dipole Moment    :     -0.372741457      -1.533893236       0.001924640
                        -----------------------------------------
Magnitude (a.u.)       :      1.578533610
Magnitude (Debye)      :      4.012313573

Rotational constants in cm-1:             0.365320             0.313215             0.174029
Rotational constants in MHz :         10952.031870          9389.954287          5217.271584

                             ****ORCA TERMINATED NORMALLY****
TOTAL RUN TIME: 0 days 0 hours 0 minutes 10 seconds 892 msec
