                         Program Version 6.0.0  -   RELEASE  -
|  1> ! r2scan-3c def2/J RI DEFGRID2 scfconv6 printgap
|  2> %output
|  3>     printlevel normal
|  4> end
|  5> %cpcm
|  6>     smd true
|  7>     smdsolvent "water"
|  8> end
|  9> * xyz 0 1
| 10> C -1.4486795362 -0.0915577185 -2.51242e-05
| 11> C 0.0517839259 0.06536635 -0.00030062
| 12> O 0.5977321933 1.1666937977 -1.06697e-05
| 13> N 0.758037353 -1.0721811154 -2.3925e-05
| 14> H -1.7481623104 -1.1331346198 -0.0186270002
| 15> H -1.8493312564 0.3927760829 0.8871317712
| 16> H -1.8538426807 0.4260454155 -0.8660772667
| 17> H 1.7640584531 -1.0215113801 0.0012819696
| 18> H 0.3108696426 -1.9720149771 0.0006739642
| 19> *
| 20>
| 21>                          ****END OF INPUT****

CARTESIAN COORDINATES (ANGSTROEM)
---------------------------------
  C     -1.448680   -0.091558   -0.000025
  C      0.051784    0.065366   -0.000301
  O      0.597732    1.166694   -0.000011
  N      0.758037   -1.072181   -0.000024
  H     -1.748162   -1.133135   -0.018627
  H     -1.849331    0.392776    0.887132
  H     -1.853843    0.426045   -0.866077
  H      1.764058   -1.021511    0.001282
  H      0.310870   -1.972015    0.000674

 Total Charge           Charge          ....    0
 Multiplicity           Mult            ....    1
 Number of Electrons    NEL             ....   32
 Basis Dimension        Dim             ....  111

ORBITAL ENERGIES
----------------

  NO   OCC          E(Eh)            E(eV)
   0   2.0000     -18.922096      -514.8964
   1   2.0000     -14.178180      -385.8079
   2   2.0000     -10.137558      -275.8570
   3   2.0000     -10.025088      -272.7965
   4   2.0000      -1.007201       -27.4073
   5   2.0000      -0.873524       -23.7698
   6   2.0000      -0.700930       -19.0733
   7   2.0000      -0.556981       -15.1562
   8   2.0000      -0.501053       -13.6343
   9   2.0000      -0.443121       -12.0579
  10   2.0000      -0.415861       -11.3162
  11   2.0000      -0.378577       -10.3016
  12   2.0000      -0.361496        -9.8368
  13   2.0000      -0.337532        -9.1847
  14   2.0000      -0.251611        -6.8467
  15   2.0000      -0.235188        -6.3998
  16   0.0000      -0.003695        -0.1005
  17   0.0000       0.082060         2.2330
  18   0.0000       0.139918         3.8074
  19   0.0000       0.151459         4.1214
  20   0.0000       0.169954         4.6247

MULLIKEN ATOMIC CHARGES
-----------------------
   0 C :   -0.542793
   1 C :    0.356657
   2 O :   -0.546316
   3 N :   -0.436855
   4 H :    0.174847
   5 H :    0.190773
   6 H :    0.189801
   7 H :    0.297483
   8 H :    0.316402
Sum of atomic charges:   -0.0000000

LOEWDIN ATOMIC CHARGES
----------------------
   0 C :   -0.353210
   1 C :    0.296055
   2 O :   -0.571915
   3 N :   -0.464989
   4 H :    0.172752
   5 H :    0.184440
   6 H :    0.184027
   7 H :    0.274912
   8 H :    0.277928

  Mayer bond orders larger than 0.100000
B(  0-C ,  1-C ) :   0.9526 B(  0-C ,  4-H ) :   0.9720 B(  0-C ,  5-H ) :   0.9388
B(  0-C ,  6-H ) :   0.9407 B(  1-C ,  2-O ) :   1.8172 B(  1-C ,  3-N ) :   1.1870
B(  3-N ,  7-H ) :   0.8955 B(  3-N ,  8-H ) :   0.8905

Dispersion correction           -0.001497822
FINAL SINGLE POINT ENERGY      -209.189885588894

DIPOLE MOMENT
-------------

Method             : SCF
Type of density    : Electron Density
Multiplicity       :   1
Irrep              :   0
Energy             :  -209.1954938106786415 Eh
Relativity type    :
Basis              : AO
                                X                 Y                 Z
Electronic contribution:      2.619918799       0.899610024      -0.001456490
Nuclear contribution   :     -3.154605471      -3.091907293       0.004112135
                        -----------------------------------------
Total Dipole Moment    :     -0.534686672      -2.192297269       0.002655645
                        -----------------------------------------
Magnitude (a.u.)       :      2.256560259
Magnitude (Debye)      :      5.735720354

Rotational constants in cm-1:             0.365320             0.313215             0.174029
Rotational constants in MHz :         10952.031870          9389.954287          5217.271584

                             ****ORCA TERMINATED NORMALLY****
TOTAL RUN TIME: 0 days 0 hours 0 minutes 11 seconds 380 msec
