                         Program Version 6.0.0  -   RELEASE  -
|  1> ! wb97x-v def2-tzvp def2/J RIJCOSX DEFGRID2 scfconv7 GCP(DFT/TZ) printgap
|  2> %output
|  3>     printlevel normal
|  4> end
|  5> * xyz 0 1
|  6> C -2.5778001363120384 -0.689263176222002 -0.3209834705753061
|  7> C -1.2115014410635725 -0.29698796178561093 0.20172859065641746
|  8> H -1.2313914955235983 -0.25507144900610457 1.3043239847803838
|  9> C -0.7358967869197055 1.0499328794245044 -0.351749950336787
| 10> H -0.7728854021255124 1.025876777379407 -1.4476012530202318
| 11> C 0.6994086017002813 1.308099612619551 0.10475068267202593
| 12> H 0.6925152029943689 1.4425073052430755 1.199687024216231
| 13> C 1.614191777160914 0.13727435231602778 -0.22946492283332565
| 14> H 1.6969242758092473 0.03644178016239043 -1.3231709547087545
| 15> C 1.0151512440909103 -1.1487331106532634 0.3227391987626519
| 16> H 0.9475535970008898 -1.1081455157140032 1.4224802638041893
| 17> O -0.29637660810376976 -1.3231285150957866 -0.2243485709145535
| 18> O 1.8021895942569122 -2.2295198050792213 -0.09956967357399168
| 19> O 2.905129351184363 0.3065083981525534 0.3604892724630337
| 20> O 1.2568097819647421 2.465774796960829 -0.5264362745643275
| 21> O -1.5924630053562314 2.1244109114860996 0.04889180000654643
| 22> O -3.0554963706416123 -1.9002814022225405 0.2768223174038952
| 23> H -2.5343429488609925 -0.7846538907063177 -1.415579729377392
| 24> H -3.298456328819079 0.09157406319331846 -0.06709886464895555
| 25> H 1.6057244119709486 -2.986449239277035 0.46923501454730693
| 26> H 3.2408481089110035 1.164936509255493 0.06778809224386137
| 27> H 0.7588793770906902 3.2336204776718094 -0.21439119326156095
| 28> H -1.5918255268179602 2.155430610578373 1.017057634163354
| 29> H -2.4412880755737763 -2.6033646044244994 0.027366405607903044
| 30> *
| 31>
| 32>                          ****END OF INPUT****

CARTESIAN COORDINATES (ANGSTROEM)
---------------------------------
  C     -2.577800   -0.689263   -0.320983
  C     -1.211501   -0.296988    0.201729
  H     -1.231391   -0.255071    1.304324
  C     -0.735897    1.049933   -0.351750
  H     -0.772885    1.025877   -1.447601
  C      0.699409    1.308100    0.104751
  H      0.692515    1.442507    1.199687
  C      1.614192    0.137274   -0.229465
  H      1.696924    0.036442   -1.323171
  C      1.015151   -1.148733    0.322739
  H      0.947554   -1.108146    1.422480
  O     -0.296377   -1.323129   -0.224349
  O      1.802190   -2.229520   -0.099570
  O      2.905129    0.306508    0.360489
  O      1.256810    2.465775   -0.526436
  O     -1.592463    2.124411    0.048892
  O     -3.055496   -1.900281    0.276822
  H     -2.534343   -0.784654   -1.415580
  H     -3.298456    0.091574   -0.067099
  H      1.605724   -2.986449    0.469235
  H      3.240848    1.164937    0.067788
  H      0.758879    3.233620   -0.214391
  H     -1.591826    2.155431    1.017058
  H     -2.441288   -2.603365    0.027366

 Total Charge           Charge          ....    0
 Multiplicity           Mult            ....    1
 Number of Electrons    NEL             ....   96
 Basis Dimension        Dim             ....  444

ORBITAL ENERGIES
----------------

  NO   OCC          E(Eh)            E(eV)
   0   2.0000     -21.701131      -590.5178
   1   2.0000     -21.697551      -590.4204
   2   2.0000     -21.693700      -590.3156
   3   2.0000     -21.691932      -590.2675
   4   2.0000     -21.677901      -589.8857
   5   2.0000     -21.675472      -589.8196
   6   2.0000     -12.162910      -330.9696
   7   2.0000     -12.118900      -329.7720
   8   2.0000     -12.118044      -329.7488
   9   2.0000     -12.116828      -329.7157
  10   2.0000     -12.110233      -329.5362
  11   2.0000     -12.100510      -329.2716
  12   2.0000      -1.726907       -46.9915
  13   2.0000      -1.704967       -46.3945
  14   2.0000      -1.695048       -46.1246
  15   2.0000      -1.685265       -45.8584
  16   2.0000      -1.679116       -45.6911
  17   2.0000      -1.674539       -45.5665
  18   2.0000      -1.344487       -36.5853
  19   2.0000      -1.329734       -36.1839
  20   2.0000      -1.241921       -33.7944
  21   2.0000      -1.206740       -32.8371
  22   2.0000      -1.172058       -31.8933
  23   2.0000      -1.129874       -30.7454
  24   2.0000      -1.099588       -29.9213
  25   2.0000      -1.074506       -29.2388
  26   2.0000      -1.057918       -28.7874
  27   2.0000      -1.046414       -28.4744
  28   2.0000      -1.037595       -28.2344
  29   2.0000      -1.015737       -27.6396
  30   2.0000      -1.004222       -27.3263
  31   2.0000      -0.988712       -26.9042
  32   2.0000      -0.986022       -26.8310
  33   2.0000      -0.972783       -26.4708
  34   2.0000      -0.964023       -26.2324
  35   2.0000      -0.953421       -25.9439
  36   2.0000      -0.945074       -25.7168
  37   2.0000      -0.935251       -25.4495
  38   2.0000      -0.928347       -25.2616
  39   2.0000      -0.916485       -24.9388
  40   2.0000      -0.904634       -24.6163
  41   2.0000      -0.890833       -24.2408
  42   2.0000      -0.851492       -23.1703
  43   2.0000      -0.838342       -22.8125
  44   2.0000      -0.830128       -22.5889
  45   2.0000      -0.815454       -22.1896
  46   2.0000      -0.799013       -21.7422
  47   2.0000      -0.780751       -21.2453
  48   0.0000      -0.248380        -6.7588
  49   0.0000      -0.201189        -5.4746
  50   0.0000      -0.181697        -4.9442
  51   0.0000      -0.164314        -4.4712
  52   0.0000      -0.126538        -3.4433

MULLIKEN ATOMIC CHARGES
-----------------------
   0 C :    0.010164
   1 C :   -0.017172
   2 H :    0.075771
   3 C :    0.032786
   4 H :    0.096791
   5 C :    0.010570
   6 H :    0.079560
   7 C :    0.127188
   8 H :    0.086322
   9 C :    0.094747
  10 H :    0.064131
  11 O :   -0.276856
  12 O :   -0.383046
  13 O :   -0.428376
  14 O :   -0.444385
  15 O :   -0.433262
  16 O :   -0.451765
  17 H :    0.097643
  18 H :    0.108557
  19 H :    0.309792
  20 H :    0.314505
  21 H :    0.316112
  22 H :    0.301550
  23 H :    0.308674
Sum of atomic charges:   -0.0000000

LOEWDIN ATOMIC CHARGES
----------------------
   0 C :   -0.307523
   1 C :   -0.313869
   2 H :    0.137915
   3 C :   -0.305288
   4 H :    0.154526
   5 C :   -0.323663
   6 H :    0.138627
   7 C :   -0.303729
   8 H :    0.148913
   9 C :   -0.403652
  10 H :    0.123246
  11 O :    0.182410
  12 O :    0.026983
  13 O :   -0.007120
  14 O :   -0.015093
  15 O :   -0.011413
  16 O :   -0.050614
  17 H :    0.123710
  18 H :    0.133807
  19 H :    0.177511
  20 H :    0.176298
  21 H :    0.175511
  22 H :    0.172095
  23 H :    0.170411

  Mayer bond orders larger than 0.100000
B(  0-C ,  1-C ) :   0.9816 B(  0-C , 16-O ) :   1.0187 B(  0-C , 17-H ) :   0.9728
B(  0-C , 18-H ) :   0.9610 B(  1-C ,  2-H ) :   0.9547 B(  1-C ,  3-C ) :   0.9480
B(  1-C , 11-O ) :   0.9726 B(  3-C ,  4-H ) :   0.9234 B(  3-C ,  5-C ) :   0.9874
B(  3-C , 15-O ) :   0.9941 B(  5-C ,  6-H ) :   0.9624 B(  5-C ,  7-C ) :   0.9490
B(  5-C , 14-O ) :   1.0726 B(  7-C ,  8-H ) :   0.9677 B(  7-C ,  9-C ) :   0.9337
B(  7-C , 13-O ) :   1.1177 B(  9-C , 10-H ) :   0.9765 B(  9-C , 11-O ) :   1.0104
B(  9-C , 12-O ) :   1.2568 B( 12-O , 19-H ) :   0.8947 B( 13-O , 20-H ) :   0.8866
B( 14-O , 21-H ) :   0.8872 B( 15-O , 22-H ) :   0.8909 B( 16-O , 23-H ) :   0.8938

FINAL SINGLE POINT ENERGY      -687.245492859204

DIPOLE MOMENT
-------------

Method             : SCF
Type of density    : Electron Density
Multiplicity       :   1
Irrep              :   0
Energy             :  -687.2642315988035762 Eh
Relativity type    :
Basis              : AO
                                X                 Y                 Z
Electronic contribution:      2.553002873      -1.034034665      -0.504792862
Nuclear contribution   :     -2.668296182       1.515370753       1.279251722
                        -----------------------------------------
Total Dipole Moment    :     -0.115293309       0.481336088       0.774458861
                        -----------------------------------------
Magnitude (a.u.)       :      0.919110169
Magnitude (Debye)      :      2.336192390

Rotational constants in cm-1:             0.038829             0.025912             0.016286
Rotational constants in MHz :          1164.075822           776.808829           488.230317

                             ****ORCA TERMINATED NORMALLY****
TOTAL RUN TIME: 0 days 0 hours 4 minutes 47 seconds 686 msec
