                         Program Version 6.0.0  -   RELEASE  -
|  1> ! wb97x-v def2-tzvp def2/J RIJCOSX DEFGRID2 scfconv7 GCP(DFT/TZ) printgap
|  2> %output
|  3>     printlevel normal
|  4> end
|  5> %cpcm
|  6>     smd true
|  7>     smdsolvent "water"
|  8> end
|  9> * xyz 0 1
| 10> C -2.5778001363120384 -0.689263176222002 -0.3209834705753061
| 11> C -1.2115014410635725 -0.29698796178561093 0.20172859065641746
| 12> H -1.2313914955235983 -0.25507144900610457 1.3043239847803838
| 13> C -0.7358967869197055 1.0499328794245044 -0.351749950336787
| 14> H -0.7728854021255124 1.025876777379407 -1.4476012530202318
| 15> C 0.6994086017002813 1.308099612619551 0.10475068267202593
| 16> H 0.6925152029943689 1.4425073052430755 1.199687024216231
| 17> C 1.614191777160914 0.13727435231602778 -0.22946492283332565
| 18> H 1.6969242758092473 0.03644178016239043 -1.3231709547087545
| 19> C 1.0151512440909103 -1.1487331106532634 0.3227391987626519
| 20> H 0.9475535970008898 -1.1081455157140032 1.4224802638041893
| 21> O -0.29637660810376976 -1.3231285150957866 -0.2243485709145535
| 22> O 1.8021895942569122 -2.2295198050792213 -0.09956967357399168
| 23> O 2.905129351184363 0.3065083981525534 0.3604892724630337
| 24> O 1.2568097819647421 2.465774796960829 -0.5264362745643275
| 25> O -1.5924630053562314 2.1244109114860996 0.04889180000654643
| 26> O -3.0554963706416123 -1.9002814022225405 0.2768223174038952
| 27> H -2.5343429488609925 -0.7846538907063177 -1.415579729377392
| 28> H -3.298456328819079 0.09157406319331846 -0.06709886464895555
| 29> H 1.6057244119709486 -2.986449239277035 0.46923501454730693
| 30> H 3.2408481089110035 1.164936509255493 0.06778809224386137
| 31> H 0.7588793770906902 3.2336204776718094 -0.21439119326156095
| 32> H -1.5918255268179602 2.155430610578373 1.017057634163354
| 33> H -2.4412880755737763 -2.6033646044244994 0.027366405607903044
| 34> *
| 35>
| 36>                          ****END OF INPUT****

CARTESIAN COORDINATES (ANGSTROEM)
---------------------------------
  C     -2.577800   -0.689263   -0.320983
  C     -1.211501   -0.296988    0.201729
  H     -1.231391   -0.255071    1.304324
  C     -0.735897    1.049933   -0.351750
  H     -0.772885    1.025877   -1.447601
  C      0.699409    1.308100    0.104751
  H      0.692515    1.442507    1.199687
  C      1.614192    0.137274   -0.229465
  H      1.696924    0.036442   -1.323171
  C      1.015151   -1.148733    0.322739
  H      0.947554   -1.108146    1.422480
  O     -0.296377   -1.323129   -0.224349
  O      1.802190   -2.229520   -0.099570
  O      2.905129    0.306508    0.360489
  O      1.256810    2.465775   -0.526436
  O     -1.592463    2.124411    0.048892
  O     -3.055496   -1.900281    0.276822
  H     -2.534343   -0.784654   -1.415580
  H     -3.298456    0.091574   -0.067099
  H      1.605724   -2.986449    0.469235
  H      3.240848    1.164937    0.067788
  H      0.758879    3.233620   -0.214391
  H     -1.591826    2.155431    1.017058
  H     -2.441288   -2.603365    0.027366

 Total Charge           Charge          ....    0
 Multiplicity           Mult            ....    1
 Number of Electrons    NEL             ....   96
 Basis Dimension        Dim             ....  444

ORBITAL ENERGIES
----------------

  NO   OCC          E(Eh)            E(eV)
   0   2.0000     -21.691724      -590.2618
   1   2.0000     -21.691183      -590.2471
   2   2.0000     -21.684130      -590.0552
   3   2.0000     -21.682317      -590.0058
   4   2.0000     -21.682072      -589.9992
   5   2.0000     -21.677290      -589.8691
   6   2.0000     -12.153627      -330.7170
   7   2.0000     -12.103796      -329.3610
   8   2.0000     -12.103260      -329.3465
   9   2.0000     -12.102476      -329.3251
  10   2.0000     -12.101441      -329.2970
  11   2.0000     -12.090947      -329.0114
  12   2.0000      -1.723401       -46.8961
  13   2.0000      -1.691149       -46.0185
  14   2.0000      -1.686553       -45.8934
  15   2.0000      -1.681721       -45.7619
  16   2.0000      -1.678872       -45.6844
  17   2.0000      -1.675673       -45.5974
  18   2.0000      -1.331408       -36.2295
  19   2.0000      -1.321379       -35.9566
  20   2.0000      -1.233716       -33.5711
  21   2.0000      -1.196445       -32.5569
  22   2.0000      -1.166465       -31.7411
  23   2.0000      -1.121941       -30.5296
  24   2.0000      -1.093132       -29.7456
  25   2.0000      -1.064541       -28.9676
  26   2.0000      -1.053147       -28.6576
  27   2.0000      -1.041862       -28.3505
  28   2.0000      -1.032180       -28.0870
  29   2.0000      -1.008893       -27.4534
  30   2.0000      -1.002254       -27.2727
  31   2.0000      -0.981984       -26.7211
  32   2.0000      -0.977316       -26.5941
  33   2.0000      -0.967485       -26.3266
  34   2.0000      -0.963294       -26.2126
  35   2.0000      -0.952899       -25.9297
  36   2.0000      -0.939898       -25.5759
  37   2.0000      -0.933195       -25.3935
  38   2.0000      -0.924298       -25.1514
  39   2.0000      -0.909375       -24.7453
  40   2.0000      -0.899096       -24.4656
  41   2.0000      -0.888346       -24.1731
  42   2.0000      -0.843753       -22.9597
  43   2.0000      -0.829224       -22.5643
  44   2.0000      -0.821045       -22.3418
  45   2.0000      -0.803561       -21.8660
  46   2.0000      -0.789456       -21.4822
  47   2.0000      -0.767387       -20.8817
  48   0.0000      -0.236876        -6.4457
  49   0.0000      -0.190984        -5.1970
  50   0.0000      -0.173027        -4.7083
  51   0.0000      -0.153822        -4.1857
  52   0.0000      -0.116738        -3.1766

MULLIKEN ATOMIC CHARGES
-----------------------
   0 C :   -0.010580
   1 C :    0.002686
   2 H :    0.115605
   3 C :    0.055608
   4 H :    0.115843
   5 C :    0.045989
   6 H :    0.115889
   7 C :    0.121517
   8 H :    0.098392
   9 C :    0.114691
  10 H :    0.106801
  11 O :   -0.331318
  12 O :   -0.487343
  13 O :   -0.523645
  14 O :   -0.529185
  15 O :   -0.530454
  16 O :   -0.549886
  17 H :    0.120163
  18 H :    0.126404
  19 H :    0.376342
  20 H :    0.361667
  21 H :    0.363327
  22 H :    0.363574
  23 H :    0.357914
Sum of atomic charges:   -0.0000000

LOEWDIN ATOMIC CHARGES
----------------------
   0 C :   -0.307743
   1 C :   -0.301386
   2 H :    0.153355
   3 C :   -0.299580
   4 H :    0.157506
   5 C :   -0.309880
   6 H :    0.154613
   7 C :   -0.307742
   8 H :    0.150939
   9 C :   -0.400156
  10 H :    0.138885
  11 O :    0.162637
  12 O :   -0.012143
  13 O :   -0.044186
  14 O :   -0.043104
  15 O :   -0.040134
  16 O :   -0.088611
  17 H :    0.129583
  18 H :    0.136764
  19 H :    0.201366
  20 H :    0.191641
  21 H :    0.192458
  22 H :    0.198188
  23 H :    0.186728

  Mayer bond orders larger than 0.100000
B(  0-C ,  1-C ) :   0.9657 B(  0-C , 16-O ) :   0.9796 B(  0-C , 17-H ) :   0.9715
B(  0-C , 18-H ) :   0.9657 B(  1-C ,  2-H ) :   0.9551 B(  1-C ,  3-C ) :   0.9694
B(  1-C , 11-O ) :   0.9439 B(  3-C ,  4-H ) :   0.9270 B(  3-C ,  5-C ) :   0.9958
B(  3-C , 15-O ) :   0.9805 B(  5-C ,  6-H ) :   0.9580 B(  5-C ,  7-C ) :   0.9808
B(  5-C , 14-O ) :   1.0339 B(  7-C ,  8-H ) :   0.9532 B(  7-C ,  9-C ) :   0.9543
B(  7-C , 13-O ) :   1.0617 B(  9-C , 10-H ) :   0.9776 B(  9-C , 11-O ) :   1.0114
B(  9-C , 12-O ) :   1.2004 B( 12-O , 19-H ) :   0.8536 B( 13-O , 20-H ) :   0.8576
B( 14-O , 21-H ) :   0.8591 B( 15-O , 22-H ) :   0.8580 B( 16-O , 23-H ) :   0.8638

FINAL SINGLE POINT ENERGY      -687.287680896970

DIPOLE MOMENT
-------------

Method             : SCF
Type of density    : Electron Density
Multiplicity       :   1
Irrep              :   0
Energy             :  -687.3064196365698990 Eh
Relativity type    :
Basis              : AO
                                X                 Y                 Z
Electronic contribution:      2.382483557      -0.791723691      -0.023521188
Nuclear contribution   :     -2.668296182       1.515370753       1.279251722
                        -----------------------------------------
Total Dipole Moment    :     -0.285812625       0.723647061       1.255730534
                        -----------------------------------------
Magnitude (a.u.)       :      1.477231566
Magnitude (Debye)      :      3.754824240

Rotational constants in cm-1:             0.038829             0.025912             0.016286
Rotational constants in MHz :          1164.075822           776.808829           488.230317

                             ****ORCA TERMINATED NORMALLY****
TOTAL RUN TIME: 0 days 0 hours 5 minutes 22 seconds 735 msec
