                         Program Version 6.0.0  -   RELEASE  -
|  1> ! pbe def2-sv(p) def2/J RI DEFGRID1 loosescf d4 GCP(DFT/SV(P)) printgap
|  2> %output
|  3>     printlevel normal
|  4> end
|  5> * xyz 0 1
|  6> C -2.1958148468 -1.0436005078 -0.4123723343
|  7> C -1.1762604292 -0.2106503202 0.3803550243
|  8> H -1.673307532 0.215653411 1.260749364
|  9> C -0.5951813935 0.9447238601 -0.4529595099
| 10> H -0.4228745636 0.6031879951 -1.486730016
| 11> C 0.7551276526 1.3349874819 0.1619872398
| 12> H 0.6238747405 1.499896236 1.2375786757
| 13> C 1.7309924916 0.1657847703 -0.0502044277
| 14> H 2.0718812073 0.1747187637 -1.097990602
| 15> C 1.0257624952 -1.1841402266 0.1824017053
| 16> H 1.6755036522 -1.7871459974 0.8300623434
| 17> O -0.1639947991 -1.066598214 0.9186940224
| 18> O 0.8222745198 -1.7854562199 -1.0599921171
| 19> O 2.8315093441 0.2383078277 0.8181275705
| 20> O 1.2851395954 2.5313962251 -0.3419354378
| 21> O -1.4295316257 2.0736491549 -0.4349601584
| 22> O -2.8889518704 -1.9451115057 0.4145439603
| 23> H -1.6749875612 -1.5764303818 -1.2186744663
| 24> H -2.9567833832 -0.3934852201 -0.8477469804
| 25> H 0.706539149 -2.7425081818 -0.9616133629
| 26> H 3.2071968417 1.1311647033 0.767610162
| 27> H 1.1376242604 2.5851823984 -1.2969219672
| 28> H -2.2687319578 1.8802909111 -0.8746606511
| 29> H -2.2449161833 -2.408371074 0.9699622613
| 30> *
| 31>
| 32>                          ****END OF INPUT****

CARTESIAN COORDINATES (ANGSTROEM)
---------------------------------
  C     -2.195815   -1.043601   -0.412372
  C     -1.176260   -0.210650    0.380355
  H     -1.673308    0.215653    1.260749
  C     -0.595181    0.944724   -0.452960
  H     -0.422875    0.603188   -1.486730
  C      0.755128    1.334987    0.161987
  H      0.623875    1.499896    1.237579
  C      1.730992    0.165785   -0.050204
  H      2.071881    0.174719   -1.097991
  C      1.025762   -1.184140    0.182402
  H      1.675504   -1.787146    0.830062
  O     -0.163995   -1.066598    0.918694
  O      0.822275   -1.785456   -1.059992
  O      2.831509    0.238308    0.818128
  O      1.285140    2.531396   -0.341935
  O     -1.429532    2.073649   -0.434960
  O     -2.888952   -1.945112    0.414544
  H     -1.674988   -1.576430   -1.218674
  H     -2.956783   -0.393485   -0.847747
  H      0.706539   -2.742508   -0.961613
  H      3.207197    1.131165    0.767610
  H      1.137624    2.585182   -1.296922
  H     -2.268732    1.880291   -0.874661
  H     -2.244916   -2.408371    0.969962

 Total Charge           Charge          ....    0
 Multiplicity           Mult            ....    1
 Number of Electrons    NEL             ....   96
 Basis Dimension        Dim             ....  192

ORBITAL ENERGIES
----------------

  NO   OCC          E(Eh)            E(eV)
   0   2.0000     -18.774382      -510.8769
   1   2.0000     -18.774311      -510.8750
   2   2.0000     -18.762051      -510.5414
   3   2.0000     -18.754939      -510.3478
   4   2.0000     -18.751365      -510.2506
   5   2.0000     -18.744553      -510.0652
   6   2.0000      -9.991004      -271.8690
   7   2.0000      -9.951448      -270.7927
   8   2.0000      -9.945757      -270.6378
   9   2.0000      -9.942954      -270.5615
  10   2.0000      -9.940824      -270.5036
  11   2.0000      -9.933684      -270.3093
  12   2.0000      -0.987070       -26.8595
  13   2.0000      -0.949523       -25.8378
  14   2.0000      -0.934831       -25.4380
  15   2.0000      -0.927016       -25.2254
  16   2.0000      -0.918701       -24.9991
  17   2.0000      -0.913593       -24.8601
  18   2.0000      -0.709453       -19.3052
  19   2.0000      -0.694594       -18.9009
  20   2.0000      -0.626500       -17.0479
  21   2.0000      -0.583990       -15.8912
  22   2.0000      -0.573236       -15.5985
  23   2.0000      -0.524732       -14.2787
  24   2.0000      -0.518520       -14.1096
  25   2.0000      -0.496592       -13.5130
  26   2.0000      -0.477057       -12.9814
  27   2.0000      -0.453285       -12.3345
  28   2.0000      -0.441651       -12.0179
  29   2.0000      -0.436990       -11.8911
  30   2.0000      -0.411024       -11.1845
  31   2.0000      -0.395239       -10.7550
  32   2.0000      -0.393069       -10.6959
  33   2.0000      -0.389653       -10.6030
  34   2.0000      -0.362476        -9.8635
  35   2.0000      -0.360169        -9.8007
  36   2.0000      -0.325930        -8.8690
  37   2.0000      -0.320810        -8.7297
  38   2.0000      -0.306815        -8.3488
  39   2.0000      -0.298078        -8.1111
  40   2.0000      -0.279585        -7.6079
  41   2.0000      -0.272803        -7.4234
  42   2.0000      -0.258472        -7.0334
  43   2.0000      -0.244762        -6.6603
  44   2.0000      -0.236487        -6.4351
  45   2.0000      -0.228927        -6.2294
  46   2.0000      -0.213458        -5.8085
  47   2.0000      -0.204157        -5.5554
  48   0.0000       0.005397         0.1469
  49   0.0000       0.011920         0.3244
  50   0.0000       0.031009         0.8438
  51   0.0000       0.045867         1.2481
  52   0.0000       0.054502         1.4831

MULLIKEN ATOMIC CHARGES
-----------------------
   0 C :    0.075160
   1 C :    0.025892
   2 H :    0.079412
   3 C :   -0.029567
   4 H :    0.056721
   5 C :    0.067376
   6 H :    0.069696
   7 C :    0.083691
   8 H :    0.053332
   9 C :    0.172148
  10 H :    0.078567
  11 O :   -0.327254
  12 O :   -0.396940
  13 O :   -0.417534
  14 O :   -0.410350
  15 O :   -0.395233
  16 O :   -0.436296
  17 H :    0.073111
  18 H :    0.059514
  19 H :    0.309525
  20 H :    0.306814
  21 H :    0.300852
  22 H :    0.305330
  23 H :    0.296032
Sum of atomic charges:    0.0000000

LOEWDIN ATOMIC CHARGES
----------------------
   0 C :   -0.137155
   1 C :   -0.076902
   2 H :    0.120479
   3 C :   -0.083403
   4 H :    0.099871
   5 C :   -0.073598
   6 H :    0.123172
   7 C :   -0.080790
   8 H :    0.102018
   9 C :   -0.001164
  10 H :    0.108858
  11 O :   -0.150130
  12 O :   -0.308624
  13 O :   -0.318305
  14 O :   -0.307857
  15 O :   -0.309347
  16 O :   -0.339934
  17 H :    0.098330
  18 H :    0.103448
  19 H :    0.290345
  20 H :    0.288314
  21 H :    0.286469
  22 H :    0.286799
  23 H :    0.279105

  Mayer bond orders larger than 0.100000
B(  0-C ,  1-C ) :   1.0641 B(  0-C , 16-O ) :   1.0747 B(  0-C , 17-H ) :   0.8943
B(  0-C , 18-H ) :   0.9124 B(  1-C ,  2-H ) :   0.8803 B(  1-C ,  3-C ) :   0.9773
B(  1-C , 11-O ) :   0.9531 B(  3-C ,  4-H ) :   0.8810 B(  3-C ,  5-C ) :   1.0243
B(  3-C , 15-O ) :   1.0872 B(  5-C ,  6-H ) :   0.8522 B(  5-C ,  7-C ) :   1.0212
B(  5-C , 14-O ) :   1.0649 B(  7-C ,  8-H ) :   0.8793 B(  7-C ,  9-C ) :   0.9742
B(  7-C , 13-O ) :   1.0897 B(  9-C , 10-H ) :   0.8930 B(  9-C , 11-O ) :   1.0728
B(  9-C , 12-O ) :   1.1031 B( 12-O , 19-H ) :   0.8365 B( 13-O , 20-H ) :   0.8385
B( 14-O , 21-H ) :   0.8465 B( 15-O , 22-H ) :   0.8429 B( 16-O , 23-H ) :   0.8421

Dispersion correction           -0.024394340
FINAL SINGLE POINT ENERGY      -685.688652042235

DIPOLE MOMENT
-------------

Method             : SCF
Type of density    : Electron Density
Multiplicity       :   1
Irrep              :   0
Energy             :  -685.8182266039448223 Eh
Relativity type    :
Basis              : AO
                                X                 Y                 Z
Electronic contribution:      1.825418416       0.401964455       1.685169788
Nuclear contribution   :     -1.699751926      -0.766594847      -2.545639590
                        -----------------------------------------
Total Dipole Moment    :      0.125666490      -0.364630392      -0.860469802
                        -----------------------------------------
Magnitude (a.u.)       :      0.942950513
Magnitude (Debye)      :      2.396789727

Rotational constants in cm-1:             0.042516             0.025876             0.018451
Rotational constants in MHz :          1274.593470           775.748370           553.137791

                             ****ORCA TERMINATED NORMALLY****
TOTAL RUN TIME: 0 days 0 hours 0 minutes 11 seconds 956 msec
