                         Program Version 6.0.0  -   RELEASE  -
|  1> ! r2scan-3c def2/J RI DEFGRID2 scfconv6 printgap
|  2> %output
|  3>     printlevel normal
|  4> end
|  5> * xyz 0 1
|  6> C -2.6327240289 0.6060545663 0.7598941452
|  7> C -1.8479771513 0.5831526273 -0.5533768623
|  8> C -0.3811905994 0.3886646413 -0.2943208731
|  9> C 0.4874892957 1.4651145323 -0.2190406469
| 10> C 1.8345097389 1.2895869892 0.0507049096
| 11> C 2.3302327801 0.0142963162 0.2495172668
| 12> C 1.4813886197 -1.0762244802 0.1794273955
| 13> C 0.1300286328 -0.8978100764 -0.0867435253
| 14> O -0.7304719134 -1.9528372304 -0.1583429569
| 15> H -3.690952164 0.7606178847 0.5654322509
| 16> H -2.2731072693 1.4075299523 1.4015020609
| 17> H -2.5098257375 -0.3387224343 1.2836652874
| 18> H -2.0030441078 1.5221043735 -1.0873270362
| 19> H -2.2152732116 -0.2373399578 -1.1724742934
| 20> H 0.097229751 2.4598594596 -0.3779710027
| 21> H 2.4917536394 2.1438548641 0.103535244
| 22> H 3.3781972776 -0.1374775388 0.4590985355
| 23> H 1.8698271699 -2.0731070351 0.3341407998
| 24> H -0.2538384357 -2.7847266445 -0.0216527346
| 25> *
| 26>
| 27>                          ****END OF INPUT****

CARTESIAN COORDINATES (ANGSTROEM)
---------------------------------
  C     -2.632724    0.606055    0.759894
  C     -1.847977    0.583153   -0.553377
  C     -0.381191    0.388665   -0.294321
  C      0.487489    1.465115   -0.219041
  C      1.834510    1.289587    0.050705
  C      2.330233    0.014296    0.249517
  C      1.481389   -1.076224    0.179427
  C      0.130029   -0.897810   -0.086744
  O     -0.730472   -1.952837   -0.158343
  H     -3.690952    0.760618    0.565432
  H     -2.273107    1.407530    1.401502
  H     -2.509826   -0.338722    1.283665
  H     -2.003044    1.522104   -1.087327
  H     -2.215273   -0.237340   -1.172474
  H      0.097230    2.459859   -0.377971
  H      2.491754    2.143855    0.103535
  H      3.378197   -0.137478    0.459099
  H      1.869827   -2.073107    0.334141
  H     -0.253838   -2.784727   -0.021653

 Total Charge           Charge          ....    0
 Multiplicity           Mult            ....    1
 Number of Electrons    NEL             ....   66
 Basis Dimension        Dim             ....  226

ORBITAL ENERGIES
----------------

  NO   OCC          E(Eh)            E(eV)
   0   2.0000     -18.986616      -516.6521
   1   2.0000     -10.093302      -274.6527
   2   2.0000     -10.035175      -273.0710
   3   2.0000     -10.032863      -273.0081
   4   2.0000     -10.032261      -272.9917
   5   2.0000     -10.029807      -272.9249
   6   2.0000     -10.027967      -272.8749
   7   2.0000     -10.024352      -272.7765
   8   2.0000     -10.014410      -272.5059
   9   2.0000      -1.030019       -28.0283
  10   2.0000      -0.823184       -22.4000
  11   2.0000      -0.754736       -20.5374
  12   2.0000      -0.707649       -19.2561
  13   2.0000      -0.688292       -18.7294
  14   2.0000      -0.598845       -16.2954
  15   2.0000      -0.593708       -16.1556
  16   2.0000      -0.544397       -14.8138
  17   2.0000      -0.512055       -13.9337
  18   2.0000      -0.458816       -12.4850
  19   2.0000      -0.446733       -12.1562
  20   2.0000      -0.409796       -11.1511
  21   2.0000      -0.398079       -10.8323
  22   2.0000      -0.392091       -10.6693
  23   2.0000      -0.381347       -10.3770
  24   2.0000      -0.366007        -9.9596
  25   2.0000      -0.343252        -9.3404
  26   2.0000      -0.333841        -9.0843
  27   2.0000      -0.327739        -8.9182
  28   2.0000      -0.310522        -8.4497
  29   2.0000      -0.301843        -8.2136
  30   2.0000      -0.292843        -7.9687
  31   2.0000      -0.229002        -6.2315
  32   2.0000      -0.201844        -5.4924
  33   0.0000      -0.028554        -0.7770
  34   0.0000      -0.013643        -0.3712
  35   0.0000       0.053501         1.4558
  36   0.0000       0.086770         2.3611
  37   0.0000       0.094398         2.5687

MULLIKEN ATOMIC CHARGES
-----------------------
   0 C :   -0.486375
   1 C :   -0.272425
   2 C :    0.048812
   3 C :   -0.197074
   4 C :   -0.193536
   5 C :   -0.132501
   6 C :   -0.336203
   7 C :    0.343520
   8 O :   -0.411366
   9 H :    0.146196
  10 H :    0.145369
  11 H :    0.161133
  12 H :    0.143202
  13 H :    0.158147
  14 H :    0.148654
  15 H :    0.144681
  16 H :    0.146300
  17 H :    0.133701
  18 H :    0.309763
Sum of atomic charges:    0.0000000

LOEWDIN ATOMIC CHARGES
----------------------
   0 C :   -0.403036
   1 C :   -0.275854
   2 C :   -0.073982
   3 C :   -0.150805
   4 C :   -0.186678
   5 C :   -0.161432
   6 C :   -0.170653
   7 C :    0.187010
   8 O :   -0.511127
   9 H :    0.148882
  10 H :    0.152178
  11 H :    0.158351
  12 H :    0.158927
  13 H :    0.173358
  14 H :    0.169814
  15 H :    0.166281
  16 H :    0.167173
  17 H :    0.167192
  18 H :    0.284403

  Mayer bond orders larger than 0.100000
B(  0-C ,  1-C ) :   0.9099 B(  0-C ,  9-H ) :   0.9742 B(  0-C , 10-H ) :   0.9777
B(  0-C , 11-H ) :   0.9816 B(  1-C ,  2-C ) :   0.7819 B(  1-C , 12-H ) :   0.9870
B(  1-C , 13-H ) :   0.9933 B(  2-C ,  3-C ) :   1.3819 B(  2-C ,  7-C ) :   1.5204
B(  3-C ,  4-C ) :   1.4237 B(  3-C , 14-H ) :   0.9381 B(  4-C ,  5-C ) :   1.4446
B(  4-C , 15-H ) :   0.9448 B(  5-C ,  6-C ) :   1.3987 B(  5-C , 16-H ) :   0.9406
B(  6-C ,  7-C ) :   1.2888 B(  6-C , 17-H ) :   0.9537 B(  7-C ,  8-O ) :   0.9475
B(  8-O , 18-H ) :   0.8839

Dispersion correction           -0.006242343
FINAL SINGLE POINT ENERGY      -386.001941063461

DIPOLE MOMENT
-------------

Method             : SCF
Type of density    : Electron Density
Multiplicity       :   1
Irrep              :   0
Energy             :  -386.0025051829617837 Eh
Relativity type    :
Basis              : AO
                                X                 Y                 Z
Electronic contribution:      4.996904669      -2.892803154      -1.317997376
Nuclear contribution   :     -4.803960698       2.525310358       1.393600668
                        -----------------------------------------
Total Dipole Moment    :      0.192943971      -0.367492796       0.075603291
                        -----------------------------------------
Magnitude (a.u.)       :      0.421893575
Magnitude (Debye)      :      1.072368245

Rotational constants in cm-1:             0.088924             0.048699             0.034131
Rotational constants in MHz :          2665.880728          1459.965910          1023.210966

                             ****ORCA TERMINATED NORMALLY****
TOTAL RUN TIME: 0 days 0 hours 0 minutes 27 seconds 606 msec
