                         Program Version 6.0.0  -   RELEASE  -
|  1> ! r2scan-3c def2/J RI DEFGRID2 scfconv6 printgap
|  2> %output
|  3>     printlevel normal
|  4> end
|  5> %cpcm
|  6>     smd true
|  7>     smdsolvent "water"
|  8> end
|  9> * xyz 0 1
| 10> C -2.6327240289 0.6060545663 0.7598941452
| 11> C -1.8479771513 0.5831526273 -0.5533768623
| 12> C -0.3811905994 0.3886646413 -0.2943208731
| 13> C 0.4874892957 1.4651145323 -0.2190406469
| 14> C 1.8345097389 1.2895869892 0.0507049096
| 15> C 2.3302327801 0.0142963162 0.2495172668
| 16> C 1.4813886197 -1.0762244802 0.1794273955
| 17> C 0.1300286328 -0.8978100764 -0.0867435253
| 18> O -0.7304719134 -1.9528372304 -0.1583429569
| 19> H -3.690952164 0.7606178847 0.5654322509
| 20> H -2.2731072693 1.4075299523 1.4015020609
| 21> H -2.5098257375 -0.3387224343 1.2836652874
| 22> H -2.0030441078 1.5221043735 -1.0873270362
| 23> H -2.2152732116 -0.2373399578 -1.1724742934
| 24> H 0.097229751 2.4598594596 -0.3779710027
| 25> H 2.4917536394 2.1438548641 0.103535244
| 26> H 3.3781972776 -0.1374775388 0.4590985355
| 27> H 1.8698271699 -2.0731070351 0.3341407998
| 28> H -0.2538384357 -2.7847266445 -0.0216527346
| 29> *
| 30>
| 31>                          ****END OF INPUT****

CARTESIAN COORDINATES (ANGSTROEM)
---------------------------------
  C     -2.632724    0.606055    0.759894
  C     -1.847977    0.583153   -0.553377
  C     -0.381191    0.388665   -0.294321
  C      0.487489    1.465115   -0.219041
  C      1.834510    1.289587    0.050705
  C      2.330233    0.014296    0.249517
  C      1.481389   -1.076224    0.179427
  C      0.130029   -0.897810   -0.086744
  O     -0.730472   -1.952837   -0.158343
  H     -3.690952    0.760618    0.565432
  H     -2.273107    1.407530    1.401502
  H     -2.509826   -0.338722    1.283665
  H     -2.003044    1.522104   -1.087327
  H     -2.215273   -0.237340   -1.172474
  H      0.097230    2.459859   -0.377971
  H      2.491754    2.143855    0.103535
  H      3.378197   -0.137478    0.459099
  H      1.869827   -2.073107    0.334141
  H     -0.253838   -2.784727   -0.021653

 Total Charge           Charge          ....    0
 Multiplicity           Mult            ....    1
 Number of Electrons    NEL             ....   66
 Basis Dimension        Dim             ....  226

ORBITAL ENERGIES
----------------

  NO   OCC          E(Eh)            E(eV)
   0   2.0000     -18.981916      -516.5242
   1   2.0000     -10.093167      -274.6490
   2   2.0000     -10.036272      -273.1008
   3   2.0000     -10.030975      -272.9567
   4   2.0000     -10.029531      -272.9174
   5   2.0000     -10.029128      -272.9065
   6   2.0000     -10.025897      -272.8185
   7   2.0000     -10.024180      -272.7718
   8   2.0000     -10.012829      -272.4629
   9   2.0000      -1.025375       -27.9019
  10   2.0000      -0.824221       -22.4282
  11   2.0000      -0.754140       -20.5212
  12   2.0000      -0.706835       -19.2339
  13   2.0000      -0.687638       -18.7116
  14   2.0000      -0.597441       -16.2572
  15   2.0000      -0.590098       -16.0574
  16   2.0000      -0.542314       -14.7571
  17   2.0000      -0.507581       -13.8120
  18   2.0000      -0.456845       -12.4314
  19   2.0000      -0.443909       -12.0794
  20   2.0000      -0.407870       -11.0987
  21   2.0000      -0.394376       -10.7315
  22   2.0000      -0.390571       -10.6280
  23   2.0000      -0.381105       -10.3704
  24   2.0000      -0.364741        -9.9251
  25   2.0000      -0.342272        -9.3137
  26   2.0000      -0.332297        -9.0422
  27   2.0000      -0.324889        -8.8407
  28   2.0000      -0.312914        -8.5148
  29   2.0000      -0.299817        -8.1584
  30   2.0000      -0.290757        -7.9119
  31   2.0000      -0.231651        -6.3036
  32   2.0000      -0.204436        -5.5630
  33   0.0000      -0.030196        -0.8217
  34   0.0000      -0.016308        -0.4438
  35   0.0000       0.071872         1.9558
  36   0.0000       0.096873         2.6361
  37   0.0000       0.106664         2.9025

MULLIKEN ATOMIC CHARGES
-----------------------
   0 C :   -0.523442
   1 C :   -0.261630
   2 C :    0.013166
   3 C :   -0.225903
   4 C :   -0.237290
   5 C :   -0.163744
   6 C :   -0.332392
   7 C :    0.289636
   8 O :   -0.449405
   9 H :    0.162201
  10 H :    0.157800
  11 H :    0.163230
  12 H :    0.162500
  13 H :    0.162067
  14 H :    0.179370
  15 H :    0.175245
  16 H :    0.179281
  17 H :    0.181321
  18 H :    0.367990
Sum of atomic charges:    0.0000000

LOEWDIN ATOMIC CHARGES
----------------------
   0 C :   -0.409537
   1 C :   -0.277862
   2 C :   -0.085952
   3 C :   -0.163352
   4 C :   -0.203963
   5 C :   -0.175854
   6 C :   -0.168494
   7 C :    0.177274
   8 O :   -0.523269
   9 H :    0.154402
  10 H :    0.155386
  11 H :    0.156836
  12 H :    0.166291
  13 H :    0.172992
  14 H :    0.180628
  15 H :    0.175588
  16 H :    0.177686
  17 H :    0.185459
  18 H :    0.305741

  Mayer bond orders larger than 0.100000
B(  0-C ,  1-C ) :   0.9003 B(  0-C ,  9-H ) :   0.9697 B(  0-C , 10-H ) :   0.9768
B(  0-C , 11-H ) :   0.9806 B(  1-C ,  2-C ) :   0.7888 B(  1-C , 12-H ) :   0.9768
B(  1-C , 13-H ) :   0.9940 B(  2-C ,  3-C ) :   1.3637 B(  2-C ,  7-C ) :   1.4567
B(  3-C ,  4-C ) :   1.3867 B(  3-C , 14-H ) :   0.9507 B(  4-C ,  5-C ) :   1.3894
B(  4-C , 15-H ) :   0.9579 B(  5-C ,  6-C ) :   1.3487 B(  5-C , 16-H ) :   0.9537
B(  6-C ,  7-C ) :   1.2923 B(  6-C , 17-H ) :   0.9661 B(  7-C ,  8-O ) :   0.9632
B(  8-O , 18-H ) :   0.8535

Dispersion correction           -0.006242343
FINAL SINGLE POINT ENERGY      -386.009719694365

DIPOLE MOMENT
-------------

Method             : SCF
Type of density    : Electron Density
Multiplicity       :   1
Irrep              :   0
Energy             :  -386.0102838138655557 Eh
Relativity type    :
Basis              : AO
                                X                 Y                 Z
Electronic contribution:      5.085733718      -3.043190153      -1.286017448
Nuclear contribution   :     -4.803960698       2.525310358       1.393600668
                        -----------------------------------------
Total Dipole Moment    :      0.281773020      -0.517879795       0.107583220
                        -----------------------------------------
Magnitude (a.u.)       :      0.599307656
Magnitude (Debye)      :      1.523319001

Rotational constants in cm-1:             0.088924             0.048699             0.034131
Rotational constants in MHz :          2665.880728          1459.965910          1023.210966

                             ****ORCA TERMINATED NORMALLY****
TOTAL RUN TIME: 0 days 0 hours 0 minutes 33 seconds 669 msec
