                         Program Version 6.0.0  -   RELEASE  -
|  1> ! wb97x-v def2-tzvp def2/J RIJCOSX DEFGRID2 scfconv7 GCP(DFT/TZ) printgap
|  2> %output
|  3>     printlevel normal
|  4> end
|  5> * xyz 0 1
|  6> C -3.185201996509624 -0.3228452177351638 0.0001714223294560835
|  7> O -2.0871098039660123 0.6036704988172836 -6.65987518638497e-05
|  8> C -0.8208217482456273 0.07648955969514944 -3.451065461890677e-05
|  9> C -0.5437339163706663 -1.293354572415146 -0.00016742224987938365
| 10> C 0.7897895309377343 -1.7015590067796722 -0.00011881762182104665
| 11> C 1.83499199477003 -0.7872155994471848 6.475247626179402e-05
| 12> C 1.530187168111584 0.5768064442601923 0.00019929107708597664
| 13> C 0.2126996656553923 1.0165005190250822 0.00014555597069567972
| 14> O 2.5129373357539557 1.5421248048018767 0.00038270509581105934
| 15> H -3.169041415177654 -0.951003913004131 0.8976601273194579
| 16> H -3.169344855538622 -0.9511434581654152 -0.8972253270432587
| 17> H -4.0866657157647275 0.2907595050051298 0.0002710043351207449
| 18> H -1.334832751634201 -2.0313462254141523 -0.0003118700289584117
| 19> H 1.0147440566195758 -2.763616829190483 -0.00023131915804153663
| 20> H 2.869911162168218 -1.115121390359736 0.00010383083783236754
| 21> H -0.014935458149625849 2.077050022670152 0.00026548172630489245
| 22> H 3.377983123818386 1.1084327821948052 0.0005840744892874857
| 23> *
| 24>
| 25>                          ****END OF INPUT****

CARTESIAN COORDINATES (ANGSTROEM)
---------------------------------
  C     -3.185202   -0.322845    0.000171
  O     -2.087110    0.603670   -0.000067
  C     -0.820822    0.076490   -0.000035
  C     -0.543734   -1.293355   -0.000167
  C      0.789790   -1.701559   -0.000119
  C      1.834992   -0.787216    0.000065
  C      1.530187    0.576806    0.000199
  C      0.212700    1.016501    0.000146
  O      2.512937    1.542125    0.000383
  H     -3.169041   -0.951004    0.897660
  H     -3.169345   -0.951143   -0.897225
  H     -4.086666    0.290760    0.000271
  H     -1.334833   -2.031346   -0.000312
  H      1.014744   -2.763617   -0.000231
  H      2.869911   -1.115121    0.000104
  H     -0.014935    2.077050    0.000265
  H      3.377983    1.108433    0.000584

 Total Charge           Charge          ....    0
 Multiplicity           Mult            ....    1
 Number of Electrons    NEL             ....   66
 Basis Dimension        Dim             ....  327

ORBITAL ENERGIES
----------------

  NO   OCC          E(Eh)            E(eV)
   0   2.0000     -21.702664      -590.5595
   1   2.0000     -21.702406      -590.5525
   2   2.0000     -12.115485      -329.6791
   3   2.0000     -12.114494      -329.6522
   4   2.0000     -12.101769      -329.3059
   5   2.0000     -12.059481      -328.1552
   6   2.0000     -12.045519      -327.7752
   7   2.0000     -12.043567      -327.7221
   8   2.0000     -12.039437      -327.6097
   9   2.0000      -1.715474       -46.6804
  10   2.0000      -1.715057       -46.6691
  11   2.0000      -1.386762       -37.7357
  12   2.0000      -1.297997       -35.3203
  13   2.0000      -1.282972       -34.9114
  14   2.0000      -1.227727       -33.4082
  15   2.0000      -1.151504       -31.3340
  16   2.0000      -1.126285       -30.6478
  17   2.0000      -1.078551       -29.3489
  18   2.0000      -1.019116       -27.7315
  19   2.0000      -1.008006       -27.4292
  20   2.0000      -0.976489       -26.5716
  21   2.0000      -0.976411       -26.5695
  22   2.0000      -0.949608       -25.8401
  23   2.0000      -0.945936       -25.7402
  24   2.0000      -0.925500       -25.1841
  25   2.0000      -0.883993       -24.0547
  26   2.0000      -0.848093       -23.0778
  27   2.0000      -0.838155       -22.8074
  28   2.0000      -0.825052       -22.4508
  29   2.0000      -0.820295       -22.3214
  30   2.0000      -0.764127       -20.7929
  31   2.0000      -0.640729       -17.4351
  32   2.0000      -0.636104       -17.3093
  33   0.0000      -0.250623        -6.8198
  34   0.0000      -0.242747        -6.6055
  35   0.0000      -0.187547        -5.1034
  36   0.0000      -0.138897        -3.7796
  37   0.0000      -0.099289        -2.7018

MULLIKEN ATOMIC CHARGES
-----------------------
   0 C :   -0.211745
   1 O :   -0.246588
   2 C :    0.348223
   3 C :   -0.285445
   4 C :   -0.131944
   5 C :   -0.236464
   6 C :    0.305589
   7 C :   -0.321693
   8 O :   -0.388830
   9 H :    0.122551
  10 H :    0.122534
  11 H :    0.137457
  12 H :    0.124986
  13 H :    0.119246
  14 H :    0.106743
  15 H :    0.122770
  16 H :    0.312610
Sum of atomic charges:    0.0000000

LOEWDIN ATOMIC CHARGES
----------------------
   0 C :   -0.310569
   1 O :    0.216172
   2 C :   -0.235419
   3 C :   -0.164153
   4 C :   -0.134356
   5 C :   -0.166220
   6 C :   -0.258081
   7 C :   -0.101145
   8 O :    0.065531
   9 H :    0.106046
  10 H :    0.106040
  11 H :    0.112536
  12 H :    0.143487
  13 H :    0.143912
  14 H :    0.137943
  15 H :    0.153179
  16 H :    0.185099

  Mayer bond orders larger than 0.100000
B(  0-C ,  1-O ) :   0.9468 B(  0-C ,  9-H ) :   0.9723 B(  0-C , 10-H ) :   0.9722
B(  0-C , 11-H ) :   0.9783 B(  1-O ,  2-C ) :   1.1490 B(  2-C ,  3-C ) :   1.3304
B(  2-C ,  7-C ) :   1.3845 B(  3-C ,  4-C ) :   1.4298 B(  3-C , 12-H ) :   0.9617
B(  4-C ,  5-C ) :   1.4674 B(  4-C , 13-H ) :   0.9560 B(  5-C ,  6-C ) :   1.3459
B(  5-C , 14-H ) :   0.9606 B(  6-C ,  7-C ) :   1.4316 B(  6-C ,  8-O ) :   1.1461
B(  7-C , 15-H ) :   0.9857 B(  8-O , 16-H ) :   0.8904

FINAL SINGLE POINT ENERGY      -422.018100823137

DIPOLE MOMENT
-------------

Method             : SCF
Type of density    : Electron Density
Multiplicity       :   1
Irrep              :   0
Energy             :  -422.0279456898367130 Eh
Relativity type    :
Basis              : AO
                                X                 Y                 Z
Electronic contribution:      4.213593090       3.239159147      -0.000281596
Nuclear contribution   :     -4.231626626      -4.079343372       0.000486679
                        -----------------------------------------
Total Dipole Moment    :     -0.018033536      -0.840184225       0.000205083
                        -----------------------------------------
Magnitude (a.u.)       :      0.840377761
Magnitude (Debye)      :      2.136070513

Rotational constants in cm-1:             0.121371             0.037510             0.028813
Rotational constants in MHz :          3638.611461          1124.507580           863.794620

                             ****ORCA TERMINATED NORMALLY****
TOTAL RUN TIME: 0 days 0 hours 2 minutes 34 seconds 152 msec
