                         Program Version 6.0.0  -   RELEASE  -
|  1> ! wb97x-v def2-tzvp def2/J RIJCOSX DEFGRID2 scfconv7 GCP(DFT/TZ) printgap
|  2> %output
|  3>     printlevel normal
|  4> end
|  5> %cpcm
|  6>     smd true
|  7>     smdsolvent "water"
|  8> end
|  9> * xyz 0 1
| 10> C -3.185201996509624 -0.3228452177351638 0.0001714223294560835
| 11> O -2.0871098039660123 0.6036704988172836 -6.65987518638497e-05
| 12> C -0.8208217482456273 0.07648955969514944 -3.451065461890677e-05
| 13> C -0.5437339163706663 -1.293354572415146 -0.00016742224987938365
| 14> C 0.7897895309377343 -1.7015590067796722 -0.00011881762182104665
| 15> C 1.83499199477003 -0.7872155994471848 6.475247626179402e-05
| 16> C 1.530187168111584 0.5768064442601923 0.00019929107708597664
| 17> C 0.2126996656553923 1.0165005190250822 0.00014555597069567972
| 18> O 2.5129373357539557 1.5421248048018767 0.00038270509581105934
| 19> H -3.169041415177654 -0.951003913004131 0.8976601273194579
| 20> H -3.169344855538622 -0.9511434581654152 -0.8972253270432587
| 21> H -4.0866657157647275 0.2907595050051298 0.0002710043351207449
| 22> H -1.334832751634201 -2.0313462254141523 -0.0003118700289584117
| 23> H 1.0147440566195758 -2.763616829190483 -0.00023131915804153663
| 24> H 2.869911162168218 -1.115121390359736 0.00010383083783236754
| 25> H -0.014935458149625849 2.077050022670152 0.00026548172630489245
| 26> H 3.377983123818386 1.1084327821948052 0.0005840744892874857
| 27> *
| 28>
| 29>                          ****END OF INPUT****

CARTESIAN COORDINATES (ANGSTROEM)
---------------------------------
  C     -3.185202   -0.322845    0.000171
  O     -2.087110    0.603670   -0.000067
  C     -0.820822    0.076490   -0.000035
  C     -0.543734   -1.293355   -0.000167
  C      0.789790   -1.701559   -0.000119
  C      1.834992   -0.787216    0.000065
  C      1.530187    0.576806    0.000199
  C      0.212700    1.016501    0.000146
  O      2.512937    1.542125    0.000383
  H     -3.169041   -0.951004    0.897660
  H     -3.169345   -0.951143   -0.897225
  H     -4.086666    0.290760    0.000271
  H     -1.334833   -2.031346   -0.000312
  H      1.014744   -2.763617   -0.000231
  H      2.869911   -1.115121    0.000104
  H     -0.014935    2.077050    0.000265
  H      3.377983    1.108433    0.000584

 Total Charge           Charge          ....    0
 Multiplicity           Mult            ....    1
 Number of Electrons    NEL             ....   66
 Basis Dimension        Dim             ....  327

ORBITAL ENERGIES
----------------

  NO   OCC          E(Eh)            E(eV)
   0   2.0000     -21.705580      -590.6389
   1   2.0000     -21.702381      -590.5518
   2   2.0000     -12.117378      -329.7306
   3   2.0000     -12.116761      -329.7138
   4   2.0000     -12.087912      -328.9288
   5   2.0000     -12.056927      -328.0857
   6   2.0000     -12.042843      -327.7024
   7   2.0000     -12.042627      -327.6965
   8   2.0000     -12.041959      -327.6783
   9   2.0000      -1.718559       -46.7644
  10   2.0000      -1.715497       -46.6810
  11   2.0000      -1.388639       -37.7868
  12   2.0000      -1.297790       -35.3147
  13   2.0000      -1.284171       -34.9441
  14   2.0000      -1.224197       -33.3121
  15   2.0000      -1.151139       -31.3241
  16   2.0000      -1.126224       -30.6461
  17   2.0000      -1.075814       -29.2744
  18   2.0000      -1.019181       -27.7333
  19   2.0000      -1.010564       -27.4988
  20   2.0000      -0.978589       -26.6287
  21   2.0000      -0.977298       -26.5936
  22   2.0000      -0.948848       -25.8195
  23   2.0000      -0.946307       -25.7503
  24   2.0000      -0.926771       -25.2187
  25   2.0000      -0.883068       -24.0295
  26   2.0000      -0.842550       -22.9270
  27   2.0000      -0.829594       -22.5744
  28   2.0000      -0.815917       -22.2022
  29   2.0000      -0.814397       -22.1609
  30   2.0000      -0.766553       -20.8590
  31   2.0000      -0.644156       -17.5284
  32   2.0000      -0.638097       -17.3635
  33   0.0000      -0.252662        -6.8753
  34   0.0000      -0.245264        -6.6740
  35   0.0000      -0.184476        -5.0198
  36   0.0000      -0.135332        -3.6826
  37   0.0000      -0.098369        -2.6768

MULLIKEN ATOMIC CHARGES
-----------------------
   0 C :   -0.225253
   1 O :   -0.303882
   2 C :    0.355795
   3 C :   -0.333618
   4 C :   -0.148128
   5 C :   -0.299901
   6 C :    0.312199
   7 C :   -0.377680
   8 O :   -0.467440
   9 H :    0.144857
  10 H :    0.144848
  11 H :    0.158266
  12 H :    0.174321
  13 H :    0.167308
  14 H :    0.169429
  15 H :    0.149722
  16 H :    0.379154
Sum of atomic charges:    0.0000000

LOEWDIN ATOMIC CHARGES
----------------------
   0 C :   -0.305071
   1 O :    0.191054
   2 C :   -0.248660
   3 C :   -0.165193
   4 C :   -0.140080
   5 C :   -0.162419
   6 C :   -0.269150
   7 C :   -0.121612
   8 O :    0.040742
   9 H :    0.114257
  10 H :    0.114253
  11 H :    0.117844
  12 H :    0.156292
  13 H :    0.154982
  14 H :    0.154590
  15 H :    0.157142
  16 H :    0.211030

  Mayer bond orders larger than 0.100000
B(  0-C ,  1-O ) :   0.9086 B(  0-C ,  9-H ) :   0.9694 B(  0-C , 10-H ) :   0.9694
B(  0-C , 11-H ) :   0.9700 B(  1-O ,  2-C ) :   1.1197 B(  2-C ,  3-C ) :   1.3269
B(  2-C ,  7-C ) :   1.3662 B(  3-C ,  4-C ) :   1.3871 B(  3-C , 12-H ) :   0.9643
B(  4-C ,  5-C ) :   1.4151 B(  4-C , 13-H ) :   0.9575 B(  5-C ,  6-C ) :   1.3479
B(  5-C , 14-H ) :   0.9698 B(  6-C ,  7-C ) :   1.4196 B(  6-C ,  8-O ) :   1.1056
B(  7-C , 15-H ) :   0.9854 B(  8-O , 16-H ) :   0.8484

FINAL SINGLE POINT ENERGY      -422.029506807328

DIPOLE MOMENT
-------------

Method             : SCF
Type of density    : Electron Density
Multiplicity       :   1
Irrep              :   0
Energy             :  -422.0393516740282962 Eh
Relativity type    :
Basis              : AO
                                X                 Y                 Z
Electronic contribution:      4.313816660       2.788629413      -0.000213794
Nuclear contribution   :     -4.231626626      -4.079343372       0.000486679
                        -----------------------------------------
Total Dipole Moment    :      0.082190034      -1.290713959       0.000272885
                        -----------------------------------------
Magnitude (a.u.)       :      1.293328187
Magnitude (Debye)      :      3.287378999

Rotational constants in cm-1:             0.121371             0.037510             0.028813
Rotational constants in MHz :          3638.611461          1124.507580           863.794620

                             ****ORCA TERMINATED NORMALLY****
TOTAL RUN TIME: 0 days 0 hours 2 minutes 52 seconds 800 msec
