                         Program Version 6.0.0  -   RELEASE  -
|  1> ! pbe def2-sv(p) def2/J RI DEFGRID1 loosescf d4 GCP(DFT/SV(P)) printgap
|  2> %output
|  3>     printlevel normal
|  4> end
|  5> * xyz 0 1
|  6> C 0.5049445161 0.9964467887 -1.1913012433
|  7> C 0.3757186506 0.1521889718 0.0834094257
|  8> C 0.9422528065 0.92021713 1.2937524645
|  9> C 1.1170915898 -1.1783325586 -0.0992731147
| 10> O -1.0055967317 -0.0599399106 0.430644254
| 11> C -1.817097952 -0.7741405825 -0.4742040782
| 12> H 0.1744931839 0.4428037025 -2.0670141979
| 13> H -0.0943296406 1.89929302 -1.0979922752
| 14> H 1.5451669737 1.2725917099 -1.3357988638
| 15> H 1.3249295452 1.8916038381 0.9977113896
| 16> H 1.7373826339 0.3606780134 1.7759441156
| 17> H 0.1402438488 1.0690694409 2.0118568653
| 18> H 0.948213238 -1.8170484357 0.7648363378
| 19> H 0.7807212565 -1.6976198732 -0.9935881871
| 20> H 2.1813003282 -0.9858038345 -0.1966151203
| 21> H -1.4742918061 -1.8045868905 -0.6052796533
| 22> H -1.8754973387 -0.2823476727 -1.4491654212
| 23> H -2.8070473623 -0.7840279611 -0.0217690268
| 24> *
| 25>
| 26>                          ****END OF INPUT****

CARTESIAN COORDINATES (ANGSTROEM)
---------------------------------
  C      0.504945    0.996447   -1.191301
  C      0.375719    0.152189    0.083409
  C      0.942253    0.920217    1.293752
  C      1.117092   -1.178333   -0.099273
  O     -1.005597   -0.059940    0.430644
  C     -1.817098   -0.774141   -0.474204
  H      0.174493    0.442804   -2.067014
  H     -0.094330    1.899293   -1.097992
  H      1.545167    1.272592   -1.335799
  H      1.324930    1.891604    0.997711
  H      1.737383    0.360678    1.775944
  H      0.140244    1.069069    2.011857
  H      0.948213   -1.817048    0.764836
  H      0.780721   -1.697620   -0.993588
  H      2.181300   -0.985804   -0.196615
  H     -1.474292   -1.804587   -0.605280
  H     -1.875497   -0.282348   -1.449165
  H     -2.807047   -0.784028   -0.021769

 Total Charge           Charge          ....    0
 Multiplicity           Mult            ....    1
 Number of Electrons    NEL             ....   50
 Basis Dimension        Dim             ....  108

ORBITAL ENERGIES
----------------

  NO   OCC          E(Eh)            E(eV)
   0   2.0000     -18.740564      -509.9567
   1   2.0000      -9.946771      -270.6654
   2   2.0000      -9.917414      -269.8666
   3   2.0000      -9.873498      -268.6715
   4   2.0000      -9.873147      -268.6620
   5   2.0000      -9.866299      -268.4756
   6   2.0000      -0.919874       -25.0310
   7   2.0000      -0.716193       -19.4886
   8   2.0000      -0.622953       -16.9514
   9   2.0000      -0.616664       -16.7803
  10   2.0000      -0.596080       -16.2202
  11   2.0000      -0.486091       -13.2272
  12   2.0000      -0.432008       -11.7555
  13   2.0000      -0.410623       -11.1736
  14   2.0000      -0.404542       -11.0081
  15   2.0000      -0.385023       -10.4770
  16   2.0000      -0.369751       -10.0614
  17   2.0000      -0.352494        -9.5919
  18   2.0000      -0.340518        -9.2660
  19   2.0000      -0.322478        -8.7751
  20   2.0000      -0.318668        -8.6714
  21   2.0000      -0.297504        -8.0955
  22   2.0000      -0.296526        -8.0689
  23   2.0000      -0.247599        -6.7375
  24   2.0000      -0.197366        -5.3706
  25   0.0000       0.033368         0.9080
  26   0.0000       0.067416         1.8345
  27   0.0000       0.083484         2.2717
  28   0.0000       0.088128         2.3981
  29   0.0000       0.100647         2.7387

MULLIKEN ATOMIC CHARGES
-----------------------
   0 C :   -0.245570
   1 C :   -0.039817
   2 C :   -0.225773
   3 C :   -0.247459
   4 O :   -0.334903
   5 C :   -0.104913
   6 H :    0.099392
   7 H :    0.106502
   8 H :    0.100633
   9 H :    0.093443
  10 H :    0.093363
  11 H :    0.113209
  12 H :    0.106987
  13 H :    0.099442
  14 H :    0.101288
  15 H :    0.087189
  16 H :    0.085995
  17 H :    0.110994
Sum of atomic charges:   -0.0000000

LOEWDIN ATOMIC CHARGES
----------------------
   0 C :   -0.339148
   1 C :   -0.003779
   2 C :   -0.332871
   3 C :   -0.339164
   4 O :   -0.173802
   5 C :   -0.211300
   6 H :    0.114986
   7 H :    0.122582
   8 H :    0.123551
   9 H :    0.120216
  10 H :    0.120170
  11 H :    0.131299
  12 H :    0.122677
  13 H :    0.115240
  14 H :    0.123847
  15 H :    0.095036
  16 H :    0.094896
  17 H :    0.115563

  Mayer bond orders larger than 0.100000
B(  0-C ,  1-C ) :   1.0981 B(  0-C ,  6-H ) :   0.9388 B(  0-C ,  7-H ) :   0.9386
B(  0-C ,  8-H ) :   0.9387 B(  1-C ,  2-C ) :   1.0637 B(  1-C ,  3-C ) :   1.0978
B(  1-C ,  4-O ) :   1.0266 B(  2-C ,  9-H ) :   0.9507 B(  2-C , 10-H ) :   0.9508
B(  2-C , 11-H ) :   0.9374 B(  3-C , 12-H ) :   0.9379 B(  3-C , 13-H ) :   0.9395
B(  3-C , 14-H ) :   0.9388 B(  4-O ,  5-C ) :   1.0247 B(  5-C , 15-H ) :   0.9376
B(  5-C , 16-H ) :   0.9371 B(  5-C , 17-H ) :   0.9641

Dispersion correction           -0.013621315
FINAL SINGLE POINT ENERGY      -272.296724556951

DIPOLE MOMENT
-------------

Method             : SCF
Type of density    : Electron Density
Multiplicity       :   1
Irrep              :   0
Energy             :  -272.3646004513024650 Eh
Relativity type    :
Basis              : AO
                                X                 Y                 Z
Electronic contribution:     -2.232689622       0.266243180       1.712768354
Nuclear contribution   :      2.406744061      -0.409361235      -2.073399635
                        -----------------------------------------
Total Dipole Moment    :      0.174054438      -0.143118055      -0.360631281
                        -----------------------------------------
Magnitude (a.u.)       :      0.425244219
Magnitude (Debye)      :      1.080884905

Rotational constants in cm-1:             0.146132             0.090881             0.089986
Rotational constants in MHz :          4380.917288          2724.541978          2697.707841

                             ****ORCA TERMINATED NORMALLY****
TOTAL RUN TIME: 0 days 0 hours 0 minutes 6 seconds 969 msec
