                         Program Version 6.0.0  -   RELEASE  -
|  1> ! r2scan-3c def2/J RI DEFGRID2 scfconv6 printgap
|  2> %output
|  3>     printlevel normal
|  4> end
|  5> * xyz 0 1
|  6> C -2.6947704482 -0.9668869733 0.0011134034
|  7> S -1.8220256791 0.6279702526 -0.0005037443
|  8> C -0.1072885451 0.1892888065 -5.27147e-05
|  9> C 0.7961495195 1.2492241409 0.0001935776
| 10> C 2.1540233953 1.0015692942 0.0004847983
| 11> C 2.6247969651 -0.3028256462 0.0004132982
| 12> C 1.7248659541 -1.3536009872 -0.0003719538
| 13> C 0.3603687983 -1.1166292342 -0.000649832
| 14> H -2.4441170464 -1.5206158418 0.900234137
| 15> H -2.4452590186 -1.5219112004 -0.8975137545
| 16> H -3.7498828812 -0.7138101299 0.0015899176
| 17> H 0.4175802404 2.2604660903 -7.47548e-05
| 18> H 2.8467699627 1.8292722259 0.0002542892
| 19> H 3.6861674859 -0.4967493985 0.0005649815
| 20> H 2.0817054043 -2.3725970356 -0.0009473189
| 21> H -0.320577133 -1.9518683889 -0.0015543806
| 22> *
| 23>
| 24>                          ****END OF INPUT****

CARTESIAN COORDINATES (ANGSTROEM)
---------------------------------
  C     -2.694770   -0.966887    0.001113
  S     -1.822026    0.627970   -0.000504
  C     -0.107289    0.189289   -0.000053
  C      0.796150    1.249224    0.000194
  C      2.154023    1.001569    0.000485
  C      2.624797   -0.302826    0.000413
  C      1.724866   -1.353601   -0.000372
  C      0.360369   -1.116629   -0.000650
  H     -2.444117   -1.520616    0.900234
  H     -2.445259   -1.521911   -0.897514
  H     -3.749883   -0.713810    0.001590
  H      0.417580    2.260466   -0.000075
  H      2.846770    1.829272    0.000254
  H      3.686167   -0.496749    0.000565
  H      2.081705   -2.372597   -0.000947
  H     -0.320577   -1.951868   -0.001554

 Total Charge           Charge          ....    0
 Multiplicity           Mult            ....    1
 Number of Electrons    NEL             ....   66
 Basis Dimension        Dim             ....  200

ORBITAL ENERGIES
----------------

  NO   OCC          E(Eh)            E(eV)
   0   2.0000     -88.565872     -2409.9999
   1   2.0000     -10.072052      -274.0745
   2   2.0000     -10.067234      -273.9434
   3   2.0000     -10.038423      -273.1594
   4   2.0000     -10.037946      -273.1464
   5   2.0000     -10.037775      -273.1417
   6   2.0000     -10.037231      -273.1270
   7   2.0000     -10.031676      -272.9758
   8   2.0000      -7.859580      -213.8700
   9   2.0000      -5.807203      -158.0220
  10   2.0000      -5.802810      -157.9025
  11   2.0000      -5.796616      -157.7339
  12   2.0000      -0.836841       -22.7716
  13   2.0000      -0.769790       -20.9470
  14   2.0000      -0.721713       -19.6388
  15   2.0000      -0.709192       -19.2981
  16   2.0000      -0.624523       -16.9941
  17   2.0000      -0.579738       -15.7755
  18   2.0000      -0.550625       -14.9833
  19   2.0000      -0.488400       -13.2900
  20   2.0000      -0.431632       -11.7453
  21   2.0000      -0.425603       -11.5812
  22   2.0000      -0.416624       -11.3369
  23   2.0000      -0.411614       -11.2006
  24   2.0000      -0.393910       -10.7188
  25   2.0000      -0.371425       -10.1070
  26   2.0000      -0.354508        -9.6467
  27   2.0000      -0.330921        -9.0048
  28   2.0000      -0.316507        -8.6126
  29   2.0000      -0.293109        -7.9759
  30   2.0000      -0.268725        -7.3124
  31   2.0000      -0.241017        -6.5584
  32   2.0000      -0.190059        -5.1718
  33   0.0000      -0.035270        -0.9597
  34   0.0000      -0.029597        -0.8054
  35   0.0000       0.013274         0.3612
  36   0.0000       0.051401         1.3987
  37   0.0000       0.090141         2.4529

MULLIKEN ATOMIC CHARGES
-----------------------
   0 C :   -0.436496
   1 S :   -0.076993
   2 C :    0.222815
   3 C :   -0.219849
   4 C :   -0.134389
   5 C :   -0.167685
   6 C :   -0.168882
   7 C :   -0.255961
   8 H :    0.169835
   9 H :    0.169761
  10 H :    0.164907
  11 H :    0.148740
  12 H :    0.147482
  13 H :    0.147469
  14 H :    0.145247
  15 H :    0.143998
Sum of atomic charges:    0.0000000

LOEWDIN ATOMIC CHARGES
----------------------
   0 C :   -0.451202
   1 S :    0.124101
   2 C :   -0.164614
   3 C :   -0.169970
   4 C :   -0.155222
   5 C :   -0.181323
   6 C :   -0.155653
   7 C :   -0.183860
   8 H :    0.160399
   9 H :    0.160349
  10 H :    0.171071
  11 H :    0.173209
  12 H :    0.168506
  13 H :    0.166792
  14 H :    0.167428
  15 H :    0.169988

  Mayer bond orders larger than 0.100000
B(  0-C ,  1-S ) :   0.9797 B(  0-C ,  8-H ) :   0.9500 B(  0-C ,  9-H ) :   0.9500
B(  0-C , 10-H ) :   0.9454 B(  1-S ,  2-C ) :   0.9705 B(  2-C ,  3-C ) :   1.3513
B(  2-C ,  7-C ) :   1.3908 B(  3-C ,  4-C ) :   1.4409 B(  3-C , 11-H ) :   0.9536
B(  4-C ,  5-C ) :   1.3981 B(  4-C , 12-H ) :   0.9495 B(  5-C ,  6-C ) :   1.4318
B(  5-C , 13-H ) :   0.9474 B(  6-C ,  7-C ) :   1.4317 B(  6-C , 14-H ) :   0.9481
B(  7-C , 15-H ) :   0.9406

Dispersion correction           -0.005512283
FINAL SINGLE POINT ENERGY      -669.647005414136

DIPOLE MOMENT
-------------

Method             : SCF
Type of density    : Electron Density
Multiplicity       :   1
Irrep              :   0
Energy             :  -669.6492701275847139 Eh
Relativity type    :
Basis              : AO
                                X                 Y                 Z
Electronic contribution:     -0.221238762       3.681672114      -0.002336033
Nuclear contribution   :      0.120055518      -4.228322588       0.002409685
                        -----------------------------------------
Total Dipole Moment    :     -0.101183243      -0.546650473       0.000073652
                        -----------------------------------------
Magnitude (a.u.)       :      0.555935962
Magnitude (Debye)      :      1.413076917

Rotational constants in cm-1:             0.142531             0.039064             0.030843
Rotational constants in MHz :          4272.961445          1171.097807           924.656201

                             ****ORCA TERMINATED NORMALLY****
TOTAL RUN TIME: 0 days 0 hours 0 minutes 18 seconds 935 msec
