                         Program Version 6.0.0  -   RELEASE  -
|  1> ! r2scan-3c def2/J RI DEFGRID2 scfconv6 printgap
|  2> %output
|  3>     printlevel normal
|  4> end
|  5> %cpcm
|  6>     smd true
|  7>     smdsolvent "water"
|  8> end
|  9> * xyz 0 1
| 10> C -2.6947704482 -0.9668869733 0.0011134034
| 11> S -1.8220256791 0.6279702526 -0.0005037443
| 12> C -0.1072885451 0.1892888065 -5.27147e-05
| 13> C 0.7961495195 1.2492241409 0.0001935776
| 14> C 2.1540233953 1.0015692942 0.0004847983
| 15> C 2.6247969651 -0.3028256462 0.0004132982
| 16> C 1.7248659541 -1.3536009872 -0.0003719538
| 17> C 0.3603687983 -1.1166292342 -0.000649832
| 18> H -2.4441170464 -1.5206158418 0.900234137
| 19> H -2.4452590186 -1.5219112004 -0.8975137545
| 20> H -3.7498828812 -0.7138101299 0.0015899176
| 21> H 0.4175802404 2.2604660903 -7.47548e-05
| 22> H 2.8467699627 1.8292722259 0.0002542892
| 23> H 3.6861674859 -0.4967493985 0.0005649815
| 24> H 2.0817054043 -2.3725970356 -0.0009473189
| 25> H -0.320577133 -1.9518683889 -0.0015543806
| 26> *
| 27>
| 28>                          ****END OF INPUT****

CARTESIAN COORDINATES (ANGSTROEM)
---------------------------------
  C     -2.694770   -0.966887    0.001113
  S     -1.822026    0.627970   -0.000504
  C     -0.107289    0.189289   -0.000053
  C      0.796150    1.249224    0.000194
  C      2.154023    1.001569    0.000485
  C      2.624797   -0.302826    0.000413
  C      1.724866   -1.353601   -0.000372
  C      0.360369   -1.116629   -0.000650
  H     -2.444117   -1.520616    0.900234
  H     -2.445259   -1.521911   -0.897514
  H     -3.749883   -0.713810    0.001590
  H      0.417580    2.260466   -0.000075
  H      2.846770    1.829272    0.000254
  H      3.686167   -0.496749    0.000565
  H      2.081705   -2.372597   -0.000947
  H     -0.320577   -1.951868   -0.001554

 Total Charge           Charge          ....    0
 Multiplicity           Mult            ....    1
 Number of Electrons    NEL             ....   66
 Basis Dimension        Dim             ....  200

ORBITAL ENERGIES
----------------

  NO   OCC          E(Eh)            E(eV)
   0   2.0000     -88.564962     -2409.9751
   1   2.0000     -10.072537      -274.0877
   2   2.0000     -10.052099      -273.5315
   3   2.0000     -10.036942      -273.1191
   4   2.0000     -10.035998      -273.0934
   5   2.0000     -10.035853      -273.0894
   6   2.0000     -10.035332      -273.0753
   7   2.0000     -10.029909      -272.9277
   8   2.0000      -7.858751      -213.8475
   9   2.0000      -5.806188      -157.9944
  10   2.0000      -5.801880      -157.8772
  11   2.0000      -5.796111      -157.7202
  12   2.0000      -0.837308       -22.7843
  13   2.0000      -0.766365       -20.8538
  14   2.0000      -0.720526       -19.6065
  15   2.0000      -0.704031       -19.1577
  16   2.0000      -0.618517       -16.8307
  17   2.0000      -0.577153       -15.7051
  18   2.0000      -0.547028       -14.8854
  19   2.0000      -0.483914       -13.1680
  20   2.0000      -0.429500       -11.6873
  21   2.0000      -0.419688       -11.4203
  22   2.0000      -0.406991       -11.0748
  23   2.0000      -0.397968       -10.8292
  24   2.0000      -0.389716       -10.6047
  25   2.0000      -0.362002        -9.8506
  26   2.0000      -0.356841        -9.7101
  27   2.0000      -0.326563        -8.8862
  28   2.0000      -0.311856        -8.4860
  29   2.0000      -0.290934        -7.9167
  30   2.0000      -0.270720        -7.3667
  31   2.0000      -0.243235        -6.6187
  32   2.0000      -0.191508        -5.2112
  33   0.0000      -0.036752        -1.0001
  34   0.0000      -0.031407        -0.8546
  35   0.0000       0.017429         0.4743
  36   0.0000       0.056660         1.5418
  37   0.0000       0.097068         2.6414

MULLIKEN ATOMIC CHARGES
-----------------------
   0 C :   -0.446874
   1 S :   -0.114287
   2 C :    0.178621
   3 C :   -0.239265
   4 C :   -0.178846
   5 C :   -0.201439
   6 C :   -0.211870
   7 C :   -0.256875
   8 H :    0.189634
   9 H :    0.189613
  10 H :    0.187408
  11 H :    0.179912
  12 H :    0.181568
  13 H :    0.180544
  14 H :    0.179727
  15 H :    0.182427
Sum of atomic charges:    0.0000000

LOEWDIN ATOMIC CHARGES
----------------------
   0 C :   -0.443894
   1 S :    0.096926
   2 C :   -0.180615
   3 C :   -0.183924
   4 C :   -0.165560
   5 C :   -0.192885
   6 C :   -0.164400
   7 C :   -0.186526
   8 H :    0.169302
   9 H :    0.169273
  10 H :    0.179659
  11 H :    0.182339
  12 H :    0.179728
  13 H :    0.177258
  14 H :    0.179132
  15 H :    0.184185

  Mayer bond orders larger than 0.100000
B(  0-C ,  1-S ) :   0.9802 B(  0-C ,  8-H ) :   0.9443 B(  0-C ,  9-H ) :   0.9443
B(  0-C , 10-H ) :   0.9347 B(  1-S ,  2-C ) :   0.9750 B(  2-C ,  3-C ) :   1.2977
B(  2-C ,  7-C ) :   1.3638 B(  3-C ,  4-C ) :   1.4198 B(  3-C , 11-H ) :   0.9579
B(  4-C ,  5-C ) :   1.3613 B(  4-C , 12-H ) :   0.9567 B(  5-C ,  6-C ) :   1.3891
B(  5-C , 13-H ) :   0.9548 B(  6-C ,  7-C ) :   1.4003 B(  6-C , 14-H ) :   0.9589
B(  7-C , 15-H ) :   0.9439

Dispersion correction           -0.005512283
FINAL SINGLE POINT ENERGY      -669.651316245182

DIPOLE MOMENT
-------------

Method             : SCF
Type of density    : Electron Density
Multiplicity       :   1
Irrep              :   0
Energy             :  -669.6535809586306414 Eh
Relativity type    :
Basis              : AO
                                X                 Y                 Z
Electronic contribution:     -0.280228491       3.408605513      -0.002373640
Nuclear contribution   :      0.120055518      -4.228322588       0.002409685
                        -----------------------------------------
Total Dipole Moment    :     -0.160172973      -0.819717075       0.000036045
                        -----------------------------------------
Magnitude (a.u.)       :      0.835219411
Magnitude (Debye)      :      2.122959029

Rotational constants in cm-1:             0.142531             0.039064             0.030843
Rotational constants in MHz :          4272.961445          1171.097807           924.656201

                             ****ORCA TERMINATED NORMALLY****
TOTAL RUN TIME: 0 days 0 hours 0 minutes 23 seconds 232 msec
