                         Program Version 6.0.0  -   RELEASE  -
|  1> ! wb97x-v def2-tzvp def2/J RIJCOSX DEFGRID2 scfconv7 GCP(DFT/TZ) printgap
|  2> %output
|  3>     printlevel normal
|  4> end
|  5> * xyz 0 1
|  6> C -2.3893989888770557 -0.18165517198440762 0.0896799464639417
|  7> C -0.9166191258959211 -0.2863891750946995 0.16579021594812135
|  8> C -0.050043793317303346 0.5967873779776283 -0.36188059835915687
|  9> C 1.3946273502914983 0.4405094482605845 -0.2535822282002176
| 10> O 1.9704505429410055 -0.4893781909357733 0.31303283425907275
| 11> H -2.8168469810254213 -0.16707881639916822 1.1007803351764858
| 12> H -2.804645544419488 -1.0762968750900774 -0.39241215136492474
| 13> H -2.7170026788114123 0.7071573482033982 -0.45408518768241984
| 14> H -0.5140590254404824 -1.150900960966185 0.6940377102666081
| 15> H -0.4064213009421346 1.4738647484236813 -0.8974006510568482
| 16> H 1.9933104178267824 1.2390764285465947 -0.731606398288715
| 17> *
| 18>
| 19>                          ****END OF INPUT****

CARTESIAN COORDINATES (ANGSTROEM)
---------------------------------
  C     -2.389399   -0.181655    0.089680
  C     -0.916619   -0.286389    0.165790
  C     -0.050044    0.596787   -0.361881
  C      1.394627    0.440509   -0.253582
  O      1.970451   -0.489378    0.313033
  H     -2.816847   -0.167079    1.100780
  H     -2.804646   -1.076297   -0.392412
  H     -2.717003    0.707157   -0.454085
  H     -0.514059   -1.150901    0.694038
  H     -0.406421    1.473865   -0.897401
  H      1.993310    1.239076   -0.731606

 Total Charge           Charge          ....    0
 Multiplicity           Mult            ....    1
 Number of Electrons    NEL             ....   38
 Basis Dimension        Dim             ....  191

ORBITAL ENERGIES
----------------

  NO   OCC          E(Eh)            E(eV)
   0   2.0000     -21.662608      -589.4695
   1   2.0000     -12.134479      -330.1960
   2   2.0000     -12.084795      -328.8440
   3   2.0000     -12.061969      -328.2229
   4   2.0000     -12.057580      -328.1034
   5   2.0000      -1.698407       -46.2160
   6   2.0000      -1.342899       -36.5421
   7   2.0000      -1.242910       -33.8213
   8   2.0000      -1.143068       -31.1045
   9   2.0000      -1.053862       -28.6770
  10   2.0000      -0.986297       -26.8385
  11   2.0000      -0.982097       -26.7242
  12   2.0000      -0.902361       -24.5545
  13   2.0000      -0.891810       -24.2674
  14   2.0000      -0.865842       -23.5608
  15   2.0000      -0.851261       -23.1640
  16   2.0000      -0.812731       -22.1155
  17   2.0000      -0.791587       -21.5402
  18   2.0000      -0.683155       -18.5896
  19   0.0000      -0.340128        -9.2554
  20   0.0000      -0.169421        -4.6102
  21   0.0000      -0.044735        -1.2173
  22   0.0000      -0.030624        -0.8333
  23   0.0000       0.002819         0.0767

MULLIKEN ATOMIC CHARGES
-----------------------
   0 C :   -0.300391
   1 C :   -0.049300
   2 C :   -0.186414
   3 C :    0.144160
   4 O :   -0.322834
   5 H :    0.129340
   6 H :    0.129414
   7 H :    0.117966
   8 H :    0.148741
   9 H :    0.117242
  10 H :    0.072076
Sum of atomic charges:    0.0000000

LOEWDIN ATOMIC CHARGES
----------------------
   0 C :   -0.278378
   1 C :   -0.114446
   2 C :   -0.200419
   3 C :   -0.278846
   4 O :    0.073205
   5 H :    0.133923
   6 H :    0.133871
   7 H :    0.125587
   8 H :    0.152589
   9 H :    0.141146
  10 H :    0.111768

  Mayer bond orders larger than 0.100000
B(  0-C ,  1-C ) :   0.9731 B(  0-C ,  5-H ) :   0.9605 B(  0-C ,  6-H ) :   0.9608
B(  0-C ,  7-H ) :   0.9854 B(  1-C ,  2-C ) :   1.8443 B(  1-C ,  8-H ) :   0.9352
B(  2-C ,  3-C ) :   1.0139 B(  2-C ,  9-H ) :   0.9498 B(  3-C ,  4-O ) :   2.0789
B(  3-C , 10-H ) :   0.9915

FINAL SINGLE POINT ENERGY      -231.238313206098

DIPOLE MOMENT
-------------

Method             : SCF
Type of density    : Electron Density
Multiplicity       :   1
Irrep              :   0
Energy             :  -231.2443528935977213 Eh
Relativity type    :
Basis              : AO
                                X                 Y                 Z
Electronic contribution:      5.645506579      -0.426157780       0.306318982
Nuclear contribution   :     -6.839081951       0.951801879      -0.633830091
                        -----------------------------------------
Total Dipole Moment    :     -1.193575372       0.525644098      -0.327511108
                        -----------------------------------------
Magnitude (a.u.)       :      1.344688593
Magnitude (Debye)      :      3.417926776

Rotational constants in cm-1:             0.642051             0.087068             0.077760
Rotational constants in MHz :         19248.204482          2610.228289          2331.193196

                             ****ORCA TERMINATED NORMALLY****
TOTAL RUN TIME: 0 days 0 hours 0 minutes 57 seconds 900 msec
