                         Program Version 6.0.0  -   RELEASE  -
|  1> ! wb97x-v def2-tzvp def2/J RIJCOSX DEFGRID2 scfconv7 GCP(DFT/TZ) printgap
|  2> %output
|  3>     printlevel normal
|  4> end
|  5> %cpcm
|  6>     smd true
|  7>     smdsolvent "water"
|  8> end
|  9> * xyz 0 1
| 10> C -2.3893989888770557 -0.18165517198440762 0.0896799464639417
| 11> C -0.9166191258959211 -0.2863891750946995 0.16579021594812135
| 12> C -0.050043793317303346 0.5967873779776283 -0.36188059835915687
| 13> C 1.3946273502914983 0.4405094482605845 -0.2535822282002176
| 14> O 1.9704505429410055 -0.4893781909357733 0.31303283425907275
| 15> H -2.8168469810254213 -0.16707881639916822 1.1007803351764858
| 16> H -2.804645544419488 -1.0762968750900774 -0.39241215136492474
| 17> H -2.7170026788114123 0.7071573482033982 -0.45408518768241984
| 18> H -0.5140590254404824 -1.150900960966185 0.6940377102666081
| 19> H -0.4064213009421346 1.4738647484236813 -0.8974006510568482
| 20> H 1.9933104178267824 1.2390764285465947 -0.731606398288715
| 21> *
| 22>
| 23>                          ****END OF INPUT****

CARTESIAN COORDINATES (ANGSTROEM)
---------------------------------
  C     -2.389399   -0.181655    0.089680
  C     -0.916619   -0.286389    0.165790
  C     -0.050044    0.596787   -0.361881
  C      1.394627    0.440509   -0.253582
  O      1.970451   -0.489378    0.313033
  H     -2.816847   -0.167079    1.100780
  H     -2.804646   -1.076297   -0.392412
  H     -2.717003    0.707157   -0.454085
  H     -0.514059   -1.150901    0.694038
  H     -0.406421    1.473865   -0.897401
  H      1.993310    1.239076   -0.731606

 Total Charge           Charge          ....    0
 Multiplicity           Mult            ....    1
 Number of Electrons    NEL             ....   38
 Basis Dimension        Dim             ....  191

ORBITAL ENERGIES
----------------

  NO   OCC          E(Eh)            E(eV)
   0   2.0000     -21.671833      -589.7206
   1   2.0000     -12.139955      -330.3450
   2   2.0000     -12.077809      -328.6539
   3   2.0000     -12.046636      -327.8056
   4   2.0000     -12.041238      -327.6587
   5   2.0000      -1.711827       -46.5812
   6   2.0000      -1.333654       -36.2906
   7   2.0000      -1.231604       -33.5136
   8   2.0000      -1.140710       -31.0403
   9   2.0000      -1.057138       -28.7662
  10   2.0000      -0.992012       -26.9940
  11   2.0000      -0.974784       -26.5252
  12   2.0000      -0.910214       -24.7682
  13   2.0000      -0.890615       -24.2349
  14   2.0000      -0.853015       -23.2117
  15   2.0000      -0.831446       -22.6248
  16   2.0000      -0.799342       -21.7512
  17   2.0000      -0.791374       -21.5344
  18   2.0000      -0.675724       -18.3874
  19   0.0000      -0.335637        -9.1331
  20   0.0000      -0.161804        -4.4029
  21   0.0000      -0.031494        -0.8570
  22   0.0000      -0.023836        -0.6486
  23   0.0000       0.021339         0.5807

MULLIKEN ATOMIC CHARGES
-----------------------
   0 C :   -0.344419
   1 C :   -0.054324
   2 C :   -0.240728
   3 C :    0.205766
   4 O :   -0.457741
   5 H :    0.150833
   6 H :    0.150861
   7 H :    0.142332
   8 H :    0.159111
   9 H :    0.165424
  10 H :    0.122885
Sum of atomic charges:    0.0000000

LOEWDIN ATOMIC CHARGES
----------------------
   0 C :   -0.274363
   1 C :   -0.103181
   2 C :   -0.203378
   3 C :   -0.258828
   4 O :   -0.011757
   5 H :    0.141368
   6 H :    0.141291
   7 H :    0.131587
   8 H :    0.154234
   9 H :    0.154005
  10 H :    0.129023

  Mayer bond orders larger than 0.100000
B(  0-C ,  1-C ) :   0.9933 B(  0-C ,  5-H ) :   0.9520 B(  0-C ,  6-H ) :   0.9522
B(  0-C ,  7-H ) :   0.9818 B(  1-C ,  2-C ) :   1.7909 B(  1-C ,  8-H ) :   0.9390
B(  2-C ,  3-C ) :   1.0584 B(  2-C ,  9-H ) :   0.9452 B(  3-C ,  4-O ) :   1.9414
B(  3-C , 10-H ) :   0.9797

FINAL SINGLE POINT ENERGY      -231.245236707040

DIPOLE MOMENT
-------------

Method             : SCF
Type of density    : Electron Density
Multiplicity       :   1
Irrep              :   0
Energy             :  -231.2512763945398149 Eh
Relativity type    :
Basis              : AO
                                X                 Y                 Z
Electronic contribution:      5.203605749      -0.165023417       0.145328806
Nuclear contribution   :     -6.839081951       0.951801879      -0.633830091
                        -----------------------------------------
Total Dipole Moment    :     -1.635476202       0.786778462      -0.488501285
                        -----------------------------------------
Magnitude (a.u.)       :      1.879477656
Magnitude (Debye)      :      4.777252548

Rotational constants in cm-1:             0.642051             0.087068             0.077760
Rotational constants in MHz :         19248.204482          2610.228289          2331.193196

                             ****ORCA TERMINATED NORMALLY****
TOTAL RUN TIME: 0 days 0 hours 0 minutes 57 seconds 719 msec
