                         Program Version 6.0.0  -   RELEASE  -
|  1> ! pbe def2-sv(p) def2/J RI DEFGRID1 loosescf d4 GCP(DFT/SV(P)) printgap
|  2> %output
|  3>     printlevel normal
|  4> end
|  5> * xyz 0 1
|  6> C 3.5407525859 0.5200456135 0.0123096233
|  7> C 2.2000540624 0.0656495995 -0.5615100306
|  8> H 2.3856189854 -0.4007035824 -1.5347454244
|  9> C 1.2422159677 1.2532528275 -0.7591675871
| 10> C 0.2708930562 1.371367998 0.4100679945
| 11> C -0.7033527053 0.1824803462 0.4490858027
| 12> H -1.0812427328 0.0804211301 1.4735896073
| 13> C 0.059398248 -1.1182335955 0.0949787641
| 14> H -0.0830773828 -1.3474962867 -0.967655563
| 15> C 1.5603961112 -0.9778426754 0.3612531646
| 16> O -0.4614082391 -2.2530487883 0.765207077
| 17> C -1.9306700188 0.3694336675 -0.4688558838
| 18> C -2.9050264913 -0.7991048178 -0.3087374606
| 19> C -2.6882327207 1.6690392837 -0.1857694395
| 20> H 3.3928294484 1.0508376343 0.9501233442
| 21> H 4.1839933808 -0.3367684103 0.199325842
| 22> H 4.0478441686 1.1846387665 -0.6830647267
| 23> H 1.8172794794 2.1751040295 -0.8571240222
| 24> H 0.6716566388 1.124462275 -1.6800058116
| 25> H 0.8391149753 1.4096366928 1.340738112
| 26> H -0.282051029 2.3053052348 0.3403437504
| 27> H 1.7133577469 -0.6983588885 1.405856274
| 28> H 2.0320643374 -1.9505717685 0.2073309817
| 29> H -0.3053505575 -2.1515308655 1.7143388342
| 30> H -1.5833933828 0.3900580469 -1.5080240877
| 31> H -3.3428887509 -0.7849102515 0.6873369393
| 32> H -2.4084973219 -1.7548276463 -0.4457271239
| 33> H -3.7088992114 -0.721246758 -1.0373865483
| 34> H -3.6414022546 1.6553617179 -0.7091733075
| 35> H -2.1401516604 2.5431028317 -0.5255243919
| 36> H -2.8858036598 1.7701717281 0.8791807445
| 37> *
| 38>
| 39>                          ****END OF INPUT****

CARTESIAN COORDINATES (ANGSTROEM)
---------------------------------
  C      3.540753    0.520046    0.012310
  C      2.200054    0.065650   -0.561510
  H      2.385619   -0.400704   -1.534745
  C      1.242216    1.253253   -0.759168
  C      0.270893    1.371368    0.410068
  C     -0.703353    0.182480    0.449086
  H     -1.081243    0.080421    1.473590
  C      0.059398   -1.118234    0.094979
  H     -0.083077   -1.347496   -0.967656
  C      1.560396   -0.977843    0.361253
  O     -0.461408   -2.253049    0.765207
  C     -1.930670    0.369434   -0.468856
  C     -2.905026   -0.799105   -0.308737
  C     -2.688233    1.669039   -0.185769
  H      3.392829    1.050838    0.950123
  H      4.183993   -0.336768    0.199326
  H      4.047844    1.184639   -0.683065
  H      1.817279    2.175104   -0.857124
  H      0.671657    1.124462   -1.680006
  H      0.839115    1.409637    1.340738
  H     -0.282051    2.305305    0.340344
  H      1.713358   -0.698359    1.405856
  H      2.032064   -1.950572    0.207331
  H     -0.305351   -2.151531    1.714339
  H     -1.583393    0.390058   -1.508024
  H     -3.342889   -0.784910    0.687337
  H     -2.408497   -1.754828   -0.445727
  H     -3.708899   -0.721247   -1.037387
  H     -3.641402    1.655362   -0.709173
  H     -2.140152    2.543103   -0.525524
  H     -2.885804    1.770172    0.879181

 Total Charge           Charge          ....    0
 Multiplicity           Mult            ....    1
 Number of Electrons    NEL             ....   88
 Basis Dimension        Dim             ....  194

ORBITAL ENERGIES
----------------

  NO   OCC          E(Eh)            E(eV)
   0   2.0000     -18.737675      -509.8781
   1   2.0000      -9.931774      -270.2573
   2   2.0000      -9.894072      -269.2314
   3   2.0000      -9.889880      -269.1173
   4   2.0000      -9.889258      -269.1004
   5   2.0000      -9.880856      -268.8718
   6   2.0000      -9.880805      -268.8704
   7   2.0000      -9.879412      -268.8325
   8   2.0000      -9.873725      -268.6777
   9   2.0000      -9.869090      -268.5516
  10   2.0000      -9.859484      -268.2902
  11   2.0000      -0.916553       -24.9407
  12   2.0000      -0.760067       -20.6825
  13   2.0000      -0.720200       -19.5976
  14   2.0000      -0.667402       -18.1609
  15   2.0000      -0.653266       -17.7763
  16   2.0000      -0.605377       -16.4731
  17   2.0000      -0.600182       -16.3318
  18   2.0000      -0.558386       -15.1945
  19   2.0000      -0.536249       -14.5921
  20   2.0000      -0.498719       -13.5708
  21   2.0000      -0.479865       -13.0578
  22   2.0000      -0.449137       -12.2217
  23   2.0000      -0.436273       -11.8716
  24   2.0000      -0.409576       -11.1451
  25   2.0000      -0.397007       -10.8031
  26   2.0000      -0.387902       -10.5553
  27   2.0000      -0.380200       -10.3458
  28   2.0000      -0.360257        -9.8031
  29   2.0000      -0.352858        -9.6017
  30   2.0000      -0.347386        -9.4529
  31   2.0000      -0.336373        -9.1532
  32   2.0000      -0.333571        -9.0769
  33   2.0000      -0.329721        -8.9722
  34   2.0000      -0.316351        -8.6083
  35   2.0000      -0.312690        -8.5087
  36   2.0000      -0.294142        -8.0040
  37   2.0000      -0.288999        -7.8640
  38   2.0000      -0.284040        -7.7291
  39   2.0000      -0.281383        -7.6568
  40   2.0000      -0.267873        -7.2892
  41   2.0000      -0.261373        -7.1123
  42   2.0000      -0.248324        -6.7572
  43   2.0000      -0.203451        -5.5362
  44   0.0000       0.026805         0.7294
  45   0.0000       0.028995         0.7890
  46   0.0000       0.047876         1.3028
  47   0.0000       0.054141         1.4733
  48   0.0000       0.073625         2.0034

MULLIKEN ATOMIC CHARGES
-----------------------
   0 C :   -0.235864
   1 C :   -0.185751
   2 H :    0.067655
   3 C :   -0.124898
   4 C :   -0.089790
   5 C :   -0.104566
   6 H :    0.034979
   7 C :    0.040398
   8 H :    0.060975
   9 C :   -0.067621
  10 O :   -0.417216
  11 C :   -0.188222
  12 C :   -0.237789
  13 C :   -0.238119
  14 H :    0.094462
  15 H :    0.098978
  16 H :    0.099602
  17 H :    0.077009
  18 H :    0.081697
  19 H :    0.066108
  20 H :    0.081660
  21 H :    0.045333
  22 H :    0.085905
  23 H :    0.290925
  24 H :    0.071047
  25 H :    0.082420
  26 H :    0.125703
  27 H :    0.090238
  28 H :    0.095271
  29 H :    0.108009
  30 H :    0.091462
Sum of atomic charges:   -0.0000000

LOEWDIN ATOMIC CHARGES
----------------------
   0 C :   -0.327955
   1 C :   -0.150608
   2 H :    0.116013
   3 C :   -0.219994
   4 C :   -0.219512
   5 C :   -0.145023
   6 H :    0.110470
   7 C :   -0.046151
   8 H :    0.111985
   9 C :   -0.230663
  10 O :   -0.318130
  11 C :   -0.148972
  12 C :   -0.333861
  13 C :   -0.331940
  14 H :    0.115013
  15 H :    0.117727
  16 H :    0.116975
  17 H :    0.117242
  18 H :    0.115341
  19 H :    0.113503
  20 H :    0.118048
  21 H :    0.109600
  22 H :    0.120775
  23 H :    0.277611
  24 H :    0.111043
  25 H :    0.113744
  26 H :    0.124373
  27 H :    0.112601
  28 H :    0.118763
  29 H :    0.115054
  30 H :    0.116929

  Mayer bond orders larger than 0.100000
B(  0-C ,  1-C ) :   1.1159 B(  0-C , 14-H ) :   0.9469 B(  0-C , 15-H ) :   0.9488
B(  0-C , 16-H ) :   0.9467 B(  1-C ,  2-H ) :   0.8948 B(  1-C ,  3-C ) :   1.0800
B(  1-C ,  9-C ) :   1.0934 B(  3-C ,  4-C ) :   1.1842 B(  3-C , 17-H ) :   0.9152
B(  3-C , 18-H ) :   0.9034 B(  4-C ,  5-C ) :   1.0971 B(  4-C , 19-H ) :   0.8875
B(  4-C , 20-H ) :   0.9003 B(  5-C ,  6-H ) :   0.8619 B(  5-C ,  7-C ) :   0.9894
B(  5-C , 11-C ) :   1.0550 B(  7-C ,  8-H ) :   0.8782 B(  7-C ,  9-C ) :   1.1549
B(  7-C , 10-O ) :   1.0121 B(  9-C , 21-H ) :   0.8739 B(  9-C , 22-H ) :   0.9040
B( 10-O , 23-H ) :   0.8519 B( 11-C , 12-C ) :   1.1188 B( 11-C , 13-C ) :   1.1133
B( 11-C , 24-H ) :   0.8916 B( 12-C , 25-H ) :   0.9485 B( 12-C , 26-H ) :   0.9317
B( 12-C , 27-H ) :   0.9457 B( 13-C , 28-H ) :   0.9463 B( 13-C , 29-H ) :   0.9377
B( 13-C , 30-H ) :   0.9471

Dispersion correction           -0.031963314
FINAL SINGLE POINT ENERGY      -467.187520349929

DIPOLE MOMENT
-------------

Method             : SCF
Type of density    : Electron Density
Multiplicity       :   1
Irrep              :   0
Energy             :  -467.3000610895524005 Eh
Relativity type    :
Basis              : AO
                                X                 Y                 Z
Electronic contribution:      0.672367923      -4.771349835       0.942743678
Nuclear contribution   :     -0.362409248       5.166521030      -0.692519737
                        -----------------------------------------
Total Dipole Moment    :      0.309958676       0.395171196       0.250223941
                        -----------------------------------------
Magnitude (a.u.)       :      0.561111999
Magnitude (Debye)      :      1.426233356

Rotational constants in cm-1:             0.057571             0.025255             0.019293
Rotational constants in MHz :          1725.939031           757.127391           578.399148

                             ****ORCA TERMINATED NORMALLY****
TOTAL RUN TIME: 0 days 0 hours 0 minutes 14 seconds 447 msec
