                         Program Version 6.0.0  -   RELEASE  -
|  1> ! wb97x-v def2-tzvp def2/J RIJCOSX DEFGRID2 scfconv7 GCP(DFT/TZ) printgap
|  2> %output
|  3>     printlevel normal
|  4> end
|  5> * xyz 0 1
|  6> C -1.796745393171378 -0.7493585641848935 -0.5433525423111499
|  7> C -0.707604759955588 0.3121042104572163 -0.3742764378385602
|  8> C -0.9966097697277874 1.1669531431332125 0.861722568753559
|  9> C 0.7076305600151381 -0.31212112932240493 -0.37418852846739153
| 10> C 1.7967963850780577 0.7493206686209409 -0.5432374693813848
| 11> C 0.9965472292741376 -1.1668757639826255 0.8619026225130675
| 12> H -1.841555575423065 -1.4162035374643995 0.3249197831904518
| 13> H -2.7818698826217907 -0.28160255085145974 -0.6476751950866934
| 14> H -1.6195298770946893 -1.3640858634396364 -1.432915159344813
| 15> H -0.7506254441969693 0.971243916188118 -1.2537560215079924
| 16> H -1.053879381608758 0.5489746748828452 1.7648671219662764
| 17> H -0.23280643747509955 1.9340857862899108 1.0243423544270296
| 18> H -1.9596150105814372 1.6775292226540235 0.7532259061236093
| 19> H 0.7507248131665996 -0.9713291249516425 -1.2536130010880284
| 20> H 2.7819150047256773 0.28154686579949245 -0.6475381823213556
| 21> H 1.6196179163237072 1.364063244101112 -1.4327970203579288
| 22> H 1.841594412791698 1.4161515375998446 0.32504690884723014
| 23> H 1.9593677240104972 -1.6777867727098825 0.7533351121244101
| 24> H 0.23251738352408977 -1.9337292554530272 1.0247795567184568
| 25> H 1.054169221470996 -0.5487668830465045 1.7649367654162915
| 26> *
| 27>
| 28>                          ****END OF INPUT****

CARTESIAN COORDINATES (ANGSTROEM)
---------------------------------
  C     -1.796745   -0.749359   -0.543353
  C     -0.707605    0.312104   -0.374276
  C     -0.996610    1.166953    0.861723
  C      0.707631   -0.312121   -0.374189
  C      1.796796    0.749321   -0.543237
  C      0.996547   -1.166876    0.861903
  H     -1.841556   -1.416204    0.324920
  H     -2.781870   -0.281603   -0.647675
  H     -1.619530   -1.364086   -1.432915
  H     -0.750625    0.971244   -1.253756
  H     -1.053879    0.548975    1.764867
  H     -0.232806    1.934086    1.024342
  H     -1.959615    1.677529    0.753226
  H      0.750725   -0.971329   -1.253613
  H      2.781915    0.281547   -0.647538
  H      1.619618    1.364063   -1.432797
  H      1.841594    1.416152    0.325047
  H      1.959368   -1.677787    0.753335
  H      0.232517   -1.933729    1.024780
  H      1.054169   -0.548767    1.764937

 Total Charge           Charge          ....    0
 Multiplicity           Mult            ....    1
 Number of Electrons    NEL             ....   50
 Basis Dimension        Dim             ....  270

ORBITAL ENERGIES
----------------

  NO   OCC          E(Eh)            E(eV)
   0   2.0000     -12.044836      -327.7566
   1   2.0000     -12.043778      -327.7279
   2   2.0000     -12.029739      -327.3459
   3   2.0000     -12.029517      -327.3398
   4   2.0000     -12.029242      -327.3323
   5   2.0000     -12.029082      -327.3280
   6   2.0000      -1.324813       -36.0500
   7   2.0000      -1.250178       -34.0191
   8   2.0000      -1.174375       -31.9564
   9   2.0000      -1.169141       -31.8140
  10   2.0000      -1.093370       -29.7521
  11   2.0000      -1.003684       -27.3116
  12   2.0000      -0.897888       -24.4328
  13   2.0000      -0.878592       -23.9077
  14   2.0000      -0.878282       -23.8993
  15   2.0000      -0.837744       -22.7962
  16   2.0000      -0.825862       -22.4729
  17   2.0000      -0.813617       -22.1396
  18   2.0000      -0.803008       -21.8509
  19   2.0000      -0.800322       -21.7779
  20   2.0000      -0.780161       -21.2293
  21   2.0000      -0.779500       -21.2113
  22   2.0000      -0.760621       -20.6975
  23   2.0000      -0.746547       -20.3146
  24   2.0000      -0.738707       -20.1012
  25   0.0000      -0.032466        -0.8834
  26   0.0000      -0.027854        -0.7579
  27   0.0000      -0.014857        -0.4043
  28   0.0000      -0.011435        -0.3112
  29   0.0000      -0.000475        -0.0129

MULLIKEN ATOMIC CHARGES
-----------------------
   0 C :   -0.357940
   1 C :    0.019572
   2 C :   -0.392432
   3 C :    0.019658
   4 C :   -0.357999
   5 C :   -0.392452
   6 H :    0.104158
   7 H :    0.111932
   8 H :    0.109714
   9 H :    0.064068
  10 H :    0.114007
  11 H :    0.113373
  12 H :    0.113538
  13 H :    0.064072
  14 H :    0.111929
  15 H :    0.109712
  16 H :    0.104174
  17 H :    0.113548
  18 H :    0.113365
  19 H :    0.114003
Sum of atomic charges:    0.0000000

LOEWDIN ATOMIC CHARGES
----------------------
   0 C :   -0.281818
   1 C :   -0.290686
   2 C :   -0.281532
   3 C :   -0.290683
   4 C :   -0.281818
   5 C :   -0.281536
   6 H :    0.116145
   7 H :    0.118095
   8 H :    0.117470
   9 H :    0.147708
  10 H :    0.118944
  11 H :    0.116810
  12 H :    0.118866
  13 H :    0.147707
  14 H :    0.118096
  15 H :    0.117469
  16 H :    0.116147
  17 H :    0.118866
  18 H :    0.116808
  19 H :    0.118942

  Mayer bond orders larger than 0.100000
B(  0-C ,  1-C ) :   0.9785 B(  0-C ,  6-H ) :   0.9776 B(  0-C ,  7-H ) :   0.9860
B(  0-C ,  8-H ) :   0.9818 B(  1-C ,  2-C ) :   0.9597 B(  1-C ,  3-C ) :   0.9555
B(  1-C ,  9-H ) :   0.9716 B(  2-C , 10-H ) :   0.9769 B(  2-C , 11-H ) :   0.9843
B(  2-C , 12-H ) :   0.9827 B(  3-C ,  4-C ) :   0.9784 B(  3-C ,  5-C ) :   0.9596
B(  3-C , 13-H ) :   0.9716 B(  4-C , 14-H ) :   0.9860 B(  4-C , 15-H ) :   0.9818
B(  4-C , 16-H ) :   0.9776 B(  5-C , 17-H ) :   0.9827 B(  5-C , 18-H ) :   0.9843
B(  5-C , 19-H ) :   0.9769

FINAL SINGLE POINT ENERGY      -237.084153363908

DIPOLE MOMENT
-------------

Method             : SCF
Type of density    : Electron Density
Multiplicity       :   1
Irrep              :   0
Energy             :  -237.0987820024077450 Eh
Relativity type    :
Basis              : AO
                                X                 Y                 Z
Electronic contribution:      0.000015428      -0.000034684      -1.099685886
Nuclear contribution   :     -0.000006580       0.000030290       1.041219707
                        -----------------------------------------
Total Dipole Moment    :      0.000008848      -0.000004393      -0.058466179
                        -----------------------------------------
Magnitude (a.u.)       :      0.058466179
Magnitude (Debye)      :      0.148609218

Rotational constants in cm-1:             0.142358             0.084885             0.075054
Rotational constants in MHz :          4267.779469          2544.801251          2250.057409

                             ****ORCA TERMINATED NORMALLY****
TOTAL RUN TIME: 0 days 0 hours 2 minutes 17 seconds 460 msec
