                         Program Version 6.0.0  -   RELEASE  -
|  1> ! wb97x-v def2-tzvp def2/J RIJCOSX DEFGRID2 scfconv7 GCP(DFT/TZ) printgap
|  2> %output
|  3>     printlevel normal
|  4> end
|  5> %cpcm
|  6>     smd true
|  7>     smdsolvent "water"
|  8> end
|  9> * xyz 0 1
| 10> C -1.796745393171378 -0.7493585641848935 -0.5433525423111499
| 11> C -0.707604759955588 0.3121042104572163 -0.3742764378385602
| 12> C -0.9966097697277874 1.1669531431332125 0.861722568753559
| 13> C 0.7076305600151381 -0.31212112932240493 -0.37418852846739153
| 14> C 1.7967963850780577 0.7493206686209409 -0.5432374693813848
| 15> C 0.9965472292741376 -1.1668757639826255 0.8619026225130675
| 16> H -1.841555575423065 -1.4162035374643995 0.3249197831904518
| 17> H -2.7818698826217907 -0.28160255085145974 -0.6476751950866934
| 18> H -1.6195298770946893 -1.3640858634396364 -1.432915159344813
| 19> H -0.7506254441969693 0.971243916188118 -1.2537560215079924
| 20> H -1.053879381608758 0.5489746748828452 1.7648671219662764
| 21> H -0.23280643747509955 1.9340857862899108 1.0243423544270296
| 22> H -1.9596150105814372 1.6775292226540235 0.7532259061236093
| 23> H 0.7507248131665996 -0.9713291249516425 -1.2536130010880284
| 24> H 2.7819150047256773 0.28154686579949245 -0.6475381823213556
| 25> H 1.6196179163237072 1.364063244101112 -1.4327970203579288
| 26> H 1.841594412791698 1.4161515375998446 0.32504690884723014
| 27> H 1.9593677240104972 -1.6777867727098825 0.7533351121244101
| 28> H 0.23251738352408977 -1.9337292554530272 1.0247795567184568
| 29> H 1.054169221470996 -0.5487668830465045 1.7649367654162915
| 30> *
| 31>
| 32>                          ****END OF INPUT****

CARTESIAN COORDINATES (ANGSTROEM)
---------------------------------
  C     -1.796745   -0.749359   -0.543353
  C     -0.707605    0.312104   -0.374276
  C     -0.996610    1.166953    0.861723
  C      0.707631   -0.312121   -0.374189
  C      1.796796    0.749321   -0.543237
  C      0.996547   -1.166876    0.861903
  H     -1.841556   -1.416204    0.324920
  H     -2.781870   -0.281603   -0.647675
  H     -1.619530   -1.364086   -1.432915
  H     -0.750625    0.971244   -1.253756
  H     -1.053879    0.548975    1.764867
  H     -0.232806    1.934086    1.024342
  H     -1.959615    1.677529    0.753226
  H      0.750725   -0.971329   -1.253613
  H      2.781915    0.281547   -0.647538
  H      1.619618    1.364063   -1.432797
  H      1.841594    1.416152    0.325047
  H      1.959368   -1.677787    0.753335
  H      0.232517   -1.933729    1.024780
  H      1.054169   -0.548767    1.764937

 Total Charge           Charge          ....    0
 Multiplicity           Mult            ....    1
 Number of Electrons    NEL             ....   50
 Basis Dimension        Dim             ....  270

ORBITAL ENERGIES
----------------

  NO   OCC          E(Eh)            E(eV)
   0   2.0000     -12.036319      -327.5249
   1   2.0000     -12.035260      -327.4961
   2   2.0000     -12.020979      -327.1075
   3   2.0000     -12.020755      -327.1014
   4   2.0000     -12.020478      -327.0938
   5   2.0000     -12.020317      -327.0894
   6   2.0000      -1.316276       -35.8177
   7   2.0000      -1.241898       -33.7938
   8   2.0000      -1.166297       -31.7366
   9   2.0000      -1.161103       -31.5952
  10   2.0000      -1.085241       -29.5309
  11   2.0000      -0.995464       -27.0880
  12   2.0000      -0.889305       -24.1992
  13   2.0000      -0.870248       -23.6807
  14   2.0000      -0.869931       -23.6720
  15   2.0000      -0.829435       -22.5701
  16   2.0000      -0.817564       -22.2470
  17   2.0000      -0.805320       -21.9139
  18   2.0000      -0.794685       -21.6245
  19   2.0000      -0.792001       -21.5514
  20   2.0000      -0.771852       -21.0032
  21   2.0000      -0.771172       -20.9847
  22   2.0000      -0.752261       -20.4701
  23   2.0000      -0.737930       -20.0801
  24   2.0000      -0.730142       -19.8682
  25   0.0000      -0.022551        -0.6136
  26   0.0000      -0.019747        -0.5373
  27   0.0000      -0.007245        -0.1971
  28   0.0000      -0.003016        -0.0821
  29   0.0000       0.009365         0.2548

MULLIKEN ATOMIC CHARGES
-----------------------
   0 C :   -0.416426
   1 C :    0.026899
   2 C :   -0.445028
   3 C :    0.026983
   4 C :   -0.416482
   5 C :   -0.445050
   6 H :    0.121979
   7 H :    0.127514
   8 H :    0.124574
   9 H :    0.074520
  10 H :    0.126706
  11 H :    0.130044
  12 H :    0.129209
  13 H :    0.074525
  14 H :    0.127510
  15 H :    0.124572
  16 H :    0.121991
  17 H :    0.129217
  18 H :    0.130040
  19 H :    0.126703
Sum of atomic charges:    0.0000000

LOEWDIN ATOMIC CHARGES
----------------------
   0 C :   -0.289159
   1 C :   -0.290496
   2 C :   -0.288262
   3 C :   -0.290493
   4 C :   -0.289159
   5 C :   -0.288266
   6 H :    0.118906
   7 H :    0.119700
   8 H :    0.119342
   9 H :    0.149646
  10 H :    0.120666
  11 H :    0.119316
  12 H :    0.120342
  13 H :    0.149646
  14 H :    0.119701
  15 H :    0.119341
  16 H :    0.118907
  17 H :    0.120342
  18 H :    0.119316
  19 H :    0.120664

  Mayer bond orders larger than 0.100000
B(  0-C ,  1-C ) :   0.9687 B(  0-C ,  6-H ) :   0.9756 B(  0-C ,  7-H ) :   0.9839
B(  0-C ,  8-H ) :   0.9803 B(  1-C ,  2-C ) :   0.9545 B(  1-C ,  3-C ) :   0.9548
B(  1-C ,  9-H ) :   0.9725 B(  2-C , 10-H ) :   0.9752 B(  2-C , 11-H ) :   0.9809
B(  2-C , 12-H ) :   0.9809 B(  3-C ,  4-C ) :   0.9687 B(  3-C ,  5-C ) :   0.9545
B(  3-C , 13-H ) :   0.9725 B(  4-C , 14-H ) :   0.9839 B(  4-C , 15-H ) :   0.9803
B(  4-C , 16-H ) :   0.9756 B(  5-C , 17-H ) :   0.9809 B(  5-C , 18-H ) :   0.9809
B(  5-C , 19-H ) :   0.9752

FINAL SINGLE POINT ENERGY      -237.080602174184

DIPOLE MOMENT
-------------

Method             : SCF
Type of density    : Electron Density
Multiplicity       :   1
Irrep              :   0
Energy             :  -237.0952308126842354 Eh
Relativity type    :
Basis              : AO
                                X                 Y                 Z
Electronic contribution:      0.000012533      -0.000034077      -1.111198561
Nuclear contribution   :     -0.000006580       0.000030290       1.041219707
                        -----------------------------------------
Total Dipole Moment    :      0.000005954      -0.000003787      -0.069978854
                        -----------------------------------------
Magnitude (a.u.)       :      0.069978855
Magnitude (Debye)      :      0.177872113

Rotational constants in cm-1:             0.142358             0.084885             0.075054
Rotational constants in MHz :          4267.779469          2544.801251          2250.057409

                             ****ORCA TERMINATED NORMALLY****
TOTAL RUN TIME: 0 days 0 hours 2 minutes 23 seconds 257 msec
