                         Program Version 6.0.0  -   RELEASE  -
|  1> ! pbe def2-sv(p) def2/J RI DEFGRID1 loosescf d4 GCP(DFT/SV(P)) printgap
|  2> %output
|  3>     printlevel normal
|  4> end
|  5> * xyz 0 1
|  6> C -2.4096532962 -0.7165594118 -0.0231235771
|  7> C -0.9861754512 -0.2839924725 0.3442654224
|  8> H -0.9585364056 -0.0028794806 1.4091083108
|  9> C -0.516254202 0.9031888293 -0.50959161
| 10> H -0.4395906665 0.5933799675 -1.5569676217
| 11> C 0.8830176504 1.3484691384 -0.0473826767
| 12> H 0.74975799 2.0473107944 0.7951254596
| 13> C 1.7075696535 0.1465165133 0.4807760961
| 14> H 2.744550532 0.2557411801 0.1382024365
| 15> C 1.2046026469 -1.1759180814 -0.1116061462
| 16> H 1.7449452158 -2.0039073153 0.3768895589
| 17> O -0.1476671293 -1.4239104063 0.160787012
| 18> O 1.465099442 -1.152600383 -1.479745584
| 19> O 1.6329762346 0.0301755648 1.879868042
| 20> O 1.498845481 1.995384653 -1.1292570051
| 21> O -1.4385479395 1.9579712309 -0.4957868243
| 22> O -2.9406594742 -1.6330053364 0.8985336331
| 23> H -2.3969038761 -1.1419292385 -1.0343030084
| 24> H -3.0680325265 0.1531781747 -0.0136782107
| 25> H 1.2044443642 -1.9969733898 -1.8784259402
| 26> H 2.2111637507 0.6824989493 2.3021454177
| 27> H 2.3252606344 2.4155476897 -0.8497222675
| 28> H -1.4959737564 2.3333430844 0.3960489202
| 29> H -2.3400077653 -2.3900516546 0.9553581182
| 30> *
| 31>
| 32>                          ****END OF INPUT****

CARTESIAN COORDINATES (ANGSTROEM)
---------------------------------
  C     -2.409653   -0.716559   -0.023124
  C     -0.986175   -0.283992    0.344265
  H     -0.958536   -0.002879    1.409108
  C     -0.516254    0.903189   -0.509592
  H     -0.439591    0.593380   -1.556968
  C      0.883018    1.348469   -0.047383
  H      0.749758    2.047311    0.795125
  C      1.707570    0.146517    0.480776
  H      2.744551    0.255741    0.138202
  C      1.204603   -1.175918   -0.111606
  H      1.744945   -2.003907    0.376890
  O     -0.147667   -1.423910    0.160787
  O      1.465099   -1.152600   -1.479746
  O      1.632976    0.030176    1.879868
  O      1.498845    1.995385   -1.129257
  O     -1.438548    1.957971   -0.495787
  O     -2.940659   -1.633005    0.898534
  H     -2.396904   -1.141929   -1.034303
  H     -3.068033    0.153178   -0.013678
  H      1.204444   -1.996973   -1.878426
  H      2.211164    0.682499    2.302145
  H      2.325261    2.415548   -0.849722
  H     -1.495974    2.333343    0.396049
  H     -2.340008   -2.390052    0.955358

 Total Charge           Charge          ....    0
 Multiplicity           Mult            ....    1
 Number of Electrons    NEL             ....   96
 Basis Dimension        Dim             ....  192

ORBITAL ENERGIES
----------------

  NO   OCC          E(Eh)            E(eV)
   0   2.0000     -18.768051      -510.7046
   1   2.0000     -18.767968      -510.7024
   2   2.0000     -18.761427      -510.5244
   3   2.0000     -18.751849      -510.2638
   4   2.0000     -18.750364      -510.2233
   5   2.0000     -18.734120      -509.7813
   6   2.0000      -9.988230      -271.7936
   7   2.0000      -9.950823      -270.7756
   8   2.0000      -9.946129      -270.6479
   9   2.0000      -9.937720      -270.4191
  10   2.0000      -9.934304      -270.3261
  11   2.0000      -9.919397      -269.9205
  12   2.0000      -0.981161       -26.6987
  13   2.0000      -0.944571       -25.7031
  14   2.0000      -0.936580       -25.4856
  15   2.0000      -0.923814       -25.1383
  16   2.0000      -0.916832       -24.9483
  17   2.0000      -0.904014       -24.5995
  18   2.0000      -0.701914       -19.1000
  19   2.0000      -0.689752       -18.7691
  20   2.0000      -0.620453       -16.8834
  21   2.0000      -0.581731       -15.8297
  22   2.0000      -0.561996       -15.2927
  23   2.0000      -0.525425       -14.2976
  24   2.0000      -0.511179       -13.9099
  25   2.0000      -0.486577       -13.2404
  26   2.0000      -0.474832       -12.9208
  27   2.0000      -0.457871       -12.4593
  28   2.0000      -0.452850       -12.3227
  29   2.0000      -0.428643       -11.6640
  30   2.0000      -0.407516       -11.0891
  31   2.0000      -0.388611       -10.5747
  32   2.0000      -0.379296       -10.3212
  33   2.0000      -0.363105        -9.8806
  34   2.0000      -0.362190        -9.8557
  35   2.0000      -0.346254        -9.4220
  36   2.0000      -0.337845        -9.1932
  37   2.0000      -0.323409        -8.8004
  38   2.0000      -0.296568        -8.0700
  39   2.0000      -0.283166        -7.7053
  40   2.0000      -0.276146        -7.5143
  41   2.0000      -0.273520        -7.4429
  42   2.0000      -0.254481        -6.9248
  43   2.0000      -0.241698        -6.5769
  44   2.0000      -0.226933        -6.1752
  45   2.0000      -0.214050        -5.8246
  46   2.0000      -0.211756        -5.7622
  47   2.0000      -0.203371        -5.5340
  48   0.0000       0.004099         0.1115
  49   0.0000       0.022381         0.6090
  50   0.0000       0.026994         0.7345
  51   0.0000       0.038365         1.0440
  52   0.0000       0.053283         1.4499

MULLIKEN ATOMIC CHARGES
-----------------------
   0 C :    0.106260
   1 C :   -0.007865
   2 H :    0.051068
   3 C :    0.060087
   4 H :    0.077613
   5 C :    0.107780
   6 H :    0.016664
   7 C :   -0.008323
   8 H :    0.061979
   9 C :    0.187062
  10 H :    0.061445
  11 O :   -0.327701
  12 O :   -0.382324
  13 O :   -0.409817
  14 O :   -0.393958
  15 O :   -0.404891
  16 O :   -0.435964
  17 H :    0.059143
  18 H :    0.081977
  19 H :    0.303813
  20 H :    0.306354
  21 H :    0.294882
  22 H :    0.296532
  23 H :    0.298183
Sum of atomic charges:   -0.0000000

LOEWDIN ATOMIC CHARGES
----------------------
   0 C :   -0.126093
   1 C :   -0.079973
   2 H :    0.103484
   3 C :   -0.071912
   4 H :    0.127941
   5 C :   -0.075017
   6 H :    0.089275
   7 C :   -0.090008
   8 H :    0.108495
   9 C :    0.000570
  10 H :    0.096808
  11 O :   -0.152977
  12 O :   -0.307615
  13 O :   -0.311741
  14 O :   -0.307834
  15 O :   -0.300290
  16 O :   -0.338250
  17 H :    0.097591
  18 H :    0.115301
  19 H :    0.287225
  20 H :    0.289928
  21 H :    0.281967
  22 H :    0.281186
  23 H :    0.281938

  Mayer bond orders larger than 0.100000
B(  0-C ,  1-C ) :   1.0511 B(  0-C , 16-O ) :   1.0767 B(  0-C , 17-H ) :   0.9064
B(  0-C , 18-H ) :   0.9079 B(  1-C ,  2-H ) :   0.8650 B(  1-C ,  3-C ) :   1.0277
B(  1-C , 11-O ) :   0.9576 B(  3-C ,  4-H ) :   0.8292 B(  3-C ,  5-C ) :   1.0554
B(  3-C , 15-O ) :   1.0319 B(  5-C ,  6-H ) :   0.8638 B(  5-C ,  7-C ) :   0.9515
B(  5-C , 14-O ) :   1.1039 B(  7-C ,  8-H ) :   0.8790 B(  7-C ,  9-C ) :   1.0476
B(  7-C , 13-O ) :   1.0425 B(  9-C , 10-H ) :   0.8919 B(  9-C , 11-O ) :   1.0668
B(  9-C , 12-O ) :   1.1522 B( 12-O , 19-H ) :   0.8412 B( 13-O , 20-H ) :   0.8469
B( 14-O , 21-H ) :   0.8472 B( 15-O , 22-H ) :   0.8460 B( 16-O , 23-H ) :   0.8484

Dispersion correction           -0.024397449
FINAL SINGLE POINT ENERGY      -685.685294552127

DIPOLE MOMENT
-------------

Method             : SCF
Type of density    : Electron Density
Multiplicity       :   1
Irrep              :   0
Energy             :  -685.8140946250484831 Eh
Relativity type    :
Basis              : AO
                                X                 Y                 Z
Electronic contribution:      1.234235500      -0.654185706      -0.359380467
Nuclear contribution   :      0.264736207       0.883465676       0.973038336
                        -----------------------------------------
Total Dipole Moment    :      1.498971708       0.229279970       0.613657869
                        -----------------------------------------
Magnitude (a.u.)       :      1.635867191
Magnitude (Debye)      :      4.158043954

Rotational constants in cm-1:             0.040042             0.025643             0.020983
Rotational constants in MHz :          1200.435901           768.743599           629.050349

                             ****ORCA TERMINATED NORMALLY****
TOTAL RUN TIME: 0 days 0 hours 0 minutes 11 seconds 758 msec
