                         Program Version 6.0.0  -   RELEASE  -
|  1> ! pbe def2-sv(p) def2/J RI DEFGRID1 loosescf d4 GCP(DFT/SV(P)) printgap
|  2> %output
|  3>     printlevel normal
|  4> end
|  5> * xyz 0 1
|  6> C -2.5819438656 0.0080523558 -0.0178161941
|  7> C -1.8867913 1.1863268126 0.201582004
|  8> C -0.5031967083 1.1887576104 0.2125175959
|  9> C 0.1962479341 0.0023151384 0.0088364425
| 10> C -0.5089061478 -1.1814971789 -0.1888656661
| 11> C -1.8910880352 -1.1775752028 -0.2103137459
| 12> C 1.6851857278 -0.059933563 0.0247653726
| 13> O 2.2891738762 -1.0626387467 0.4057313295
| 14> N 2.3287477728 1.0354012546 -0.405744022
| 15> H -3.6609815396 0.0118719959 -0.0304117156
| 16> H -2.4250113707 2.1070404755 0.3669439613
| 17> H 0.0246631699 2.1086392092 0.4119931007
| 18> H 0.0495433573 -2.0959010494 -0.3261760972
| 19> H -2.4284878295 -2.0992867381 -0.372337383
| 20> H 1.8319816165 1.8205047567 -0.7885533365
| 21> H 3.3356353824 1.0263066168 -0.4293080235
| 22> *
| 23>
| 24>                          ****END OF INPUT****

CARTESIAN COORDINATES (ANGSTROEM)
---------------------------------
  C     -2.581944    0.008052   -0.017816
  C     -1.886791    1.186327    0.201582
  C     -0.503197    1.188758    0.212518
  C      0.196248    0.002315    0.008836
  C     -0.508906   -1.181497   -0.188866
  C     -1.891088   -1.177575   -0.210314
  C      1.685186   -0.059934    0.024765
  O      2.289174   -1.062639    0.405731
  N      2.328748    1.035401   -0.405744
  H     -3.660982    0.011872   -0.030412
  H     -2.425011    2.107040    0.366944
  H      0.024663    2.108639    0.411993
  H      0.049543   -2.095901   -0.326176
  H     -2.428488   -2.099287   -0.372337
  H      1.831982    1.820505   -0.788553
  H      3.335635    1.026307   -0.429308

 Total Charge           Charge          ....    0
 Multiplicity           Mult            ....    1
 Number of Electrons    NEL             ....   64
 Basis Dimension        Dim             ....  140

ORBITAL ENERGIES
----------------

  NO   OCC          E(Eh)            E(eV)
   0   2.0000     -18.709777      -509.1189
   1   2.0000     -14.012080      -381.2881
   2   2.0000      -9.984275      -271.6859
   3   2.0000      -9.908332      -269.6194
   4   2.0000      -9.906759      -269.5766
   5   2.0000      -9.902616      -269.4639
   6   2.0000      -9.901875      -269.4437
   7   2.0000      -9.899338      -269.3747
   8   2.0000      -9.897606      -269.3275
   9   2.0000      -0.926594       -25.2139
  10   2.0000      -0.821739       -22.3607
  11   2.0000      -0.784181       -21.3386
  12   2.0000      -0.688422       -18.7329
  13   2.0000      -0.678969       -18.4757
  14   2.0000      -0.581933       -15.8352
  15   2.0000      -0.551771       -15.0145
  16   2.0000      -0.526059       -14.3148
  17   2.0000      -0.505964       -13.7680
  18   2.0000      -0.469262       -12.7693
  19   2.0000      -0.427394       -11.6300
  20   2.0000      -0.411572       -11.1994
  21   2.0000      -0.392574       -10.6825
  22   2.0000      -0.383298       -10.4301
  23   2.0000      -0.366704        -9.9785
  24   2.0000      -0.348689        -9.4883
  25   2.0000      -0.331955        -9.0330
  26   2.0000      -0.317347        -8.6354
  27   2.0000      -0.307089        -8.3563
  28   2.0000      -0.239744        -6.5238
  29   2.0000      -0.238075        -6.4784
  30   2.0000      -0.228250        -6.2110
  31   2.0000      -0.196604        -5.3499
  32   0.0000      -0.062803        -1.7090
  33   0.0000      -0.043793        -1.1917
  34   0.0000       0.022703         0.6178
  35   0.0000       0.027617         0.7515
  36   0.0000       0.049404         1.3444

MULLIKEN ATOMIC CHARGES
-----------------------
   0 C :   -0.043348
   1 C :   -0.050431
   2 C :   -0.121056
   3 C :    0.048479
   4 C :   -0.089227
   5 C :   -0.043289
   6 C :    0.074793
   7 O :   -0.213257
   8 N :   -0.305789
   9 H :    0.058687
  10 H :    0.055069
  11 H :    0.040214
  12 H :    0.064624
  13 H :    0.059255
  14 H :    0.231642
  15 H :    0.233634
Sum of atomic charges:   -0.0000000

LOEWDIN ATOMIC CHARGES
----------------------
   0 C :   -0.114530
   1 C :   -0.120458
   2 C :   -0.123526
   3 C :   -0.067311
   4 C :   -0.090040
   5 C :   -0.117458
   6 C :    0.021717
   7 O :   -0.205157
   8 N :   -0.283777
   9 H :    0.125740
  10 H :    0.125009
  11 H :    0.119310
  12 H :    0.135124
  13 H :    0.126882
  14 H :    0.232331
  15 H :    0.236144

  Mayer bond orders larger than 0.100000
B(  0-C ,  1-C ) :   1.3873 B(  0-C ,  5-C ) :   1.3661 B(  0-C ,  9-H ) :   0.9651
B(  1-C ,  2-C ) :   1.3847 B(  1-C , 10-H ) :   0.9623 B(  2-C ,  3-C ) :   1.3564
B(  2-C , 11-H ) :   0.9545 B(  3-C ,  4-C ) :   1.4018 B(  3-C ,  6-C ) :   0.9005
B(  4-C ,  5-C ) :   1.3576 B(  4-C , 12-H ) :   0.9603 B(  5-C , 13-H ) :   0.9666
B(  6-C ,  7-O ) :   2.1056 B(  6-C ,  8-N ) :   1.2956 B(  8-N , 14-H ) :   0.8626
B(  8-N , 15-H ) :   0.8638

Dispersion correction           -0.016689027
FINAL SINGLE POINT ENERGY      -400.106515249989

DIPOLE MOMENT
-------------

Method             : SCF
Type of density    : Electron Density
Multiplicity       :   1
Irrep              :   0
Energy             :  -400.1544514065609519 Eh
Relativity type    :
Basis              : AO
                                X                 Y                 Z
Electronic contribution:      2.582397482      -1.467522735       0.530756504
Nuclear contribution   :     -3.023548716       2.691111344      -1.091863859
                        -----------------------------------------
Total Dipole Moment    :     -0.441151233       1.223588610      -0.561107355
                        -----------------------------------------
Magnitude (a.u.)       :      1.416553903
Magnitude (Debye)      :      3.600593877

Rotational constants in cm-1:             0.128719             0.040660             0.031870
Rotational constants in MHz :          3858.894236          1218.952522           955.443330

                             ****ORCA TERMINATED NORMALLY****
TOTAL RUN TIME: 0 days 0 hours 0 minutes 11 seconds 285 msec
