                         Program Version 6.0.0  -   RELEASE  -
|  1> ! pbe def2-sv(p) def2/J RI DEFGRID1 loosescf d4 GCP(DFT/SV(P)) printgap
|  2> %output
|  3>     printlevel normal
|  4> end
|  5> * xyz 0 1
|  6> C 1.5710328513 -0.0342078185 0.5637419466
|  7> C 0.6723217115 0.3645108108 -0.6016233291
|  8> C -0.6722762456 -0.3644820258 -0.601619455
|  9> C -1.5710694991 0.0341811608 0.563734066
| 10> H 2.5387794829 0.4542140641 0.4771241373
| 11> H 1.1297326512 0.2555507851 1.5134785458
| 12> H 1.7288906956 -1.1105633486 0.5700520593
| 13> H 0.4958986992 1.4421606176 -0.5714355521
| 14> H 1.189428277 0.1406039187 -1.5377855701
| 15> H -1.1893526245 -0.140526338 -1.5377850602
| 16> H -0.4958898427 -1.4421368401 -0.5714969422
| 17> H -2.5387511817 -0.4544039471 0.4771661959
| 18> H -1.7291102671 1.110534373 0.5700286075
| 19> H -1.1297309682 -0.2554586325 1.5134989905
| 20> *
| 21>
| 22>                          ****END OF INPUT****

CARTESIAN COORDINATES (ANGSTROEM)
---------------------------------
  C      1.571033   -0.034208    0.563742
  C      0.672322    0.364511   -0.601623
  C     -0.672276   -0.364482   -0.601619
  C     -1.571069    0.034181    0.563734
  H      2.538779    0.454214    0.477124
  H      1.129733    0.255551    1.513479
  H      1.728891   -1.110563    0.570052
  H      0.495899    1.442161   -0.571436
  H      1.189428    0.140604   -1.537786
  H     -1.189353   -0.140526   -1.537785
  H     -0.495890   -1.442137   -0.571497
  H     -2.538751   -0.454404    0.477166
  H     -1.729110    1.110534    0.570029
  H     -1.129731   -0.255459    1.513499

 Total Charge           Charge          ....    0
 Multiplicity           Mult            ....    1
 Number of Electrons    NEL             ....   34
 Basis Dimension        Dim             ....   76

ORBITAL ENERGIES
----------------

  NO   OCC          E(Eh)            E(eV)
   0   2.0000      -9.878709      -268.8133
   1   2.0000      -9.878681      -268.8126
   2   2.0000      -9.869421      -268.5606
   3   2.0000      -9.869378      -268.5594
   4   2.0000      -0.713708       -19.4210
   5   2.0000      -0.642643       -17.4872
   6   2.0000      -0.567503       -15.4425
   7   2.0000      -0.499965       -13.6048
   8   2.0000      -0.407447       -11.0872
   9   2.0000      -0.406034       -11.0487
  10   2.0000      -0.370667       -10.0864
  11   2.0000      -0.336594        -9.1592
  12   2.0000      -0.336237        -9.1495
  13   2.0000      -0.314707        -8.5636
  14   2.0000      -0.282610        -7.6902
  15   2.0000      -0.277973        -7.5640
  16   2.0000      -0.277175        -7.5423
  17   0.0000       0.038128         1.0375
  18   0.0000       0.074012         2.0140
  19   0.0000       0.076055         2.0696
  20   0.0000       0.084447         2.2979
  21   0.0000       0.109668         2.9842

MULLIKEN ATOMIC CHARGES
-----------------------
   0 C :   -0.290153
   1 C :   -0.181340
   2 C :   -0.181345
   3 C :   -0.290176
   4 H :    0.102100
   5 H :    0.105119
   6 H :    0.096859
   7 H :    0.082882
   8 H :    0.084541
   9 H :    0.084539
  10 H :    0.082883
  11 H :    0.102105
  12 H :    0.096866
  13 H :    0.105119
Sum of atomic charges:   -0.0000000

LOEWDIN ATOMIC CHARGES
----------------------
   0 C :   -0.343367
   1 C :   -0.235366
   2 C :   -0.235366
   3 C :   -0.343365
   4 H :    0.119069
   5 H :    0.116309
   6 H :    0.116399
   7 H :    0.112744
   8 H :    0.114213
   9 H :    0.114212
  10 H :    0.112743
  11 H :    0.119070
  12 H :    0.116398
  13 H :    0.116306

  Mayer bond orders larger than 0.100000
B(  0-C ,  1-C ) :   1.1510 B(  0-C ,  4-H ) :   0.9525 B(  0-C ,  5-H ) :   0.9526
B(  0-C ,  6-H ) :   0.9554 B(  1-C ,  2-C ) :   1.1232 B(  1-C ,  7-H ) :   0.9289
B(  1-C ,  8-H ) :   0.9291 B(  2-C ,  3-C ) :   1.1510 B(  2-C ,  9-H ) :   0.9291
B(  2-C , 10-H ) :   0.9289 B(  3-C , 11-H ) :   0.9525 B(  3-C , 12-H ) :   0.9554
B(  3-C , 13-H ) :   0.9526

Dispersion correction           -0.008202545
FINAL SINGLE POINT ENERGY      -158.023551599975

DIPOLE MOMENT
-------------

Method             : SCF
Type of density    : Electron Density
Multiplicity       :   1
Irrep              :   0
Energy             :  -158.0714135397753637 Eh
Relativity type    :
Basis              : AO
                                X                 Y                 Z
Electronic contribution:      0.000100740       0.000022639      -0.868189436
Nuclear contribution   :     -0.000098581      -0.000023781       0.847022868
                        -----------------------------------------
Total Dipole Moment    :      0.000002159      -0.000001142      -0.021166568
                        -----------------------------------------
Magnitude (a.u.)       :      0.021166568
Magnitude (Debye)      :      0.053801140

Rotational constants in cm-1:             0.448003             0.159673             0.137142
Rotational constants in MHz :         13430.795282          4786.864163          4111.405485

                             ****ORCA TERMINATED NORMALLY****
TOTAL RUN TIME: 0 days 0 hours 0 minutes 5 seconds 305 msec
