                         Program Version 6.0.0  -   RELEASE  -
|  1> ! pbe def2-sv(p) def2/J RI DEFGRID1 loosescf d4 GCP(DFT/SV(P)) printgap
|  2> %output
|  3>     printlevel normal
|  4> end
|  5> * xyz 0 1
|  6> C -1.1325280293 -1.3313164524 -0.4992479128
|  7> C -0.6802820269 -0.2002747023 0.427481703
|  8> C -1.5481825312 1.0371853611 0.2866373699
|  9> N 0.7115570296 0.095026407 0.0507574085
| 10> O 0.9264143286 0.9371567318 -0.7932649326
| 11> O 1.5836898881 -0.5638654815 0.5845363837
| 12> H -1.1260420607 -0.9944882528 -1.5332654828
| 13> H -0.4753613388 -2.1922169655 -0.4006998392
| 14> H -2.1415047865 -1.6287210408 -0.2324538769
| 15> H -0.6437811011 -0.5611417539 1.4587109768
| 16> H -1.1975989526 1.8318212986 0.9401542893
| 17> H -2.5708092242 0.7912345356 0.5529005992
| 18> H -1.5267688118 1.399000882 -0.7378956036
| 19> *
| 20>
| 21>                          ****END OF INPUT****

CARTESIAN COORDINATES (ANGSTROEM)
---------------------------------
  C     -1.132528   -1.331316   -0.499248
  C     -0.680282   -0.200275    0.427482
  C     -1.548183    1.037185    0.286637
  N      0.711557    0.095026    0.050757
  O      0.926414    0.937157   -0.793265
  O      1.583690   -0.563865    0.584536
  H     -1.126042   -0.994488   -1.533265
  H     -0.475361   -2.192217   -0.400700
  H     -2.141505   -1.628721   -0.232454
  H     -0.643781   -0.561142    1.458711
  H     -1.197599    1.831821    0.940154
  H     -2.570809    0.791235    0.552901
  H     -1.526769    1.399001   -0.737896

 Total Charge           Charge          ....    0
 Multiplicity           Mult            ....    1
 Number of Electrons    NEL             ....   48
 Basis Dimension        Dim             ....   98

ORBITAL ENERGIES
----------------

  NO   OCC          E(Eh)            E(eV)
   0   2.0000     -18.778042      -510.9765
   1   2.0000     -18.772160      -510.8164
   2   2.0000     -14.203181      -386.4882
   3   2.0000      -9.956183      -270.9215
   4   2.0000      -9.905564      -269.5441
   5   2.0000      -9.898414      -269.3495
   6   2.0000      -1.130974       -30.7754
   7   2.0000      -0.959789       -26.1172
   8   2.0000      -0.776725       -21.1358
   9   2.0000      -0.643925       -17.5221
  10   2.0000      -0.635050       -17.2806
  11   2.0000      -0.512553       -13.9473
  12   2.0000      -0.491510       -13.3747
  13   2.0000      -0.474759       -12.9189
  14   2.0000      -0.448793       -12.2123
  15   2.0000      -0.420848       -11.4519
  16   2.0000      -0.381799       -10.3893
  17   2.0000      -0.374860       -10.2005
  18   2.0000      -0.365631        -9.9493
  19   2.0000      -0.332969        -9.0606
  20   2.0000      -0.328795        -8.9470
  21   2.0000      -0.270283        -7.3548
  22   2.0000      -0.250242        -6.8094
  23   2.0000      -0.230246        -6.2653
  24   0.0000      -0.092051        -2.5048
  25   0.0000       0.028106         0.7648
  26   0.0000       0.064949         1.7674
  27   0.0000       0.075461         2.0534
  28   0.0000       0.079381         2.1601

MULLIKEN ATOMIC CHARGES
-----------------------
   0 C :   -0.248588
   1 C :   -0.102624
   2 C :   -0.243520
   3 N :    0.193940
   4 O :   -0.214003
   5 O :   -0.219530
   6 H :    0.120559
   7 H :    0.127855
   8 H :    0.123327
   9 H :    0.103792
  10 H :    0.121878
  11 H :    0.111678
  12 H :    0.125235
Sum of atomic charges:    0.0000000

LOEWDIN ATOMIC CHARGES
----------------------
   0 C :   -0.327585
   1 C :   -0.122355
   2 C :   -0.341009
   3 N :    0.242788
   4 O :   -0.183170
   5 O :   -0.190052
   6 H :    0.130753
   7 H :    0.131480
   8 H :    0.132984
   9 H :    0.132875
  10 H :    0.129978
  11 H :    0.130309
  12 H :    0.133003

  Mayer bond orders larger than 0.100000
B(  0-C ,  1-C ) :   1.1106 B(  0-C ,  6-H ) :   0.9401 B(  0-C ,  7-H ) :   0.9417
B(  0-C ,  8-H ) :   0.9487 B(  1-C ,  2-C ) :   1.1051 B(  1-C ,  3-N ) :   0.8546
B(  1-C ,  9-H ) :   0.8999 B(  2-C , 10-H ) :   0.9474 B(  2-C , 11-H ) :   0.9385
B(  2-C , 12-H ) :   0.9305 B(  3-N ,  4-O ) :   1.5518 B(  3-N ,  5-O ) :   1.5430
B(  4-O ,  5-O ) :   0.3090

Dispersion correction           -0.009139311
FINAL SINGLE POINT ENERGY      -322.973235328798

DIPOLE MOMENT
-------------

Method             : SCF
Type of density    : Electron Density
Multiplicity       :   1
Irrep              :   0
Energy             :  -323.0236787852459202 Eh
Relativity type    :
Basis              : AO
                                X                 Y                 Z
Electronic contribution:      7.726828593       1.012535353       0.205227042
Nuclear contribution   :     -9.042089670      -1.264701827       0.041698230
                        -----------------------------------------
Total Dipole Moment    :     -1.315261078      -0.252166474       0.246925272
                        -----------------------------------------
Magnitude (a.u.)       :      1.361789897
Magnitude (Debye)      :      3.461394836

Rotational constants in cm-1:             0.173848             0.108310             0.085659
Rotational constants in MHz :          5211.827286          3247.052325          2567.982727

                             ****ORCA TERMINATED NORMALLY****
TOTAL RUN TIME: 0 days 0 hours 0 minutes 6 seconds 317 msec
