                         Program Version 6.0.0  -   RELEASE  -
|  1> ! r2scan-3c def2/J RI DEFGRID2 scfconv6 printgap
|  2> %output
|  3>     printlevel normal
|  4> end
|  5> * xyz 0 1
|  6> C 1.678230645 1.422031105 -1.0833297809
|  7> C 3.0514018827 1.5411165363 -1.1855788472
|  8> C 3.8761180539 0.7438945371 -0.4065943762
|  9> C 3.316005764 -0.1696744896 0.479974269
| 10> C 1.9411741121 -0.2943708202 0.5777709105
| 11> C 1.1114159857 0.4969935158 -0.2100967378
| 12> C -0.3555359011 0.3772339738 -0.1128411964
| 13> C -1.1211730673 1.5193122536 0.1014202988
| 14> C -2.4993719449 1.4441952985 0.2026478491
| 15> C -3.1482012479 0.2170310272 0.0827085278
| 16> C -2.3938723242 -0.9309911026 -0.1484052867
| 17> C -1.0062052157 -0.8519266056 -0.2448155054
| 18> Cl -0.1205356315 -2.2911445791 -0.5869110257
| 19> Cl -3.1888234631 -2.4492167305 -0.3194775454
| 20> Cl -4.8617067573 0.1120373411 0.2102226975
| 21> Cl -3.4233914899 2.8694371604 0.4801698562
| 22> Cl 4.3358384453 -1.1619919478 1.4709158179
| 23> Cl 5.5967413832 0.8887112658 -0.5362142534
| 24> H 1.0410489203 2.0350972321 -1.6990392786
| 25> H 3.4936557281 2.2484514187 -1.8671853616
| 26> H 1.5249178891 -0.995405317 1.2817626908
| 27> H -0.6327421796 2.4739639984 0.2076976701
| 28> *
| 29>
| 30>                          ****END OF INPUT****

CARTESIAN COORDINATES (ANGSTROEM)
---------------------------------
  C      1.678231    1.422031   -1.083330
  C      3.051402    1.541117   -1.185579
  C      3.876118    0.743895   -0.406594
  C      3.316006   -0.169674    0.479974
  C      1.941174   -0.294371    0.577771
  C      1.111416    0.496994   -0.210097
  C     -0.355536    0.377234   -0.112841
  C     -1.121173    1.519312    0.101420
  C     -2.499372    1.444195    0.202648
  C     -3.148201    0.217031    0.082709
  C     -2.393872   -0.930991   -0.148405
  C     -1.006205   -0.851927   -0.244816
  Cl    -0.120536   -2.291145   -0.586911
  Cl    -3.188823   -2.449217   -0.319478
  Cl    -4.861707    0.112037    0.210223
  Cl    -3.423391    2.869437    0.480170
  Cl     4.335838   -1.161992    1.470916
  Cl     5.596741    0.888711   -0.536214
  H      1.041049    2.035097   -1.699039
  H      3.493656    2.248451   -1.867185
  H      1.524918   -0.995405    1.281763
  H     -0.632742    2.473964    0.207698

 Total Charge           Charge          ....    0
 Multiplicity           Mult            ....    1
 Number of Electrons    NEL             ....  178
 Basis Dimension        Dim             ....  410

ORBITAL ENERGIES
----------------

  NO   OCC          E(Eh)            E(eV)
   0   2.0000    -101.245288     -2755.0243
   1   2.0000    -101.244898     -2755.0137
   2   2.0000    -101.244357     -2754.9990
   3   2.0000    -101.243794     -2754.9837
   4   2.0000    -101.236155     -2754.7758
   5   2.0000    -101.235159     -2754.7487
   6   2.0000     -10.140930      -275.9487
   7   2.0000     -10.139504      -275.9099
   8   2.0000     -10.136273      -275.8220
   9   2.0000     -10.135599      -275.8037
  10   2.0000     -10.125803      -275.5371
  11   2.0000     -10.125361      -275.5251
  12   2.0000     -10.095115      -274.7020
  13   2.0000     -10.082889      -274.3694
  14   2.0000     -10.081123      -274.3213
  15   2.0000     -10.072277      -274.0806
  16   2.0000     -10.071864      -274.0693
  17   2.0000     -10.069051      -273.9928
  18   2.0000      -9.400894      -255.8113
  19   2.0000      -9.400560      -255.8023
  20   2.0000      -9.400154      -255.7912
  21   2.0000      -9.399695      -255.7787
  22   2.0000      -9.391832      -255.5647
  23   2.0000      -9.390807      -255.5368
  24   2.0000      -7.147631      -194.4969
  25   2.0000      -7.147280      -194.4874
  26   2.0000      -7.146678      -194.4710
  27   2.0000      -7.146265      -194.4598
  28   2.0000      -7.138303      -194.2431
  29   2.0000      -7.137308      -194.2160
  30   2.0000      -7.137212      -194.2134
  31   2.0000      -7.136900      -194.2049
  32   2.0000      -7.136415      -194.1917
  33   2.0000      -7.136132      -194.1840
  34   2.0000      -7.136031      -194.1813
  35   2.0000      -7.135782      -194.1745
  36   2.0000      -7.135638      -194.1706
  37   2.0000      -7.135017      -194.1537
  38   2.0000      -7.128149      -193.9668
  39   2.0000      -7.127349      -193.9450
  40   2.0000      -7.127091      -193.9380
  41   2.0000      -7.126340      -193.9176
  42   2.0000      -0.929814       -25.3015
  43   2.0000      -0.901682       -24.5360
  44   2.0000      -0.883499       -24.0412
  45   2.0000      -0.864097       -23.5133
  46   2.0000      -0.836772       -22.7697
  47   2.0000      -0.834750       -22.7147
  48   2.0000      -0.827828       -22.5263
  49   2.0000      -0.809488       -22.0273
  50   2.0000      -0.755507       -20.5584
  51   2.0000      -0.735579       -20.0161
  52   2.0000      -0.717226       -19.5167
  53   2.0000      -0.701555       -19.0903
  54   2.0000      -0.625905       -17.0317
  55   2.0000      -0.618476       -16.8296
  56   2.0000      -0.599084       -16.3019
  57   2.0000      -0.574608       -15.6359
  58   2.0000      -0.522390       -14.2149
  59   2.0000      -0.514778       -14.0078
  60   2.0000      -0.495860       -13.4930
  61   2.0000      -0.478393       -13.0177
  62   2.0000      -0.469252       -12.7690
  63   2.0000      -0.454253       -12.3609
  64   2.0000      -0.443351       -12.0642
  65   2.0000      -0.436526       -11.8785
  66   2.0000      -0.436057       -11.8657
  67   2.0000      -0.427463       -11.6319
  68   2.0000      -0.411516       -11.1979
  69   2.0000      -0.406665       -11.0659
  70   2.0000      -0.394385       -10.7318
  71   2.0000      -0.378320       -10.2946
  72   2.0000      -0.370437       -10.0801
  73   2.0000      -0.367015        -9.9870
  74   2.0000      -0.354650        -9.6505
  75   2.0000      -0.335605        -9.1323
  76   2.0000      -0.332293        -9.0421
  77   2.0000      -0.326596        -8.8871
  78   2.0000      -0.324647        -8.8341
  79   2.0000      -0.319740        -8.7006
  80   2.0000      -0.310858        -8.4589
  81   2.0000      -0.307719        -8.3735
  82   2.0000      -0.304413        -8.2835
  83   2.0000      -0.288741        -7.8570
  84   2.0000      -0.284873        -7.7518
  85   2.0000      -0.262787        -7.1508
  86   2.0000      -0.252867        -6.8809
  87   2.0000      -0.246594        -6.7102
  88   2.0000      -0.234652        -6.3852
  89   0.0000      -0.090701        -2.4681
  90   0.0000      -0.077183        -2.1003
  91   0.0000      -0.066882        -1.8200
  92   0.0000      -0.060261        -1.6398
  93   0.0000      -0.049191        -1.3386

MULLIKEN ATOMIC CHARGES
-----------------------
   0 C :   -0.174683
   1 C :   -0.229429
   2 C :    0.151836
   3 C :    0.070545
   4 C :   -0.223379
   5 C :    0.148360
   6 C :    0.179100
   7 C :   -0.326841
   8 C :    0.119859
   9 C :    0.078860
  10 C :    0.037455
  11 C :   -0.011727
  12 Cl:   -0.062758
  13 Cl:   -0.064286
  14 Cl:   -0.063413
  15 Cl:   -0.091250
  16 Cl:   -0.107354
  17 Cl:   -0.105773
  18 H :    0.159583
  19 H :    0.164589
  20 H :    0.176162
  21 H :    0.174543
Sum of atomic charges:   -0.0000000

LOEWDIN ATOMIC CHARGES
----------------------
   0 C :   -0.135532
   1 C :   -0.155209
   2 C :   -0.176800
   3 C :   -0.174700
   4 C :   -0.143276
   5 C :   -0.074721
   6 C :   -0.069150
   7 C :   -0.142711
   8 C :   -0.178006
   9 C :   -0.193735
  10 C :   -0.186607
  11 C :   -0.162633
  12 Cl:    0.194812
  13 Cl:    0.185724
  14 Cl:    0.185382
  15 Cl:    0.170551
  16 Cl:    0.155133
  17 Cl:    0.156270
  18 H :    0.180451
  19 H :    0.183101
  20 H :    0.189763
  21 H :    0.191893

  Mayer bond orders larger than 0.100000
B(  0-C ,  1-C ) :   1.3923 B(  0-C ,  5-C ) :   1.3731 B(  0-C , 18-H ) :   0.9438
B(  1-C ,  2-C ) :   1.3446 B(  1-C , 19-H ) :   0.9451 B(  2-C ,  3-C ) :   1.2848
B(  2-C , 17-Cl) :   1.0448 B(  3-C ,  4-C ) :   1.3582 B(  3-C , 16-Cl) :   1.0605
B(  4-C ,  5-C ) :   1.3696 B(  4-C , 20-H ) :   0.9233 B(  5-C ,  6-C ) :   0.7665
B(  6-C ,  7-C ) :   1.3626 B(  6-C , 11-C ) :   1.2537 B(  7-C ,  8-C ) :   1.3192
B(  7-C , 21-H ) :   0.9247 B(  8-C ,  9-C ) :   1.2154 B(  8-C , 15-Cl) :   1.0776
B(  9-C , 10-C ) :   1.0974 B(  9-C , 14-Cl) :   1.2460 B( 10-C , 11-C ) :   1.1031
B( 10-C , 13-Cl) :   1.2680 B( 11-C , 12-Cl) :   1.2885

Dispersion correction           -0.014323032
FINAL SINGLE POINT ENERGY     -3220.642408906590

DIPOLE MOMENT
-------------

Method             : SCF
Type of density    : Electron Density
Multiplicity       :   1
Irrep              :   0
Energy             : -3220.6402380095669287 Eh
Relativity type    :
Basis              : AO
                                X                 Y                 Z
Electronic contribution:     -7.397493043      -7.553274863       2.648714232
Nuclear contribution   :      7.321962008       8.133470413      -2.913025682
                        -----------------------------------------
Total Dipole Moment    :     -0.075531036       0.580195551      -0.264311450
                        -----------------------------------------
Magnitude (a.u.)       :      0.642022084
Magnitude (Debye)      :      1.631890450

Rotational constants in cm-1:             0.015549             0.003848             0.003280
Rotational constants in MHz :           466.159206           115.375074            98.341073

                             ****ORCA TERMINATED NORMALLY****
TOTAL RUN TIME: 0 days 0 hours 1 minutes 11 seconds 723 msec
