                         Program Version 6.0.0  -   RELEASE  -
|  1> ! r2scan-3c def2/J RI DEFGRID2 scfconv6 printgap
|  2> %output
|  3>     printlevel normal
|  4> end
|  5> %cpcm
|  6>     smd true
|  7>     smdsolvent "water"
|  8> end
|  9> * xyz 0 1
| 10> C 1.678230645 1.422031105 -1.0833297809
| 11> C 3.0514018827 1.5411165363 -1.1855788472
| 12> C 3.8761180539 0.7438945371 -0.4065943762
| 13> C 3.316005764 -0.1696744896 0.479974269
| 14> C 1.9411741121 -0.2943708202 0.5777709105
| 15> C 1.1114159857 0.4969935158 -0.2100967378
| 16> C -0.3555359011 0.3772339738 -0.1128411964
| 17> C -1.1211730673 1.5193122536 0.1014202988
| 18> C -2.4993719449 1.4441952985 0.2026478491
| 19> C -3.1482012479 0.2170310272 0.0827085278
| 20> C -2.3938723242 -0.9309911026 -0.1484052867
| 21> C -1.0062052157 -0.8519266056 -0.2448155054
| 22> Cl -0.1205356315 -2.2911445791 -0.5869110257
| 23> Cl -3.1888234631 -2.4492167305 -0.3194775454
| 24> Cl -4.8617067573 0.1120373411 0.2102226975
| 25> Cl -3.4233914899 2.8694371604 0.4801698562
| 26> Cl 4.3358384453 -1.1619919478 1.4709158179
| 27> Cl 5.5967413832 0.8887112658 -0.5362142534
| 28> H 1.0410489203 2.0350972321 -1.6990392786
| 29> H 3.4936557281 2.2484514187 -1.8671853616
| 30> H 1.5249178891 -0.995405317 1.2817626908
| 31> H -0.6327421796 2.4739639984 0.2076976701
| 32> *
| 33>
| 34>                          ****END OF INPUT****

CARTESIAN COORDINATES (ANGSTROEM)
---------------------------------
  C      1.678231    1.422031   -1.083330
  C      3.051402    1.541117   -1.185579
  C      3.876118    0.743895   -0.406594
  C      3.316006   -0.169674    0.479974
  C      1.941174   -0.294371    0.577771
  C      1.111416    0.496994   -0.210097
  C     -0.355536    0.377234   -0.112841
  C     -1.121173    1.519312    0.101420
  C     -2.499372    1.444195    0.202648
  C     -3.148201    0.217031    0.082709
  C     -2.393872   -0.930991   -0.148405
  C     -1.006205   -0.851927   -0.244816
  Cl    -0.120536   -2.291145   -0.586911
  Cl    -3.188823   -2.449217   -0.319478
  Cl    -4.861707    0.112037    0.210223
  Cl    -3.423391    2.869437    0.480170
  Cl     4.335838   -1.161992    1.470916
  Cl     5.596741    0.888711   -0.536214
  H      1.041049    2.035097   -1.699039
  H      3.493656    2.248451   -1.867185
  H      1.524918   -0.995405    1.281763
  H     -0.632742    2.473964    0.207698

 Total Charge           Charge          ....    0
 Multiplicity           Mult            ....    1
 Number of Electrons    NEL             ....  178
 Basis Dimension        Dim             ....  410

ORBITAL ENERGIES
----------------

  NO   OCC          E(Eh)            E(eV)
   0   2.0000    -101.242639     -2754.9523
   1   2.0000    -101.242190     -2754.9400
   2   2.0000    -101.239002     -2754.8533
   3   2.0000    -101.238820     -2754.8484
   4   2.0000    -101.233259     -2754.6970
   5   2.0000    -101.232866     -2754.6863
   6   2.0000     -10.133906      -275.7576
   7   2.0000     -10.132604      -275.7222
   8   2.0000     -10.128369      -275.6069
   9   2.0000     -10.126954      -275.5684
  10   2.0000     -10.117737      -275.3176
  11   2.0000     -10.117218      -275.3035
  12   2.0000     -10.084832      -274.4222
  13   2.0000     -10.071349      -274.0553
  14   2.0000     -10.068477      -273.9772
  15   2.0000     -10.061015      -273.7741
  16   2.0000     -10.058253      -273.6990
  17   2.0000     -10.054205      -273.5888
  18   2.0000      -9.398375      -255.7428
  19   2.0000      -9.397980      -255.7320
  20   2.0000      -9.394911      -255.6485
  21   2.0000      -9.394828      -255.6463
  22   2.0000      -9.389121      -255.4910
  23   2.0000      -9.388704      -255.4796
  24   2.0000      -7.144992      -194.4251
  25   2.0000      -7.144587      -194.4141
  26   2.0000      -7.141342      -194.3258
  27   2.0000      -7.141309      -194.3249
  28   2.0000      -7.135439      -194.1652
  29   2.0000      -7.135051      -194.1546
  30   2.0000      -7.134704      -194.1452
  31   2.0000      -7.134320      -194.1347
  32   2.0000      -7.133697      -194.1178
  33   2.0000      -7.133288      -194.1066
  34   2.0000      -7.131210      -194.0501
  35   2.0000      -7.131174      -194.0491
  36   2.0000      -7.130428      -194.0288
  37   2.0000      -7.130208      -194.0228
  38   2.0000      -7.125489      -193.8944
  39   2.0000      -7.125031      -193.8820
  40   2.0000      -7.124704      -193.8731
  41   2.0000      -7.124311      -193.8624
  42   2.0000      -0.923004       -25.1162
  43   2.0000      -0.894922       -24.3521
  44   2.0000      -0.877827       -23.8869
  45   2.0000      -0.858098       -23.3500
  46   2.0000      -0.832680       -22.6584
  47   2.0000      -0.828812       -22.5531
  48   2.0000      -0.822738       -22.3878
  49   2.0000      -0.801838       -21.8191
  50   2.0000      -0.746948       -20.3255
  51   2.0000      -0.725502       -19.7419
  52   2.0000      -0.708724       -19.2854
  53   2.0000      -0.693469       -18.8703
  54   2.0000      -0.616954       -16.7882
  55   2.0000      -0.607457       -16.5298
  56   2.0000      -0.590060       -16.0563
  57   2.0000      -0.565005       -15.3746
  58   2.0000      -0.512874       -13.9560
  59   2.0000      -0.506015       -13.7694
  60   2.0000      -0.487923       -13.2771
  61   2.0000      -0.468062       -12.7366
  62   2.0000      -0.461501       -12.5581
  63   2.0000      -0.445627       -12.1261
  64   2.0000      -0.436256       -11.8711
  65   2.0000      -0.428419       -11.6579
  66   2.0000      -0.428143       -11.6504
  67   2.0000      -0.415147       -11.2967
  68   2.0000      -0.404611       -11.0100
  69   2.0000      -0.398756       -10.8507
  70   2.0000      -0.384639       -10.4666
  71   2.0000      -0.372198       -10.1280
  72   2.0000      -0.360842        -9.8190
  73   2.0000      -0.355414        -9.6713
  74   2.0000      -0.347079        -9.4445
  75   2.0000      -0.332463        -9.0468
  76   2.0000      -0.326300        -8.8791
  77   2.0000      -0.323803        -8.8111
  78   2.0000      -0.321705        -8.7540
  79   2.0000      -0.315462        -8.5841
  80   2.0000      -0.307683        -8.3725
  81   2.0000      -0.301326        -8.1995
  82   2.0000      -0.299834        -8.1589
  83   2.0000      -0.286700        -7.8015
  84   2.0000      -0.282108        -7.6766
  85   2.0000      -0.255804        -6.9608
  86   2.0000      -0.245214        -6.6726
  87   2.0000      -0.239396        -6.5143
  88   2.0000      -0.227342        -6.1863
  89   0.0000      -0.081529        -2.2185
  90   0.0000      -0.067810        -1.8452
  91   0.0000      -0.058219        -1.5842
  92   0.0000      -0.052435        -1.4268
  93   0.0000      -0.040397        -1.0992

MULLIKEN ATOMIC CHARGES
-----------------------
   0 C :   -0.175774
   1 C :   -0.249889
   2 C :    0.153384
   3 C :    0.060109
   4 C :   -0.222194
   5 C :    0.107862
   6 C :    0.181775
   7 C :   -0.294489
   8 C :    0.103795
   9 C :    0.091913
  10 C :    0.039744
  11 C :    0.007427
  12 Cl:   -0.082657
  13 Cl:   -0.084654
  14 Cl:   -0.083796
  15 Cl:   -0.106012
  16 Cl:   -0.130285
  17 Cl:   -0.128198
  18 H :    0.197567
  19 H :    0.199845
  20 H :    0.204595
  21 H :    0.209931
Sum of atomic charges:   -0.0000000

LOEWDIN ATOMIC CHARGES
----------------------
   0 C :   -0.122727
   1 C :   -0.152321
   2 C :   -0.183310
   3 C :   -0.182366
   4 C :   -0.143280
   5 C :   -0.074696
   6 C :   -0.060471
   7 C :   -0.125508
   8 C :   -0.177665
   9 C :   -0.193234
  10 C :   -0.186827
  11 C :   -0.158377
  12 Cl:    0.184600
  13 Cl:    0.171936
  14 Cl:    0.171687
  15 Cl:    0.160558
  16 Cl:    0.137168
  17 Cl:    0.139126
  18 H :    0.194994
  19 H :    0.195598
  20 H :    0.198872
  21 H :    0.206242

  Mayer bond orders larger than 0.100000
B(  0-C ,  1-C ) :   1.4054 B(  0-C ,  5-C ) :   1.3714 B(  0-C , 18-H ) :   0.9400
B(  1-C ,  2-C ) :   1.3165 B(  1-C , 19-H ) :   0.9430 B(  2-C ,  3-C ) :   1.2653
B(  2-C , 17-Cl) :   1.0266 B(  3-C ,  4-C ) :   1.3503 B(  3-C , 16-Cl) :   1.0466
B(  4-C ,  5-C ) :   1.3675 B(  4-C , 20-H ) :   0.9173 B(  5-C ,  6-C ) :   0.7592
B(  6-C ,  7-C ) :   1.4036 B(  6-C , 11-C ) :   1.2415 B(  7-C ,  8-C ) :   1.3232
B(  7-C , 21-H ) :   0.9079 B(  8-C ,  9-C ) :   1.2071 B(  8-C , 15-Cl) :   1.0797
B(  9-C , 10-C ) :   1.1041 B(  9-C , 14-Cl) :   1.2209 B( 10-C , 11-C ) :   1.1134
B( 10-C , 13-Cl) :   1.2438 B( 11-C , 12-Cl) :   1.2499

Dispersion correction           -0.014323032
FINAL SINGLE POINT ENERGY     -3220.644164408926

DIPOLE MOMENT
-------------

Method             : SCF
Type of density    : Electron Density
Multiplicity       :   1
Irrep              :   0
Energy             : -3220.6419935119024558 Eh
Relativity type    :
Basis              : AO
                                X                 Y                 Z
Electronic contribution:     -7.428740471      -7.103699978       2.518765433
Nuclear contribution   :      7.321962008       8.133470413      -2.913025682
                        -----------------------------------------
Total Dipole Moment    :     -0.106778464       1.029770435      -0.394260249
                        -----------------------------------------
Magnitude (a.u.)       :      1.107822158
Magnitude (Debye)      :      2.815860145

Rotational constants in cm-1:             0.015549             0.003848             0.003280
Rotational constants in MHz :           466.159206           115.375074            98.341073

                             ****ORCA TERMINATED NORMALLY****
TOTAL RUN TIME: 0 days 0 hours 1 minutes 32 seconds 928 msec
