                         Program Version 6.0.0  -   RELEASE  -
|  1> ! r2scan-3c def2/J RI DEFGRID2 scfconv6 printgap
|  2> %output
|  3>     printlevel normal
|  4> end
|  5> * xyz 0 1
|  6> C -2.5470929681 -0.67435087 -0.3808849091
|  7> C -1.1713118808 -0.318374812 0.1776911498
|  8> H -1.2417323899 -0.2849156188 1.2751431306
|  9> C -0.695264487 1.0503686495 -0.3315068513
| 10> H -0.6676784423 1.0307455904 -1.4328290433
| 11> C 0.7275250785 1.3218933924 0.1752417655
| 12> H 0.7047451821 1.4113348971 1.2731380142
| 13> C 1.646567513 0.1549459195 -0.1934281941
| 14> H 1.7329756215 0.1022836527 -1.2903565999
| 15> C 1.0240693936 -1.1618323192 0.3175458588
| 16> H 0.9929375981 -1.1293835098 1.4216983391
| 17> O -0.2629477312 -1.3303622971 -0.2131450902
| 18> O 1.7976139142 -2.2536673622 -0.0403638566
| 19> O 2.9055070088 0.3832175147 0.3883342808
| 20> O 1.1582561963 2.5318345989 -0.3985557734
| 21> O -1.5912395985 2.0312106306 0.1156506071
| 22> O -3.102539161 -1.7016236075 0.405629291
| 23> H -2.421040862 -0.9988406473 -1.4202055166
| 24> H -3.1649260808 0.2299697668 -0.3403847214
| 25> H 1.4631153735 -2.6128288902 -0.8772631749
| 26> H 3.4352717892 -0.42558728 0.3194761601
| 27> H 2.0854072309 2.6747243279 -0.1575619716
| 28> H -1.2151094167 2.9008554168 -0.0937997881
| 29> H -3.9627298449 -1.9516903235 0.0391333938
| 30> *
| 31>
| 32>                          ****END OF INPUT****

CARTESIAN COORDINATES (ANGSTROEM)
---------------------------------
  C     -2.547093   -0.674351   -0.380885
  C     -1.171312   -0.318375    0.177691
  H     -1.241732   -0.284916    1.275143
  C     -0.695264    1.050369   -0.331507
  H     -0.667678    1.030746   -1.432829
  C      0.727525    1.321893    0.175242
  H      0.704745    1.411335    1.273138
  C      1.646568    0.154946   -0.193428
  H      1.732976    0.102284   -1.290357
  C      1.024069   -1.161832    0.317546
  H      0.992938   -1.129384    1.421698
  O     -0.262948   -1.330362   -0.213145
  O      1.797614   -2.253667   -0.040364
  O      2.905507    0.383218    0.388334
  O      1.158256    2.531835   -0.398556
  O     -1.591240    2.031211    0.115651
  O     -3.102539   -1.701624    0.405629
  H     -2.421041   -0.998841   -1.420206
  H     -3.164926    0.229970   -0.340385
  H      1.463115   -2.612829   -0.877263
  H      3.435272   -0.425587    0.319476
  H      2.085407    2.674724   -0.157562
  H     -1.215109    2.900855   -0.093800
  H     -3.962730   -1.951690    0.039133

 Total Charge           Charge          ....    0
 Multiplicity           Mult            ....    1
 Number of Electrons    NEL             ....   96
 Basis Dimension        Dim             ....  318

ORBITAL ENERGIES
----------------

  NO   OCC          E(Eh)            E(eV)
   0   2.0000     -18.975244      -516.3426
   1   2.0000     -18.972795      -516.2760
   2   2.0000     -18.965861      -516.0873
   3   2.0000     -18.964047      -516.0380
   4   2.0000     -18.959878      -515.9245
   5   2.0000     -18.952321      -515.7189
   6   2.0000     -10.141944      -275.9763
   7   2.0000     -10.096251      -274.7330
   8   2.0000     -10.094262      -274.6788
   9   2.0000     -10.093329      -274.6534
  10   2.0000     -10.090100      -274.5656
  11   2.0000     -10.081015      -274.3184
  12   2.0000      -1.057991       -28.7894
  13   2.0000      -1.017041       -27.6751
  14   2.0000      -1.006292       -27.3826
  15   2.0000      -0.992815       -27.0159
  16   2.0000      -0.988327       -26.8937
  17   2.0000      -0.983025       -26.7495
  18   2.0000      -0.756108       -20.5747
  19   2.0000      -0.740364       -20.1463
  20   2.0000      -0.657644       -17.8954
  21   2.0000      -0.620786       -16.8924
  22   2.0000      -0.589272       -16.0349
  23   2.0000      -0.566818       -15.4239
  24   2.0000      -0.531596       -14.4655
  25   2.0000      -0.512625       -13.9492
  26   2.0000      -0.498163       -13.5557
  27   2.0000      -0.479804       -13.0561
  28   2.0000      -0.473464       -12.8836
  29   2.0000      -0.460828       -12.5398
  30   2.0000      -0.439091       -11.9483
  31   2.0000      -0.428192       -11.6517
  32   2.0000      -0.408814       -11.1244
  33   2.0000      -0.401148       -10.9158
  34   2.0000      -0.381292       -10.3755
  35   2.0000      -0.373277       -10.1574
  36   2.0000      -0.353530        -9.6200
  37   2.0000      -0.348021        -9.4701
  38   2.0000      -0.335747        -9.1361
  39   2.0000      -0.322742        -8.7823
  40   2.0000      -0.313745        -8.5374
  41   2.0000      -0.291329        -7.9275
  42   2.0000      -0.282710        -7.6929
  43   2.0000      -0.265531        -7.2255
  44   2.0000      -0.254367        -6.9217
  45   2.0000      -0.247067        -6.7230
  46   2.0000      -0.237717        -6.4686
  47   2.0000      -0.226456        -6.1622
  48   0.0000       0.032607         0.8873
  49   0.0000       0.049082         1.3356
  50   0.0000       0.061833         1.6826
  51   0.0000       0.079291         2.1576
  52   0.0000       0.085901         2.3375

MULLIKEN ATOMIC CHARGES
-----------------------
   0 C :   -0.239625
   1 C :   -0.087192
   2 H :    0.181810
   3 C :    0.029936
   4 H :    0.164205
   5 C :   -0.043244
   6 H :    0.171360
   7 C :    0.118588
   8 H :    0.163347
   9 C :   -0.153746
  10 H :    0.158882
  11 O :   -0.187341
  12 O :   -0.386188
  13 O :   -0.446225
  14 O :   -0.445514
  15 O :   -0.443907
  16 O :   -0.415298
  17 H :    0.132200
  18 H :    0.160456
  19 H :    0.328743
  20 H :    0.311186
  21 H :    0.315682
  22 H :    0.315962
  23 H :    0.295922
Sum of atomic charges:    0.0000000

LOEWDIN ATOMIC CHARGES
----------------------
   0 C :    0.049412
   1 C :    0.132640
   2 H :    0.195845
   3 C :    0.115939
   4 H :    0.183260
   5 C :    0.107447
   6 H :    0.186170
   7 C :    0.106237
   8 H :    0.182297
   9 C :    0.295278
  10 H :    0.193633
  11 O :   -0.671766
  12 O :   -0.498626
  13 O :   -0.578729
  14 O :   -0.577789
  15 O :   -0.582337
  16 O :   -0.600765
  17 H :    0.169681
  18 H :    0.182992
  19 H :    0.286642
  20 H :    0.283589
  21 H :    0.283900
  22 H :    0.285131
  23 H :    0.269916

  Mayer bond orders larger than 0.100000
B(  0-C ,  1-C ) :   0.9989 B(  0-C , 16-O ) :   0.9657 B(  0-C , 17-H ) :   0.9740
B(  0-C , 18-H ) :   0.9581 B(  1-C ,  2-H ) :   0.9593 B(  1-C ,  3-C ) :   0.8590
B(  1-C , 11-O ) :   0.8007 B(  3-C ,  4-H ) :   0.9599 B(  3-C ,  5-C ) :   0.8724
B(  3-C , 15-O ) :   0.8617 B(  5-C ,  6-H ) :   0.9928 B(  5-C ,  7-C ) :   0.8549
B(  5-C , 14-O ) :   0.9169 B(  7-C ,  8-H ) :   0.9510 B(  7-C ,  9-C ) :   0.7524
B(  7-C , 13-O ) :   0.8865 B(  9-C , 10-H ) :   1.0113 B(  9-C , 11-O ) :   0.9667
B(  9-C , 12-O ) :   1.0900 B( 12-O , 19-H ) :   0.8666 B( 13-O , 20-H ) :   0.8764
B( 14-O , 21-H ) :   0.8788 B( 15-O , 22-H ) :   0.8774 B( 16-O , 23-H ) :   0.8972

Dispersion correction           -0.007907844
FINAL SINGLE POINT ENERGY      -687.075150640142

DIPOLE MOMENT
-------------

Method             : SCF
Type of density    : Electron Density
Multiplicity       :   1
Irrep              :   0
Energy             :  -687.0865987432889597 Eh
Relativity type    :
Basis              : AO
                                X                 Y                 Z
Electronic contribution:      2.128652540      -0.840699749       0.494787190
Nuclear contribution   :     -2.105703176       0.883107152      -1.200618383
                        -----------------------------------------
Total Dipole Moment    :      0.022949364       0.042407403      -0.705831193
                        -----------------------------------------
Magnitude (a.u.)       :      0.707476313
Magnitude (Debye)      :      1.798261878

Rotational constants in cm-1:             0.039643             0.025684             0.016349
Rotational constants in MHz :          1188.472616           769.974803           490.131864

                             ****ORCA TERMINATED NORMALLY****
TOTAL RUN TIME: 0 days 0 hours 0 minutes 47 seconds 513 msec
