                         Program Version 6.0.0  -   RELEASE  -
|  1> ! r2scan-3c def2/J RI DEFGRID2 scfconv6 printgap
|  2> %output
|  3>     printlevel normal
|  4> end
|  5> %cpcm
|  6>     smd true
|  7>     smdsolvent "water"
|  8> end
|  9> * xyz 0 1
| 10> C -2.5470929681 -0.67435087 -0.3808849091
| 11> C -1.1713118808 -0.318374812 0.1776911498
| 12> H -1.2417323899 -0.2849156188 1.2751431306
| 13> C -0.695264487 1.0503686495 -0.3315068513
| 14> H -0.6676784423 1.0307455904 -1.4328290433
| 15> C 0.7275250785 1.3218933924 0.1752417655
| 16> H 0.7047451821 1.4113348971 1.2731380142
| 17> C 1.646567513 0.1549459195 -0.1934281941
| 18> H 1.7329756215 0.1022836527 -1.2903565999
| 19> C 1.0240693936 -1.1618323192 0.3175458588
| 20> H 0.9929375981 -1.1293835098 1.4216983391
| 21> O -0.2629477312 -1.3303622971 -0.2131450902
| 22> O 1.7976139142 -2.2536673622 -0.0403638566
| 23> O 2.9055070088 0.3832175147 0.3883342808
| 24> O 1.1582561963 2.5318345989 -0.3985557734
| 25> O -1.5912395985 2.0312106306 0.1156506071
| 26> O -3.102539161 -1.7016236075 0.405629291
| 27> H -2.421040862 -0.9988406473 -1.4202055166
| 28> H -3.1649260808 0.2299697668 -0.3403847214
| 29> H 1.4631153735 -2.6128288902 -0.8772631749
| 30> H 3.4352717892 -0.42558728 0.3194761601
| 31> H 2.0854072309 2.6747243279 -0.1575619716
| 32> H -1.2151094167 2.9008554168 -0.0937997881
| 33> H -3.9627298449 -1.9516903235 0.0391333938
| 34> *
| 35>
| 36>                          ****END OF INPUT****

CARTESIAN COORDINATES (ANGSTROEM)
---------------------------------
  C     -2.547093   -0.674351   -0.380885
  C     -1.171312   -0.318375    0.177691
  H     -1.241732   -0.284916    1.275143
  C     -0.695264    1.050369   -0.331507
  H     -0.667678    1.030746   -1.432829
  C      0.727525    1.321893    0.175242
  H      0.704745    1.411335    1.273138
  C      1.646568    0.154946   -0.193428
  H      1.732976    0.102284   -1.290357
  C      1.024069   -1.161832    0.317546
  H      0.992938   -1.129384    1.421698
  O     -0.262948   -1.330362   -0.213145
  O      1.797614   -2.253667   -0.040364
  O      2.905507    0.383218    0.388334
  O      1.158256    2.531835   -0.398556
  O     -1.591240    2.031211    0.115651
  O     -3.102539   -1.701624    0.405629
  H     -2.421041   -0.998841   -1.420206
  H     -3.164926    0.229970   -0.340385
  H      1.463115   -2.612829   -0.877263
  H      3.435272   -0.425587    0.319476
  H      2.085407    2.674724   -0.157562
  H     -1.215109    2.900855   -0.093800
  H     -3.962730   -1.951690    0.039133

 Total Charge           Charge          ....    0
 Multiplicity           Mult            ....    1
 Number of Electrons    NEL             ....   96
 Basis Dimension        Dim             ....  318

ORBITAL ENERGIES
----------------

  NO   OCC          E(Eh)            E(eV)
   0   2.0000     -18.977613      -516.4071
   1   2.0000     -18.968728      -516.1653
   2   2.0000     -18.962452      -515.9946
   3   2.0000     -18.961581      -515.9709
   4   2.0000     -18.961347      -515.9645
   5   2.0000     -18.955705      -515.8110
   6   2.0000     -10.137038      -275.8428
   7   2.0000     -10.092887      -274.6414
   8   2.0000     -10.089809      -274.5577
   9   2.0000     -10.087286      -274.4890
  10   2.0000     -10.083686      -274.3911
  11   2.0000     -10.077005      -274.2092
  12   2.0000      -1.056751       -28.7556
  13   2.0000      -1.014846       -27.6154
  14   2.0000      -1.004668       -27.3384
  15   2.0000      -0.993463       -27.0335
  16   2.0000      -0.986671       -26.8487
  17   2.0000      -0.982206       -26.7272
  18   2.0000      -0.752360       -20.4728
  19   2.0000      -0.736323       -20.0364
  20   2.0000      -0.653432       -17.7808
  21   2.0000      -0.616395       -16.7730
  22   2.0000      -0.585533       -15.9332
  23   2.0000      -0.561937       -15.2911
  24   2.0000      -0.527602       -14.3568
  25   2.0000      -0.508270       -13.8307
  26   2.0000      -0.494314       -13.4510
  27   2.0000      -0.476640       -12.9700
  28   2.0000      -0.470005       -12.7895
  29   2.0000      -0.456172       -12.4131
  30   2.0000      -0.435655       -11.8548
  31   2.0000      -0.425536       -11.5794
  32   2.0000      -0.407586       -11.0910
  33   2.0000      -0.400518       -10.8986
  34   2.0000      -0.379359       -10.3229
  35   2.0000      -0.372831       -10.1453
  36   2.0000      -0.354991        -9.6598
  37   2.0000      -0.347140        -9.4462
  38   2.0000      -0.335807        -9.1378
  39   2.0000      -0.326554        -8.8860
  40   2.0000      -0.314038        -8.5454
  41   2.0000      -0.291588        -7.9345
  42   2.0000      -0.281853        -7.6696
  43   2.0000      -0.266020        -7.2388
  44   2.0000      -0.254673        -6.9300
  45   2.0000      -0.247661        -6.7392
  46   2.0000      -0.241242        -6.5645
  47   2.0000      -0.225649        -6.1402
  48   0.0000       0.041727         1.1355
  49   0.0000       0.061764         1.6807
  50   0.0000       0.078010         2.1228
  51   0.0000       0.090920         2.4740
  52   0.0000       0.096995         2.6394

MULLIKEN ATOMIC CHARGES
-----------------------
   0 C :   -0.243269
   1 C :   -0.072545
   2 H :    0.199094
   3 C :    0.013374
   4 H :    0.185221
   5 C :   -0.026195
   6 H :    0.185037
   7 C :    0.086751
   8 H :    0.184552
   9 C :   -0.125583
  10 H :    0.177758
  11 O :   -0.236723
  12 O :   -0.438118
  13 O :   -0.499664
  14 O :   -0.498004
  15 O :   -0.503488
  16 O :   -0.496650
  17 H :    0.160171
  18 H :    0.166254
  19 H :    0.375851
  20 H :    0.348826
  21 H :    0.352820
  22 H :    0.353133
  23 H :    0.351397
Sum of atomic charges:    0.0000000

LOEWDIN ATOMIC CHARGES
----------------------
   0 C :    0.051573
   1 C :    0.128201
   2 H :    0.201111
   3 C :    0.117327
   4 H :    0.192260
   5 C :    0.108626
   6 H :    0.193145
   7 C :    0.110064
   8 H :    0.191234
   9 C :    0.296588
  10 H :    0.202428
  11 O :   -0.691716
  12 O :   -0.515430
  13 O :   -0.596001
  14 O :   -0.597011
  15 O :   -0.606489
  16 O :   -0.633632
  17 H :    0.180141
  18 H :    0.186281
  19 H :    0.302024
  20 H :    0.296048
  21 H :    0.295931
  22 H :    0.297286
  23 H :    0.290012

  Mayer bond orders larger than 0.100000
B(  0-C ,  1-C ) :   0.9574 B(  0-C , 16-O ) :   0.9490 B(  0-C , 17-H ) :   0.9719
B(  0-C , 18-H ) :   0.9618 B(  1-C ,  2-H ) :   0.9522 B(  1-C ,  3-C ) :   0.8785
B(  1-C , 11-O ) :   0.7966 B(  3-C ,  4-H ) :   0.9553 B(  3-C ,  5-C ) :   0.8890
B(  3-C , 15-O ) :   0.8458 B(  5-C ,  6-H ) :   0.9707 B(  5-C ,  7-C ) :   0.8785
B(  5-C , 14-O ) :   0.9007 B(  7-C ,  8-H ) :   0.9515 B(  7-C ,  9-C ) :   0.7849
B(  7-C , 13-O ) :   0.8764 B(  9-C , 10-H ) :   0.9930 B(  9-C , 11-O ) :   0.9552
B(  9-C , 12-O ) :   1.0850 B( 12-O , 19-H ) :   0.8391 B( 13-O , 20-H ) :   0.8593
B( 14-O , 21-H ) :   0.8603 B( 15-O , 22-H ) :   0.8593 B( 16-O , 23-H ) :   0.8696

Dispersion correction           -0.007907844
FINAL SINGLE POINT ENERGY      -687.107547103947

DIPOLE MOMENT
-------------

Method             : SCF
Type of density    : Electron Density
Multiplicity       :   1
Irrep              :   0
Energy             :  -687.1189952070936897 Eh
Relativity type    :
Basis              : AO
                                X                 Y                 Z
Electronic contribution:      2.188943843      -0.779631361       0.201411059
Nuclear contribution   :     -2.105703176       0.883107152      -1.200618383
                        -----------------------------------------
Total Dipole Moment    :      0.083240667       0.103475791      -0.999207324
                        -----------------------------------------
Magnitude (a.u.)       :      1.007993812
Magnitude (Debye)      :      2.562116654

Rotational constants in cm-1:             0.039643             0.025684             0.016349
Rotational constants in MHz :          1188.472616           769.974803           490.131864

                             ****ORCA TERMINATED NORMALLY****
TOTAL RUN TIME: 0 days 0 hours 0 minutes 56 seconds 547 msec
