                         Program Version 6.0.0  -   RELEASE  -
|  1> ! pbe def2-sv(p) def2/J RI DEFGRID1 loosescf d4 GCP(DFT/SV(P)) printgap
|  2> %output
|  3>     printlevel normal
|  4> end
|  5> * xyz 0 1
|  6> C 3.7469241786 0.207984989 0.0696140637
|  7> C 2.2886551519 0.1738586031 -0.3778471127
|  8> H 2.2564446997 0.0098275191 -1.4611641021
|  9> C 1.5726494553 1.482079968 -0.0600511532
| 10> C 0.1275888824 1.4052636552 -0.5325219409
| 11> C -0.6773216752 0.2827796991 0.1401573782
| 12> H -0.7005214944 0.4503631529 1.2226693431
| 13> C 0.0566065643 -1.0589193212 -0.0749521538
| 14> H -0.0233273529 -1.3489291114 -1.1347468613
| 15> C 1.5377340245 -0.9560086315 0.3134087372
| 16> O -0.4291878305 -2.1036656409 0.7542823204
| 17> C -2.1280252587 0.3599535804 -0.402776238
| 18> C -2.95217184 -0.9247113595 -0.309339438
| 19> C -2.8935945908 1.4654526693 0.3294714846
| 20> H 4.2415108889 -0.7308697694 -0.1669619598
| 21> H 4.2783336793 1.0143949959 -0.4299917175
| 22> H 3.809127601 0.367520431 1.1436516958
| 23> H 1.6032655528 1.6604544807 1.0167340643
| 24> H 2.0744638204 2.3159277583 -0.5549515552
| 25> H -0.3618757897 2.3616355155 -0.3475450122
| 26> H 0.1228444412 1.2343983309 -1.6126181454
| 27> H 1.5764504384 -0.8147395148 1.3960109928
| 28> H 2.0032359737 -1.9193449162 0.0954612598
| 29> H -1.2935252986 -2.4018479923 0.4471864201
| 30> H -2.0659036504 0.6272767595 -1.4644529372
| 31> H -3.9624482328 -0.7226950966 -0.6609775945
| 32> H -3.0218204148 -1.2662944806 0.7206897984
| 33> H -2.5425777833 -1.7078751033 -0.9430929487
| 34> H -3.8767329768 1.6002128956 -0.11546803
| 35> H -2.3706841143 2.4161236049 0.2830773908
| 36> H -3.0254150858 1.1979140158 1.3758212984
| 37> *
| 38>
| 39>                          ****END OF INPUT****

CARTESIAN COORDINATES (ANGSTROEM)
---------------------------------
  C      3.746924    0.207985    0.069614
  C      2.288655    0.173859   -0.377847
  H      2.256445    0.009828   -1.461164
  C      1.572649    1.482080   -0.060051
  C      0.127589    1.405264   -0.532522
  C     -0.677322    0.282780    0.140157
  H     -0.700521    0.450363    1.222669
  C      0.056607   -1.058919   -0.074952
  H     -0.023327   -1.348929   -1.134747
  C      1.537734   -0.956009    0.313409
  O     -0.429188   -2.103666    0.754282
  C     -2.128025    0.359954   -0.402776
  C     -2.952172   -0.924711   -0.309339
  C     -2.893595    1.465453    0.329471
  H      4.241511   -0.730870   -0.166962
  H      4.278334    1.014395   -0.429992
  H      3.809128    0.367520    1.143652
  H      1.603266    1.660454    1.016734
  H      2.074464    2.315928   -0.554952
  H     -0.361876    2.361636   -0.347545
  H      0.122844    1.234398   -1.612618
  H      1.576450   -0.814740    1.396011
  H      2.003236   -1.919345    0.095461
  H     -1.293525   -2.401848    0.447186
  H     -2.065904    0.627277   -1.464453
  H     -3.962448   -0.722695   -0.660978
  H     -3.021820   -1.266294    0.720690
  H     -2.542578   -1.707875   -0.943093
  H     -3.876733    1.600213   -0.115468
  H     -2.370684    2.416124    0.283077
  H     -3.025415    1.197914    1.375821

 Total Charge           Charge          ....    0
 Multiplicity           Mult            ....    1
 Number of Electrons    NEL             ....   88
 Basis Dimension        Dim             ....  194

ORBITAL ENERGIES
----------------

  NO   OCC          E(Eh)            E(eV)
   0   2.0000     -18.733006      -509.7510
   1   2.0000      -9.931334      -270.2453
   2   2.0000      -9.897083      -269.3133
   3   2.0000      -9.888787      -269.0876
   4   2.0000      -9.887540      -269.0537
   5   2.0000      -9.882159      -268.9072
   6   2.0000      -9.880998      -268.8756
   7   2.0000      -9.877540      -268.7815
   8   2.0000      -9.873867      -268.6816
   9   2.0000      -9.872154      -268.6350
  10   2.0000      -9.868709      -268.5412
  11   2.0000      -0.911461       -24.8021
  12   2.0000      -0.757201       -20.6045
  13   2.0000      -0.725146       -19.7322
  14   2.0000      -0.671629       -18.2759
  15   2.0000      -0.653899       -17.7935
  16   2.0000      -0.615657       -16.7529
  17   2.0000      -0.601432       -16.3658
  18   2.0000      -0.537099       -14.6152
  19   2.0000      -0.532375       -14.4867
  20   2.0000      -0.503366       -13.6973
  21   2.0000      -0.497911       -13.5489
  22   2.0000      -0.452719       -12.3191
  23   2.0000      -0.426930       -11.6174
  24   2.0000      -0.409642       -11.1469
  25   2.0000      -0.396954       -10.8017
  26   2.0000      -0.392216       -10.6727
  27   2.0000      -0.382499       -10.4083
  28   2.0000      -0.367644       -10.0041
  29   2.0000      -0.353518        -9.6197
  30   2.0000      -0.351792        -9.5727
  31   2.0000      -0.344948        -9.3865
  32   2.0000      -0.334929        -9.1139
  33   2.0000      -0.324930        -8.8418
  34   2.0000      -0.312579        -8.5057
  35   2.0000      -0.302116        -8.2210
  36   2.0000      -0.297791        -8.1033
  37   2.0000      -0.294852        -8.0233
  38   2.0000      -0.283033        -7.7017
  39   2.0000      -0.280240        -7.6257
  40   2.0000      -0.272161        -7.4059
  41   2.0000      -0.261469        -7.1149
  42   2.0000      -0.248380        -6.7588
  43   2.0000      -0.206088        -5.6079
  44   0.0000       0.028584         0.7778
  45   0.0000       0.039731         1.0811
  46   0.0000       0.043095         1.1727
  47   0.0000       0.053361         1.4520
  48   0.0000       0.072257         1.9662

MULLIKEN ATOMIC CHARGES
-----------------------
   0 C :   -0.195335
   1 C :   -0.203015
   2 H :    0.059605
   3 C :   -0.074482
   4 C :   -0.136866
   5 C :   -0.122197
   6 H :    0.051897
   7 C :    0.049091
   8 H :    0.045394
   9 C :   -0.096740
  10 O :   -0.413599
  11 C :   -0.124057
  12 C :   -0.273803
  13 C :   -0.254954
  14 H :    0.095890
  15 H :    0.093630
  16 H :    0.089748
  17 H :    0.065010
  18 H :    0.074319
  19 H :    0.084793
  20 H :    0.067015
  21 H :    0.071618
  22 H :    0.081090
  23 H :    0.287789
  24 H :    0.064081
  25 H :    0.099912
  26 H :    0.106889
  27 H :    0.106748
  28 H :    0.097158
  29 H :    0.105354
  30 H :    0.098016
Sum of atomic charges:   -0.0000000

LOEWDIN ATOMIC CHARGES
----------------------
   0 C :   -0.325960
   1 C :   -0.154506
   2 H :    0.111956
   3 C :   -0.215995
   4 C :   -0.215352
   5 C :   -0.148297
   6 H :    0.117094
   7 C :   -0.043343
   8 H :    0.094434
   9 C :   -0.215433
  10 O :   -0.327851
  11 C :   -0.146370
  12 C :   -0.342378
  13 C :   -0.328038
  14 H :    0.117480
  15 H :    0.116178
  16 H :    0.117061
  17 H :    0.114407
  18 H :    0.114611
  19 H :    0.115573
  20 H :    0.113502
  21 H :    0.119586
  22 H :    0.118828
  23 H :    0.273310
  24 H :    0.114228
  25 H :    0.122094
  26 H :    0.119300
  27 H :    0.113102
  28 H :    0.116608
  29 H :    0.116063
  30 H :    0.118107

  Mayer bond orders larger than 0.100000
B(  0-C ,  1-C ) :   1.1130 B(  0-C , 14-H ) :   0.9489 B(  0-C , 15-H ) :   0.9485
B(  0-C , 16-H ) :   0.9460 B(  1-C ,  2-H ) :   0.8923 B(  1-C ,  3-C ) :   1.0865
B(  1-C ,  9-C ) :   1.0768 B(  3-C ,  4-C ) :   1.1407 B(  3-C , 17-H ) :   0.9030
B(  3-C , 18-H ) :   0.9100 B(  4-C ,  5-C ) :   1.0845 B(  4-C , 19-H ) :   0.9056
B(  4-C , 20-H ) :   0.8964 B(  5-C ,  6-H ) :   0.8670 B(  5-C ,  7-C ) :   1.0324
B(  5-C , 11-C ) :   1.0351 B(  7-C ,  8-H ) :   0.8923 B(  7-C ,  9-C ) :   1.0984
B(  7-C , 10-O ) :   1.0701 B(  9-C , 21-H ) :   0.8951 B(  9-C , 22-H ) :   0.9096
B( 10-O , 23-H ) :   0.8358 B( 11-C , 12-C ) :   1.1219 B( 11-C , 13-C ) :   1.1164
B( 11-C , 24-H ) :   0.8881 B( 12-C , 25-H ) :   0.9372 B( 12-C , 26-H ) :   0.9356
B( 12-C , 27-H ) :   0.9259 B( 13-C , 28-H ) :   0.9473 B( 13-C , 29-H ) :   0.9431
B( 13-C , 30-H ) :   0.9478

Dispersion correction           -0.031249076
FINAL SINGLE POINT ENERGY      -467.195407712073

DIPOLE MOMENT
-------------

Method             : SCF
Type of density    : Electron Density
Multiplicity       :   1
Irrep              :   0
Energy             :  -467.3084554492379539 Eh
Relativity type    :
Basis              : AO
                                X                 Y                 Z
Electronic contribution:      0.824543689      -3.799748150       0.656025833
Nuclear contribution   :     -1.206425792       4.043660569      -1.105851331
                        -----------------------------------------
Total Dipole Moment    :     -0.381882103       0.243912419      -0.449825498
                        -----------------------------------------
Magnitude (a.u.)       :      0.638490554
Magnitude (Debye)      :      1.622914013

Rotational constants in cm-1:             0.062859             0.023080             0.018118
Rotational constants in MHz :          1884.470356           691.920139           543.163356

                             ****ORCA TERMINATED NORMALLY****
TOTAL RUN TIME: 0 days 0 hours 0 minutes 14 seconds 431 msec
