                         Program Version 6.0.0  -   RELEASE  -
|  1> ! wb97x-v def2-tzvp def2/J RIJCOSX DEFGRID2 scfconv7 GCP(DFT/TZ) printgap
|  2> %output
|  3>     printlevel normal
|  4> end
|  5> * xyz 0 1
|  6> C 2.8776365438723333 -0.7482412286496087 0.11780403158758573
|  7> C 1.9992335932847065 0.4752854275958168 -0.10491719346239442
|  8> C 0.5129653193686889 0.23719437322145065 -0.04870162765377074
|  9> C -0.37144375710827016 1.3039758106791233 -0.24488148095973236
| 10> C -1.7379207966190766 1.0840564871270955 -0.19266312391767532
| 11> N -2.2947249475697333 -0.11743090452089548 0.04024302654504795
| 12> C -1.444178534593559 -1.135257783539584 0.22742522480292127
| 13> C -0.05912744013557509 -1.011590435789263 0.19316088662559264
| 14> H 3.932181282086941 -0.46519353963461313 0.05672519189908517
| 15> H 2.6944244228733814 -1.5187270739177532 -0.6380560587296796
| 16> H 2.707276828105582 -1.1920163366990024 1.103947500294738
| 17> H 2.228983586188813 0.9261084502913572 -1.0788688154928077
| 18> H 2.241842522401542 1.2476112849698568 0.6362565772323563
| 19> H 0.008299888427885324 2.3034319539906525 -0.4376148811569442
| 20> H -2.4266161515265168 1.9124786689170017 -0.3451574688159149
| 21> H -1.891737918267341 -2.1091459105827326 0.41617499802215696
| 22> H 0.5541948742282503 -1.8907366231069689 0.3555532758157999
| 23> *
| 24>
| 25>                          ****END OF INPUT****

CARTESIAN COORDINATES (ANGSTROEM)
---------------------------------
  C      2.877637   -0.748241    0.117804
  C      1.999234    0.475285   -0.104917
  C      0.512965    0.237194   -0.048702
  C     -0.371444    1.303976   -0.244881
  C     -1.737921    1.084056   -0.192663
  N     -2.294725   -0.117431    0.040243
  C     -1.444179   -1.135258    0.227425
  C     -0.059127   -1.011590    0.193161
  H      3.932181   -0.465194    0.056725
  H      2.694424   -1.518727   -0.638056
  H      2.707277   -1.192016    1.103948
  H      2.228984    0.926108   -1.078869
  H      2.241843    1.247611    0.636257
  H      0.008300    2.303432   -0.437615
  H     -2.426616    1.912479   -0.345157
  H     -1.891738   -2.109146    0.416175
  H      0.554195   -1.890737    0.355553

 Total Charge           Charge          ....    0
 Multiplicity           Mult            ....    1
 Number of Electrons    NEL             ....   58
 Basis Dimension        Dim             ....  302

ORBITAL ENERGIES
----------------

  NO   OCC          E(Eh)            E(eV)
   0   2.0000     -16.520773      -449.5531
   1   2.0000     -12.082146      -328.7719
   2   2.0000     -12.081425      -328.7523
   3   2.0000     -12.078425      -328.6707
   4   2.0000     -12.062151      -328.2278
   5   2.0000     -12.054449      -328.0182
   6   2.0000     -12.054040      -328.0071
   7   2.0000     -12.048115      -327.8459
   8   2.0000      -1.513349       -41.1803
   9   2.0000      -1.360873       -37.0312
  10   2.0000      -1.293368       -35.1943
  11   2.0000      -1.272380       -34.6232
  12   2.0000      -1.163522       -31.6610
  13   2.0000      -1.148182       -31.2436
  14   2.0000      -1.089000       -29.6332
  15   2.0000      -0.997676       -27.1481
  16   2.0000      -0.968140       -26.3444
  17   2.0000      -0.924896       -25.1677
  18   2.0000      -0.888071       -24.1656
  19   2.0000      -0.885934       -24.1075
  20   2.0000      -0.879973       -23.9453
  21   2.0000      -0.848850       -23.0984
  22   2.0000      -0.825373       -22.4596
  23   2.0000      -0.821537       -22.3552
  24   2.0000      -0.800906       -21.7937
  25   2.0000      -0.789605       -21.4862
  26   2.0000      -0.762168       -20.7397
  27   2.0000      -0.686496       -18.6805
  28   2.0000      -0.649005       -17.6603
  29   0.0000      -0.289321        -7.8728
  30   0.0000      -0.241784        -6.5793
  31   0.0000      -0.096187        -2.6174
  32   0.0000      -0.056570        -1.5394
  33   0.0000      -0.036764        -1.0004

MULLIKEN ATOMIC CHARGES
-----------------------
   0 C :   -0.366364
   1 C :   -0.153125
   2 C :    0.067486
   3 C :   -0.149821
   4 C :   -0.047422
   5 N :   -0.224233
   6 C :   -0.060479
   7 C :   -0.142615
   8 H :    0.124908
   9 H :    0.120088
  10 H :    0.119881
  11 H :    0.111932
  12 H :    0.112036
  13 H :    0.119543
  14 H :    0.119814
  15 H :    0.120340
  16 H :    0.128030
Sum of atomic charges:    0.0000000

LOEWDIN ATOMIC CHARGES
----------------------
   0 C :   -0.300058
   1 C :   -0.239565
   2 C :   -0.128145
   3 C :   -0.128468
   4 C :   -0.201063
   5 N :    0.112100
   6 C :   -0.199764
   7 C :   -0.132017
   8 H :    0.120453
   9 H :    0.119891
  10 H :    0.119861
  11 H :    0.146976
  12 H :    0.147037
  13 H :    0.146040
  14 H :    0.134815
  15 H :    0.134872
  16 H :    0.147035

  Mayer bond orders larger than 0.100000
B(  0-C ,  1-C ) :   0.9997 B(  0-C ,  8-H ) :   0.9809 B(  0-C ,  9-H ) :   0.9785
B(  0-C , 10-H ) :   0.9783 B(  1-C ,  2-C ) :   0.9625 B(  1-C , 11-H ) :   0.9625
B(  1-C , 12-H ) :   0.9621 B(  2-C ,  3-C ) :   1.3638 B(  2-C ,  7-C ) :   1.3982
B(  3-C ,  4-C ) :   1.4442 B(  3-C , 13-H ) :   0.9697 B(  4-C ,  5-N ) :   1.4860
B(  4-C , 14-H ) :   0.9892 B(  5-N ,  6-C ) :   1.5281 B(  6-C ,  7-C ) :   1.4057
B(  6-C , 15-H ) :   0.9924 B(  7-C , 16-H ) :   0.9639

FINAL SINGLE POINT ENERGY      -326.925665286024

DIPOLE MOMENT
-------------

Method             : SCF
Type of density    : Electron Density
Multiplicity       :   1
Irrep              :   0
Energy             :  -326.9354518735239026 Eh
Relativity type    :
Basis              : AO
                                X                 Y                 Z
Electronic contribution:     -8.317380860       0.888490940      -0.101623434
Nuclear contribution   :      9.467584209      -0.740596057       0.064970891
                        -----------------------------------------
Total Dipole Moment    :      1.150203348       0.147894883      -0.036652543
                        -----------------------------------------
Magnitude (a.u.)       :      1.160251718
Magnitude (Debye)      :      2.949125495

Rotational constants in cm-1:             0.168046             0.049147             0.038569
Rotational constants in MHz :          5037.889594          1473.403623          1156.261021

                             ****ORCA TERMINATED NORMALLY****
TOTAL RUN TIME: 0 days 0 hours 2 minutes 17 seconds 531 msec
