                         Program Version 6.0.0  -   RELEASE  -
|  1> ! wb97x-v def2-tzvp def2/J RIJCOSX DEFGRID2 scfconv7 GCP(DFT/TZ) printgap
|  2> %output
|  3>     printlevel normal
|  4> end
|  5> %cpcm
|  6>     smd true
|  7>     smdsolvent "water"
|  8> end
|  9> * xyz 0 1
| 10> C 2.8776365438723333 -0.7482412286496087 0.11780403158758573
| 11> C 1.9992335932847065 0.4752854275958168 -0.10491719346239442
| 12> C 0.5129653193686889 0.23719437322145065 -0.04870162765377074
| 13> C -0.37144375710827016 1.3039758106791233 -0.24488148095973236
| 14> C -1.7379207966190766 1.0840564871270955 -0.19266312391767532
| 15> N -2.2947249475697333 -0.11743090452089548 0.04024302654504795
| 16> C -1.444178534593559 -1.135257783539584 0.22742522480292127
| 17> C -0.05912744013557509 -1.011590435789263 0.19316088662559264
| 18> H 3.932181282086941 -0.46519353963461313 0.05672519189908517
| 19> H 2.6944244228733814 -1.5187270739177532 -0.6380560587296796
| 20> H 2.707276828105582 -1.1920163366990024 1.103947500294738
| 21> H 2.228983586188813 0.9261084502913572 -1.0788688154928077
| 22> H 2.241842522401542 1.2476112849698568 0.6362565772323563
| 23> H 0.008299888427885324 2.3034319539906525 -0.4376148811569442
| 24> H -2.4266161515265168 1.9124786689170017 -0.3451574688159149
| 25> H -1.891737918267341 -2.1091459105827326 0.41617499802215696
| 26> H 0.5541948742282503 -1.8907366231069689 0.3555532758157999
| 27> *
| 28>
| 29>                          ****END OF INPUT****

CARTESIAN COORDINATES (ANGSTROEM)
---------------------------------
  C      2.877637   -0.748241    0.117804
  C      1.999234    0.475285   -0.104917
  C      0.512965    0.237194   -0.048702
  C     -0.371444    1.303976   -0.244881
  C     -1.737921    1.084056   -0.192663
  N     -2.294725   -0.117431    0.040243
  C     -1.444179   -1.135258    0.227425
  C     -0.059127   -1.011590    0.193161
  H      3.932181   -0.465194    0.056725
  H      2.694424   -1.518727   -0.638056
  H      2.707277   -1.192016    1.103948
  H      2.228984    0.926108   -1.078869
  H      2.241843    1.247611    0.636257
  H      0.008300    2.303432   -0.437615
  H     -2.426616    1.912479   -0.345157
  H     -1.891738   -2.109146    0.416175
  H      0.554195   -1.890737    0.355553

 Total Charge           Charge          ....    0
 Multiplicity           Mult            ....    1
 Number of Electrons    NEL             ....   58
 Basis Dimension        Dim             ....  302

ORBITAL ENERGIES
----------------

  NO   OCC          E(Eh)            E(eV)
   0   2.0000     -16.525554      -449.6832
   1   2.0000     -12.080952      -328.7394
   2   2.0000     -12.079969      -328.7127
   3   2.0000     -12.073771      -328.5440
   4   2.0000     -12.049059      -327.8716
   5   2.0000     -12.048727      -327.8625
   6   2.0000     -12.045598      -327.7774
   7   2.0000     -12.029493      -327.3391
   8   2.0000      -1.517304       -41.2880
   9   2.0000      -1.355120       -36.8747
  10   2.0000      -1.291817       -35.1521
  11   2.0000      -1.259005       -34.2593
  12   2.0000      -1.155481       -31.4422
  13   2.0000      -1.145463       -31.1696
  14   2.0000      -1.078588       -29.3499
  15   2.0000      -0.994669       -27.0663
  16   2.0000      -0.963277       -26.2121
  17   2.0000      -0.918043       -24.9812
  18   2.0000      -0.880391       -23.9566
  19   2.0000      -0.874113       -23.7858
  20   2.0000      -0.869439       -23.6586
  21   2.0000      -0.836684       -22.7673
  22   2.0000      -0.828514       -22.5450
  23   2.0000      -0.811243       -22.0751
  24   2.0000      -0.786099       -21.3908
  25   2.0000      -0.773426       -21.0460
  26   2.0000      -0.765225       -20.8228
  27   2.0000      -0.683374       -18.5956
  28   2.0000      -0.647638       -17.6231
  29   0.0000      -0.288743        -7.8571
  30   0.0000      -0.239963        -6.5297
  31   0.0000      -0.092903        -2.5280
  32   0.0000      -0.047300        -1.2871
  33   0.0000      -0.025110        -0.6833

MULLIKEN ATOMIC CHARGES
-----------------------
   0 C :   -0.400347
   1 C :   -0.151548
   2 C :    0.056210
   3 C :   -0.194384
   4 C :   -0.059317
   5 N :   -0.306805
   6 C :   -0.069725
   7 C :   -0.187927
   8 H :    0.139990
   9 H :    0.130602
  10 H :    0.130567
  11 H :    0.129860
  12 H :    0.129964
  13 H :    0.163897
  14 H :    0.159395
  15 H :    0.159749
  16 H :    0.169818
Sum of atomic charges:    0.0000000

LOEWDIN ATOMIC CHARGES
----------------------
   0 C :   -0.302982
   1 C :   -0.234988
   2 C :   -0.123493
   3 C :   -0.124898
   4 C :   -0.213255
   5 N :    0.064498
   6 C :   -0.210804
   7 C :   -0.129652
   8 H :    0.122995
   9 H :    0.122213
  10 H :    0.122234
  11 H :    0.153273
  12 H :    0.153346
  13 H :    0.158088
  14 H :    0.142570
  15 H :    0.142739
  16 H :    0.158117

  Mayer bond orders larger than 0.100000
B(  0-C ,  1-C ) :   0.9967 B(  0-C ,  8-H ) :   0.9773 B(  0-C ,  9-H ) :   0.9756
B(  0-C , 10-H ) :   0.9755 B(  1-C ,  2-C ) :   0.9744 B(  1-C , 11-H ) :   0.9567
B(  1-C , 12-H ) :   0.9563 B(  2-C ,  3-C ) :   1.3485 B(  2-C ,  7-C ) :   1.3811
B(  3-C ,  4-C ) :   1.4704 B(  3-C , 13-H ) :   0.9686 B(  4-C ,  5-N ) :   1.4698
B(  4-C , 14-H ) :   0.9697 B(  5-N ,  6-C ) :   1.5123 B(  6-C ,  7-C ) :   1.4351
B(  6-C , 15-H ) :   0.9716 B(  7-C , 16-H ) :   0.9629

FINAL SINGLE POINT ENERGY      -326.933141247051

DIPOLE MOMENT
-------------

Method             : SCF
Type of density    : Electron Density
Multiplicity       :   1
Irrep              :   0
Energy             :  -326.9429278345514263 Eh
Relativity type    :
Basis              : AO
                                X                 Y                 Z
Electronic contribution:     -7.849981642       0.970038008      -0.120058896
Nuclear contribution   :      9.467584209      -0.740596057       0.064970891
                        -----------------------------------------
Total Dipole Moment    :      1.617602566       0.229441950      -0.055088005
                        -----------------------------------------
Magnitude (a.u.)       :      1.634722105
Magnitude (Debye)      :      4.155133376

Rotational constants in cm-1:             0.168046             0.049147             0.038569
Rotational constants in MHz :          5037.889594          1473.403623          1156.261021

                             ****ORCA TERMINATED NORMALLY****
TOTAL RUN TIME: 0 days 0 hours 2 minutes 21 seconds 981 msec
