                         Program Version 6.0.0  -   RELEASE  -
|  1> ! pbe def2-sv(p) def2/J RI DEFGRID1 loosescf d4 GCP(DFT/SV(P)) printgap
|  2> %output
|  3>     printlevel normal
|  4> end
|  5> * xyz 0 1
|  6> C -3.3708978653 -0.0251180108 -0.6716592537
|  7> C -1.8497745943 -0.0624875581 -0.5433782916
|  8> H -1.4225875487 0.1965835561 -1.5173468638
|  9> C -1.3597397837 -1.4604566915 -0.1259150166
| 10> C -0.2974229922 -1.4203069587 0.9750348576
| 11> C 0.7597330742 -0.3257026873 0.8029597743
| 12> H 1.276678664 -0.2229857687 1.7661742821
| 13> C 0.1185024769 1.0198145965 0.5553782953
| 14> O 0.7600320155 2.0507450522 0.4595468417
| 15> C -1.3799351082 1.0036512369 0.455152237
| 16> C 1.8738810396 -0.6558906735 -0.2260475339
| 17> C 1.4937949852 -0.3287871229 -1.6686400816
| 18> C 3.1620361431 0.081543747 0.1390196049
| 19> H -3.8393357433 -0.2372088684 0.2866322758
| 20> H -3.7033534237 0.9540166003 -1.0081561364
| 21> H -3.7046550758 -0.7667353997 -1.3930820095
| 22> H -2.2037673587 -2.0438462554 0.2459756007
| 23> H -0.9703816903 -1.987616713 -0.9968101087
| 24> H -0.793754224 -1.2587160811 1.9340758569
| 25> H 0.1983278242 -2.3905485304 1.0317500263
| 26> H -1.7876294339 0.7821096984 1.4435132716
| 27> H -1.7269051334 1.994008953 0.1551020725
| 28> H 2.0626067769 -1.73297369 -0.1562225596
| 29> H 0.6276200629 -0.8958213696 -1.9933275424
| 30> H 2.3233378062 -0.5737758093 -2.3283038566
| 31> H 1.2812259562 0.7332417844 -1.7751058165
| 32> H 3.943926946 -0.14299418 -0.5825122252
| 33> H 3.5119217036 -0.2115281714 1.1265026008
| 34> H 2.9891936964 1.1554224722 0.137825535
| 35> *
| 36>
| 37>                          ****END OF INPUT****

CARTESIAN COORDINATES (ANGSTROEM)
---------------------------------
  C     -3.370898   -0.025118   -0.671659
  C     -1.849775   -0.062488   -0.543378
  H     -1.422588    0.196584   -1.517347
  C     -1.359740   -1.460457   -0.125915
  C     -0.297423   -1.420307    0.975035
  C      0.759733   -0.325703    0.802960
  H      1.276679   -0.222986    1.766174
  C      0.118502    1.019815    0.555378
  O      0.760032    2.050745    0.459547
  C     -1.379935    1.003651    0.455152
  C      1.873881   -0.655891   -0.226048
  C      1.493795   -0.328787   -1.668640
  C      3.162036    0.081544    0.139020
  H     -3.839336   -0.237209    0.286632
  H     -3.703353    0.954017   -1.008156
  H     -3.704655   -0.766735   -1.393082
  H     -2.203767   -2.043846    0.245976
  H     -0.970382   -1.987617   -0.996810
  H     -0.793754   -1.258716    1.934076
  H      0.198328   -2.390549    1.031750
  H     -1.787629    0.782110    1.443513
  H     -1.726905    1.994009    0.155102
  H      2.062607   -1.732974   -0.156223
  H      0.627620   -0.895821   -1.993328
  H      2.323338   -0.573776   -2.328304
  H      1.281226    0.733242   -1.775106
  H      3.943927   -0.142994   -0.582512
  H      3.511922   -0.211528    1.126503
  H      2.989194    1.155422    0.137826

 Total Charge           Charge          ....    0
 Multiplicity           Mult            ....    1
 Number of Electrons    NEL             ....   86
 Basis Dimension        Dim             ....  190

ORBITAL ENERGIES
----------------

  NO   OCC          E(Eh)            E(eV)
   0   2.0000     -18.731848      -509.7195
   1   2.0000      -9.968786      -271.2645
   2   2.0000      -9.906911      -269.5808
   3   2.0000      -9.901583      -269.4358
   4   2.0000      -9.898181      -269.3432
   5   2.0000      -9.892052      -269.1764
   6   2.0000      -9.890504      -269.1343
   7   2.0000      -9.888868      -269.0898
   8   2.0000      -9.880165      -268.8530
   9   2.0000      -9.872830      -268.6534
  10   2.0000      -9.863500      -268.3995
  11   2.0000      -0.930477       -25.3196
  12   2.0000      -0.767727       -20.8909
  13   2.0000      -0.727926       -19.8079
  14   2.0000      -0.678887       -18.4735
  15   2.0000      -0.655353       -17.8330
  16   2.0000      -0.617945       -16.8151
  17   2.0000      -0.604595       -16.4519
  18   2.0000      -0.555440       -15.1143
  19   2.0000      -0.521781       -14.1984
  20   2.0000      -0.505017       -13.7422
  21   2.0000      -0.458784       -12.4841
  22   2.0000      -0.442521       -12.0416
  23   2.0000      -0.428853       -11.6697
  24   2.0000      -0.414016       -11.2660
  25   2.0000      -0.389305       -10.5935
  26   2.0000      -0.386829       -10.5262
  27   2.0000      -0.374047       -10.1783
  28   2.0000      -0.370485       -10.0814
  29   2.0000      -0.359770        -9.7898
  30   2.0000      -0.348021        -9.4701
  31   2.0000      -0.343105        -9.3364
  32   2.0000      -0.337115        -9.1734
  33   2.0000      -0.334234        -9.0950
  34   2.0000      -0.319067        -8.6823
  35   2.0000      -0.316576        -8.6145
  36   2.0000      -0.296106        -8.0575
  37   2.0000      -0.293589        -7.9890
  38   2.0000      -0.289742        -7.8843
  39   2.0000      -0.282589        -7.6896
  40   2.0000      -0.272390        -7.4121
  41   2.0000      -0.265601        -7.2274
  42   2.0000      -0.186577        -5.0770
  43   0.0000      -0.052016        -1.4154
  44   0.0000       0.022546         0.6135
  45   0.0000       0.040415         1.0997
  46   0.0000       0.048423         1.3177
  47   0.0000       0.067650         1.8409

MULLIKEN ATOMIC CHARGES
-----------------------
   0 C :   -0.216682
   1 C :   -0.240599
   2 H :    0.082222
   3 C :   -0.117600
   4 C :   -0.077896
   5 C :   -0.142235
   6 H :    0.093021
   7 C :   -0.002815
   8 O :   -0.160447
   9 C :   -0.052746
  10 C :   -0.153190
  11 C :   -0.261703
  12 C :   -0.248205
  13 H :    0.094174
  14 H :    0.100884
  15 H :    0.105825
  16 H :    0.075748
  17 H :    0.095374
  18 H :    0.070078
  19 H :    0.083033
  20 H :    0.089773
  21 H :    0.084902
  22 H :    0.068551
  23 H :    0.105271
  24 H :    0.099294
  25 H :    0.121083
  26 H :    0.093075
  27 H :    0.091834
  28 H :    0.119976
Sum of atomic charges:   -0.0000000

LOEWDIN ATOMIC CHARGES
----------------------
   0 C :   -0.326038
   1 C :   -0.148629
   2 H :    0.119806
   3 C :   -0.221972
   4 C :   -0.217876
   5 C :   -0.161872
   6 H :    0.144033
   7 C :    0.057656
   8 O :   -0.130783
   9 C :   -0.235669
  10 C :   -0.132872
  11 C :   -0.337966
  12 C :   -0.337278
  13 H :    0.116408
  14 H :    0.119313
  15 H :    0.120174
  16 H :    0.120442
  17 H :    0.119018
  18 H :    0.117616
  19 H :    0.120900
  20 H :    0.137100
  21 H :    0.129071
  22 H :    0.114191
  23 H :    0.114380
  24 H :    0.121108
  25 H :    0.124050
  26 H :    0.114678
  27 H :    0.113989
  28 H :    0.127025

  Mayer bond orders larger than 0.100000
B(  0-C ,  1-C ) :   1.1168 B(  0-C , 13-H ) :   0.9441 B(  0-C , 14-H ) :   0.9472
B(  0-C , 15-H ) :   0.9493 B(  1-C ,  2-H ) :   0.8914 B(  1-C ,  3-C ) :   1.0653
B(  1-C ,  9-C ) :   1.1233 B(  3-C ,  4-C ) :   1.1767 B(  3-C , 16-H ) :   0.9049
B(  3-C , 17-H ) :   0.9061 B(  4-C ,  5-C ) :   1.1116 B(  4-C , 18-H ) :   0.8870
B(  4-C , 19-H ) :   0.9052 B(  5-C ,  6-H ) :   0.8569 B(  5-C ,  7-C ) :   0.9112
B(  5-C , 10-C ) :   1.0098 B(  7-C ,  8-O ) :   2.1544 B(  7-C ,  9-C ) :   1.0899
B(  9-C , 20-H ) :   0.8539 B(  9-C , 21-H ) :   0.8925 B( 10-C , 11-C ) :   1.1342
B( 10-C , 12-C ) :   1.1101 B( 10-C , 22-H ) :   0.9026 B( 11-C , 23-H ) :   0.9326
B( 11-C , 24-H ) :   0.9426 B( 11-C , 25-H ) :   0.9299 B( 12-C , 26-H ) :   0.9456
B( 12-C , 27-H ) :   0.9459 B( 12-C , 28-H ) :   0.9339

Dispersion correction           -0.031047028
FINAL SINGLE POINT ENERGY      -466.027048709317

DIPOLE MOMENT
-------------

Method             : SCF
Type of density    : Electron Density
Multiplicity       :   1
Irrep              :   0
Energy             :  -466.1233091691269692 Eh
Relativity type    :
Basis              : AO
                                X                 Y                 Z
Electronic contribution:      1.278230383       5.301730830       3.419066415
Nuclear contribution   :     -1.806450254      -6.207788207      -3.392453024
                        -----------------------------------------
Total Dipole Moment    :     -0.528219870      -0.906057377       0.026613392
                        -----------------------------------------
Magnitude (a.u.)       :      1.049125576
Magnitude (Debye)      :      2.666665291

Rotational constants in cm-1:             0.060450             0.026455             0.023444
Rotational constants in MHz :          1812.250448           793.110798           702.823195

                             ****ORCA TERMINATED NORMALLY****
TOTAL RUN TIME: 0 days 0 hours 0 minutes 13 seconds 378 msec
