                         Program Version 6.0.0  -   RELEASE  -
|  1> ! pbe def2-sv(p) def2/J RI DEFGRID1 loosescf d4 GCP(DFT/SV(P)) printgap
|  2> %output
|  3>     printlevel normal
|  4> end
|  5> * xyz 0 1
|  6> C -2.5347492251 -0.9811264676 0.2946733111
|  7> C -1.1116339616 -0.4920390898 0.6040181059
|  8> H -0.9761133722 -0.4507420391 1.695971919
|  9> C -0.8348352492 0.9049491944 0.0177691165
| 10> H -1.0338253916 0.8808493865 -1.0618961157
| 11> C 0.6406173176 1.2798953358 0.2326993475
| 12> H 0.8057721259 1.3928694707 1.3179691545
| 13> C 1.5574232697 0.1714648818 -0.302528893
| 14> H 1.4366632495 0.1136878431 -1.3897585558
| 15> C 1.1368088427 -1.1751890951 0.3316096744
| 16> H 1.2776726465 -1.123223007 1.4251468686
| 17> O -0.2206454824 -1.4401714704 0.0430109422
| 18> O 1.8955016679 -2.2400961873 -0.0943425389
| 19> O 2.9171746047 0.4327302663 -0.1001555035
| 20> O 0.9546372266 2.4798450326 -0.4259811524
| 21> O -1.6002555095 1.9046948876 0.6481941384
| 22> O -2.8382860662 -0.9297510325 -1.0745278305
| 23> H -3.2574765107 -0.3386964403 0.79947058
| 24> H -2.6341390662 -2.0013367951 0.681574184
| 25> H 1.8144422282 -2.3488708169 -1.0548806293
| 26> H 3.0944877663 0.5931341179 0.8378165841
| 27> H 0.3229364269 3.1573414843 -0.1390823512
| 28> H -2.5095579503 1.8749392687 0.3207876394
| 29> H -2.270140901 -1.5596004625 -1.5396970742
| 30> *
| 31>
| 32>                          ****END OF INPUT****

CARTESIAN COORDINATES (ANGSTROEM)
---------------------------------
  C     -2.534749   -0.981126    0.294673
  C     -1.111634   -0.492039    0.604018
  H     -0.976113   -0.450742    1.695972
  C     -0.834835    0.904949    0.017769
  H     -1.033825    0.880849   -1.061896
  C      0.640617    1.279895    0.232699
  H      0.805772    1.392869    1.317969
  C      1.557423    0.171465   -0.302529
  H      1.436663    0.113688   -1.389759
  C      1.136809   -1.175189    0.331610
  H      1.277673   -1.123223    1.425147
  O     -0.220645   -1.440171    0.043011
  O      1.895502   -2.240096   -0.094343
  O      2.917175    0.432730   -0.100156
  O      0.954637    2.479845   -0.425981
  O     -1.600256    1.904695    0.648194
  O     -2.838286   -0.929751   -1.074528
  H     -3.257477   -0.338696    0.799471
  H     -2.634139   -2.001337    0.681574
  H      1.814442   -2.348871   -1.054881
  H      3.094488    0.593134    0.837817
  H      0.322936    3.157341   -0.139082
  H     -2.509558    1.874939    0.320788
  H     -2.270141   -1.559600   -1.539697

 Total Charge           Charge          ....    0
 Multiplicity           Mult            ....    1
 Number of Electrons    NEL             ....   96
 Basis Dimension        Dim             ....  192

ORBITAL ENERGIES
----------------

  NO   OCC          E(Eh)            E(eV)
   0   2.0000     -18.777279      -510.9557
   1   2.0000     -18.769961      -510.7566
   2   2.0000     -18.761144      -510.5167
   3   2.0000     -18.761132      -510.5164
   4   2.0000     -18.748412      -510.1702
   5   2.0000     -18.745557      -510.0925
   6   2.0000      -9.989067      -271.8163
   7   2.0000      -9.947985      -270.6984
   8   2.0000      -9.945084      -270.6195
   9   2.0000      -9.944256      -270.5970
  10   2.0000      -9.943612      -270.5795
  11   2.0000      -9.942044      -270.5368
  12   2.0000      -0.986938       -26.8559
  13   2.0000      -0.950598       -25.8671
  14   2.0000      -0.940189       -25.5838
  15   2.0000      -0.931092       -25.3363
  16   2.0000      -0.918710       -24.9994
  17   2.0000      -0.912543       -24.8316
  18   2.0000      -0.705554       -19.1991
  19   2.0000      -0.692922       -18.8554
  20   2.0000      -0.624853       -17.0031
  21   2.0000      -0.588936       -16.0258
  22   2.0000      -0.563293       -15.3280
  23   2.0000      -0.542589       -14.7646
  24   2.0000      -0.503369       -13.6974
  25   2.0000      -0.499572       -13.5941
  26   2.0000      -0.479767       -13.0551
  27   2.0000      -0.466421       -12.6920
  28   2.0000      -0.439797       -11.9675
  29   2.0000      -0.435289       -11.8448
  30   2.0000      -0.426661       -11.6100
  31   2.0000      -0.402336       -10.9481
  32   2.0000      -0.388768       -10.5789
  33   2.0000      -0.384746       -10.4695
  34   2.0000      -0.366924        -9.9845
  35   2.0000      -0.353030        -9.6064
  36   2.0000      -0.326375        -8.8811
  37   2.0000      -0.312963        -8.5161
  38   2.0000      -0.304731        -8.2921
  39   2.0000      -0.299261        -8.1433
  40   2.0000      -0.290484        -7.9045
  41   2.0000      -0.271869        -7.3979
  42   2.0000      -0.258442        -7.0326
  43   2.0000      -0.248689        -6.7672
  44   2.0000      -0.236040        -6.4230
  45   2.0000      -0.228250        -6.2110
  46   2.0000      -0.220461        -5.9990
  47   2.0000      -0.201485        -5.4827
  48   0.0000       0.009400         0.2558
  49   0.0000       0.021122         0.5748
  50   0.0000       0.029847         0.8122
  51   0.0000       0.032690         0.8896
  52   0.0000       0.050949         1.3864

MULLIKEN ATOMIC CHARGES
-----------------------
   0 C :    0.068924
   1 C :   -0.008014
   2 H :    0.053705
   3 C :    0.032221
   4 H :    0.057212
   5 C :    0.065609
   6 H :    0.037362
   7 C :    0.063637
   8 H :    0.054046
   9 C :    0.183769
  10 H :    0.036632
  11 O :   -0.314388
  12 O :   -0.361409
  13 O :   -0.397135
  14 O :   -0.404149
  15 O :   -0.423278
  16 O :   -0.437299
  17 H :    0.077644
  18 H :    0.093300
  19 H :    0.302887
  20 H :    0.297029
  21 H :    0.302528
  22 H :    0.315067
  23 H :    0.304097
Sum of atomic charges:   -0.0000000

LOEWDIN ATOMIC CHARGES
----------------------
   0 C :   -0.127781
   1 C :   -0.082119
   2 H :    0.105365
   3 C :   -0.083418
   4 H :    0.106370
   5 C :   -0.075544
   6 H :    0.095287
   7 C :   -0.088958
   8 H :    0.116820
   9 C :   -0.006912
  10 H :    0.091739
  11 O :   -0.163370
  12 O :   -0.279076
  13 O :   -0.299866
  14 O :   -0.316887
  15 O :   -0.318882
  16 O :   -0.333197
  17 H :    0.111058
  18 H :    0.108821
  19 H :    0.289486
  20 H :    0.285648
  21 H :    0.284303
  22 H :    0.293806
  23 H :    0.287306

  Mayer bond orders larger than 0.100000
B(  0-C ,  1-C ) :   1.0338 B(  0-C , 16-O ) :   1.0702 B(  0-C , 17-H ) :   0.9157
B(  0-C , 18-H ) :   0.9201 B(  1-C ,  2-H ) :   0.8660 B(  1-C ,  3-C ) :   0.9802
B(  1-C , 11-O ) :   0.9852 B(  3-C ,  4-H ) :   0.8673 B(  3-C ,  5-C ) :   1.0123
B(  3-C , 15-O ) :   1.0632 B(  5-C ,  6-H ) :   0.8714 B(  5-C ,  7-C ) :   0.9996
B(  5-C , 14-O ) :   1.1105 B(  7-C ,  8-H ) :   0.8573 B(  7-C ,  9-C ) :   0.9611
B(  7-C , 13-O ) :   1.0679 B(  9-C , 10-H ) :   0.8751 B(  9-C , 11-O ) :   0.9848
B(  9-C , 12-O ) :   1.1769 B( 12-O , 19-H ) :   0.8426 B( 13-O , 20-H ) :   0.8488
B( 14-O , 21-H ) :   0.8375 B( 15-O , 22-H ) :   0.8409 B( 16-O , 23-H ) :   0.8440

Dispersion correction           -0.023923268
FINAL SINGLE POINT ENERGY      -685.697998622959

DIPOLE MOMENT
-------------

Method             : SCF
Type of density    : Electron Density
Multiplicity       :   1
Irrep              :   0
Energy             :  -685.8270374974031256 Eh
Relativity type    :
Basis              : AO
                                X                 Y                 Z
Electronic contribution:      2.834009469      -0.230263541      -1.446109721
Nuclear contribution   :     -3.669915578       0.181652894       1.761481317
                        -----------------------------------------
Total Dipole Moment    :     -0.835906108      -0.048610647       0.315371596
                        -----------------------------------------
Magnitude (a.u.)       :      0.894740890
Magnitude (Debye)      :      2.274250606

Rotational constants in cm-1:             0.039311             0.026741             0.017631
Rotational constants in MHz :          1178.512029           801.667205           528.554778

                             ****ORCA TERMINATED NORMALLY****
TOTAL RUN TIME: 0 days 0 hours 0 minutes 12 seconds 50 msec
