                         Program Version 6.0.0  -   RELEASE  -
|  1> ! r2scan-3c def2/J RI DEFGRID2 scfconv6 printgap
|  2> %output
|  3>     printlevel normal
|  4> end
|  5> * xyz 0 1
|  6> C 1.5720180354 0.5307323082 0.1117975971
|  7> C 0.6191730206 -0.5913550571 -0.2928843402
|  8> O -0.6547424294 -0.5218238083 0.3254953702
|  9> C -1.4736719542 0.5346425958 -0.1310638038
| 10> H 2.5604077467 0.319373033 -0.2842419894
| 11> H 1.2388587071 1.4883898862 -0.2795000832
| 12> H 1.6289866726 0.592826469 1.1955674681
| 13> H 1.0196439279 -1.5554646536 0.028952491
| 14> H 0.4953157482 -0.6050305062 -1.3857155545
| 15> H -1.0862741516 1.5092237527 0.1792218194
| 16> H -2.4494106042 0.3735846421 0.3212575621
| 17> H -1.564605422 0.5117197141 -1.2226252326
| 18> *
| 19>
| 20>                          ****END OF INPUT****

CARTESIAN COORDINATES (ANGSTROEM)
---------------------------------
  C      1.572018    0.530732    0.111798
  C      0.619173   -0.591355   -0.292884
  O     -0.654742   -0.521824    0.325495
  C     -1.473672    0.534643   -0.131064
  H      2.560408    0.319373   -0.284242
  H      1.238859    1.488390   -0.279500
  H      1.628987    0.592826    1.195567
  H      1.019644   -1.555465    0.028952
  H      0.495316   -0.605031   -1.385716
  H     -1.086274    1.509224    0.179222
  H     -2.449411    0.373585    0.321258
  H     -1.564605    0.511720   -1.222625

 Total Charge           Charge          ....    0
 Multiplicity           Mult            ....    1
 Number of Electrons    NEL             ....   34
 Basis Dimension        Dim             ....  121

ORBITAL ENERGIES
----------------

  NO   OCC          E(Eh)            E(eV)
   0   2.0000     -18.946440      -515.5588
   1   2.0000     -10.074284      -274.1352
   2   2.0000     -10.067283      -273.9447
   3   2.0000     -10.020259      -272.6651
   4   2.0000      -0.990841       -26.9621
   5   2.0000      -0.723022       -19.6744
   6   2.0000      -0.652101       -17.7446
   7   2.0000      -0.563949       -15.3458
   8   2.0000      -0.451024       -12.2730
   9   2.0000      -0.448192       -12.1959
  10   2.0000      -0.415749       -11.3131
  11   2.0000      -0.378201       -10.2914
  12   2.0000      -0.366411        -9.9706
  13   2.0000      -0.343258        -9.3405
  14   2.0000      -0.322209        -8.7677
  15   2.0000      -0.274884        -7.4800
  16   2.0000      -0.218257        -5.9391
  17   0.0000       0.077273         2.1027
  18   0.0000       0.098902         2.6913
  19   0.0000       0.126814         3.4508
  20   0.0000       0.133195         3.6244
  21   0.0000       0.149240         4.0610

MULLIKEN ATOMIC CHARGES
-----------------------
   0 C :   -0.449699
   1 C :   -0.137544
   2 O :   -0.244149
   3 C :   -0.288485
   4 H :    0.144083
   5 H :    0.142200
   6 H :    0.158220
   7 H :    0.142743
   8 H :    0.123286
   9 H :    0.133070
  10 H :    0.147279
  11 H :    0.128996
Sum of atomic charges:    0.0000000

LOEWDIN ATOMIC CHARGES
----------------------
   0 C :   -0.412074
   1 C :   -0.003520
   2 O :   -0.791508
   3 C :   -0.076202
   4 H :    0.156835
   5 H :    0.150690
   6 H :    0.158805
   7 H :    0.176951
   8 H :    0.157553
   9 H :    0.152794
  10 H :    0.174978
  11 H :    0.154698

  Mayer bond orders larger than 0.100000
B(  0-C ,  1-C ) :   0.9114 B(  0-C ,  4-H ) :   0.9655 B(  0-C ,  5-H ) :   0.9728
B(  0-C ,  6-H ) :   0.9737 B(  1-C ,  2-O ) :   0.8946 B(  1-C ,  7-H ) :   0.9716
B(  1-C ,  8-H ) :   0.9745 B(  2-O ,  3-C ) :   0.8980 B(  3-C ,  9-H ) :   0.9621
B(  3-C , 10-H ) :   0.9748 B(  3-C , 11-H ) :   0.9670

Dispersion correction           -0.002088344
FINAL SINGLE POINT ENERGY      -194.281875138116

DIPOLE MOMENT
-------------

Method             : SCF
Type of density    : Electron Density
Multiplicity       :   1
Irrep              :   0
Energy             :  -194.2885749833573357 Eh
Relativity type    :
Basis              : AO
                                X                 Y                 Z
Electronic contribution:     -1.529310395      -2.127947930       1.016556141
Nuclear contribution   :      1.719232810       2.463961494      -1.352768244
                        -----------------------------------------
Total Dipole Moment    :      0.189922415       0.336013564      -0.336212103
                        -----------------------------------------
Magnitude (a.u.)       :      0.511873243
Magnitude (Debye)      :      1.301078385

Rotational constants in cm-1:             0.529545             0.173215             0.149671
Rotational constants in MHz :         15875.365079          5192.854988          4487.018597

                             ****ORCA TERMINATED NORMALLY****
TOTAL RUN TIME: 0 days 0 hours 0 minutes 9 seconds 740 msec
