                         Program Version 6.0.0  -   RELEASE  -
|  1> ! pbe def2-sv(p) def2/J RI DEFGRID1 loosescf d4 GCP(DFT/SV(P)) printgap
|  2> %output
|  3>     printlevel normal
|  4> end
|  5> * xyz 0 1
|  6> C -2.3204973154 0.2766036073 0.9472726031
|  7> C -1.7443597931 0.5234928861 -0.4426737638
|  8> C -0.5529065424 -0.3589877122 -0.8305641885
|  9> C 0.7957699497 -0.151521287 -0.1074578379
| 10> C 1.8903294092 -0.759049441 -0.9963129146
| 11> C 1.1031153435 1.3330856664 0.0975105849
| 12> C 0.8326986189 -0.8761199864 1.2411616244
| 13> H -3.2840228321 0.7735080983 1.0417041964
| 14> H -2.4665035948 -0.7875085849 1.1178357115
| 15> H -1.6697136459 0.6673511959 1.724449432
| 16> H -2.5322562277 0.3234932407 -1.1743511404
| 17> H -1.4755625635 1.5756056968 -0.543098659
| 18> H -0.3787834304 -0.1905306363 -1.8969522127
| 19> H -0.8448773136 -1.4058818631 -0.7151371135
| 20> H 1.6746976983 -1.8045451882 -1.2058294621
| 21> H 1.9587381232 -0.226579606 -1.9424895745
| 22> H 2.8580322953 -0.7020814946 -0.5028656984
| 23> H 1.0279554753 1.8727548205 -0.8439801365
| 24> H 2.1146825854 1.4532698688 0.4795311412
| 25> H 0.4183014433 1.7809978268 0.8122802387
| 26> H 1.8203087758 -0.7793790935 1.6880001939
| 27> H 0.1079273737 -0.4663435743 1.9360710548
| 28> H 0.6216248091 -1.9352144838 1.1100273978
| 29> *
| 30>
| 31>                          ****END OF INPUT****

CARTESIAN COORDINATES (ANGSTROEM)
---------------------------------
  C     -2.320497    0.276604    0.947273
  C     -1.744360    0.523493   -0.442674
  C     -0.552907   -0.358988   -0.830564
  C      0.795770   -0.151521   -0.107458
  C      1.890329   -0.759049   -0.996313
  C      1.103115    1.333086    0.097511
  C      0.832699   -0.876120    1.241162
  H     -3.284023    0.773508    1.041704
  H     -2.466504   -0.787509    1.117836
  H     -1.669714    0.667351    1.724449
  H     -2.532256    0.323493   -1.174351
  H     -1.475563    1.575606   -0.543099
  H     -0.378783   -0.190531   -1.896952
  H     -0.844877   -1.405882   -0.715137
  H      1.674698   -1.804545   -1.205829
  H      1.958738   -0.226580   -1.942490
  H      2.858032   -0.702081   -0.502866
  H      1.027955    1.872755   -0.843980
  H      2.114683    1.453270    0.479531
  H      0.418301    1.780998    0.812280
  H      1.820309   -0.779379    1.688000
  H      0.107927   -0.466344    1.936071
  H      0.621625   -1.935214    1.110027

 Total Charge           Charge          ....    0
 Multiplicity           Mult            ....    1
 Number of Electrons    NEL             ....   58
 Basis Dimension        Dim             ....  130

ORBITAL ENERGIES
----------------

  NO   OCC          E(Eh)            E(eV)
   0   2.0000      -9.901032      -269.4208
   1   2.0000      -9.879206      -268.8269
   2   2.0000      -9.876314      -268.7482
   3   2.0000      -9.869664      -268.5672
   4   2.0000      -9.868539      -268.5366
   5   2.0000      -9.866941      -268.4931
   6   2.0000      -9.866238      -268.4740
   7   2.0000      -0.744027       -20.2460
   8   2.0000      -0.685961       -18.6660
   9   2.0000      -0.611407       -16.6372
  10   2.0000      -0.609691       -16.5905
  11   2.0000      -0.600686       -16.3455
  12   2.0000      -0.523376       -14.2418
  13   2.0000      -0.462805       -12.5936
  14   2.0000      -0.418953       -11.4003
  15   2.0000      -0.405809       -11.0426
  16   2.0000      -0.395308       -10.7569
  17   2.0000      -0.376655       -10.2493
  18   2.0000      -0.366923        -9.9845
  19   2.0000      -0.349175        -9.5015
  20   2.0000      -0.336562        -9.1583
  21   2.0000      -0.330770        -9.0007
  22   2.0000      -0.317240        -8.6325
  23   2.0000      -0.309210        -8.4140
  24   2.0000      -0.296242        -8.0611
  25   2.0000      -0.292882        -7.9697
  26   2.0000      -0.272246        -7.4082
  27   2.0000      -0.266126        -7.2417
  28   2.0000      -0.258870        -7.0442
  29   0.0000       0.027994         0.7618
  30   0.0000       0.062520         1.7013
  31   0.0000       0.068885         1.8744
  32   0.0000       0.071450         1.9443
  33   0.0000       0.084428         2.2974

MULLIKEN ATOMIC CHARGES
-----------------------
   0 C :   -0.288077
   1 C :   -0.166435
   2 C :   -0.111881
   3 C :   -0.251978
   4 C :   -0.211604
   5 C :   -0.221602
   6 C :   -0.213354
   7 H :    0.098674
   8 H :    0.096456
   9 H :    0.116877
  10 H :    0.080740
  11 H :    0.085839
  12 H :    0.071532
  13 H :    0.071392
  14 H :    0.092657
  15 H :    0.092485
  16 H :    0.090836
  17 H :    0.095235
  18 H :    0.092301
  19 H :    0.102896
  20 H :    0.089576
  21 H :    0.097389
  22 H :    0.090046
Sum of atomic charges:    0.0000000

LOEWDIN ATOMIC CHARGES
----------------------
   0 C :   -0.344068
   1 C :   -0.234330
   2 C :   -0.209014
   3 C :   -0.106449
   4 C :   -0.315791
   5 C :   -0.317725
   6 C :   -0.318407
   7 H :    0.118691
   8 H :    0.116636
   9 H :    0.114574
  10 H :    0.117044
  11 H :    0.114909
  12 H :    0.114718
  13 H :    0.112523
  14 H :    0.115196
  15 H :    0.113604
  16 H :    0.113435
  17 H :    0.116244
  18 H :    0.117049
  19 H :    0.115909
  20 H :    0.114841
  21 H :    0.115426
  22 H :    0.114986

  Mayer bond orders larger than 0.100000
B(  0-C ,  1-C ) :   1.1646 B(  0-C ,  7-H ) :   0.9476 B(  0-C ,  8-H ) :   0.9520
B(  0-C ,  9-H ) :   0.9396 B(  1-C ,  2-C ) :   1.1483 B(  1-C , 10-H ) :   0.9217
B(  1-C , 11-H ) :   0.9117 B(  2-C ,  3-C ) :   1.0395 B(  2-C , 12-H ) :   0.9113
B(  2-C , 13-H ) :   0.9150 B(  3-C ,  4-C ) :   1.0737 B(  3-C ,  5-C ) :   1.0845
B(  3-C ,  6-C ) :   1.0799 B(  4-C , 14-H ) :   0.9494 B(  4-C , 15-H ) :   0.9454
B(  4-C , 16-H ) :   0.9471 B(  5-C , 17-H ) :   0.9460 B(  5-C , 18-H ) :   0.9457
B(  5-C , 19-H ) :   0.9367 B(  6-C , 20-H ) :   0.9464 B(  6-C , 21-H ) :   0.9382
B(  6-C , 22-H ) :   0.9461

Dispersion correction           -0.019738033
FINAL SINGLE POINT ENERGY      -275.659149682382

DIPOLE MOMENT
-------------

Method             : SCF
Type of density    : Electron Density
Multiplicity       :   1
Irrep              :   0
Energy             :  -275.7360493195773756 Eh
Relativity type    :
Basis              : AO
                                X                 Y                 Z
Electronic contribution:      0.007312576      -0.109697860      -1.033857909
Nuclear contribution   :     -0.046393048       0.139707458       1.018088446
                        -----------------------------------------
Total Dipole Moment    :     -0.039080471       0.030009598      -0.015769463
                        -----------------------------------------
Magnitude (a.u.)       :      0.051735241
Magnitude (Debye)      :      0.131500533

Rotational constants in cm-1:             0.125287             0.055570             0.053144
Rotational constants in MHz :          3756.013825          1665.955325          1593.216094

                             ****ORCA TERMINATED NORMALLY****
TOTAL RUN TIME: 0 days 0 hours 0 minutes 8 seconds 68 msec
