                         Program Version 6.0.0  -   RELEASE  -
|  1> ! pbe def2-sv(p) def2/J RI DEFGRID1 loosescf d4 GCP(DFT/SV(P)) printgap
|  2> %output
|  3>     printlevel normal
|  4> end
|  5> * xyz 0 1
|  6> C -2.0395710426 -1.4091453654 -0.1116634283
|  7> C -1.0062560958 -0.5279880387 0.6045174606
|  8> H -1.4447591867 -0.1733937548 1.5457646747
|  9> C -0.6530820454 0.6986403927 -0.2487828363
| 10> H -0.5638188969 0.408215389 -1.3071060335
| 11> C 0.700156746 1.2529802594 0.2126460815
| 12> H 0.6430056297 1.4299616469 1.3006140242
| 13> C 1.792013052 0.2154201648 -0.0754964218
| 14> H 2.1079729077 0.3311494929 -1.1171637812
| 15> C 1.2342054051 -1.2212891519 0.0929425437
| 16> H 2.0067598656 -1.8242660874 0.5890709407
| 17> O 0.1412393845 -1.2809023177 0.9810352708
| 18> O 0.9179305824 -1.7295888569 -1.1641918374
| 19> O 2.9470009768 0.405704177 0.6937823683
| 20> O 1.0204742962 2.4487606567 -0.4471669988
| 21> O -1.6075182801 1.7207073855 -0.1012031255
| 22> O -3.2085677767 -0.6391264899 -0.2872960555
| 23> H -2.233000905 -2.2920456916 0.5087991782
| 24> H -1.6310719826 -1.7246136672 -1.0792364848
| 25> H 0.8778806428 -2.6981309014 -1.1376152786
| 26> H 2.7126971748 0.4897727096 1.6301409688
| 27> H 0.2300891934 3.012258391 -0.4390976945
| 28> H -2.4854847414 1.343407359 -0.2751531274
| 29> H -3.8899938313 -1.1804094141 -0.709865253
| 30> *
| 31>
| 32>                          ****END OF INPUT****

CARTESIAN COORDINATES (ANGSTROEM)
---------------------------------
  C     -2.039571   -1.409145   -0.111663
  C     -1.006256   -0.527988    0.604517
  H     -1.444759   -0.173394    1.545765
  C     -0.653082    0.698640   -0.248783
  H     -0.563819    0.408215   -1.307106
  C      0.700157    1.252980    0.212646
  H      0.643006    1.429962    1.300614
  C      1.792013    0.215420   -0.075496
  H      2.107973    0.331149   -1.117164
  C      1.234205   -1.221289    0.092943
  H      2.006760   -1.824266    0.589071
  O      0.141239   -1.280902    0.981035
  O      0.917931   -1.729589   -1.164192
  O      2.947001    0.405704    0.693782
  O      1.020474    2.448761   -0.447167
  O     -1.607518    1.720707   -0.101203
  O     -3.208568   -0.639126   -0.287296
  H     -2.233001   -2.292046    0.508799
  H     -1.631072   -1.724614   -1.079236
  H      0.877881   -2.698131   -1.137615
  H      2.712697    0.489773    1.630141
  H      0.230089    3.012258   -0.439098
  H     -2.485485    1.343407   -0.275153
  H     -3.889994   -1.180409   -0.709865

 Total Charge           Charge          ....    0
 Multiplicity           Mult            ....    1
 Number of Electrons    NEL             ....   96
 Basis Dimension        Dim             ....  192

ORBITAL ENERGIES
----------------

  NO   OCC          E(Eh)            E(eV)
   0   2.0000     -18.776074      -510.9230
   1   2.0000     -18.769808      -510.7524
   2   2.0000     -18.769054      -510.7319
   3   2.0000     -18.747013      -510.1322
   4   2.0000     -18.743138      -510.0267
   5   2.0000     -18.735175      -509.8100
   6   2.0000      -9.983359      -271.6610
   7   2.0000      -9.944267      -270.5973
   8   2.0000      -9.940521      -270.4953
   9   2.0000      -9.935717      -270.3646
  10   2.0000      -9.934722      -270.3375
  11   2.0000      -9.933070      -270.2926
  12   2.0000      -0.982241       -26.7281
  13   2.0000      -0.948970       -25.8228
  14   2.0000      -0.934266       -25.4227
  15   2.0000      -0.922514       -25.1029
  16   2.0000      -0.915539       -24.9131
  17   2.0000      -0.903385       -24.5824
  18   2.0000      -0.702015       -19.1028
  19   2.0000      -0.689519       -18.7628
  20   2.0000      -0.622826       -16.9480
  21   2.0000      -0.579650       -15.7731
  22   2.0000      -0.561023       -15.2662
  23   2.0000      -0.515650       -14.0315
  24   2.0000      -0.508193       -13.8286
  25   2.0000      -0.493593       -13.4313
  26   2.0000      -0.474792       -12.9198
  27   2.0000      -0.468249       -12.7417
  28   2.0000      -0.442943       -12.0531
  29   2.0000      -0.418139       -11.3781
  30   2.0000      -0.409024       -11.1301
  31   2.0000      -0.397398       -10.8138
  32   2.0000      -0.383370       -10.4320
  33   2.0000      -0.378205       -10.2915
  34   2.0000      -0.366075        -9.9614
  35   2.0000      -0.351010        -9.5515
  36   2.0000      -0.328128        -8.9288
  37   2.0000      -0.317330        -8.6350
  38   2.0000      -0.303098        -8.2477
  39   2.0000      -0.288255        -7.8438
  40   2.0000      -0.280031        -7.6200
  41   2.0000      -0.270404        -7.3581
  42   2.0000      -0.254491        -6.9250
  43   2.0000      -0.240583        -6.5466
  44   2.0000      -0.228263        -6.2114
  45   2.0000      -0.221905        -6.0383
  46   2.0000      -0.210869        -5.7380
  47   2.0000      -0.200403        -5.4532
  48   0.0000       0.003277         0.0892
  49   0.0000       0.015783         0.4295
  50   0.0000       0.037339         1.0161
  51   0.0000       0.055910         1.5214
  52   0.0000       0.066099         1.7987

MULLIKEN ATOMIC CHARGES
-----------------------
   0 C :    0.049479
   1 C :    0.049019
   2 H :    0.075511
   3 C :   -0.008380
   4 H :    0.068964
   5 C :    0.073055
   6 H :    0.032959
   7 C :    0.107332
   8 H :    0.083368
   9 C :    0.135796
  10 H :    0.065441
  11 O :   -0.319731
  12 O :   -0.389923
  13 O :   -0.414189
  14 O :   -0.412693
  15 O :   -0.434126
  16 O :   -0.449150
  17 H :    0.079504
  18 H :    0.073318
  19 H :    0.306694
  20 H :    0.296745
  21 H :    0.305975
  22 H :    0.311067
  23 H :    0.313966
Sum of atomic charges:    0.0000000

LOEWDIN ATOMIC CHARGES
----------------------
   0 C :   -0.135820
   1 C :   -0.066775
   2 H :    0.117697
   3 C :   -0.082898
   4 H :    0.107910
   5 C :   -0.064975
   6 H :    0.096521
   7 C :   -0.071433
   8 H :    0.129429
   9 C :   -0.013149
  10 H :    0.100574
  11 O :   -0.150430
  12 O :   -0.304897
  13 O :   -0.306635
  14 O :   -0.316604
  15 O :   -0.328237
  16 O :   -0.338122
  17 H :    0.099616
  18 H :    0.098585
  19 H :    0.288127
  20 H :    0.282230
  21 H :    0.284635
  22 H :    0.279944
  23 H :    0.294707

  Mayer bond orders larger than 0.100000
B(  0-C ,  1-C ) :   1.0746 B(  0-C , 16-O ) :   1.0472 B(  0-C , 17-H ) :   0.9161
B(  0-C , 18-H ) :   0.9033 B(  1-C ,  2-H ) :   0.8819 B(  1-C ,  3-C ) :   0.9734
B(  1-C , 11-O ) :   0.9833 B(  3-C ,  4-H ) :   0.8828 B(  3-C ,  5-C ) :   1.0412
B(  3-C , 15-O ) :   1.0726 B(  5-C ,  6-H ) :   0.8514 B(  5-C ,  7-C ) :   1.0292
B(  5-C , 14-O ) :   1.1115 B(  7-C ,  8-H ) :   0.8644 B(  7-C ,  9-C ) :   0.9736
B(  7-C , 13-O ) :   1.0537 B(  9-C , 10-H ) :   0.8996 B(  9-C , 11-O ) :   1.0620
B(  9-C , 12-O ) :   1.1003 B( 12-O , 19-H ) :   0.8365 B( 13-O , 20-H ) :   0.8491
B( 14-O , 21-H ) :   0.8317 B( 15-O , 22-H ) :   0.8123 B( 16-O , 23-H ) :   0.8428

Dispersion correction           -0.024611540
FINAL SINGLE POINT ENERGY      -685.693867407648

DIPOLE MOMENT
-------------

Method             : SCF
Type of density    : Electron Density
Multiplicity       :   1
Irrep              :   0
Energy             :  -685.8248700359798704 Eh
Relativity type    :
Basis              : AO
                                X                 Y                 Z
Electronic contribution:      2.068670776       1.286323718       0.491809147
Nuclear contribution   :     -3.439706193      -2.686430663      -0.465314109
                        -----------------------------------------
Total Dipole Moment    :     -1.371035417      -1.400106945       0.026495039
                        -----------------------------------------
Magnitude (a.u.)       :      1.959780488
Magnitude (Debye)      :      4.981366124

Rotational constants in cm-1:             0.043950             0.026437             0.018996
Rotational constants in MHz :          1317.574369           792.556457           569.485296

                             ****ORCA TERMINATED NORMALLY****
TOTAL RUN TIME: 0 days 0 hours 0 minutes 12 seconds 292 msec
