                         Program Version 6.0.0  -   RELEASE  -
|  1> ! wb97x-v def2-tzvp def2/J RIJCOSX DEFGRID2 scfconv7 GCP(DFT/TZ) printgap
|  2> %output
|  3>     printlevel normal
|  4> end
|  5> * xyz 0 1
|  6> C -3.4695856680784183 0.6011419002018086 0.25034745358744187
|  7> O -2.0453081291816404 0.764990749748319 0.027728165265617666
|  8> C -1.3368026445263563 -0.371272608546014 -0.09901076657377009
|  9> O -1.851606446368387 -1.4759795856555538 -0.017870859162863198
| 10> C 0.12883954375365564 -0.1337758119737979 -0.3821999151374108
| 11> C 0.9779507388171006 -1.246732937010489 0.2522118779482875
| 12> C 2.457648722261851 -1.0715950831497731 -0.08872489424824946
| 13> C 2.964876872735469 0.3095149483052288 0.3254809517031076
| 14> C 2.1227240419752818 1.40964685574753 -0.31957746001641296
| 15> C 0.6387178858728785 1.2554703791107773 0.022166156816973523
| 16> H -3.645912958084367 0.042421660274283485 1.1723834148091064
| 17> H -3.926046267571464 0.08280526354676365 -0.5963240430776582
| 18> H -3.8655673520019755 1.6124504467104643 0.33647385794474466
| 19> H 0.21359437019032082 -0.22533253175298956 -1.4779983586029857
| 20> H 0.8443770000437976 -1.2088103582792467 1.3421687770000097
| 21> H 0.6226858872773942 -2.2244548752106614 -0.08564398411244369
| 22> H 3.042259726489482 -1.8580585963921403 0.40198388285869757
| 23> H 2.5944819071059215 -1.1977460216045792 -1.1716746258399822
| 24> H 2.907027889027184 0.4032832519923783 1.4189315373670208
| 25> H 4.018942280866829 0.4262100114670633 0.0482697240024243
| 26> H 2.471748191588807 2.3976850845623106 0.0012555345308755685
| 27> H 2.245539687931916 1.3653901672704272 -1.4107603808141849
| 28> H 0.4952330435927843 1.3862032279740257 1.1030829014958279
| 29> H 0.058572848771603715 2.0346326270756605 -0.48007825176730656
| 30> *
| 31>
| 32>                          ****END OF INPUT****

CARTESIAN COORDINATES (ANGSTROEM)
---------------------------------
  C     -3.469586    0.601142    0.250347
  O     -2.045308    0.764991    0.027728
  C     -1.336803   -0.371273   -0.099011
  O     -1.851606   -1.475980   -0.017871
  C      0.128840   -0.133776   -0.382200
  C      0.977951   -1.246733    0.252212
  C      2.457649   -1.071595   -0.088725
  C      2.964877    0.309515    0.325481
  C      2.122724    1.409647   -0.319577
  C      0.638718    1.255470    0.022166
  H     -3.645913    0.042422    1.172383
  H     -3.926046    0.082805   -0.596324
  H     -3.865567    1.612450    0.336474
  H      0.213594   -0.225333   -1.477998
  H      0.844377   -1.208810    1.342169
  H      0.622686   -2.224455   -0.085644
  H      3.042260   -1.858059    0.401984
  H      2.594482   -1.197746   -1.171675
  H      2.907028    0.403283    1.418932
  H      4.018942    0.426210    0.048270
  H      2.471748    2.397685    0.001256
  H      2.245540    1.365390   -1.410760
  H      0.495233    1.386203    1.103083
  H      0.058573    2.034633   -0.480078

 Total Charge           Charge          ....    0
 Multiplicity           Mult            ....    1
 Number of Electrons    NEL             ....   78
 Basis Dimension        Dim             ....  394

ORBITAL ENERGIES
----------------

  NO   OCC          E(Eh)            E(eV)
   0   2.0000     -21.718540      -590.9915
   1   2.0000     -21.651358      -589.1634
   2   2.0000     -12.172169      -331.2216
   3   2.0000     -12.102563      -329.3275
   4   2.0000     -12.063005      -328.2511
   5   2.0000     -12.044174      -327.7386
   6   2.0000     -12.041838      -327.6751
   7   2.0000     -12.041627      -327.6693
   8   2.0000     -12.040357      -327.6348
   9   2.0000     -12.039118      -327.6011
  10   2.0000      -1.756878       -47.8071
  11   2.0000      -1.687348       -45.9151
  12   2.0000      -1.352663       -36.8078
  13   2.0000      -1.295223       -35.2448
  14   2.0000      -1.253036       -34.0968
  15   2.0000      -1.248523       -33.9740
  16   2.0000      -1.143201       -31.1081
  17   2.0000      -1.106159       -30.1001
  18   2.0000      -1.100182       -29.9375
  19   2.0000      -1.055859       -28.7314
  20   2.0000      -1.028375       -27.9835
  21   2.0000      -1.003202       -27.2985
  22   2.0000      -0.990999       -26.9664
  23   2.0000      -0.943969       -25.6867
  24   2.0000      -0.907226       -24.6869
  25   2.0000      -0.893758       -24.3204
  26   2.0000      -0.875800       -23.8317
  27   2.0000      -0.873210       -23.7612
  28   2.0000      -0.870599       -23.6902
  29   2.0000      -0.846128       -23.0243
  30   2.0000      -0.842672       -22.9303
  31   2.0000      -0.833751       -22.6875
  32   2.0000      -0.824097       -22.4248
  33   2.0000      -0.821326       -22.3494
  34   2.0000      -0.784973       -21.3602
  35   2.0000      -0.777980       -21.1699
  36   2.0000      -0.765377       -20.8270
  37   2.0000      -0.753661       -20.5081
  38   2.0000      -0.738012       -20.0823
  39   0.0000      -0.302149        -8.2219
  40   0.0000      -0.183383        -4.9901
  41   0.0000      -0.105459        -2.8697
  42   0.0000      -0.061551        -1.6749
  43   0.0000      -0.026933        -0.7329

MULLIKEN ATOMIC CHARGES
-----------------------
   0 C :   -0.196279
   1 O :   -0.229226
   2 C :    0.271925
   3 O :   -0.357027
   4 C :   -0.014799
   5 C :   -0.224670
   6 C :   -0.174532
   7 C :   -0.182039
   8 C :   -0.169419
   9 C :   -0.215073
  10 H :    0.130890
  11 H :    0.129474
  12 H :    0.127275
  13 H :    0.090179
  14 H :    0.096000
  15 H :    0.130067
  16 H :    0.103945
  17 H :    0.090443
  18 H :    0.086848
  19 H :    0.102665
  20 H :    0.102963
  21 H :    0.089619
  22 H :    0.095755
  23 H :    0.115016
Sum of atomic charges:    0.0000000

LOEWDIN ATOMIC CHARGES
----------------------
   0 C :   -0.286941
   1 O :    0.231794
   2 C :   -0.436726
   3 O :    0.083435
   4 C :   -0.216134
   5 C :   -0.222410
   6 C :   -0.258264
   7 C :   -0.261478
   8 C :   -0.257874
   9 C :   -0.231096
  10 H :    0.111601
  11 H :    0.111409
  12 H :    0.109240
  13 H :    0.169673
  14 H :    0.138974
  15 H :    0.142261
  16 H :    0.132720
  17 H :    0.134028
  18 H :    0.133660
  19 H :    0.131012
  20 H :    0.132120
  21 H :    0.133964
  22 H :    0.138013
  23 H :    0.137017

  Mayer bond orders larger than 0.100000
B(  0-C ,  1-O ) :   0.9099 B(  0-C , 10-H ) :   0.9781 B(  0-C , 11-H ) :   0.9781
B(  0-C , 12-H ) :   0.9734 B(  1-O ,  2-C ) :   1.2172 B(  2-C ,  3-O ) :   2.0403
B(  2-C ,  4-C ) :   0.9713 B(  4-C ,  5-C ) :   0.9902 B(  4-C ,  9-C ) :   0.9865
B(  4-C , 13-H ) :   0.9212 B(  5-C ,  6-C ) :   0.9731 B(  5-C , 14-H ) :   0.9713
B(  5-C , 15-H ) :   0.9726 B(  6-C ,  7-C ) :   0.9852 B(  6-C , 16-H ) :   0.9792
B(  6-C , 17-H ) :   0.9767 B(  7-C ,  8-C ) :   0.9873 B(  7-C , 18-H ) :   0.9737
B(  7-C , 19-H ) :   0.9768 B(  8-C ,  9-C ) :   0.9727 B(  8-C , 20-H ) :   0.9783
B(  8-C , 21-H ) :   0.9746 B(  9-C , 22-H ) :   0.9698 B(  9-C , 23-H ) :   0.9733

FINAL SINGLE POINT ENERGY      -463.784792005588

DIPOLE MOMENT
-------------

Method             : SCF
Type of density    : Electron Density
Multiplicity       :   1
Irrep              :   0
Energy             :  -463.8015531936877665 Eh
Relativity type    :
Basis              : AO
                                X                 Y                 Z
Electronic contribution:     -7.419206478      -2.027311058      -0.559491683
Nuclear contribution   :      7.551750991       2.771502144       0.537916976
                        -----------------------------------------
Total Dipole Moment    :      0.132544513       0.744191086      -0.021574707
                        -----------------------------------------
Magnitude (a.u.)       :      0.756210215
Magnitude (Debye)      :      1.922133611

Rotational constants in cm-1:             0.096991             0.025811             0.021353
Rotational constants in MHz :          2907.704443           773.800743           640.150400

                             ****ORCA TERMINATED NORMALLY****
TOTAL RUN TIME: 0 days 0 hours 4 minutes 23 seconds 698 msec
