                         Program Version 6.0.0  -   RELEASE  -
|  1> ! wb97x-v def2-tzvp def2/J RIJCOSX DEFGRID2 scfconv7 GCP(DFT/TZ) printgap
|  2> %output
|  3>     printlevel normal
|  4> end
|  5> %cpcm
|  6>     smd true
|  7>     smdsolvent "water"
|  8> end
|  9> * xyz 0 1
| 10> C -3.4695856680784183 0.6011419002018086 0.25034745358744187
| 11> O -2.0453081291816404 0.764990749748319 0.027728165265617666
| 12> C -1.3368026445263563 -0.371272608546014 -0.09901076657377009
| 13> O -1.851606446368387 -1.4759795856555538 -0.017870859162863198
| 14> C 0.12883954375365564 -0.1337758119737979 -0.3821999151374108
| 15> C 0.9779507388171006 -1.246732937010489 0.2522118779482875
| 16> C 2.457648722261851 -1.0715950831497731 -0.08872489424824946
| 17> C 2.964876872735469 0.3095149483052288 0.3254809517031076
| 18> C 2.1227240419752818 1.40964685574753 -0.31957746001641296
| 19> C 0.6387178858728785 1.2554703791107773 0.022166156816973523
| 20> H -3.645912958084367 0.042421660274283485 1.1723834148091064
| 21> H -3.926046267571464 0.08280526354676365 -0.5963240430776582
| 22> H -3.8655673520019755 1.6124504467104643 0.33647385794474466
| 23> H 0.21359437019032082 -0.22533253175298956 -1.4779983586029857
| 24> H 0.8443770000437976 -1.2088103582792467 1.3421687770000097
| 25> H 0.6226858872773942 -2.2244548752106614 -0.08564398411244369
| 26> H 3.042259726489482 -1.8580585963921403 0.40198388285869757
| 27> H 2.5944819071059215 -1.1977460216045792 -1.1716746258399822
| 28> H 2.907027889027184 0.4032832519923783 1.4189315373670208
| 29> H 4.018942280866829 0.4262100114670633 0.0482697240024243
| 30> H 2.471748191588807 2.3976850845623106 0.0012555345308755685
| 31> H 2.245539687931916 1.3653901672704272 -1.4107603808141849
| 32> H 0.4952330435927843 1.3862032279740257 1.1030829014958279
| 33> H 0.058572848771603715 2.0346326270756605 -0.48007825176730656
| 34> *
| 35>
| 36>                          ****END OF INPUT****

CARTESIAN COORDINATES (ANGSTROEM)
---------------------------------
  C     -3.469586    0.601142    0.250347
  O     -2.045308    0.764991    0.027728
  C     -1.336803   -0.371273   -0.099011
  O     -1.851606   -1.475980   -0.017871
  C      0.128840   -0.133776   -0.382200
  C      0.977951   -1.246733    0.252212
  C      2.457649   -1.071595   -0.088725
  C      2.964877    0.309515    0.325481
  C      2.122724    1.409647   -0.319577
  C      0.638718    1.255470    0.022166
  H     -3.645913    0.042422    1.172383
  H     -3.926046    0.082805   -0.596324
  H     -3.865567    1.612450    0.336474
  H      0.213594   -0.225333   -1.477998
  H      0.844377   -1.208810    1.342169
  H      0.622686   -2.224455   -0.085644
  H      3.042260   -1.858059    0.401984
  H      2.594482   -1.197746   -1.171675
  H      2.907028    0.403283    1.418932
  H      4.018942    0.426210    0.048270
  H      2.471748    2.397685    0.001256
  H      2.245540    1.365390   -1.410760
  H      0.495233    1.386203    1.103083
  H      0.058573    2.034633   -0.480078

 Total Charge           Charge          ....    0
 Multiplicity           Mult            ....    1
 Number of Electrons    NEL             ....   78
 Basis Dimension        Dim             ....  394

ORBITAL ENERGIES
----------------

  NO   OCC          E(Eh)            E(eV)
   0   2.0000     -21.723233      -591.1192
   1   2.0000     -21.665821      -589.5570
   2   2.0000     -12.182744      -331.5093
   3   2.0000     -12.092226      -329.0462
   4   2.0000     -12.056961      -328.0866
   5   2.0000     -12.035861      -327.5124
   6   2.0000     -12.035384      -327.4995
   7   2.0000     -12.030897      -327.3773
   8   2.0000     -12.030742      -327.3731
   9   2.0000     -12.028518      -327.3126
  10   2.0000      -1.764216       -48.0067
  11   2.0000      -1.700201       -46.2648
  12   2.0000      -1.346010       -36.6268
  13   2.0000      -1.291351       -35.1394
  14   2.0000      -1.245803       -33.9000
  15   2.0000      -1.241072       -33.7713
  16   2.0000      -1.143439       -31.1146
  17   2.0000      -1.106020       -30.0963
  18   2.0000      -1.093173       -29.7468
  19   2.0000      -1.066948       -29.0331
  20   2.0000      -1.022596       -27.8263
  21   2.0000      -1.002854       -27.2891
  22   2.0000      -0.990768       -26.9602
  23   2.0000      -0.946365       -25.7519
  24   2.0000      -0.914548       -24.8861
  25   2.0000      -0.897013       -24.4090
  26   2.0000      -0.875592       -23.8261
  27   2.0000      -0.865737       -23.5579
  28   2.0000      -0.864403       -23.5216
  29   2.0000      -0.838266       -22.8104
  30   2.0000      -0.834710       -22.7136
  31   2.0000      -0.828781       -22.5523
  32   2.0000      -0.816612       -22.2211
  33   2.0000      -0.813438       -22.1348
  34   2.0000      -0.776489       -21.1293
  35   2.0000      -0.768475       -20.9113
  36   2.0000      -0.757047       -20.6003
  37   2.0000      -0.745300       -20.2807
  38   2.0000      -0.728130       -19.8134
  39   0.0000      -0.307203        -8.3594
  40   0.0000      -0.177935        -4.8419
  41   0.0000      -0.107557        -2.9268
  42   0.0000      -0.058902        -1.6028
  43   0.0000      -0.020048        -0.5455

MULLIKEN ATOMIC CHARGES
-----------------------
   0 C :   -0.236996
   1 O :   -0.251616
   2 C :    0.356392
   3 O :   -0.477572
   4 C :    0.005636
   5 C :   -0.238762
   6 C :   -0.200502
   7 C :   -0.206287
   8 C :   -0.194132
   9 C :   -0.242917
  10 H :    0.149821
  11 H :    0.149872
  12 H :    0.156271
  13 H :    0.122282
  14 H :    0.113738
  15 H :    0.115726
  16 H :    0.115000
  17 H :    0.102920
  18 H :    0.097666
  19 H :    0.114538
  20 H :    0.115119
  21 H :    0.102420
  22 H :    0.112877
  23 H :    0.118506
Sum of atomic charges:   -0.0000000

LOEWDIN ATOMIC CHARGES
----------------------
   0 C :   -0.283883
   1 O :    0.229095
   2 C :   -0.417082
   3 O :    0.020348
   4 C :   -0.211387
   5 C :   -0.226805
   6 C :   -0.258634
   7 C :   -0.263144
   8 C :   -0.258096
   9 C :   -0.232155
  10 H :    0.115856
  11 H :    0.116119
  12 H :    0.119126
  13 H :    0.180531
  14 H :    0.142509
  15 H :    0.136966
  16 H :    0.134450
  17 H :    0.137423
  18 H :    0.135968
  19 H :    0.132924
  20 H :    0.134316
  21 H :    0.137429
  22 H :    0.141312
  23 H :    0.136815

  Mayer bond orders larger than 0.100000
B(  0-C ,  1-O ) :   0.8836 B(  0-C , 10-H ) :   0.9728 B(  0-C , 11-H ) :   0.9724
B(  0-C , 12-H ) :   0.9683 B(  1-O ,  2-C ) :   1.2371 B(  2-C ,  3-O ) :   1.9101
B(  2-C ,  4-C ) :   0.9802 B(  4-C ,  5-C ) :   0.9785 B(  4-C ,  9-C ) :   0.9822
B(  4-C , 13-H ) :   0.9099 B(  5-C ,  6-C ) :   0.9854 B(  5-C , 14-H ) :   0.9699
B(  5-C , 15-H ) :   0.9656 B(  6-C ,  7-C ) :   0.9906 B(  6-C , 16-H ) :   0.9757
B(  6-C , 17-H ) :   0.9745 B(  7-C ,  8-C ) :   0.9902 B(  7-C , 18-H ) :   0.9720
B(  7-C , 19-H ) :   0.9742 B(  8-C ,  9-C ) :   0.9803 B(  8-C , 20-H ) :   0.9751
B(  8-C , 21-H ) :   0.9729 B(  9-C , 22-H ) :   0.9697 B(  9-C , 23-H ) :   0.9678

FINAL SINGLE POINT ENERGY      -463.790497771136

DIPOLE MOMENT
-------------

Method             : SCF
Type of density    : Electron Density
Multiplicity       :   1
Irrep              :   0
Energy             :  -463.8072589592355826 Eh
Relativity type    :
Basis              : AO
                                X                 Y                 Z
Electronic contribution:     -7.313013010      -1.690994105      -0.604347014
Nuclear contribution   :      7.551750991       2.771502144       0.537916976
                        -----------------------------------------
Total Dipole Moment    :      0.238737980       1.080508039      -0.066430038
                        -----------------------------------------
Magnitude (a.u.)       :      1.108560506
Magnitude (Debye)      :      2.817736878

Rotational constants in cm-1:             0.096991             0.025811             0.021353
Rotational constants in MHz :          2907.704443           773.800743           640.150400

                             ****ORCA TERMINATED NORMALLY****
TOTAL RUN TIME: 0 days 0 hours 4 minutes 29 seconds 538 msec
