                         Program Version 6.0.0  -   RELEASE  -
|  1> ! pbe def2-sv(p) def2/J RI DEFGRID1 loosescf d4 GCP(DFT/SV(P)) printgap
|  2> %output
|  3>     printlevel normal
|  4> end
|  5> * xyz 0 1
|  6> C -2.514012964 -0.9987799185 0.3460786705
|  7> C -1.0687290638 -0.5246287949 0.5954905087
|  8> H -0.9017501292 -0.4829605873 1.6840926929
|  9> C -0.8021655771 0.8686423321 -0.0137033065
| 10> H -0.9545541875 0.8129620965 -1.0976343019
| 11> C 0.6594258864 1.2563922063 0.2382470602
| 12> H 0.8346752493 1.3419422516 1.3250942274
| 13> C 1.5771206162 0.1528539754 -0.3017052662
| 14> H 1.4685688475 0.1084606154 -1.3965394636
| 15> C 1.166037004 -1.210306636 0.2932840639
| 16> H 1.3595335208 -1.1878091778 1.3816115908
| 17> O -0.1862371722 -1.4810519067 0.0364305984
| 18> O 1.929196132 -2.2395664322 -0.2299796059
| 19> O 2.8988552267 0.4778850464 0.0510844987
| 20> O 0.9158742162 2.488200867 -0.3851490836
| 21> O -1.7192460262 1.8170291114 0.4601892723
| 22> O -2.9966694836 -0.7305350058 -0.9426306172
| 23> H -3.1614210293 -0.5458856919 1.1036833216
| 24> H -2.5290365705 -2.084815185 0.4565698616
| 25> H 1.4968027786 -2.5743984545 -1.0315548209
| 26> H 3.4747217017 -0.2746190789 -0.1521373592
| 27> H 1.8669835923 2.6664567533 -0.331912163
| 28> H -1.4307809381 2.1661703567 1.3150085566
| 29> H -3.1798262544 0.2169610473 -1.018721285
| 30> *
| 31>
| 32>                          ****END OF INPUT****

CARTESIAN COORDINATES (ANGSTROEM)
---------------------------------
  C     -2.514013   -0.998780    0.346079
  C     -1.068729   -0.524629    0.595491
  H     -0.901750   -0.482961    1.684093
  C     -0.802166    0.868642   -0.013703
  H     -0.954554    0.812962   -1.097634
  C      0.659426    1.256392    0.238247
  H      0.834675    1.341942    1.325094
  C      1.577121    0.152854   -0.301705
  H      1.468569    0.108461   -1.396539
  C      1.166037   -1.210307    0.293284
  H      1.359534   -1.187809    1.381612
  O     -0.186237   -1.481052    0.036431
  O      1.929196   -2.239566   -0.229980
  O      2.898855    0.477885    0.051084
  O      0.915874    2.488201   -0.385149
  O     -1.719246    1.817029    0.460189
  O     -2.996669   -0.730535   -0.942631
  H     -3.161421   -0.545886    1.103683
  H     -2.529037   -2.084815    0.456570
  H      1.496803   -2.574398   -1.031555
  H      3.474722   -0.274619   -0.152137
  H      1.866984    2.666457   -0.331912
  H     -1.430781    2.166170    1.315009
  H     -3.179826    0.216961   -1.018721

 Total Charge           Charge          ....    0
 Multiplicity           Mult            ....    1
 Number of Electrons    NEL             ....   96
 Basis Dimension        Dim             ....  192

ORBITAL ENERGIES
----------------

  NO   OCC          E(Eh)            E(eV)
   0   2.0000     -18.777785      -510.9695
   1   2.0000     -18.770119      -510.7609
   2   2.0000     -18.763240      -510.5737
   3   2.0000     -18.762411      -510.5512
   4   2.0000     -18.750531      -510.2279
   5   2.0000     -18.748101      -510.1618
   6   2.0000      -9.992015      -271.8966
   7   2.0000      -9.949193      -270.7313
   8   2.0000      -9.948077      -270.7009
   9   2.0000      -9.947650      -270.6893
  10   2.0000      -9.943599      -270.5791
  11   2.0000      -9.933306      -270.2990
  12   2.0000      -0.992862       -27.0172
  13   2.0000      -0.949466       -25.8363
  14   2.0000      -0.942899       -25.6576
  15   2.0000      -0.926074       -25.1998
  16   2.0000      -0.921204       -25.0672
  17   2.0000      -0.916417       -24.9370
  18   2.0000      -0.708034       -19.2666
  19   2.0000      -0.692570       -18.8458
  20   2.0000      -0.621451       -16.9105
  21   2.0000      -0.590064       -16.0565
  22   2.0000      -0.562712       -15.3122
  23   2.0000      -0.546765       -14.8782
  24   2.0000      -0.505254       -13.7487
  25   2.0000      -0.500508       -13.6195
  26   2.0000      -0.480046       -13.0627
  27   2.0000      -0.456365       -12.4183
  28   2.0000      -0.442021       -12.0280
  29   2.0000      -0.435771       -11.8579
  30   2.0000      -0.425309       -11.5733
  31   2.0000      -0.416342       -11.3293
  32   2.0000      -0.390726       -10.6322
  33   2.0000      -0.373406       -10.1609
  34   2.0000      -0.356095        -9.6898
  35   2.0000      -0.353284        -9.6133
  36   2.0000      -0.331939        -9.0325
  37   2.0000      -0.322669        -8.7803
  38   2.0000      -0.315146        -8.5756
  39   2.0000      -0.301774        -8.2117
  40   2.0000      -0.280034        -7.6201
  41   2.0000      -0.276774        -7.5314
  42   2.0000      -0.264410        -7.1950
  43   2.0000      -0.249141        -6.7795
  44   2.0000      -0.230760        -6.2793
  45   2.0000      -0.228806        -6.2261
  46   2.0000      -0.219051        -5.9607
  47   2.0000      -0.203715        -5.5434
  48   0.0000       0.009987         0.2718
  49   0.0000       0.018078         0.4919
  50   0.0000       0.036516         0.9937
  51   0.0000       0.042402         1.1538
  52   0.0000       0.055832         1.5193

MULLIKEN ATOMIC CHARGES
-----------------------
   0 C :    0.090468
   1 C :    0.013415
   2 H :    0.039800
   3 C :    0.041719
   4 H :    0.069712
   5 C :    0.055868
   6 H :    0.039188
   7 C :    0.028971
   8 H :    0.049212
   9 C :    0.184483
  10 H :    0.049450
  11 O :   -0.304522
  12 O :   -0.392981
  13 O :   -0.424803
  14 O :   -0.405896
  15 O :   -0.412563
  16 O :   -0.435090
  17 H :    0.073900
  18 H :    0.093639
  19 H :    0.309750
  20 H :    0.308518
  21 H :    0.309519
  22 H :    0.306200
  23 H :    0.312043
Sum of atomic charges:   -0.0000000

LOEWDIN ATOMIC CHARGES
----------------------
   0 C :   -0.121895
   1 C :   -0.076041
   2 H :    0.098604
   3 C :   -0.077203
   4 H :    0.118320
   5 C :   -0.075340
   6 H :    0.095010
   7 C :   -0.099865
   8 H :    0.103461
   9 C :   -0.004079
  10 H :    0.093678
  11 O :   -0.146491
  12 O :   -0.299945
  13 O :   -0.325180
  14 O :   -0.318471
  15 O :   -0.308515
  16 O :   -0.329745
  17 H :    0.102412
  18 H :    0.120963
  19 H :    0.293062
  20 H :    0.289047
  21 H :    0.289280
  22 H :    0.290669
  23 H :    0.288263

  Mayer bond orders larger than 0.100000
B(  0-C ,  1-C ) :   1.0027 B(  0-C , 16-O ) :   1.1090 B(  0-C , 17-H ) :   0.9175
B(  0-C , 18-H ) :   0.9211 B(  1-C ,  2-H ) :   0.8683 B(  1-C ,  3-C ) :   0.9835
B(  1-C , 11-O ) :   0.9680 B(  3-C ,  4-H ) :   0.8528 B(  3-C ,  5-C ) :   1.0354
B(  3-C , 15-O ) :   1.0462 B(  5-C ,  6-H ) :   0.8696 B(  5-C ,  7-C ) :   1.0111
B(  5-C , 14-O ) :   1.1132 B(  7-C ,  8-H ) :   0.8627 B(  7-C ,  9-C ) :   0.9742
B(  7-C , 13-O ) :   1.0663 B(  9-C , 10-H ) :   0.8770 B(  9-C , 11-O ) :   1.0327
B(  9-C , 12-O ) :   1.1175 B( 12-O , 19-H ) :   0.8386 B( 13-O , 20-H ) :   0.8324
B( 14-O , 21-H ) :   0.8379 B( 15-O , 22-H ) :   0.8452 B( 16-O , 23-H ) :   0.8388

Dispersion correction           -0.023958567
FINAL SINGLE POINT ENERGY      -685.697943318910

DIPOLE MOMENT
-------------

Method             : SCF
Type of density    : Electron Density
Multiplicity       :   1
Irrep              :   0
Energy             :  -685.8278762300636799 Eh
Relativity type    :
Basis              : AO
                                X                 Y                 Z
Electronic contribution:      2.018020080      -0.102567507      -1.566891274
Nuclear contribution   :     -1.541217539       0.157337600       2.084249283
                        -----------------------------------------
Total Dipole Moment    :      0.476802541       0.054770093       0.517358010
                        -----------------------------------------
Magnitude (a.u.)       :      0.705690964
Magnitude (Debye)      :      1.793723881

Rotational constants in cm-1:             0.040865             0.026120             0.017392
Rotational constants in MHz :          1225.089798           783.051325           521.399167

                             ****ORCA TERMINATED NORMALLY****
TOTAL RUN TIME: 0 days 0 hours 0 minutes 11 seconds 736 msec
