                         Program Version 6.0.0  -   RELEASE  -
|  1> ! pbe def2-sv(p) def2/J RI DEFGRID1 loosescf d4 GCP(DFT/SV(P)) printgap
|  2> %output
|  3>     printlevel normal
|  4> end
|  5> * xyz 0 1
|  6> C -2.2854971206 -0.9430996209 0.7597822638
|  7> C -0.8336474558 -0.4247576023 0.7739038428
|  8> H -0.5923105608 -0.0869240348 1.7945506727
|  9> C -0.6186492797 0.7377496751 -0.2055755311
| 10> H -0.6984788985 0.3587653185 -1.2302110198
| 11> C 0.7974310473 1.2969625633 -0.0056072142
| 12> H 0.801614171 1.927535786 0.9008476949
| 13> C 1.8049422157 0.163412237 0.256342812
| 14> H 2.6912039578 0.3703946723 -0.3575813117
| 15> C 1.2377242984 -1.1983110961 -0.1832724109
| 16> H 1.9276048123 -1.9994068792 0.1316607441
| 17> O 0.0297017362 -1.5153403383 0.4581503531
| 18> O 1.1137949557 -1.1858632721 -1.5710075943
| 19> O 2.1035709106 0.1680784794 1.6288724552
| 20> O 1.2364195517 2.041155497 -1.1121748622
| 21> O -1.6024159304 1.7341300106 -0.0814800257
| 22> O -2.8668570062 -0.9979532587 -0.5164957506
| 23> H -2.8884521679 -0.3222315547 1.4312252429
| 24> H -2.2733182201 -1.9682560508 1.1342429362
| 25> H 0.7699253379 -2.0401600887 -1.8763298021
| 26> H 2.8415582515 -0.4302203429 1.8142093142
| 27> H 0.5331028906 2.6521208585 -1.3803498147
| 28> H -1.5499123976 2.1409416412 0.7960592714
| 29> H -3.0073122087 -0.0931762067 -0.8334763729
| 30> *
| 31>
| 32>                          ****END OF INPUT****

CARTESIAN COORDINATES (ANGSTROEM)
---------------------------------
  C     -2.285497   -0.943100    0.759782
  C     -0.833647   -0.424758    0.773904
  H     -0.592311   -0.086924    1.794551
  C     -0.618649    0.737750   -0.205576
  H     -0.698479    0.358765   -1.230211
  C      0.797431    1.296963   -0.005607
  H      0.801614    1.927536    0.900848
  C      1.804942    0.163412    0.256343
  H      2.691204    0.370395   -0.357581
  C      1.237724   -1.198311   -0.183272
  H      1.927605   -1.999407    0.131661
  O      0.029702   -1.515340    0.458150
  O      1.113795   -1.185863   -1.571008
  O      2.103571    0.168078    1.628872
  O      1.236420    2.041155   -1.112175
  O     -1.602416    1.734130   -0.081480
  O     -2.866857   -0.997953   -0.516496
  H     -2.888452   -0.322232    1.431225
  H     -2.273318   -1.968256    1.134243
  H      0.769925   -2.040160   -1.876330
  H      2.841558   -0.430220    1.814209
  H      0.533103    2.652121   -1.380350
  H     -1.549912    2.140942    0.796059
  H     -3.007312   -0.093176   -0.833476

 Total Charge           Charge          ....    0
 Multiplicity           Mult            ....    1
 Number of Electrons    NEL             ....   96
 Basis Dimension        Dim             ....  192

ORBITAL ENERGIES
----------------

  NO   OCC          E(Eh)            E(eV)
   0   2.0000     -18.771582      -510.8007
   1   2.0000     -18.762858      -510.5633
   2   2.0000     -18.761941      -510.5384
   3   2.0000     -18.759249      -510.4651
   4   2.0000     -18.747251      -510.1386
   5   2.0000     -18.739934      -509.9395
   6   2.0000      -9.984536      -271.6930
   7   2.0000      -9.945174      -270.6220
   8   2.0000      -9.943089      -270.5652
   9   2.0000      -9.940743      -270.5014
  10   2.0000      -9.938814      -270.4489
  11   2.0000      -9.927332      -270.1364
  12   2.0000      -0.977957       -26.6116
  13   2.0000      -0.950849       -25.8739
  14   2.0000      -0.937525       -25.5114
  15   2.0000      -0.922454       -25.1013
  16   2.0000      -0.916623       -24.9426
  17   2.0000      -0.905925       -24.6515
  18   2.0000      -0.704167       -19.1614
  19   2.0000      -0.687953       -18.7202
  20   2.0000      -0.618709       -16.8359
  21   2.0000      -0.593095       -16.1389
  22   2.0000      -0.556083       -15.1318
  23   2.0000      -0.523220       -14.2375
  24   2.0000      -0.514175       -13.9914
  25   2.0000      -0.490478       -13.3466
  26   2.0000      -0.467017       -12.7082
  27   2.0000      -0.463312       -12.6074
  28   2.0000      -0.441294       -12.0082
  29   2.0000      -0.422331       -11.4922
  30   2.0000      -0.420643       -11.4463
  31   2.0000      -0.391835       -10.6624
  32   2.0000      -0.382335       -10.4039
  33   2.0000      -0.370560       -10.0835
  34   2.0000      -0.358725        -9.7614
  35   2.0000      -0.356548        -9.7022
  36   2.0000      -0.340788        -9.2733
  37   2.0000      -0.309000        -8.4083
  38   2.0000      -0.302002        -8.2179
  39   2.0000      -0.293373        -7.9831
  40   2.0000      -0.277236        -7.5440
  41   2.0000      -0.271654        -7.3921
  42   2.0000      -0.248658        -6.7663
  43   2.0000      -0.245676        -6.6852
  44   2.0000      -0.229999        -6.2586
  45   2.0000      -0.221024        -6.0144
  46   2.0000      -0.210047        -5.7157
  47   2.0000      -0.205589        -5.5944
  48   0.0000       0.007438         0.2024
  49   0.0000       0.017440         0.4746
  50   0.0000       0.032286         0.8785
  51   0.0000       0.050520         1.3747
  52   0.0000       0.052849         1.4381

MULLIKEN ATOMIC CHARGES
-----------------------
   0 C :    0.083798
   1 C :    0.020454
   2 H :    0.052130
   3 C :    0.007903
   4 H :    0.075274
   5 C :    0.082023
   6 H :    0.049607
   7 C :    0.048357
   8 H :    0.084615
   9 C :    0.151140
  10 H :    0.044890
  11 O :   -0.309870
  12 O :   -0.380246
  13 O :   -0.417912
  14 O :   -0.406953
  15 O :   -0.420433
  16 O :   -0.439389
  17 H :    0.060498
  18 H :    0.092443
  19 H :    0.306453
  20 H :    0.304518
  21 H :    0.301565
  22 H :    0.301938
  23 H :    0.307198
Sum of atomic charges:   -0.0000000

LOEWDIN ATOMIC CHARGES
----------------------
   0 C :   -0.125172
   1 C :   -0.074286
   2 H :    0.102823
   3 C :   -0.103120
   4 H :    0.121890
   5 C :   -0.062275
   6 H :    0.100476
   7 C :   -0.072846
   8 H :    0.118403
   9 C :   -0.012302
  10 H :    0.088592
  11 O :   -0.147001
  12 O :   -0.307042
  13 O :   -0.311274
  14 O :   -0.314214
  15 O :   -0.313808
  16 O :   -0.334895
  17 H :    0.094294
  18 H :    0.120994
  19 H :    0.288703
  20 H :    0.289347
  21 H :    0.284890
  22 H :    0.285656
  23 H :    0.282166

  Mayer bond orders larger than 0.100000
B(  0-C ,  1-C ) :   0.9962 B(  0-C , 16-O ) :   1.1031 B(  0-C , 17-H ) :   0.9148
B(  0-C , 18-H ) :   0.9210 B(  1-C ,  2-H ) :   0.8763 B(  1-C ,  3-C ) :   1.0440
B(  1-C , 11-O ) :   0.9769 B(  3-C ,  4-H ) :   0.7984 B(  3-C ,  5-C ) :   1.0936
B(  3-C , 15-O ) :   0.9981 B(  5-C ,  6-H ) :   0.8702 B(  5-C ,  7-C ) :   0.9778
B(  5-C , 14-O ) :   1.1011 B(  7-C ,  8-H ) :   0.8695 B(  7-C ,  9-C ) :   1.0423
B(  7-C , 13-O ) :   1.0319 B(  9-C , 10-H ) :   0.8939 B(  9-C , 11-O ) :   1.0737
B(  9-C , 12-O ) :   1.1436 B( 12-O , 19-H ) :   0.8378 B( 13-O , 20-H ) :   0.8462
B( 14-O , 21-H ) :   0.8414 B( 15-O , 22-H ) :   0.8441 B( 16-O , 23-H ) :   0.8355

Dispersion correction           -0.024907328
FINAL SINGLE POINT ENERGY      -685.690657113228

DIPOLE MOMENT
-------------

Method             : SCF
Type of density    : Electron Density
Multiplicity       :   1
Irrep              :   0
Energy             :  -685.8207252073349309 Eh
Relativity type    :
Basis              : AO
                                X                 Y                 Z
Electronic contribution:      1.633068402      -0.274569152      -1.592623245
Nuclear contribution   :     -1.355234186       0.481505825       2.163411996
                        -----------------------------------------
Total Dipole Moment    :      0.277834216       0.206936673       0.570788752
                        -----------------------------------------
Magnitude (a.u.)       :      0.667693370
Magnitude (Debye)      :      1.697141674

Rotational constants in cm-1:             0.041179             0.026866             0.022354
Rotational constants in MHz :          1234.530138           805.428187           670.151416

                             ****ORCA TERMINATED NORMALLY****
TOTAL RUN TIME: 0 days 0 hours 0 minutes 12 seconds 56 msec
