                         Program Version 6.0.0  -   RELEASE  -
|  1> ! pbe def2-sv(p) def2/J RI DEFGRID1 loosescf d4 GCP(DFT/SV(P)) printgap
|  2> %output
|  3>     printlevel normal
|  4> end
|  5> * xyz 0 1
|  6> C -2.5399050729 -0.9379657198 0.3327948051
|  7> C -1.110663087 -0.4584393831 0.6262693111
|  8> H -0.9697033275 -0.3774690646 1.7149099398
|  9> C -0.8283110847 0.9213402386 -0.002383701
| 10> H -1.0470223 0.8634529566 -1.0767908784
| 11> C 0.6553367326 1.2955197525 0.1801644038
| 12> H 0.8439889506 1.4797626823 1.2432116588
| 13> C 1.5591309295 0.1487691328 -0.2953817878
| 14> H 1.4588274392 0.0333564512 -1.386810293
| 15> C 1.1190705272 -1.176974734 0.3488942629
| 16> H 1.2834861802 -1.1062983512 1.4447408532
| 17> O -0.2387387316 -1.4425240113 0.0994736749
| 18> O 1.8717680705 -2.1893568121 -0.2125824706
| 19> O 2.884301563 0.4504270537 0.0502392355
| 20> O 0.9669071116 2.506882994 -0.4500047634
| 21> O -1.602788508 1.9171898721 0.6209066279
| 22> O -2.8207407805 -0.9724454951 -1.0420012925
| 23> H -3.2516019637 -0.2453253889 0.7830767863
| 24> H -2.6701157726 -1.9283262081 0.7835436468
| 25> H 1.5273225516 -3.052768044 0.0645870332
| 26> H 3.4558701673 -0.2804781963 -0.2310186612
| 27> H 0.8689855648 2.4169484388 -1.409876669
| 28> H -2.4524742268 2.0068328271 0.1685279018
| 29> H -2.2363833426 -1.6226871149 -1.4575993143
| 30> *
| 31>
| 32>                          ****END OF INPUT****

CARTESIAN COORDINATES (ANGSTROEM)
---------------------------------
  C     -2.539905   -0.937966    0.332795
  C     -1.110663   -0.458439    0.626269
  H     -0.969703   -0.377469    1.714910
  C     -0.828311    0.921340   -0.002384
  H     -1.047022    0.863453   -1.076791
  C      0.655337    1.295520    0.180164
  H      0.843989    1.479763    1.243212
  C      1.559131    0.148769   -0.295382
  H      1.458827    0.033356   -1.386810
  C      1.119071   -1.176975    0.348894
  H      1.283486   -1.106298    1.444741
  O     -0.238739   -1.442524    0.099474
  O      1.871768   -2.189357   -0.212582
  O      2.884302    0.450427    0.050239
  O      0.966907    2.506883   -0.450005
  O     -1.602789    1.917190    0.620907
  O     -2.820741   -0.972445   -1.042001
  H     -3.251602   -0.245325    0.783077
  H     -2.670116   -1.928326    0.783544
  H      1.527323   -3.052768    0.064587
  H      3.455870   -0.280478   -0.231019
  H      0.868986    2.416948   -1.409877
  H     -2.452474    2.006833    0.168528
  H     -2.236383   -1.622687   -1.457599

 Total Charge           Charge          ....    0
 Multiplicity           Mult            ....    1
 Number of Electrons    NEL             ....   96
 Basis Dimension        Dim             ....  192

ORBITAL ENERGIES
----------------

  NO   OCC          E(Eh)            E(eV)
   0   2.0000     -18.781419      -511.0684
   1   2.0000     -18.773796      -510.8610
   2   2.0000     -18.758328      -510.4401
   3   2.0000     -18.754205      -510.3279
   4   2.0000     -18.748181      -510.1639
   5   2.0000     -18.740103      -509.9441
   6   2.0000      -9.991368      -271.8789
   7   2.0000      -9.945860      -270.6406
   8   2.0000      -9.941657      -270.5262
   9   2.0000      -9.940728      -270.5010
  10   2.0000      -9.940173      -270.4859
  11   2.0000      -9.938191      -270.4319
  12   2.0000      -0.993588       -27.0369
  13   2.0000      -0.942851       -25.6563
  14   2.0000      -0.937502       -25.5107
  15   2.0000      -0.927446       -25.2371
  16   2.0000      -0.920837       -25.0572
  17   2.0000      -0.910007       -24.7626
  18   2.0000      -0.701586       -19.0911
  19   2.0000      -0.693404       -18.8685
  20   2.0000      -0.624193       -16.9851
  21   2.0000      -0.582912       -15.8618
  22   2.0000      -0.564364       -15.3571
  23   2.0000      -0.533519       -14.5178
  24   2.0000      -0.508554       -13.8385
  25   2.0000      -0.486471       -13.2375
  26   2.0000      -0.472119       -12.8470
  27   2.0000      -0.468960       -12.7610
  28   2.0000      -0.460487       -12.5305
  29   2.0000      -0.430456       -11.7133
  30   2.0000      -0.423170       -11.5150
  31   2.0000      -0.401567       -10.9272
  32   2.0000      -0.384121       -10.4525
  33   2.0000      -0.370220       -10.0742
  34   2.0000      -0.362606        -9.8670
  35   2.0000      -0.353313        -9.6141
  36   2.0000      -0.327477        -8.9111
  37   2.0000      -0.325177        -8.8485
  38   2.0000      -0.300586        -8.1794
  39   2.0000      -0.291008        -7.9187
  40   2.0000      -0.283474        -7.7137
  41   2.0000      -0.268808        -7.3146
  42   2.0000      -0.263405        -7.1676
  43   2.0000      -0.247046        -6.7225
  44   2.0000      -0.232586        -6.3290
  45   2.0000      -0.223312        -6.0766
  46   2.0000      -0.212967        -5.7951
  47   2.0000      -0.203558        -5.5391
  48   0.0000       0.015085         0.4105
  49   0.0000       0.020852         0.5674
  50   0.0000       0.025962         0.7065
  51   0.0000       0.038364         1.0439
  52   0.0000       0.059423         1.6170

MULLIKEN ATOMIC CHARGES
-----------------------
   0 C :    0.076440
   1 C :   -0.010749
   2 H :    0.056821
   3 C :    0.030974
   4 H :    0.036888
   5 C :    0.122759
   6 H :    0.068775
   7 C :    0.038404
   8 H :    0.037726
   9 C :    0.169741
  10 H :    0.041943
  11 O :   -0.321818
  12 O :   -0.385964
  13 O :   -0.403758
  14 O :   -0.400343
  15 O :   -0.402847
  16 O :   -0.438933
  17 H :    0.080175
  18 H :    0.084121
  19 H :    0.309693
  20 H :    0.305025
  21 H :    0.290705
  22 H :    0.311081
  23 H :    0.303140
Sum of atomic charges:    0.0000000

LOEWDIN ATOMIC CHARGES
----------------------
   0 C :   -0.126861
   1 C :   -0.082536
   2 H :    0.107581
   3 C :   -0.079236
   4 H :    0.097576
   5 C :   -0.064098
   6 H :    0.123764
   7 C :   -0.088145
   8 H :    0.097264
   9 C :   -0.008059
  10 H :    0.083243
  11 O :   -0.161258
  12 O :   -0.300223
  13 O :   -0.311188
  14 O :   -0.299967
  15 O :   -0.310368
  16 O :   -0.333694
  17 H :    0.113522
  18 H :    0.103991
  19 H :    0.292067
  20 H :    0.287285
  21 H :    0.280783
  22 H :    0.293030
  23 H :    0.285526

  Mayer bond orders larger than 0.100000
B(  0-C ,  1-C ) :   1.0321 B(  0-C , 16-O ) :   1.0666 B(  0-C , 17-H ) :   0.9159
B(  0-C , 18-H ) :   0.9200 B(  1-C ,  2-H ) :   0.8691 B(  1-C ,  3-C ) :   0.9730
B(  1-C , 11-O ) :   0.9742 B(  3-C ,  4-H ) :   0.8664 B(  3-C ,  5-C ) :   0.9889
B(  3-C , 15-O ) :   1.0999 B(  5-C ,  6-H ) :   0.8680 B(  5-C ,  7-C ) :   0.9924
B(  5-C , 14-O ) :   1.0700 B(  7-C ,  8-H ) :   0.8610 B(  7-C ,  9-C ) :   0.9872
B(  7-C , 13-O ) :   1.0944 B(  9-C , 10-H ) :   0.8860 B(  9-C , 11-O ) :   1.0064
B(  9-C , 12-O ) :   1.1650 B( 12-O , 19-H ) :   0.8378 B( 13-O , 20-H ) :   0.8406
B( 14-O , 21-H ) :   0.8505 B( 15-O , 22-H ) :   0.8442 B( 16-O , 23-H ) :   0.8431

Dispersion correction           -0.023882968
FINAL SINGLE POINT ENERGY      -685.696801784684

DIPOLE MOMENT
-------------

Method             : SCF
Type of density    : Electron Density
Multiplicity       :   1
Irrep              :   0
Energy             :  -685.8256927383254151 Eh
Relativity type    :
Basis              : AO
                                X                 Y                 Z
Electronic contribution:      2.599099036       0.335701409      -0.945576284
Nuclear contribution   :     -2.975941850      -1.696899012       0.587063565
                        -----------------------------------------
Total Dipole Moment    :     -0.376842815      -1.361197603      -0.358512719
                        -----------------------------------------
Magnitude (a.u.)       :      1.457189346
Magnitude (Debye)      :      3.703880966

Rotational constants in cm-1:             0.039334             0.026879             0.017697
Rotational constants in MHz :          1179.190127           805.811036           530.547819

                             ****ORCA TERMINATED NORMALLY****
TOTAL RUN TIME: 0 days 0 hours 0 minutes 11 seconds 689 msec
