                         Program Version 6.0.0  -   RELEASE  -
|  1> ! r2scan-3c def2/J RI DEFGRID2 scfconv6 printgap
|  2> %output
|  3>     printlevel normal
|  4> end
|  5> * xyz 0 1
|  6> C -1.8885696994 -1.2389699352 -0.0090572522
|  7> C -1.5166287349 0.2370457401 0.0079038514
|  8> C -0.0341062157 0.5055460749 0.0055762077
|  9> O 0.4468120104 1.6230064597 0.0026686543
| 10> O 0.6959146954 -0.5994440918 -0.0005980786
| 11> C 2.1194879596 -0.4742469536 -0.0052563795
| 12> H -2.9697257703 -1.3424672256 -0.0046215171
| 13> H -1.4938217879 -1.7225721909 -0.8979742139
| 14> H -1.4842747907 -1.7452971632 0.8627533673
| 15> H -1.9249312359 0.7308075597 0.8926695947
| 16> H -1.932479113 0.7538362042 -0.859958757
| 17> H 2.4798995122 -0.4120488526 1.0217334366
| 18> H 2.4141693802 0.4252926696 -0.5472833606
| 19> H 2.4993379377 -1.3688453781 -0.4902525945
| 20> *
| 21>
| 22>                          ****END OF INPUT****

CARTESIAN COORDINATES (ANGSTROEM)
---------------------------------
  C     -1.888570   -1.238970   -0.009057
  C     -1.516629    0.237046    0.007904
  C     -0.034106    0.505546    0.005576
  O      0.446812    1.623006    0.002669
  O      0.695915   -0.599444   -0.000598
  C      2.119488   -0.474247   -0.005256
  H     -2.969726   -1.342467   -0.004622
  H     -1.493822   -1.722572   -0.897974
  H     -1.484275   -1.745297    0.862753
  H     -1.924931    0.730808    0.892670
  H     -1.932479    0.753836   -0.859959
  H      2.479900   -0.412049    1.021733
  H      2.414169    0.425293   -0.547283
  H      2.499338   -1.368845   -0.490253

 Total Charge           Charge          ....    0
 Multiplicity           Mult            ....    1
 Number of Electrons    NEL             ....   48
 Basis Dimension        Dim             ....  164

ORBITAL ENERGIES
----------------

  NO   OCC          E(Eh)            E(eV)
   0   2.0000     -19.002099      -517.0734
   1   2.0000     -18.926051      -515.0040
   2   2.0000     -10.153519      -276.2913
   3   2.0000     -10.087716      -274.5007
   4   2.0000     -10.046519      -273.3797
   5   2.0000     -10.025599      -272.8104
   6   2.0000      -1.075488       -29.2655
   7   2.0000      -0.974331       -26.5129
   8   2.0000      -0.762292       -20.7430
   9   2.0000      -0.694202       -18.8902
  10   2.0000      -0.616380       -16.7726
  11   2.0000      -0.537121       -14.6158
  12   2.0000      -0.469666       -12.7803
  13   2.0000      -0.463568       -12.6143
  14   2.0000      -0.433315       -11.7911
  15   2.0000      -0.422910       -11.5080
  16   2.0000      -0.392586       -10.6828
  17   2.0000      -0.363632        -9.8949
  18   2.0000      -0.360897        -9.8205
  19   2.0000      -0.338220        -9.2034
  20   2.0000      -0.321115        -8.7380
  21   2.0000      -0.318997        -8.6804
  22   2.0000      -0.272472        -7.4143
  23   2.0000      -0.234317        -6.3761
  24   0.0000      -0.014247        -0.3877
  25   0.0000       0.061489         1.6732
  26   0.0000       0.098084         2.6690
  27   0.0000       0.115001         3.1293
  28   0.0000       0.125437         3.4133

MULLIKEN ATOMIC CHARGES
-----------------------
   0 C :   -0.464120
   1 C :   -0.288334
   2 C :    0.367703
   3 O :   -0.424510
   4 O :   -0.160720
   5 C :   -0.298423
   6 H :    0.146138
   7 H :    0.154150
   8 H :    0.154200
   9 H :    0.166513
  10 H :    0.166939
  11 H :    0.152269
  12 H :    0.178537
  13 H :    0.149657
Sum of atomic charges:   -0.0000000

LOEWDIN ATOMIC CHARGES
----------------------
   0 C :   -0.401165
   1 C :   -0.236024
   2 C :    0.357672
   3 O :   -0.437931
   4 O :   -0.609883
   5 C :   -0.041840
   6 H :    0.150096
   7 H :    0.159518
   8 H :    0.159800
   9 H :    0.181536
  10 H :    0.181728
  11 H :    0.173358
  12 H :    0.187636
  13 H :    0.175499

  Mayer bond orders larger than 0.100000
B(  0-C ,  1-C ) :   0.9092 B(  0-C ,  6-H ) :   0.9666 B(  0-C ,  7-H ) :   0.9779
B(  0-C ,  8-H ) :   0.9776 B(  1-C ,  2-C ) :   1.0191 B(  1-C ,  9-H ) :   0.9407
B(  1-C , 10-H ) :   0.9403 B(  2-C ,  3-O ) :   1.8392 B(  2-C ,  4-O ) :   1.0951
B(  4-O ,  5-C ) :   0.8404 B(  5-C , 11-H ) :   0.9584 B(  5-C , 12-H ) :   0.9643
B(  5-C , 13-H ) :   0.9708

Dispersion correction           -0.003012441
FINAL SINGLE POINT ENERGY      -307.630467437485

DIPOLE MOMENT
-------------

Method             : SCF
Type of density    : Electron Density
Multiplicity       :   1
Irrep              :   0
Energy             :  -307.6369356656614400 Eh
Relativity type    :
Basis              : AO
                                X                 Y                 Z
Electronic contribution:      2.214083780       3.531749259       0.016198169
Nuclear contribution   :     -2.245736421      -4.376661124      -0.021485351
                        -----------------------------------------
Total Dipole Moment    :     -0.031652641      -0.844911865      -0.005287182
                        -----------------------------------------
Magnitude (a.u.)       :      0.845521084
Magnitude (Debye)      :      2.149143800

Rotational constants in cm-1:             0.198869             0.091983             0.065183
Rotational constants in MHz :          5961.938309          2757.583019          1954.149920

                             ****ORCA TERMINATED NORMALLY****
TOTAL RUN TIME: 0 days 0 hours 0 minutes 16 seconds 807 msec
