                         Program Version 6.0.0  -   RELEASE  -
|  1> ! r2scan-3c def2/J RI DEFGRID2 scfconv6 printgap
|  2> %output
|  3>     printlevel normal
|  4> end
|  5> %cpcm
|  6>     smd true
|  7>     smdsolvent "water"
|  8> end
|  9> * xyz 0 1
| 10> C -1.8885696994 -1.2389699352 -0.0090572522
| 11> C -1.5166287349 0.2370457401 0.0079038514
| 12> C -0.0341062157 0.5055460749 0.0055762077
| 13> O 0.4468120104 1.6230064597 0.0026686543
| 14> O 0.6959146954 -0.5994440918 -0.0005980786
| 15> C 2.1194879596 -0.4742469536 -0.0052563795
| 16> H -2.9697257703 -1.3424672256 -0.0046215171
| 17> H -1.4938217879 -1.7225721909 -0.8979742139
| 18> H -1.4842747907 -1.7452971632 0.8627533673
| 19> H -1.9249312359 0.7308075597 0.8926695947
| 20> H -1.932479113 0.7538362042 -0.859958757
| 21> H 2.4798995122 -0.4120488526 1.0217334366
| 22> H 2.4141693802 0.4252926696 -0.5472833606
| 23> H 2.4993379377 -1.3688453781 -0.4902525945
| 24> *
| 25>
| 26>                          ****END OF INPUT****

CARTESIAN COORDINATES (ANGSTROEM)
---------------------------------
  C     -1.888570   -1.238970   -0.009057
  C     -1.516629    0.237046    0.007904
  C     -0.034106    0.505546    0.005576
  O      0.446812    1.623006    0.002669
  O      0.695915   -0.599444   -0.000598
  C      2.119488   -0.474247   -0.005256
  H     -2.969726   -1.342467   -0.004622
  H     -1.493822   -1.722572   -0.897974
  H     -1.484275   -1.745297    0.862753
  H     -1.924931    0.730808    0.892670
  H     -1.932479    0.753836   -0.859959
  H      2.479900   -0.412049    1.021733
  H      2.414169    0.425293   -0.547283
  H      2.499338   -1.368845   -0.490253

 Total Charge           Charge          ....    0
 Multiplicity           Mult            ....    1
 Number of Electrons    NEL             ....   48
 Basis Dimension        Dim             ....  164

ORBITAL ENERGIES
----------------

  NO   OCC          E(Eh)            E(eV)
   0   2.0000     -19.006034      -517.1805
   1   2.0000     -18.941215      -515.4167
   2   2.0000     -10.162887      -276.5462
   3   2.0000     -10.076433      -274.1937
   4   2.0000     -10.039122      -273.1784
   5   2.0000     -10.015906      -272.5467
   6   2.0000      -1.080820       -29.4106
   7   2.0000      -0.987518       -26.8717
   8   2.0000      -0.756596       -20.5880
   9   2.0000      -0.687151       -18.6983
  10   2.0000      -0.609997       -16.5989
  11   2.0000      -0.533558       -14.5189
  12   2.0000      -0.467309       -12.7161
  13   2.0000      -0.461684       -12.5631
  14   2.0000      -0.449897       -12.2423
  15   2.0000      -0.413128       -11.2418
  16   2.0000      -0.385391       -10.4870
  17   2.0000      -0.361713        -9.8427
  18   2.0000      -0.358407        -9.7527
  19   2.0000      -0.330895        -9.0041
  20   2.0000      -0.320870        -8.7313
  21   2.0000      -0.312319        -8.4986
  22   2.0000      -0.279810        -7.6140
  23   2.0000      -0.250218        -6.8088
  24   0.0000      -0.020754        -0.5648
  25   0.0000       0.068725         1.8701
  26   0.0000       0.106650         2.9021
  27   0.0000       0.126267         3.4359
  28   0.0000       0.132135         3.5956

MULLIKEN ATOMIC CHARGES
-----------------------
   0 C :   -0.511900
   1 C :   -0.289465
   2 C :    0.409245
   3 O :   -0.516681
   4 O :   -0.173763
   5 C :   -0.324553
   6 H :    0.163700
   7 H :    0.165695
   8 H :    0.165392
   9 H :    0.188351
  10 H :    0.188124
  11 H :    0.179961
  12 H :    0.178772
  13 H :    0.177122
Sum of atomic charges:    0.0000000

LOEWDIN ATOMIC CHARGES
----------------------
   0 C :   -0.404738
   1 C :   -0.233190
   2 C :    0.369120
   3 O :   -0.503697
   4 O :   -0.609151
   5 C :   -0.038138
   6 H :    0.157003
   7 H :    0.161497
   8 H :    0.161666
   9 H :    0.190570
  10 H :    0.190501
  11 H :    0.183066
  12 H :    0.187849
  13 H :    0.187643

  Mayer bond orders larger than 0.100000
B(  0-C ,  1-C ) :   0.8908 B(  0-C ,  6-H ) :   0.9611 B(  0-C ,  7-H ) :   0.9778
B(  0-C ,  8-H ) :   0.9775 B(  1-C ,  2-C ) :   1.0257 B(  1-C ,  9-H ) :   0.9299
B(  1-C , 10-H ) :   0.9302 B(  2-C ,  3-O ) :   1.7670 B(  2-C ,  4-O ) :   1.1248
B(  4-O ,  5-C ) :   0.8237 B(  5-C , 11-H ) :   0.9510 B(  5-C , 12-H ) :   0.9607
B(  5-C , 13-H ) :   0.9608

Dispersion correction           -0.003012441
FINAL SINGLE POINT ENERGY      -307.635972829452

DIPOLE MOMENT
-------------

Method             : SCF
Type of density    : Electron Density
Multiplicity       :   1
Irrep              :   0
Energy             :  -307.6424410576278774 Eh
Relativity type    :
Basis              : AO
                                X                 Y                 Z
Electronic contribution:      2.150964771       3.212742696       0.019567190
Nuclear contribution   :     -2.245736421      -4.376661124      -0.021485351
                        -----------------------------------------
Total Dipole Moment    :     -0.094771650      -1.163918428      -0.001918161
                        -----------------------------------------
Magnitude (a.u.)       :      1.167772004
Magnitude (Debye)      :      2.968240544

Rotational constants in cm-1:             0.198869             0.091983             0.065183
Rotational constants in MHz :          5961.938309          2757.583019          1954.149920

                             ****ORCA TERMINATED NORMALLY****
TOTAL RUN TIME: 0 days 0 hours 0 minutes 21 seconds 310 msec
