                         Program Version 6.0.0  -   RELEASE  -
|  1> ! r2scan-3c def2/J RI DEFGRID2 scfconv6 printgap
|  2> %output
|  3>     printlevel normal
|  4> end
|  5> * xyz 0 1
|  6> C -2.3204973154 0.2766036073 0.9472726031
|  7> C -1.7443597931 0.5234928861 -0.4426737638
|  8> C -0.5529065424 -0.3589877122 -0.8305641885
|  9> C 0.7957699497 -0.151521287 -0.1074578379
| 10> C 1.8903294092 -0.759049441 -0.9963129146
| 11> C 1.1031153435 1.3330856664 0.0975105849
| 12> C 0.8326986189 -0.8761199864 1.2411616244
| 13> H -3.2840228321 0.7735080983 1.0417041964
| 14> H -2.4665035948 -0.7875085849 1.1178357115
| 15> H -1.6697136459 0.6673511959 1.724449432
| 16> H -2.5322562277 0.3234932407 -1.1743511404
| 17> H -1.4755625635 1.5756056968 -0.543098659
| 18> H -0.3787834304 -0.1905306363 -1.8969522127
| 19> H -0.8448773136 -1.4058818631 -0.7151371135
| 20> H 1.6746976983 -1.8045451882 -1.2058294621
| 21> H 1.9587381232 -0.226579606 -1.9424895745
| 22> H 2.8580322953 -0.7020814946 -0.5028656984
| 23> H 1.0279554753 1.8727548205 -0.8439801365
| 24> H 2.1146825854 1.4532698688 0.4795311412
| 25> H 0.4183014433 1.7809978268 0.8122802387
| 26> H 1.8203087758 -0.7793790935 1.6880001939
| 27> H 0.1079273737 -0.4663435743 1.9360710548
| 28> H 0.6216248091 -1.9352144838 1.1100273978
| 29> *
| 30>
| 31>                          ****END OF INPUT****

CARTESIAN COORDINATES (ANGSTROEM)
---------------------------------
  C     -2.320497    0.276604    0.947273
  C     -1.744360    0.523493   -0.442674
  C     -0.552907   -0.358988   -0.830564
  C      0.795770   -0.151521   -0.107458
  C      1.890329   -0.759049   -0.996313
  C      1.103115    1.333086    0.097511
  C      0.832699   -0.876120    1.241162
  H     -3.284023    0.773508    1.041704
  H     -2.466504   -0.787509    1.117836
  H     -1.669714    0.667351    1.724449
  H     -2.532256    0.323493   -1.174351
  H     -1.475563    1.575606   -0.543099
  H     -0.378783   -0.190531   -1.896952
  H     -0.844877   -1.405882   -0.715137
  H      1.674698   -1.804545   -1.205829
  H      1.958738   -0.226580   -1.942490
  H      2.858032   -0.702081   -0.502866
  H      1.027955    1.872755   -0.843980
  H      2.114683    1.453270    0.479531
  H      0.418301    1.780998    0.812280
  H      1.820309   -0.779379    1.688000
  H      0.107927   -0.466344    1.936071
  H      0.621625   -1.935214    1.110027

 Total Charge           Charge          ....    0
 Multiplicity           Mult            ....    1
 Number of Electrons    NEL             ....   58
 Basis Dimension        Dim             ....  213

ORBITAL ENERGIES
----------------

  NO   OCC          E(Eh)            E(eV)
   0   2.0000     -10.038492      -273.1612
   1   2.0000     -10.021937      -272.7108
   2   2.0000     -10.018428      -272.6153
   3   2.0000     -10.013711      -272.4869
   4   2.0000     -10.012142      -272.4442
   5   2.0000     -10.010865      -272.4095
   6   2.0000     -10.009803      -272.3806
   7   2.0000      -0.791340       -21.5335
   8   2.0000      -0.731175       -19.8963
   9   2.0000      -0.651271       -17.7220
  10   2.0000      -0.649727       -17.6800
  11   2.0000      -0.640927       -17.4405
  12   2.0000      -0.556616       -15.1463
  13   2.0000      -0.490555       -13.3487
  14   2.0000      -0.436338       -11.8734
  15   2.0000      -0.422837       -11.5060
  16   2.0000      -0.411685       -11.2025
  17   2.0000      -0.392813       -10.6890
  18   2.0000      -0.382241       -10.4013
  19   2.0000      -0.363729        -9.8976
  20   2.0000      -0.350946        -9.5497
  21   2.0000      -0.344529        -9.3751
  22   2.0000      -0.330423        -8.9913
  23   2.0000      -0.321804        -8.7567
  24   2.0000      -0.308012        -8.3814
  25   2.0000      -0.304515        -8.2863
  26   2.0000      -0.282695        -7.6925
  27   2.0000      -0.276525        -7.5246
  28   2.0000      -0.268591        -7.3087
  29   0.0000       0.074370         2.0237
  30   0.0000       0.107147         2.9156
  31   0.0000       0.111975         3.0470
  32   0.0000       0.122328         3.3287
  33   0.0000       0.130522         3.5517

MULLIKEN ATOMIC CHARGES
-----------------------
   0 C :   -0.485972
   1 C :   -0.252792
   2 C :   -0.300069
   3 C :    0.148544
   4 C :   -0.494873
   5 C :   -0.515560
   6 C :   -0.504152
   7 H :    0.144727
   8 H :    0.149306
   9 H :    0.141964
  10 H :    0.140005
  11 H :    0.151935
  12 H :    0.147526
  13 H :    0.151246
  14 H :    0.152773
  15 H :    0.152327
  16 H :    0.151432
  17 H :    0.158465
  18 H :    0.151322
  19 H :    0.156654
  20 H :    0.148832
  21 H :    0.151180
  22 H :    0.155179
Sum of atomic charges:   -0.0000000

LOEWDIN ATOMIC CHARGES
----------------------
   0 C :   -0.428036
   1 C :   -0.313072
   2 C :   -0.298071
   3 C :   -0.211936
   4 C :   -0.411131
   5 C :   -0.407863
   6 C :   -0.407386
   7 H :    0.150022
   8 H :    0.150724
   9 H :    0.145232
  10 H :    0.152637
  11 H :    0.153561
  12 H :    0.161974
  13 H :    0.159789
  14 H :    0.157149
  15 H :    0.154736
  16 H :    0.154138
  17 H :    0.157545
  18 H :    0.157306
  19 H :    0.155453
  20 H :    0.155026
  21 H :    0.155923
  22 H :    0.156279

  Mayer bond orders larger than 0.100000
B(  0-C ,  1-C ) :   0.8750 B(  0-C ,  7-H ) :   0.9703 B(  0-C ,  8-H ) :   0.9825
B(  0-C ,  9-H ) :   0.9820 B(  1-C ,  2-C ) :   0.9085 B(  1-C , 10-H ) :   0.9683
B(  1-C , 11-H ) :   0.9841 B(  2-C ,  3-C ) :   0.8617 B(  2-C , 12-H ) :   0.9727
B(  2-C , 13-H ) :   0.9867 B(  3-C ,  4-C ) :   0.9302 B(  3-C ,  5-C ) :   0.8984
B(  3-C ,  6-C ) :   0.9424 B(  4-C , 14-H ) :   0.9765 B(  4-C , 15-H ) :   0.9767
B(  4-C , 16-H ) :   0.9792 B(  5-C , 17-H ) :   0.9785 B(  5-C , 18-H ) :   0.9728
B(  5-C , 19-H ) :   0.9719 B(  6-C , 20-H ) :   0.9784 B(  6-C , 21-H ) :   0.9625
B(  6-C , 22-H ) :   0.9798

Dispersion correction           -0.006720131
FINAL SINGLE POINT ENERGY      -276.285781595635

DIPOLE MOMENT
-------------

Method             : SCF
Type of density    : Electron Density
Multiplicity       :   1
Irrep              :   0
Energy             :  -276.2904569956386354 Eh
Relativity type    :
Basis              : AO
                                X                 Y                 Z
Electronic contribution:      0.007096340      -0.124898551      -1.053278688
Nuclear contribution   :     -0.046393048       0.139707458       1.018088446
                        -----------------------------------------
Total Dipole Moment    :     -0.039296708       0.014808906      -0.035190242
                        -----------------------------------------
Magnitude (a.u.)       :      0.054789489
Magnitude (Debye)      :      0.139263813

Rotational constants in cm-1:             0.125287             0.055570             0.053144
Rotational constants in MHz :          3756.013825          1665.955325          1593.216094

                             ****ORCA TERMINATED NORMALLY****
TOTAL RUN TIME: 0 days 0 hours 0 minutes 17 seconds 959 msec
