                         Program Version 6.0.0  -   RELEASE  -
|  1> ! r2scan-3c def2/J RI DEFGRID2 scfconv6 printgap
|  2> %output
|  3>     printlevel normal
|  4> end
|  5> %cpcm
|  6>     smd true
|  7>     smdsolvent "water"
|  8> end
|  9> * xyz 0 1
| 10> C -2.3204973154 0.2766036073 0.9472726031
| 11> C -1.7443597931 0.5234928861 -0.4426737638
| 12> C -0.5529065424 -0.3589877122 -0.8305641885
| 13> C 0.7957699497 -0.151521287 -0.1074578379
| 14> C 1.8903294092 -0.759049441 -0.9963129146
| 15> C 1.1031153435 1.3330856664 0.0975105849
| 16> C 0.8326986189 -0.8761199864 1.2411616244
| 17> H -3.2840228321 0.7735080983 1.0417041964
| 18> H -2.4665035948 -0.7875085849 1.1178357115
| 19> H -1.6697136459 0.6673511959 1.724449432
| 20> H -2.5322562277 0.3234932407 -1.1743511404
| 21> H -1.4755625635 1.5756056968 -0.543098659
| 22> H -0.3787834304 -0.1905306363 -1.8969522127
| 23> H -0.8448773136 -1.4058818631 -0.7151371135
| 24> H 1.6746976983 -1.8045451882 -1.2058294621
| 25> H 1.9587381232 -0.226579606 -1.9424895745
| 26> H 2.8580322953 -0.7020814946 -0.5028656984
| 27> H 1.0279554753 1.8727548205 -0.8439801365
| 28> H 2.1146825854 1.4532698688 0.4795311412
| 29> H 0.4183014433 1.7809978268 0.8122802387
| 30> H 1.8203087758 -0.7793790935 1.6880001939
| 31> H 0.1079273737 -0.4663435743 1.9360710548
| 32> H 0.6216248091 -1.9352144838 1.1100273978
| 33> *
| 34>
| 35>                          ****END OF INPUT****

CARTESIAN COORDINATES (ANGSTROEM)
---------------------------------
  C     -2.320497    0.276604    0.947273
  C     -1.744360    0.523493   -0.442674
  C     -0.552907   -0.358988   -0.830564
  C      0.795770   -0.151521   -0.107458
  C      1.890329   -0.759049   -0.996313
  C      1.103115    1.333086    0.097511
  C      0.832699   -0.876120    1.241162
  H     -3.284023    0.773508    1.041704
  H     -2.466504   -0.787509    1.117836
  H     -1.669714    0.667351    1.724449
  H     -2.532256    0.323493   -1.174351
  H     -1.475563    1.575606   -0.543099
  H     -0.378783   -0.190531   -1.896952
  H     -0.844877   -1.405882   -0.715137
  H      1.674698   -1.804545   -1.205829
  H      1.958738   -0.226580   -1.942490
  H      2.858032   -0.702081   -0.502866
  H      1.027955    1.872755   -0.843980
  H      2.114683    1.453270    0.479531
  H      0.418301    1.780998    0.812280
  H      1.820309   -0.779379    1.688000
  H      0.107927   -0.466344    1.936071
  H      0.621625   -1.935214    1.110027

 Total Charge           Charge          ....    0
 Multiplicity           Mult            ....    1
 Number of Electrons    NEL             ....   58
 Basis Dimension        Dim             ....  213

ORBITAL ENERGIES
----------------

  NO   OCC          E(Eh)            E(eV)
   0   2.0000     -10.031225      -272.9635
   1   2.0000     -10.014020      -272.4953
   2   2.0000     -10.010214      -272.3918
   3   2.0000     -10.005439      -272.2618
   4   2.0000     -10.003657      -272.2134
   5   2.0000     -10.003335      -272.2046
   6   2.0000     -10.002133      -272.1719
   7   2.0000      -0.783561       -21.3218
   8   2.0000      -0.723462       -19.6864
   9   2.0000      -0.643910       -17.5217
  10   2.0000      -0.642214       -17.4755
  11   2.0000      -0.633640       -17.2422
  12   2.0000      -0.549156       -14.9433
  13   2.0000      -0.483304       -13.1514
  14   2.0000      -0.428261       -11.6536
  15   2.0000      -0.415088       -11.2951
  16   2.0000      -0.404037       -10.9944
  17   2.0000      -0.385003       -10.4765
  18   2.0000      -0.374458       -10.1895
  19   2.0000      -0.355957        -9.6861
  20   2.0000      -0.343438        -9.3454
  21   2.0000      -0.336909        -9.1678
  22   2.0000      -0.322660        -8.7800
  23   2.0000      -0.313578        -8.5329
  24   2.0000      -0.300355        -8.1731
  25   2.0000      -0.296791        -8.0761
  26   2.0000      -0.274920        -7.4809
  27   2.0000      -0.268946        -7.3184
  28   2.0000      -0.260844        -7.0979
  29   0.0000       0.083219         2.2645
  30   0.0000       0.114714         3.1215
  31   0.0000       0.119887         3.2623
  32   0.0000       0.128593         3.4992
  33   0.0000       0.137776         3.7491

MULLIKEN ATOMIC CHARGES
-----------------------
   0 C :   -0.526136
   1 C :   -0.260649
   2 C :   -0.321628
   3 C :    0.205235
   4 C :   -0.544705
   5 C :   -0.560875
   6 C :   -0.556964
   7 H :    0.153141
   8 H :    0.157669
   9 H :    0.158561
  10 H :    0.147317
  11 H :    0.157162
  12 H :    0.154034
  13 H :    0.160615
  14 H :    0.162489
  15 H :    0.163642
  16 H :    0.163012
  17 H :    0.168369
  18 H :    0.161973
  19 H :    0.168519
  20 H :    0.159988
  21 H :    0.162668
  22 H :    0.166563
Sum of atomic charges:   -0.0000000

LOEWDIN ATOMIC CHARGES
----------------------
   0 C :   -0.436465
   1 C :   -0.315146
   2 C :   -0.300764
   3 C :   -0.206861
   4 C :   -0.420114
   5 C :   -0.415751
   6 C :   -0.416476
   7 H :    0.151467
   8 H :    0.152382
   9 H :    0.149670
  10 H :    0.154000
  11 H :    0.154877
  12 H :    0.163305
  13 H :    0.161915
  14 H :    0.158797
  15 H :    0.157206
  16 H :    0.156554
  17 H :    0.159854
  18 H :    0.159091
  19 H :    0.158508
  20 H :    0.157179
  21 H :    0.158305
  22 H :    0.158467

  Mayer bond orders larger than 0.100000
B(  0-C ,  1-C ) :   0.8642 B(  0-C ,  7-H ) :   0.9684 B(  0-C ,  8-H ) :   0.9797
B(  0-C ,  9-H ) :   0.9795 B(  1-C ,  2-C ) :   0.9064 B(  1-C , 10-H ) :   0.9695
B(  1-C , 11-H ) :   0.9845 B(  2-C ,  3-C ) :   0.8571 B(  2-C , 12-H ) :   0.9732
B(  2-C , 13-H ) :   0.9862 B(  3-C ,  4-C ) :   0.9143 B(  3-C ,  5-C ) :   0.8897
B(  3-C ,  6-C ) :   0.9262 B(  4-C , 14-H ) :   0.9757 B(  4-C , 15-H ) :   0.9750
B(  4-C , 16-H ) :   0.9780 B(  5-C , 17-H ) :   0.9758 B(  5-C , 18-H ) :   0.9725
B(  5-C , 19-H ) :   0.9698 B(  6-C , 20-H ) :   0.9776 B(  6-C , 21-H ) :   0.9627
B(  6-C , 22-H ) :   0.9780

Dispersion correction           -0.006720131
FINAL SINGLE POINT ENERGY      -276.282270066102

DIPOLE MOMENT
-------------

Method             : SCF
Type of density    : Electron Density
Multiplicity       :   1
Irrep              :   0
Energy             :  -276.2869454661054647 Eh
Relativity type    :
Basis              : AO
                                X                 Y                 Z
Electronic contribution:      0.002923714      -0.112264037      -1.055051154
Nuclear contribution   :     -0.046393048       0.139707458       1.018088446
                        -----------------------------------------
Total Dipole Moment    :     -0.043469334       0.027443421      -0.036962708
                        -----------------------------------------
Magnitude (a.u.)       :      0.063316397
Magnitude (Debye)      :      0.160937490

Rotational constants in cm-1:             0.125287             0.055570             0.053144
Rotational constants in MHz :          3756.013825          1665.955325          1593.216094

                             ****ORCA TERMINATED NORMALLY****
TOTAL RUN TIME: 0 days 0 hours 0 minutes 21 seconds 690 msec
