                         Program Version 6.0.0  -   RELEASE  -
|  1> ! pbe def2-sv(p) def2/J RI DEFGRID1 loosescf d4 GCP(DFT/SV(P)) printgap
|  2> %output
|  3>     printlevel normal
|  4> end
|  5> * xyz 0 1
|  6> C -2.79216e-05 1.39617e-05 -1.0436e-05
|  7> F 0.524409405 -0.3301346337 1.1584539796
|  8> F 0.4112820951 -0.8404307591 -0.9222576575
|  9> F 0.3746882002 1.2181433355 -0.319094432
| 10> F -1.3103620485 -0.0475867693 0.0829047075
| 11> *
| 12>
| 13>                          ****END OF INPUT****

CARTESIAN COORDINATES (ANGSTROEM)
---------------------------------
  C     -0.000028    0.000014   -0.000010
  F      0.524409   -0.330135    1.158454
  F      0.411282   -0.840431   -0.922258
  F      0.374688    1.218143   -0.319094
  F     -1.310362   -0.047587    0.082905

 Total Charge           Charge          ....    0
 Multiplicity           Mult            ....    1
 Number of Electrons    NEL             ....   42
 Basis Dimension        Dim             ....   70

ORBITAL ENERGIES
----------------

  NO   OCC          E(Eh)            E(eV)
   0   2.0000     -24.316710      -661.6913
   1   2.0000     -24.316621      -661.6889
   2   2.0000     -24.316618      -661.6888
   3   2.0000     -24.316600      -661.6883
   4   2.0000     -10.209539      -277.8157
   5   2.0000      -1.260257       -34.2933
   6   2.0000      -1.140427       -31.0326
   7   2.0000      -1.140425       -31.0325
   8   2.0000      -1.140413       -31.0322
   9   2.0000      -0.647221       -17.6118
  10   2.0000      -0.574131       -15.6229
  11   2.0000      -0.574123       -15.6227
  12   2.0000      -0.574121       -15.6226
  13   2.0000      -0.435868       -11.8606
  14   2.0000      -0.435857       -11.8603
  15   2.0000      -0.415576       -11.3084
  16   2.0000      -0.415571       -11.3083
  17   2.0000      -0.415568       -11.3082
  18   2.0000      -0.366239        -9.9659
  19   2.0000      -0.366228        -9.9656
  20   2.0000      -0.366220        -9.9654
  21   0.0000       0.146420         3.9843
  22   0.0000       0.154256         4.1975
  23   0.0000       0.154283         4.1983
  24   0.0000       0.154292         4.1985
  25   0.0000       0.278787         7.5862

MULLIKEN ATOMIC CHARGES
-----------------------
   0 C :    0.423974
   1 F :   -0.105980
   2 F :   -0.106005
   3 F :   -0.105988
   4 F :   -0.106001
Sum of atomic charges:    0.0000000

LOEWDIN ATOMIC CHARGES
----------------------
   0 C :    0.051136
   1 F :   -0.012782
   2 F :   -0.012786
   3 F :   -0.012775
   4 F :   -0.012794

  Mayer bond orders larger than 0.100000
B(  0-C ,  1-F ) :   1.2034 B(  0-C ,  2-F ) :   1.2033 B(  0-C ,  3-F ) :   1.2033
B(  0-C ,  4-F ) :   1.2033

Dispersion correction           -0.002184293
FINAL SINGLE POINT ENERGY      -436.703689244844

DIPOLE MOMENT
-------------

Method             : SCF
Type of density    : Electron Density
Multiplicity       :   1
Irrep              :   0
Energy             :  -436.7453439673091680 Eh
Relativity type    :
Basis              : AO
                                X                 Y                 Z
Electronic contribution:     -0.000018314       0.000059289      -0.000013974
Nuclear contribution   :     -0.000016356       0.000008178      -0.000006113
                        -----------------------------------------
Total Dipole Moment    :     -0.000034670       0.000067467      -0.000020087
                        -----------------------------------------
Magnitude (a.u.)       :      0.000078469
Magnitude (Debye)      :      0.000199452

Rotational constants in cm-1:             0.192786             0.192779             0.192772
Rotational constants in MHz :          5779.565564          5779.380095          5779.152630

                             ****ORCA TERMINATED NORMALLY****
TOTAL RUN TIME: 0 days 0 hours 0 minutes 3 seconds 329 msec
