                         Program Version 6.0.0  -   RELEASE  -
|  1> ! r2scan-3c def2/J RI DEFGRID2 scfconv6 printgap
|  2> %output
|  3>     printlevel normal
|  4> end
|  5> * xyz 0 1
|  6> C 1.6775300393 -1.209133311 0.0464908878
|  7> C 0.9403604579 0.012564623 -0.4905970709
|  8> H 0.9004945395 -0.0147295134 -1.5890891483
|  9> C -0.5220310738 -0.022186367 -0.0164679138
| 10> F -1.1892128006 -1.0878113859 -0.4948615338
| 11> F -0.6529444535 -0.0568792045 1.3165659849
| 12> F -1.2101125284 1.0624179016 -0.4316147245
| 13> O 1.5642670058 1.1721986514 -0.0203459139
| 14> H 2.6985867767 -1.1876809803 -0.3189925228
| 15> H 1.1877848352 -2.1192755458 -0.2851208831
| 16> H 1.6934885415 -1.1743046275 1.132529283
| 17> H 1.2463858261 1.9628198773 -0.4808117235
| 18> *
| 19>
| 20>                          ****END OF INPUT****

CARTESIAN COORDINATES (ANGSTROEM)
---------------------------------
  C      1.677530   -1.209133    0.046491
  C      0.940360    0.012565   -0.490597
  H      0.900495   -0.014730   -1.589089
  C     -0.522031   -0.022186   -0.016468
  F     -1.189213   -1.087811   -0.494862
  F     -0.652944   -0.056879    1.316566
  F     -1.210113    1.062418   -0.431615
  O      1.564267    1.172199   -0.020346
  H      2.698587   -1.187681   -0.318993
  H      1.187785   -2.119276   -0.285121
  H      1.693489   -1.174305    1.132529
  H      1.246386    1.962820   -0.480812

 Total Charge           Charge          ....    0
 Multiplicity           Mult            ....    1
 Number of Electrons    NEL             ....   58
 Basis Dimension        Dim             ....  178

ORBITAL ENERGIES
----------------

  NO   OCC          E(Eh)            E(eV)
   0   2.0000     -24.518753      -667.1892
   1   2.0000     -24.517644      -667.1590
   2   2.0000     -24.516417      -667.1256
   3   2.0000     -18.977751      -516.4108
   4   2.0000     -10.275429      -279.6086
   5   2.0000     -10.122198      -275.4390
   6   2.0000     -10.040515      -273.2163
   7   2.0000      -1.275254       -34.7014
   8   2.0000      -1.185865       -32.2690
   9   2.0000      -1.184457       -32.2307
  10   2.0000      -1.019692       -27.7472
  11   2.0000      -0.764540       -20.8042
  12   2.0000      -0.675906       -18.3923
  13   2.0000      -0.607659       -16.5353
  14   2.0000      -0.559333       -15.2202
  15   2.0000      -0.554291       -15.0830
  16   2.0000      -0.540594       -14.7103
  17   2.0000      -0.496945       -13.5225
  18   2.0000      -0.430314       -11.7094
  19   2.0000      -0.427901       -11.6438
  20   2.0000      -0.411354       -11.1935
  21   2.0000      -0.399233       -10.8637
  22   2.0000      -0.387883       -10.5548
  23   2.0000      -0.380472       -10.3532
  24   2.0000      -0.374848       -10.2001
  25   2.0000      -0.365472        -9.9450
  26   2.0000      -0.352920        -9.6034
  27   2.0000      -0.322104        -8.7649
  28   2.0000      -0.269926        -7.3451
  29   0.0000       0.039779         1.0825
  30   0.0000       0.080489         2.1902
  31   0.0000       0.096999         2.6395
  32   0.0000       0.121363         3.3024
  33   0.0000       0.129403         3.5212

MULLIKEN ATOMIC CHARGES
-----------------------
   0 C :   -0.488156
   1 C :   -0.000525
   2 H :    0.153745
   3 C :    0.566248
   4 F :   -0.215361
   5 F :   -0.205773
   6 F :   -0.223216
   7 O :   -0.397711
   8 H :    0.162769
   9 H :    0.163596
  10 H :    0.172832
  11 H :    0.311554
Sum of atomic charges:   -0.0000000

LOEWDIN ATOMIC CHARGES
----------------------
   0 C :   -0.365225
   1 C :    0.077260
   2 H :    0.182157
   3 C :    0.513219
   4 F :   -0.216187
   5 F :   -0.200369
   6 F :   -0.217552
   7 O :   -0.562846
   8 H :    0.166720
   9 H :    0.169638
  10 H :    0.173609
  11 H :    0.279575

  Mayer bond orders larger than 0.100000
B(  0-C ,  1-C ) :   0.9426 B(  0-C ,  8-H ) :   0.9629 B(  0-C ,  9-H ) :   0.9621
B(  0-C , 10-H ) :   0.9708 B(  1-C ,  2-H ) :   0.9370 B(  1-C ,  3-C ) :   0.9587
B(  1-C ,  7-O ) :   0.9406 B(  3-C ,  4-F ) :   1.0078 B(  3-C ,  5-F ) :   1.0337
B(  3-C ,  6-F ) :   1.0074 B(  7-O , 11-H ) :   0.8860

Dispersion correction           -0.002546290
FINAL SINGLE POINT ENERGY      -492.057642997111

DIPOLE MOMENT
-------------

Method             : SCF
Type of density    : Electron Density
Multiplicity       :   1
Irrep              :   0
Energy             :  -492.0669178067079770 Eh
Relativity type    :
Basis              : AO
                                X                 Y                 Z
Electronic contribution:     -9.575617638       2.282711726       1.196649670
Nuclear contribution   :     10.100184033      -2.282981249      -1.807910965
                        -----------------------------------------
Total Dipole Moment    :      0.524566394      -0.000269523      -0.611261295
                        -----------------------------------------
Magnitude (a.u.)       :      0.805487645
Magnitude (Debye)      :      2.047386884

Rotational constants in cm-1:             0.117858             0.079567             0.065198
Rotational constants in MHz :          3533.293938          2385.356717          1954.577680

                             ****ORCA TERMINATED NORMALLY****
TOTAL RUN TIME: 0 days 0 hours 0 minutes 19 seconds 25 msec
