                         Program Version 6.0.0  -   RELEASE  -
|  1> ! r2scan-3c def2/J RI DEFGRID2 scfconv6 printgap
|  2> %output
|  3>     printlevel normal
|  4> end
|  5> %cpcm
|  6>     smd true
|  7>     smdsolvent "water"
|  8> end
|  9> * xyz 0 1
| 10> C 1.6775300393 -1.209133311 0.0464908878
| 11> C 0.9403604579 0.012564623 -0.4905970709
| 12> H 0.9004945395 -0.0147295134 -1.5890891483
| 13> C -0.5220310738 -0.022186367 -0.0164679138
| 14> F -1.1892128006 -1.0878113859 -0.4948615338
| 15> F -0.6529444535 -0.0568792045 1.3165659849
| 16> F -1.2101125284 1.0624179016 -0.4316147245
| 17> O 1.5642670058 1.1721986514 -0.0203459139
| 18> H 2.6985867767 -1.1876809803 -0.3189925228
| 19> H 1.1877848352 -2.1192755458 -0.2851208831
| 20> H 1.6934885415 -1.1743046275 1.132529283
| 21> H 1.2463858261 1.9628198773 -0.4808117235
| 22> *
| 23>
| 24>                          ****END OF INPUT****

CARTESIAN COORDINATES (ANGSTROEM)
---------------------------------
  C      1.677530   -1.209133    0.046491
  C      0.940360    0.012565   -0.490597
  H      0.900495   -0.014730   -1.589089
  C     -0.522031   -0.022186   -0.016468
  F     -1.189213   -1.087811   -0.494862
  F     -0.652944   -0.056879    1.316566
  F     -1.210113    1.062418   -0.431615
  O      1.564267    1.172199   -0.020346
  H      2.698587   -1.187681   -0.318993
  H      1.187785   -2.119276   -0.285121
  H      1.693489   -1.174305    1.132529
  H      1.246386    1.962820   -0.480812

 Total Charge           Charge          ....    0
 Multiplicity           Mult            ....    1
 Number of Electrons    NEL             ....   58
 Basis Dimension        Dim             ....  178

ORBITAL ENERGIES
----------------

  NO   OCC          E(Eh)            E(eV)
   0   2.0000     -24.520220      -667.2291
   1   2.0000     -24.519660      -667.2139
   2   2.0000     -24.517348      -667.1510
   3   2.0000     -18.968881      -516.1695
   4   2.0000     -10.275117      -279.6002
   5   2.0000     -10.109494      -275.0933
   6   2.0000     -10.025096      -272.7967
   7   2.0000      -1.277399       -34.7598
   8   2.0000      -1.188992       -32.3541
   9   2.0000      -1.185841       -32.2684
  10   2.0000      -1.010412       -27.4947
  11   2.0000      -0.754001       -20.5174
  12   2.0000      -0.671283       -18.2665
  13   2.0000      -0.601388       -16.3646
  14   2.0000      -0.560277       -15.2459
  15   2.0000      -0.555339       -15.1115
  16   2.0000      -0.532997       -14.5036
  17   2.0000      -0.486053       -13.2262
  18   2.0000      -0.432513       -11.7693
  19   2.0000      -0.430067       -11.7027
  20   2.0000      -0.405181       -11.0255
  21   2.0000      -0.397162       -10.8073
  22   2.0000      -0.386129       -10.5071
  23   2.0000      -0.378375       -10.2961
  24   2.0000      -0.371134       -10.0991
  25   2.0000      -0.359260        -9.7760
  26   2.0000      -0.342449        -9.3185
  27   2.0000      -0.313669        -8.5354
  28   2.0000      -0.264376        -7.1940
  29   0.0000       0.059123         1.6088
  30   0.0000       0.090688         2.4678
  31   0.0000       0.107197         2.9170
  32   0.0000       0.134656         3.6642
  33   0.0000       0.145239         3.9522

MULLIKEN ATOMIC CHARGES
-----------------------
   0 C :   -0.524538
   1 C :    0.016591
   2 H :    0.190231
   3 C :    0.543975
   4 F :   -0.220279
   5 F :   -0.216491
   6 F :   -0.224637
   7 O :   -0.463154
   8 H :    0.180416
   9 H :    0.180703
  10 H :    0.178160
  11 H :    0.359022
Sum of atomic charges:    0.0000000

LOEWDIN ATOMIC CHARGES
----------------------
   0 C :   -0.370980
   1 C :    0.081419
   2 H :    0.198466
   3 C :    0.511567
   4 F :   -0.219795
   5 F :   -0.210897
   6 F :   -0.220266
   7 O :   -0.587430
   8 H :    0.172303
   9 H :    0.175912
  10 H :    0.172512
  11 H :    0.297189

  Mayer bond orders larger than 0.100000
B(  0-C ,  1-C ) :   0.9287 B(  0-C ,  8-H ) :   0.9590 B(  0-C ,  9-H ) :   0.9577
B(  0-C , 10-H ) :   0.9658 B(  1-C ,  2-H ) :   0.9256 B(  1-C ,  3-C ) :   0.9694
B(  1-C ,  7-O ) :   0.9285 B(  3-C ,  4-F ) :   1.0097 B(  3-C ,  5-F ) :   1.0253
B(  3-C ,  6-F ) :   1.0121 B(  7-O , 11-H ) :   0.8613

Dispersion correction           -0.002546290
FINAL SINGLE POINT ENERGY      -492.063665189943

DIPOLE MOMENT
-------------

Method             : SCF
Type of density    : Electron Density
Multiplicity       :   1
Irrep              :   0
Energy             :  -492.0729399995399262 Eh
Relativity type    :
Basis              : AO
                                X                 Y                 Z
Electronic contribution:     -9.527823892       2.285702845       0.922965177
Nuclear contribution   :     10.100184033      -2.282981249      -1.807910965
                        -----------------------------------------
Total Dipole Moment    :      0.572360141       0.002721596      -0.884945789
                        -----------------------------------------
Magnitude (a.u.)       :      1.053912988
Magnitude (Debye)      :      2.678833926

Rotational constants in cm-1:             0.117858             0.079567             0.065198
Rotational constants in MHz :          3533.293938          2385.356717          1954.577680

                             ****ORCA TERMINATED NORMALLY****
TOTAL RUN TIME: 0 days 0 hours 0 minutes 22 seconds 987 msec
