                         Program Version 6.0.0  -   RELEASE  -
|  1> ! pbe def2-sv(p) def2/J RI DEFGRID1 loosescf d4 GCP(DFT/SV(P)) printgap
|  2> %output
|  3>     printlevel normal
|  4> end
|  5> * xyz 0 1
|  6> C -3.4355027504 -1.1898628379 -0.0015079255
|  7> C -2.053588167 -0.6084523851 0.0018440238
|  8> C -1.8676152723 0.7854008814 0.0009888837
|  9> C -0.6236730419 1.3622250246 -8.32715e-05
| 10> C 0.5272392303 0.5290913449 1.9337e-06
| 11> C 1.8431422481 1.0397990651 0.0008355299
| 12> C 2.9255963922 0.2043730477 0.0006024689
| 13> C 2.7497190807 -1.1873108899 -0.0005415941
| 14> C 1.4902149476 -1.7156488022 -0.0006917241
| 15> C 0.352032649 -0.8810274389 -0.0001158898
| 16> C -0.9490096407 -1.4199406668 0.0008681952
| 17> C -0.4861157267 2.8552466096 -0.001039093
| 18> H -4.1873749294 -0.4082965328 0.065835741
| 19> H -3.6032930733 -1.7555825367 -0.9168477042
| 20> H -3.5620744747 -1.8711375089 0.8379549938
| 21> H -2.7433116255 1.4200537911 0.0007163776
| 22> H 1.9966214722 2.1074757779 0.0020288325
| 23> H 3.9259402691 0.611916545 0.0013041647
| 24> H 3.6151619767 -1.8335668975 -0.001167025
| 25> H 1.3434094122 -2.7865197595 -0.0011555194
| 26> H -1.0641343747 -2.4949725424 0.0011567626
| 27> H 0.0529273225 3.190965726 0.8835435428
| 28> H 0.0621691218 3.1890887325 -0.8806365399
| 29> H -1.4660403301 3.3250605178 -0.0065754964
| 30> *
| 31>
| 32>                          ****END OF INPUT****

CARTESIAN COORDINATES (ANGSTROEM)
---------------------------------
  C     -3.435503   -1.189863   -0.001508
  C     -2.053588   -0.608452    0.001844
  C     -1.867615    0.785401    0.000989
  C     -0.623673    1.362225   -0.000083
  C      0.527239    0.529091    0.000002
  C      1.843142    1.039799    0.000836
  C      2.925596    0.204373    0.000602
  C      2.749719   -1.187311   -0.000542
  C      1.490215   -1.715649   -0.000692
  C      0.352033   -0.881027   -0.000116
  C     -0.949010   -1.419941    0.000868
  C     -0.486116    2.855247   -0.001039
  H     -4.187375   -0.408297    0.065836
  H     -3.603293   -1.755583   -0.916848
  H     -3.562074   -1.871138    0.837955
  H     -2.743312    1.420054    0.000716
  H      1.996621    2.107476    0.002029
  H      3.925940    0.611917    0.001304
  H      3.615162   -1.833567   -0.001167
  H      1.343409   -2.786520   -0.001156
  H     -1.064134   -2.494973    0.001157
  H      0.052927    3.190966    0.883544
  H      0.062169    3.189089   -0.880637
  H     -1.466040    3.325061   -0.006575

 Total Charge           Charge          ....    0
 Multiplicity           Mult            ....    1
 Number of Electrons    NEL             ....   84
 Basis Dimension        Dim             ....  192

ORBITAL ENERGIES
----------------

  NO   OCC          E(Eh)            E(eV)
   0   2.0000      -9.900941      -269.4183
   1   2.0000      -9.899302      -269.3737
   2   2.0000      -9.898842      -269.3612
   3   2.0000      -9.897623      -269.3280
   4   2.0000      -9.889093      -269.0959
   5   2.0000      -9.888647      -269.0838
   6   2.0000      -9.887496      -269.0524
   7   2.0000      -9.887307      -269.0473
   8   2.0000      -9.885411      -268.9957
   9   2.0000      -9.883562      -268.9454
  10   2.0000      -9.883169      -268.9347
  11   2.0000      -9.882755      -268.9234
  12   2.0000      -0.793129       -21.5821
  13   2.0000      -0.746711       -20.3190
  14   2.0000      -0.712277       -19.3820
  15   2.0000      -0.679298       -18.4846
  16   2.0000      -0.657246       -17.8846
  17   2.0000      -0.622751       -16.9459
  18   2.0000      -0.605742       -16.4831
  19   2.0000      -0.552787       -15.0421
  20   2.0000      -0.532371       -14.4866
  21   2.0000      -0.512690       -13.9510
  22   2.0000      -0.462031       -12.5725
  23   2.0000      -0.448260       -12.1978
  24   2.0000      -0.431295       -11.7361
  25   2.0000      -0.399556       -10.8725
  26   2.0000      -0.385473       -10.4893
  27   2.0000      -0.383996       -10.4491
  28   2.0000      -0.372712       -10.1420
  29   2.0000      -0.371211       -10.1012
  30   2.0000      -0.364999        -9.9321
  31   2.0000      -0.348576        -9.4852
  32   2.0000      -0.341802        -9.3009
  33   2.0000      -0.337946        -9.1960
  34   2.0000      -0.332900        -9.0587
  35   2.0000      -0.315423        -8.5831
  36   2.0000      -0.289304        -7.8724
  37   2.0000      -0.283013        -7.7012
  38   2.0000      -0.281773        -7.6674
  39   2.0000      -0.247972        -6.7477
  40   2.0000      -0.217603        -5.9213
  41   2.0000      -0.188382        -5.1261
  42   0.0000      -0.065443        -1.7808
  43   0.0000      -0.034015        -0.9256
  44   0.0000       0.000279         0.0076
  45   0.0000       0.044761         1.2180
  46   0.0000       0.054678         1.4879

MULLIKEN ATOMIC CHARGES
-----------------------
   0 C :   -0.223624
   1 C :    0.096284
   2 C :   -0.225065
   3 C :   -0.000605
   4 C :    0.115802
   5 C :   -0.162145
   6 C :   -0.033401
   7 C :   -0.038565
   8 C :   -0.130814
   9 C :    0.158049
  10 C :   -0.221821
  11 C :   -0.210772
  12 H :    0.100062
  13 H :    0.117251
  14 H :    0.115139
  15 H :    0.019832
  16 H :    0.035366
  17 H :    0.047750
  18 H :    0.049770
  19 H :    0.036999
  20 H :    0.019053
  21 H :    0.116696
  22 H :    0.116681
  23 H :    0.102078
Sum of atomic charges:    0.0000000

LOEWDIN ATOMIC CHARGES
----------------------
   0 C :   -0.322675
   1 C :   -0.048329
   2 C :   -0.127755
   3 C :   -0.034893
   4 C :   -0.027705
   5 C :   -0.117564
   6 C :   -0.125887
   7 C :   -0.126191
   8 C :   -0.112117
   9 C :   -0.021019
  10 C :   -0.119964
  11 C :   -0.323190
  12 H :    0.123113
  13 H :    0.133616
  14 H :    0.132432
  15 H :    0.118271
  16 H :    0.123108
  17 H :    0.122729
  18 H :    0.123182
  19 H :    0.122381
  20 H :    0.119375
  21 H :    0.132020
  22 H :    0.131919
  23 H :    0.125142

  Mayer bond orders larger than 0.100000
B(  0-C ,  1-C ) :   1.0882 B(  0-C , 12-H ) :   0.9443 B(  0-C , 13-H ) :   0.9358
B(  0-C , 14-H ) :   0.9377 B(  1-C ,  2-C ) :   1.2533 B(  1-C , 10-C ) :   1.4342
B(  2-C ,  3-C ) :   1.4701 B(  2-C , 15-H ) :   0.9498 B(  3-C ,  4-C ) :   1.2543
B(  3-C , 11-C ) :   1.1430 B(  4-C ,  5-C ) :   1.2672 B(  4-C ,  9-C ) :   1.2442
B(  5-C ,  6-C ) :   1.4585 B(  5-C , 16-H ) :   0.9465 B(  6-C ,  7-C ) :   1.2601
B(  6-C , 17-H ) :   0.9596 B(  7-C ,  8-C ) :   1.4561 B(  7-C , 18-H ) :   0.9625
B(  8-C ,  9-C ) :   1.2341 B(  8-C , 19-H ) :   0.9643 B(  9-C , 10-C ) :   1.2269
B( 10-C , 20-H ) :   0.9716 B( 11-C , 21-H ) :   0.9184 B( 11-C , 22-H ) :   0.9184
B( 11-C , 23-H ) :   0.9377

Dispersion correction           -0.029199420
FINAL SINGLE POINT ENERGY      -463.486765406259

DIPOLE MOMENT
-------------

Method             : SCF
Type of density    : Electron Density
Multiplicity       :   1
Irrep              :   0
Energy             :  -463.5466372776390926 Eh
Relativity type    :
Basis              : AO
                                X                 Y                 Z
Electronic contribution:      5.111604412      -2.453027455       0.008032638
Nuclear contribution   :     -5.281891934       2.527883157      -0.012986016
                        -----------------------------------------
Total Dipole Moment    :     -0.170287522       0.074855702      -0.004953379
                        -----------------------------------------
Magnitude (a.u.)       :      0.186079962
Magnitude (Debye)      :      0.472977674

Rotational constants in cm-1:             0.053060             0.027604             0.018281
Rotational constants in MHz :          1590.693601           827.554057           548.048233

                             ****ORCA TERMINATED NORMALLY****
TOTAL RUN TIME: 0 days 0 hours 0 minutes 13 seconds 329 msec
