                         Program Version 6.0.0  -   RELEASE  -
|  1> ! wb97x-v def2-tzvp def2/J RIJCOSX DEFGRID2 scfconv7 GCP(DFT/TZ) printgap
|  2> %output
|  3>     printlevel normal
|  4> end
|  5> * xyz 0 1
|  6> C 1.8438168428600936 0.9542341847644323 -0.24834993934119337
|  7> C 0.9728443063281482 -0.11259054795409724 0.4116603715779186
|  8> C -0.37896214843532444 -0.3059919261816409 -0.27063645117535484
|  9> H -0.21458194238405756 -0.613612324723013 -1.3109119996912661
| 10> C -1.2545448496759095 0.9357185604331589 -0.24028145356636924
| 11> O -1.0791037331785769 -1.4257397603479214 0.33059100162579175
| 12> H 1.4165122457177708 1.9550080330758999 -0.13485483438710447
| 13> H 1.9606088863904594 0.7568864087459055 -1.3201157468999873
| 14> H 2.8424073006518897 0.9686857216451026 0.19859353909908944
| 15> H 0.7955188553336474 0.1448371523198154 1.4653351907602739
| 16> H 1.4974123478029877 -1.0754288367800644 0.3985480701120399
| 17> H -1.4083806724044703 1.268078787396543 0.7938319848149115
| 18> H -0.7957053949927764 1.7572517662360205 -0.7986158010584318
| 19> H -2.230006941949522 0.725947161998081 -0.6894797374343262
| 20> H -1.2677864266642351 -1.175828493396149 1.2458692169714785
| 21> *
| 22>
| 23>                          ****END OF INPUT****

CARTESIAN COORDINATES (ANGSTROEM)
---------------------------------
  C      1.843817    0.954234   -0.248350
  C      0.972844   -0.112591    0.411660
  C     -0.378962   -0.305992   -0.270636
  H     -0.214582   -0.613612   -1.310912
  C     -1.254545    0.935719   -0.240281
  O     -1.079104   -1.425740    0.330591
  H      1.416512    1.955008   -0.134855
  H      1.960609    0.756886   -1.320116
  H      2.842407    0.968686    0.198594
  H      0.795519    0.144837    1.465335
  H      1.497412   -1.075429    0.398548
  H     -1.408381    1.268079    0.793832
  H     -0.795705    1.757252   -0.798616
  H     -2.230007    0.725947   -0.689480
  H     -1.267786   -1.175828    1.245869

 Total Charge           Charge          ....    0
 Multiplicity           Mult            ....    1
 Number of Electrons    NEL             ....   42
 Basis Dimension        Dim             ....  215

ORBITAL ENERGIES
----------------

  NO   OCC          E(Eh)            E(eV)
   0   2.0000     -21.663874      -589.5040
   1   2.0000     -12.095172      -329.1264
   2   2.0000     -12.043520      -327.7208
   3   2.0000     -12.039739      -327.6180
   4   2.0000     -12.037725      -327.5631
   5   2.0000      -1.661625       -45.2151
   6   2.0000      -1.306713       -35.5575
   7   2.0000      -1.230509       -33.4838
   8   2.0000      -1.145255       -31.1640
   9   2.0000      -1.087778       -29.6000
  10   2.0000      -0.989601       -26.9284
  11   2.0000      -0.955207       -25.9925
  12   2.0000      -0.920032       -25.0353
  13   2.0000      -0.887100       -24.1392
  14   2.0000      -0.850467       -23.1424
  15   2.0000      -0.831641       -22.6301
  16   2.0000      -0.820198       -22.3187
  17   2.0000      -0.813333       -22.1319
  18   2.0000      -0.799195       -21.7472
  19   2.0000      -0.766118       -20.8471
  20   2.0000      -0.756431       -20.5835
  21   0.0000      -0.149437        -4.0664
  22   0.0000      -0.055976        -1.5232
  23   0.0000      -0.018316        -0.4984
  24   0.0000      -0.006106        -0.1661
  25   0.0000       0.002637         0.0718

MULLIKEN ATOMIC CHARGES
-----------------------
   0 C :   -0.367910
   1 C :   -0.157122
   2 C :    0.096480
   3 H :    0.081864
   4 C :   -0.365268
   5 O :   -0.445068
   6 H :    0.113472
   7 H :    0.109413
   8 H :    0.118609
   9 H :    0.074820
  10 H :    0.109740
  11 H :    0.096096
  12 H :    0.114058
  13 H :    0.129871
  14 H :    0.290945
Sum of atomic charges:    0.0000000

LOEWDIN ATOMIC CHARGES
----------------------
   0 C :   -0.304794
   1 C :   -0.281368
   2 C :   -0.363172
   3 H :    0.140166
   4 C :   -0.292146
   5 O :   -0.042855
   6 H :    0.114917
   7 H :    0.118626
   8 H :    0.118054
   9 H :    0.129167
  10 H :    0.137035
  11 H :    0.117130
  12 H :    0.121461
  13 H :    0.122812
  14 H :    0.164966

  Mayer bond orders larger than 0.100000
B(  0-C ,  1-C ) :   0.9599 B(  0-C ,  6-H ) :   0.9820 B(  0-C ,  7-H ) :   0.9784
B(  0-C ,  8-H ) :   0.9792 B(  1-C ,  2-C ) :   0.9999 B(  1-C ,  9-H ) :   0.9599
B(  1-C , 10-H ) :   0.9769 B(  2-C ,  3-H ) :   0.9620 B(  2-C ,  4-C ) :   0.9846
B(  2-C ,  5-O ) :   0.9911 B(  4-C , 11-H ) :   0.9624 B(  4-C , 12-H ) :   0.9745
B(  4-C , 13-H ) :   0.9819 B(  5-O , 14-H ) :   0.9038

FINAL SINGLE POINT ENERGY      -233.680334392579

DIPOLE MOMENT
-------------

Method             : SCF
Type of density    : Electron Density
Multiplicity       :   1
Irrep              :   0
Energy             :  -233.6909752254791783 Eh
Relativity type    :
Basis              : AO
                                X                 Y                 Z
Electronic contribution:     -2.251941159      -3.841478662       0.509030796
Nuclear contribution   :      2.474937178       4.448657644      -0.259351493
                        -----------------------------------------
Total Dipole Moment    :      0.222996019       0.607178982       0.249679303
                        -----------------------------------------
Magnitude (a.u.)       :      0.693349331
Magnitude (Debye)      :      1.762353943

Rotational constants in cm-1:             0.255649             0.115058             0.088153
Rotational constants in MHz :          7664.176771          3449.365136          2642.758684

                             ****ORCA TERMINATED NORMALLY****
TOTAL RUN TIME: 0 days 0 hours 1 minutes 2 seconds 241 msec
