                         Program Version 6.0.0  -   RELEASE  -
|  1> ! wb97x-v def2-tzvp def2/J RIJCOSX DEFGRID2 scfconv7 GCP(DFT/TZ) printgap
|  2> %output
|  3>     printlevel normal
|  4> end
|  5> %cpcm
|  6>     smd true
|  7>     smdsolvent "water"
|  8> end
|  9> * xyz 0 1
| 10> C 1.8438168428600936 0.9542341847644323 -0.24834993934119337
| 11> C 0.9728443063281482 -0.11259054795409724 0.4116603715779186
| 12> C -0.37896214843532444 -0.3059919261816409 -0.27063645117535484
| 13> H -0.21458194238405756 -0.613612324723013 -1.3109119996912661
| 14> C -1.2545448496759095 0.9357185604331589 -0.24028145356636924
| 15> O -1.0791037331785769 -1.4257397603479214 0.33059100162579175
| 16> H 1.4165122457177708 1.9550080330758999 -0.13485483438710447
| 17> H 1.9606088863904594 0.7568864087459055 -1.3201157468999873
| 18> H 2.8424073006518897 0.9686857216451026 0.19859353909908944
| 19> H 0.7955188553336474 0.1448371523198154 1.4653351907602739
| 20> H 1.4974123478029877 -1.0754288367800644 0.3985480701120399
| 21> H -1.4083806724044703 1.268078787396543 0.7938319848149115
| 22> H -0.7957053949927764 1.7572517662360205 -0.7986158010584318
| 23> H -2.230006941949522 0.725947161998081 -0.6894797374343262
| 24> H -1.2677864266642351 -1.175828493396149 1.2458692169714785
| 25> *
| 26>
| 27>                          ****END OF INPUT****

CARTESIAN COORDINATES (ANGSTROEM)
---------------------------------
  C      1.843817    0.954234   -0.248350
  C      0.972844   -0.112591    0.411660
  C     -0.378962   -0.305992   -0.270636
  H     -0.214582   -0.613612   -1.310912
  C     -1.254545    0.935719   -0.240281
  O     -1.079104   -1.425740    0.330591
  H      1.416512    1.955008   -0.134855
  H      1.960609    0.756886   -1.320116
  H      2.842407    0.968686    0.198594
  H      0.795519    0.144837    1.465335
  H      1.497412   -1.075429    0.398548
  H     -1.408381    1.268079    0.793832
  H     -0.795705    1.757252   -0.798616
  H     -2.230007    0.725947   -0.689480
  H     -1.267786   -1.175828    1.245869

 Total Charge           Charge          ....    0
 Multiplicity           Mult            ....    1
 Number of Electrons    NEL             ....   42
 Basis Dimension        Dim             ....  215

ORBITAL ENERGIES
----------------

  NO   OCC          E(Eh)            E(eV)
   0   2.0000     -21.668471      -589.6291
   1   2.0000     -12.089169      -328.9630
   2   2.0000     -12.032795      -327.4290
   3   2.0000     -12.026960      -327.2702
   4   2.0000     -12.025879      -327.2408
   5   2.0000      -1.666537       -45.3488
   6   2.0000      -1.297950       -35.3190
   7   2.0000      -1.220338       -33.2071
   8   2.0000      -1.137810       -30.9614
   9   2.0000      -1.083151       -29.4740
  10   2.0000      -0.990759       -26.9599
  11   2.0000      -0.954544       -25.9745
  12   2.0000      -0.922992       -25.1159
  13   2.0000      -0.878096       -23.8942
  14   2.0000      -0.841498       -22.8983
  15   2.0000      -0.821773       -22.3616
  16   2.0000      -0.811357       -22.0782
  17   2.0000      -0.802300       -21.8317
  18   2.0000      -0.787997       -21.4425
  19   2.0000      -0.756039       -20.5729
  20   2.0000      -0.745663       -20.2905
  21   0.0000      -0.145035        -3.9466
  22   0.0000      -0.034772        -0.9462
  23   0.0000      -0.006691        -0.1821
  24   0.0000       0.003816         0.1038
  25   0.0000       0.015812         0.4303

MULLIKEN ATOMIC CHARGES
-----------------------
   0 C :   -0.414187
   1 C :   -0.183756
   2 C :    0.131440
   3 H :    0.101584
   4 C :   -0.416116
   5 O :   -0.563769
   6 H :    0.131122
   7 H :    0.122987
   8 H :    0.132795
   9 H :    0.106142
  10 H :    0.106311
  11 H :    0.125771
  12 H :    0.136011
  13 H :    0.130674
  14 H :    0.352992
Sum of atomic charges:    0.0000000

LOEWDIN ATOMIC CHARGES
----------------------
   0 C :   -0.308721
   1 C :   -0.281538
   2 C :   -0.362412
   3 H :    0.143132
   4 C :   -0.294073
   5 O :   -0.088414
   6 H :    0.118726
   7 H :    0.121052
   8 H :    0.119965
   9 H :    0.136687
  10 H :    0.135142
  11 H :    0.124594
  12 H :    0.127196
  13 H :    0.121489
  14 H :    0.187175

  Mayer bond orders larger than 0.100000
B(  0-C ,  1-C ) :   0.9617 B(  0-C ,  6-H ) :   0.9790 B(  0-C ,  7-H ) :   0.9760
B(  0-C ,  8-H ) :   0.9761 B(  1-C ,  2-C ) :   0.9941 B(  1-C ,  9-H ) :   0.9664
B(  1-C , 10-H ) :   0.9713 B(  2-C ,  3-H ) :   0.9658 B(  2-C ,  4-C ) :   0.9795
B(  2-C ,  5-O ) :   0.9475 B(  4-C , 11-H ) :   0.9660 B(  4-C , 12-H ) :   0.9692
B(  4-C , 13-H ) :   0.9764 B(  5-O , 14-H ) :   0.8697

FINAL SINGLE POINT ENERGY      -233.687891536112

DIPOLE MOMENT
-------------

Method             : SCF
Type of density    : Electron Density
Multiplicity       :   1
Irrep              :   0
Energy             :  -233.6985323690120424 Eh
Relativity type    :
Basis              : AO
                                X                 Y                 Z
Electronic contribution:     -2.188479746      -3.592868674       0.636070223
Nuclear contribution   :      2.474937178       4.448657644      -0.259351493
                        -----------------------------------------
Total Dipole Moment    :      0.286457431       0.855788970       0.376718729
                        -----------------------------------------
Magnitude (a.u.)       :      0.977931297
Magnitude (Debye)      :      2.485703816

Rotational constants in cm-1:             0.255649             0.115058             0.088153
Rotational constants in MHz :          7664.176771          3449.365136          2642.758684

                             ****ORCA TERMINATED NORMALLY****
TOTAL RUN TIME: 0 days 0 hours 1 minutes 9 seconds 855 msec
