                         Program Version 6.0.0  -   RELEASE  -
|  1> ! pbe def2-sv(p) def2/J RI DEFGRID1 loosescf d4 GCP(DFT/SV(P)) printgap
|  2> %output
|  3>     printlevel normal
|  4> end
|  5> * xyz 0 1
|  6> C -2.2285015325 -0.9963251652 -0.4154942542
|  7> C -1.1629564205 -0.2198788625 0.3729358776
|  8> H -1.6433098592 0.1949276736 1.2677355346
|  9> C -0.5861869928 0.9490997702 -0.4322611533
| 10> H -0.4472664157 0.6669650903 -1.4888631352
| 11> C 0.7799038594 1.3297802968 0.1548499308
| 12> H 0.637153372 1.5565171836 1.2230921716
| 13> C 1.7697918915 0.1559578296 0.0162765515
| 14> H 2.2496146273 0.2143871359 -0.9673239512
| 15> C 1.0350272307 -1.2035431677 0.1214810677
| 16> H 1.6486222803 -1.9005323029 0.7054363656
| 17> O -0.1526497882 -1.0980273835 0.8701599339
| 18> O 0.8561164352 -1.8240895869 -1.1123995917
| 19> O 2.8231033271 0.2618703258 0.9400379218
| 20> O 1.2259668611 2.4748582502 -0.5306486544
| 21> O -1.4965041513 2.012010019 -0.3528736607
| 22> O -2.928841207 -1.8971392453 0.4040575269
| 23> H -1.7605100063 -1.5318135231 -1.2516170776
| 24> H -2.9639213536 -0.2875975151 -0.800641002
| 25> H 0.5382761684 -1.2033522641 -1.783946605
| 26> H 2.4888488436 0.1498417573 1.8420497322
| 27> H 2.0888135919 2.743628761 -0.1847452902
| 28> H -1.0630151108 2.8086390931 -0.6993360155
| 29> H -2.2847473544 -2.4720484271 0.8437287514
| 30> *
| 31>
| 32>                          ****END OF INPUT****

CARTESIAN COORDINATES (ANGSTROEM)
---------------------------------
  C     -2.228502   -0.996325   -0.415494
  C     -1.162956   -0.219879    0.372936
  H     -1.643310    0.194928    1.267736
  C     -0.586187    0.949100   -0.432261
  H     -0.447266    0.666965   -1.488863
  C      0.779904    1.329780    0.154850
  H      0.637153    1.556517    1.223092
  C      1.769792    0.155958    0.016277
  H      2.249615    0.214387   -0.967324
  C      1.035027   -1.203543    0.121481
  H      1.648622   -1.900532    0.705436
  O     -0.152650   -1.098027    0.870160
  O      0.856116   -1.824090   -1.112400
  O      2.823103    0.261870    0.940038
  O      1.225967    2.474858   -0.530649
  O     -1.496504    2.012010   -0.352874
  O     -2.928841   -1.897139    0.404058
  H     -1.760510   -1.531814   -1.251617
  H     -2.963921   -0.287598   -0.800641
  H      0.538276   -1.203352   -1.783947
  H      2.488849    0.149842    1.842050
  H      2.088814    2.743629   -0.184745
  H     -1.063015    2.808639   -0.699336
  H     -2.284747   -2.472048    0.843729

 Total Charge           Charge          ....    0
 Multiplicity           Mult            ....    1
 Number of Electrons    NEL             ....   96
 Basis Dimension        Dim             ....  192

ORBITAL ENERGIES
----------------

  NO   OCC          E(Eh)            E(eV)
   0   2.0000     -18.777562      -510.9634
   1   2.0000     -18.772863      -510.8356
   2   2.0000     -18.770411      -510.7689
   3   2.0000     -18.768649      -510.7209
   4   2.0000     -18.760468      -510.4983
   5   2.0000     -18.740411      -509.9525
   6   2.0000      -9.993571      -271.9389
   7   2.0000      -9.958473      -270.9838
   8   2.0000      -9.956255      -270.9235
   9   2.0000      -9.954132      -270.8657
  10   2.0000      -9.947498      -270.6852
  11   2.0000      -9.928146      -270.1586
  12   2.0000      -0.988396       -26.8956
  13   2.0000      -0.959299       -26.1039
  14   2.0000      -0.944225       -25.6937
  15   2.0000      -0.930728       -25.3264
  16   2.0000      -0.924867       -25.1669
  17   2.0000      -0.911901       -24.8141
  18   2.0000      -0.716506       -19.4971
  19   2.0000      -0.696942       -18.9648
  20   2.0000      -0.623963       -16.9789
  21   2.0000      -0.599585       -16.3155
  22   2.0000      -0.573753       -15.6126
  23   2.0000      -0.537464       -14.6251
  24   2.0000      -0.513258       -13.9664
  25   2.0000      -0.503601       -13.7037
  26   2.0000      -0.478479       -13.0201
  27   2.0000      -0.465047       -12.6546
  28   2.0000      -0.452984       -12.3263
  29   2.0000      -0.436838       -11.8870
  30   2.0000      -0.428329       -11.6554
  31   2.0000      -0.402240       -10.9455
  32   2.0000      -0.392069       -10.6687
  33   2.0000      -0.383113       -10.4250
  34   2.0000      -0.375342       -10.2136
  35   2.0000      -0.347314        -9.4509
  36   2.0000      -0.327060        -8.8998
  37   2.0000      -0.322507        -8.7759
  38   2.0000      -0.315126        -8.5750
  39   2.0000      -0.306132        -8.3303
  40   2.0000      -0.295012        -8.0277
  41   2.0000      -0.275218        -7.4891
  42   2.0000      -0.263869        -7.1802
  43   2.0000      -0.254684        -6.9303
  44   2.0000      -0.242867        -6.6087
  45   2.0000      -0.230855        -6.2819
  46   2.0000      -0.217791        -5.9264
  47   2.0000      -0.206972        -5.6320
  48   0.0000      -0.001354        -0.0368
  49   0.0000       0.016091         0.4379
  50   0.0000       0.023852         0.6490
  51   0.0000       0.045083         1.2268
  52   0.0000       0.052165         1.4195

MULLIKEN ATOMIC CHARGES
-----------------------
   0 C :    0.091634
   1 C :    0.032980
   2 H :    0.082783
   3 C :   -0.007635
   4 H :    0.037048
   5 C :    0.081632
   6 H :    0.048430
   7 C :    0.026507
   8 H :    0.073336
   9 C :    0.186107
  10 H :    0.072203
  11 O :   -0.320535
  12 O :   -0.395573
  13 O :   -0.421560
  14 O :   -0.424233
  15 O :   -0.410591
  16 O :   -0.434860
  17 H :    0.053125
  18 H :    0.096010
  19 H :    0.306589
  20 H :    0.303535
  21 H :    0.313038
  22 H :    0.311042
  23 H :    0.298988
Sum of atomic charges:    0.0000000

LOEWDIN ATOMIC CHARGES
----------------------
   0 C :   -0.131330
   1 C :   -0.071160
   2 H :    0.124645
   3 C :   -0.073067
   4 H :    0.091878
   5 C :   -0.079606
   6 H :    0.105365
   7 C :   -0.095325
   8 H :    0.119753
   9 C :   -0.010844
  10 H :    0.113093
  11 O :   -0.152517
  12 O :   -0.298943
  13 O :   -0.312449
  14 O :   -0.323479
  15 O :   -0.311253
  16 O :   -0.335813
  17 H :    0.093266
  18 H :    0.121592
  19 H :    0.274397
  20 H :    0.286396
  21 H :    0.294322
  22 H :    0.288911
  23 H :    0.282169

  Mayer bond orders larger than 0.100000
B(  0-C ,  1-C ) :   1.0777 B(  0-C , 16-O ) :   1.0780 B(  0-C , 17-H ) :   0.8957
B(  0-C , 18-H ) :   0.9124 B(  1-C ,  2-H ) :   0.8714 B(  1-C ,  3-C ) :   0.9595
B(  1-C , 11-O ) :   0.9715 B(  3-C ,  4-H ) :   0.8760 B(  3-C ,  5-C ) :   1.0240
B(  3-C , 15-O ) :   1.0812 B(  5-C ,  6-H ) :   0.8602 B(  5-C ,  7-C ) :   0.9918
B(  5-C , 14-O ) :   1.0757 B(  7-C ,  8-H ) :   0.8744 B(  7-C ,  9-C ) :   0.9929
B(  7-C , 13-O ) :   1.0332 B(  9-C , 10-H ) :   0.8998 B(  9-C , 11-O ) :   1.0647
B(  9-C , 12-O ) :   1.0952 B( 12-O , 19-H ) :   0.8272 B( 13-O , 20-H ) :   0.8465
B( 14-O , 21-H ) :   0.8385 B( 15-O , 22-H ) :   0.8300 B( 16-O , 23-H ) :   0.8440

Dispersion correction           -0.024425392
FINAL SINGLE POINT ENERGY      -685.690981235900

DIPOLE MOMENT
-------------

Method             : SCF
Type of density    : Electron Density
Multiplicity       :   1
Irrep              :   0
Energy             :  -685.8212071894263318 Eh
Relativity type    :
Basis              : AO
                                X                 Y                 Z
Electronic contribution:      1.423871896      -0.110920283       1.283596927
Nuclear contribution   :     -0.474971691       0.880424931      -1.211161536
                        -----------------------------------------
Total Dipole Moment    :      0.948900205       0.769504648       0.072435391
                        -----------------------------------------
Magnitude (a.u.)       :      1.223844716
Magnitude (Debye)      :      3.110766051

Rotational constants in cm-1:             0.041994             0.025737             0.018574
Rotational constants in MHz :          1258.935763           771.581628           556.831692

                             ****ORCA TERMINATED NORMALLY****
TOTAL RUN TIME: 0 days 0 hours 0 minutes 11 seconds 725 msec
