                         Program Version 6.0.0  -   RELEASE  -
|  1> ! pbe def2-sv(p) def2/J RI DEFGRID1 loosescf d4 GCP(DFT/SV(P)) printgap
|  2> %output
|  3>     printlevel normal
|  4> end
|  5> * xyz 0 1
|  6> C -1.8838092465 -1.2418570231 -0.0198938867
|  7> C -1.5157934369 0.2347396485 0.0184952956
|  8> C -0.0341244426 0.5099030665 0.0073108094
|  9> O 0.4379538026 1.6315160176 0.0085766378
| 10> O 0.6967928393 -0.5935002858 -0.0022709227
| 11> C 2.122648707 -0.4866716715 -0.0105174015
| 12> H -2.964547652 -1.3487627741 -0.0079110808
| 13> H -1.4955536751 -1.7096895396 -0.9199995287
| 14> H -1.4707516199 -1.7612863037 0.8399259019
| 15> H -1.9173449944 0.7113053094 0.9157347877
| 16> H -1.9415909148 0.7654173809 -0.8359141415
| 17> H 2.4870579962 -1.0444580641 -0.8707206573
| 18> H 2.4972204311 -0.926815313 0.9120655049
| 19> H 2.4162287462 0.5615899512 -0.078397779
| 20> *
| 21>
| 22>                          ****END OF INPUT****

CARTESIAN COORDINATES (ANGSTROEM)
---------------------------------
  C     -1.883809   -1.241857   -0.019894
  C     -1.515793    0.234740    0.018495
  C     -0.034124    0.509903    0.007311
  O      0.437954    1.631516    0.008577
  O      0.696793   -0.593500   -0.002271
  C      2.122649   -0.486672   -0.010517
  H     -2.964548   -1.348763   -0.007911
  H     -1.495554   -1.709690   -0.920000
  H     -1.470752   -1.761286    0.839926
  H     -1.917345    0.711305    0.915735
  H     -1.941591    0.765417   -0.835914
  H      2.487058   -1.044458   -0.870721
  H      2.497220   -0.926815    0.912066
  H      2.416229    0.561590   -0.078398

 Total Charge           Charge          ....    0
 Multiplicity           Mult            ....    1
 Number of Electrons    NEL             ....   48
 Basis Dimension        Dim             ....  100

ORBITAL ENERGIES
----------------

  NO   OCC          E(Eh)            E(eV)
   0   2.0000     -18.801874      -511.6250
   1   2.0000     -18.728889      -509.6390
   2   2.0000     -10.003483      -272.2086
   3   2.0000      -9.939594      -270.4701
   4   2.0000      -9.899328      -269.3744
   5   2.0000      -9.880425      -268.8600
   6   2.0000      -1.005982       -27.3742
   7   2.0000      -0.905825       -24.6488
   8   2.0000      -0.715750       -19.4766
   9   2.0000      -0.654379       -17.8066
  10   2.0000      -0.576644       -15.6913
  11   2.0000      -0.508744       -13.8436
  12   2.0000      -0.447714       -12.1829
  13   2.0000      -0.443269       -12.0620
  14   2.0000      -0.405807       -11.0426
  15   2.0000      -0.401619       -10.9286
  16   2.0000      -0.375199       -10.2097
  17   2.0000      -0.347842        -9.4653
  18   2.0000      -0.344634        -9.3780
  19   2.0000      -0.322578        -8.7778
  20   2.0000      -0.306487        -8.3399
  21   2.0000      -0.297138        -8.0855
  22   2.0000      -0.253367        -6.8945
  23   2.0000      -0.215889        -5.8746
  24   0.0000      -0.016864        -0.4589
  25   0.0000       0.039183         1.0662
  26   0.0000       0.059636         1.6228
  27   0.0000       0.091172         2.4809
  28   0.0000       0.092988         2.5303

MULLIKEN ATOMIC CHARGES
-----------------------
   0 C :   -0.252257
   1 C :   -0.217216
   2 C :    0.114442
   3 O :   -0.212452
   4 O :   -0.237058
   5 C :   -0.133548
   6 H :    0.100948
   7 H :    0.106152
   8 H :    0.106564
   9 H :    0.122067
  10 H :    0.121381
  11 H :    0.122684
  12 H :    0.122653
  13 H :    0.135641
Sum of atomic charges:   -0.0000000

LOEWDIN ATOMIC CHARGES
----------------------
   0 C :   -0.342879
   1 C :   -0.255847
   2 C :    0.033789
   3 O :   -0.178953
   4 O :   -0.066042
   5 C :   -0.209153
   6 H :    0.120809
   7 H :    0.121826
   8 H :    0.121962
   9 H :    0.143964
  10 H :    0.143516
  11 H :    0.120872
  12 H :    0.120728
  13 H :    0.125408

  Mayer bond orders larger than 0.100000
B(  0-C ,  1-C ) :   1.1523 B(  0-C ,  6-H ) :   0.9443 B(  0-C ,  7-H ) :   0.9555
B(  0-C ,  8-H ) :   0.9542 B(  1-C ,  2-C ) :   1.0262 B(  1-C ,  9-H ) :   0.9057
B(  1-C , 10-H ) :   0.9068 B(  2-C ,  3-O ) :   2.0600 B(  2-C ,  4-O ) :   1.2296
B(  4-O ,  5-C ) :   0.9343 B(  5-C , 11-H ) :   0.9609 B(  5-C , 12-H ) :   0.9606
B(  5-C , 13-H ) :   0.9281

Dispersion correction           -0.009169015
FINAL SINGLE POINT ENERGY      -307.024663022988

DIPOLE MOMENT
-------------

Method             : SCF
Type of density    : Electron Density
Multiplicity       :   1
Irrep              :   0
Energy             :  -307.0794209713391183 Eh
Relativity type    :
Basis              : AO
                                X                 Y                 Z
Electronic contribution:      2.275321923       3.688556357       0.042650580
Nuclear contribution   :     -2.224704605      -4.443436672      -0.042327708
                        -----------------------------------------
Total Dipole Moment    :      0.050617317      -0.754880315       0.000322872
                        -----------------------------------------
Magnitude (a.u.)       :      0.756575513
Magnitude (Debye)      :      1.923062127

Rotational constants in cm-1:             0.196873             0.092172             0.065070
Rotational constants in MHz :          5902.116394          2763.243268          1950.748010

                             ****ORCA TERMINATED NORMALLY****
TOTAL RUN TIME: 0 days 0 hours 0 minutes 6 seconds 713 msec
