                         Program Version 6.0.0  -   RELEASE  -
|  1> ! r2scan-3c def2/J RI DEFGRID2 scfconv6 printgap
|  2> %output
|  3>     printlevel normal
|  4> end
|  5> * xyz 0 1
|  6> C -2.495098133 0.0678003966 0.0008638709
|  7> C -1.2280994074 -0.7762083234 -0.0004272446
|  8> C 0.0181615388 0.0694271414 2.49983e-05
|  9> O 0.0531718741 1.2807169042 -0.0007363793
| 10> O 1.1147985291 -0.6876667469 -0.0004993629
| 11> C 2.3782135943 -0.0177457251 0.000783691
| 12> H -2.5250402148 0.7023737087 0.8827631865
| 13> H -2.5199831733 0.7117530953 -0.8743980378
| 14> H -3.3715349207 -0.5725824371 -0.0049202919
| 15> H -1.1873641396 -1.4207088731 -0.8802490678
| 16> H -1.1869756083 -1.4230485211 0.8776184442
| 17> H 2.4448934781 0.6558500329 -0.8543856203
| 18> H 3.1250503801 -0.8027893694 -0.0598185092
| 19> H 2.4919069845 0.5610819054 0.9181659542
| 20> *
| 21>
| 22>                          ****END OF INPUT****

CARTESIAN COORDINATES (ANGSTROEM)
---------------------------------
  C     -2.495098    0.067800    0.000864
  C     -1.228099   -0.776208   -0.000427
  C      0.018162    0.069427    0.000025
  O      0.053172    1.280717   -0.000736
  O      1.114799   -0.687667   -0.000499
  C      2.378214   -0.017746    0.000784
  H     -2.525040    0.702374    0.882763
  H     -2.519983    0.711753   -0.874398
  H     -3.371535   -0.572582   -0.004920
  H     -1.187364   -1.420709   -0.880249
  H     -1.186976   -1.423049    0.877618
  H      2.444893    0.655850   -0.854386
  H      3.125050   -0.802789   -0.059819
  H      2.491907    0.561082    0.918166

 Total Charge           Charge          ....    0
 Multiplicity           Mult            ....    1
 Number of Electrons    NEL             ....   48
 Basis Dimension        Dim             ....  164

ORBITAL ENERGIES
----------------

  NO   OCC          E(Eh)            E(eV)
   0   2.0000     -18.998275      -516.9694
   1   2.0000     -18.931774      -515.1598
   2   2.0000     -10.153210      -276.2829
   3   2.0000     -10.086908      -274.4787
   4   2.0000     -10.046448      -273.3777
   5   2.0000     -10.022564      -272.7278
   6   2.0000      -1.072662       -29.1886
   7   2.0000      -0.977868       -26.6091
   8   2.0000      -0.758761       -20.6469
   9   2.0000      -0.697273       -18.9738
  10   2.0000      -0.610012       -16.5993
  11   2.0000      -0.528248       -14.3744
  12   2.0000      -0.471301       -12.8248
  13   2.0000      -0.462282       -12.5793
  14   2.0000      -0.440666       -11.9911
  15   2.0000      -0.421355       -11.4656
  16   2.0000      -0.398018       -10.8306
  17   2.0000      -0.357254        -9.7214
  18   2.0000      -0.349292        -9.5047
  19   2.0000      -0.341754        -9.2996
  20   2.0000      -0.319351        -8.6900
  21   2.0000      -0.318843        -8.6762
  22   2.0000      -0.274653        -7.4737
  23   2.0000      -0.239148        -6.5076
  24   0.0000      -0.014672        -0.3992
  25   0.0000       0.067737         1.8432
  26   0.0000       0.086789         2.3617
  27   0.0000       0.115535         3.1439
  28   0.0000       0.134818         3.6686

MULLIKEN ATOMIC CHARGES
-----------------------
   0 C :   -0.458238
   1 C :   -0.242905
   2 C :    0.354300
   3 O :   -0.420204
   4 O :   -0.183096
   5 C :   -0.293291
   6 H :    0.154674
   7 H :    0.155003
   8 H :    0.144797
   9 H :    0.158575
  10 H :    0.158496
  11 H :    0.162365
  12 H :    0.150668
  13 H :    0.158857
Sum of atomic charges:   -0.0000000

LOEWDIN ATOMIC CHARGES
----------------------
   0 C :   -0.402186
   1 C :   -0.240811
   2 C :    0.357099
   3 O :   -0.423828
   4 O :   -0.606266
   5 C :   -0.045396
   6 H :    0.161404
   7 H :    0.161632
   8 H :    0.150459
   9 H :    0.179716
  10 H :    0.179664
  11 H :    0.177175
  12 H :    0.176055
  13 H :    0.175282

  Mayer bond orders larger than 0.100000
B(  0-C ,  1-C ) :   0.9394 B(  0-C ,  6-H ) :   0.9731 B(  0-C ,  7-H ) :   0.9731
B(  0-C ,  8-H ) :   0.9715 B(  1-C ,  2-C ) :   0.9963 B(  1-C ,  9-H ) :   0.9390
B(  1-C , 10-H ) :   0.9392 B(  2-C ,  3-O ) :   1.8326 B(  2-C ,  4-O ) :   1.0789
B(  4-O ,  5-C ) :   0.8502 B(  5-C , 11-H ) :   0.9635 B(  5-C , 12-H ) :   0.9694
B(  5-C , 13-H ) :   0.9624

Dispersion correction           -0.002945957
FINAL SINGLE POINT ENERGY      -307.633668838563

DIPOLE MOMENT
-------------

Method             : SCF
Type of density    : Electron Density
Multiplicity       :   1
Irrep              :   0
Energy             :  -307.6400721097311362 Eh
Relativity type    :
Basis              : AO
                                X                 Y                 Z
Electronic contribution:      2.772936330       0.779614734      -0.004824202
Nuclear contribution   :     -2.542970030      -1.481076039       0.004462414
                        -----------------------------------------
Total Dipole Moment    :      0.229966300      -0.701461305      -0.000361788
                        -----------------------------------------
Magnitude (a.u.)       :      0.738195498
Magnitude (Debye)      :      1.876343840

Rotational constants in cm-1:             0.320007             0.071822             0.060642
Rotational constants in MHz :          9593.574317          2153.168485          1817.993121

                             ****ORCA TERMINATED NORMALLY****
TOTAL RUN TIME: 0 days 0 hours 0 minutes 17 seconds 918 msec
