                         Program Version 6.0.0  -   RELEASE  -
|  1> ! r2scan-3c def2/J RI DEFGRID2 scfconv6 printgap
|  2> %output
|  3>     printlevel normal
|  4> end
|  5> %cpcm
|  6>     smd true
|  7>     smdsolvent "water"
|  8> end
|  9> * xyz 0 1
| 10> C -2.495098133 0.0678003966 0.0008638709
| 11> C -1.2280994074 -0.7762083234 -0.0004272446
| 12> C 0.0181615388 0.0694271414 2.49983e-05
| 13> O 0.0531718741 1.2807169042 -0.0007363793
| 14> O 1.1147985291 -0.6876667469 -0.0004993629
| 15> C 2.3782135943 -0.0177457251 0.000783691
| 16> H -2.5250402148 0.7023737087 0.8827631865
| 17> H -2.5199831733 0.7117530953 -0.8743980378
| 18> H -3.3715349207 -0.5725824371 -0.0049202919
| 19> H -1.1873641396 -1.4207088731 -0.8802490678
| 20> H -1.1869756083 -1.4230485211 0.8776184442
| 21> H 2.4448934781 0.6558500329 -0.8543856203
| 22> H 3.1250503801 -0.8027893694 -0.0598185092
| 23> H 2.4919069845 0.5610819054 0.9181659542
| 24> *
| 25>
| 26>                          ****END OF INPUT****

CARTESIAN COORDINATES (ANGSTROEM)
---------------------------------
  C     -2.495098    0.067800    0.000864
  C     -1.228099   -0.776208   -0.000427
  C      0.018162    0.069427    0.000025
  O      0.053172    1.280717   -0.000736
  O      1.114799   -0.687667   -0.000499
  C      2.378214   -0.017746    0.000784
  H     -2.525040    0.702374    0.882763
  H     -2.519983    0.711753   -0.874398
  H     -3.371535   -0.572582   -0.004920
  H     -1.187364   -1.420709   -0.880249
  H     -1.186976   -1.423049    0.877618
  H      2.444893    0.655850   -0.854386
  H      3.125050   -0.802789   -0.059819
  H      2.491907    0.561082    0.918166

 Total Charge           Charge          ....    0
 Multiplicity           Mult            ....    1
 Number of Electrons    NEL             ....   48
 Basis Dimension        Dim             ....  164

ORBITAL ENERGIES
----------------

  NO   OCC          E(Eh)            E(eV)
   0   2.0000     -19.002616      -517.0875
   1   2.0000     -18.946071      -515.5488
   2   2.0000     -10.162361      -276.5319
   3   2.0000     -10.076192      -274.1871
   4   2.0000     -10.038831      -273.1705
   5   2.0000     -10.016503      -272.5629
   6   2.0000      -1.078776       -29.3550
   7   2.0000      -0.989803       -26.9339
   8   2.0000      -0.754230       -20.5236
   9   2.0000      -0.691846       -18.8261
  10   2.0000      -0.603942       -16.4341
  11   2.0000      -0.526792       -14.3347
  12   2.0000      -0.472076       -12.8458
  13   2.0000      -0.461155       -12.5487
  14   2.0000      -0.450985       -12.2719
  15   2.0000      -0.413204       -11.2438
  16   2.0000      -0.397730       -10.8228
  17   2.0000      -0.358101        -9.7444
  18   2.0000      -0.343295        -9.3415
  19   2.0000      -0.336670        -9.1612
  20   2.0000      -0.320479        -8.7207
  21   2.0000      -0.315230        -8.5778
  22   2.0000      -0.279694        -7.6109
  23   2.0000      -0.254438        -6.9236
  24   0.0000      -0.021285        -0.5792
  25   0.0000       0.072921         1.9843
  26   0.0000       0.094114         2.5610
  27   0.0000       0.127823         3.4783
  28   0.0000       0.141551         3.8518

MULLIKEN ATOMIC CHARGES
-----------------------
   0 C :   -0.519010
   1 C :   -0.238754
   2 C :    0.394431
   3 O :   -0.503829
   4 O :   -0.200294
   5 C :   -0.327877
   6 H :    0.163280
   7 H :    0.163117
   8 H :    0.165549
   9 H :    0.185534
  10 H :    0.185418
  11 H :    0.176905
  12 H :    0.178093
  13 H :    0.177437
Sum of atomic charges:    0.0000000

LOEWDIN ATOMIC CHARGES
----------------------
   0 C :   -0.409495
   1 C :   -0.236466
   2 C :    0.369362
   3 O :   -0.484300
   4 O :   -0.609218
   5 C :   -0.043364
   6 H :    0.160510
   7 H :    0.160586
   8 H :    0.159052
   9 H :    0.191043
  10 H :    0.191002
  11 H :    0.182023
  12 H :    0.187965
  13 H :    0.181298

  Mayer bond orders larger than 0.100000
B(  0-C ,  1-C ) :   0.9015 B(  0-C ,  6-H ) :   0.9764 B(  0-C ,  7-H ) :   0.9764
B(  0-C ,  8-H ) :   0.9642 B(  1-C ,  2-C ) :   1.0055 B(  1-C ,  9-H ) :   0.9272
B(  1-C , 10-H ) :   0.9274 B(  2-C ,  3-O ) :   1.7719 B(  2-C ,  4-O ) :   1.1033
B(  4-O ,  5-C ) :   0.8306 B(  5-C , 11-H ) :   0.9583 B(  5-C , 12-H ) :   0.9596
B(  5-C , 13-H ) :   0.9570

Dispersion correction           -0.002945957
FINAL SINGLE POINT ENERGY      -307.638880910348

DIPOLE MOMENT
-------------

Method             : SCF
Type of density    : Electron Density
Multiplicity       :   1
Irrep              :   0
Energy             :  -307.6452841815159331 Eh
Relativity type    :
Basis              : AO
                                X                 Y                 Z
Electronic contribution:      2.838109359       0.425029454      -0.004341462
Nuclear contribution   :     -2.542970030      -1.481076039       0.004462414
                        -----------------------------------------
Total Dipole Moment    :      0.295139329      -1.056046585       0.000120952
                        -----------------------------------------
Magnitude (a.u.)       :      1.096513396
Magnitude (Debye)      :      2.787115556

Rotational constants in cm-1:             0.320007             0.071822             0.060642
Rotational constants in MHz :          9593.574317          2153.168485          1817.993121

                             ****ORCA TERMINATED NORMALLY****
TOTAL RUN TIME: 0 days 0 hours 0 minutes 20 seconds 511 msec
