                         Program Version 6.0.0  -   RELEASE  -
|  1> ! pbe def2-sv(p) def2/J RI DEFGRID1 loosescf d4 GCP(DFT/SV(P)) printgap
|  2> %output
|  3>     printlevel normal
|  4> end
|  5> * xyz 0 1
|  6> C -2.3180958927 1.1233486776 -0.1118520379
|  7> C -1.4293523082 -0.0876467289 -0.1586198384
|  8> O -1.59698819 -0.9635007937 -0.9848763502
|  9> C -0.3531862321 -0.1574494684 0.9117414919
| 10> C 0.4903816906 1.122749699 0.9648346233
| 11> C 1.2528613291 1.347053976 -0.3457869839
| 12> C 1.6675406442 0.0174050391 -0.9872973538
| 13> C 1.8880083994 -1.0403306318 0.0877955519
| 14> C 0.5526426057 -1.3897935068 0.7514313068
| 15> H -2.5235370133 1.422681301 0.9105677926
| 16> H -1.8160623445 1.9446129645 -0.6193569554
| 17> H -3.2446970552 0.9149960528 -0.6405024212
| 18> H -0.9080329351 -0.2405584998 1.8536133002
| 19> H -0.1316224312 1.9880056594 1.1886283929
| 20> H 1.200032179 1.0097034608 1.7851800372
| 21> H 0.6384039301 1.9080101978 -1.0522487206
| 22> H 2.1389787439 1.9488384954 -0.136629259
| 23> H 0.8841827705 -0.3346075658 -1.6622760363
| 24> H 2.573308592 0.1554053147 -1.5795727317
| 25> H 2.3208375017 -1.9403944109 -0.3509975345
| 26> H 2.5948274119 -0.660703846 0.8276938856
| 27> H 0.0238427251 -2.1183755061 0.1320788703
| 28> H 0.7360854133 -1.8492841997 1.7232586687
| 29> *
| 30>
| 31>                          ****END OF INPUT****

CARTESIAN COORDINATES (ANGSTROEM)
---------------------------------
  C     -2.318096    1.123349   -0.111852
  C     -1.429352   -0.087647   -0.158620
  O     -1.596988   -0.963501   -0.984876
  C     -0.353186   -0.157449    0.911741
  C      0.490382    1.122750    0.964835
  C      1.252861    1.347054   -0.345787
  C      1.667541    0.017405   -0.987297
  C      1.888008   -1.040331    0.087796
  C      0.552643   -1.389794    0.751431
  H     -2.523537    1.422681    0.910568
  H     -1.816062    1.944613   -0.619357
  H     -3.244697    0.914996   -0.640502
  H     -0.908033   -0.240558    1.853613
  H     -0.131622    1.988006    1.188628
  H      1.200032    1.009703    1.785180
  H      0.638404    1.908010   -1.052249
  H      2.138979    1.948838   -0.136629
  H      0.884183   -0.334608   -1.662276
  H      2.573309    0.155405   -1.579573
  H      2.320838   -1.940394   -0.350998
  H      2.594827   -0.660704    0.827694
  H      0.023843   -2.118376    0.132079
  H      0.736085   -1.849284    1.723259

 Total Charge           Charge          ....    0
 Multiplicity           Mult            ....    1
 Number of Electrons    NEL             ....   70
 Basis Dimension        Dim             ....  154

ORBITAL ENERGIES
----------------

  NO   OCC          E(Eh)            E(eV)
   0   2.0000     -18.739843      -509.9371
   1   2.0000      -9.973291      -271.3870
   2   2.0000      -9.900850      -269.4158
   3   2.0000      -9.894305      -269.2377
   4   2.0000      -9.887483      -269.0521
   5   2.0000      -9.886468      -269.0245
   6   2.0000      -9.879075      -268.8233
   7   2.0000      -9.877984      -268.7936
   8   2.0000      -9.876584      -268.7555
   9   2.0000      -0.937001       -25.4971
  10   2.0000      -0.761106       -20.7107
  11   2.0000      -0.691274       -18.8105
  12   2.0000      -0.666270       -18.1301
  13   2.0000      -0.652824       -17.7642
  14   2.0000      -0.568290       -15.4640
  15   2.0000      -0.544553       -14.8181
  16   2.0000      -0.492364       -13.3979
  17   2.0000      -0.456423       -12.4199
  18   2.0000      -0.442213       -12.0332
  19   2.0000      -0.430802       -11.7227
  20   2.0000      -0.410914       -11.1815
  21   2.0000      -0.392907       -10.6915
  22   2.0000      -0.382511       -10.4087
  23   2.0000      -0.367238        -9.9931
  24   2.0000      -0.350454        -9.5363
  25   2.0000      -0.343769        -9.3544
  26   2.0000      -0.332594        -9.0503
  27   2.0000      -0.327650        -8.9158
  28   2.0000      -0.323380        -8.7996
  29   2.0000      -0.314667        -8.5625
  30   2.0000      -0.305511        -8.3134
  31   2.0000      -0.267845        -7.2884
  32   2.0000      -0.262536        -7.1440
  33   2.0000      -0.260232        -7.0813
  34   2.0000      -0.196902        -5.3580
  35   0.0000      -0.051701        -1.4068
  36   0.0000       0.019989         0.5439
  37   0.0000       0.046867         1.2753
  38   0.0000       0.063520         1.7285
  39   0.0000       0.076290         2.0760

MULLIKEN ATOMIC CHARGES
-----------------------
   0 C :   -0.245451
   1 C :    0.000372
   2 O :   -0.163196
   3 C :   -0.214560
   4 C :   -0.112071
   5 C :   -0.172357
   6 C :   -0.161029
   7 C :   -0.161335
   8 C :   -0.096280
   9 H :    0.117977
  10 H :    0.134243
  11 H :    0.120543
  12 H :    0.093972
  13 H :    0.088208
  14 H :    0.085353
  15 H :    0.085260
  16 H :    0.084409
  17 H :    0.097588
  18 H :    0.085015
  19 H :    0.088603
  20 H :    0.071835
  21 H :    0.098087
  22 H :    0.074811
Sum of atomic charges:    0.0000000

LOEWDIN ATOMIC CHARGES
----------------------
   0 C :   -0.360792
   1 C :    0.049120
   2 O :   -0.126815
   3 C :   -0.173684
   4 C :   -0.215055
   5 C :   -0.231379
   6 C :   -0.234471
   7 C :   -0.224160
   8 C :   -0.224027
   9 H :    0.133471
  10 H :    0.146876
  11 H :    0.137370
  12 H :    0.138614
  13 H :    0.116740
  14 H :    0.122735
  15 H :    0.114576
  16 H :    0.119105
  17 H :    0.121922
  18 H :    0.117249
  19 H :    0.119838
  20 H :    0.110518
  21 H :    0.125705
  22 H :    0.116542

  Mayer bond orders larger than 0.100000
B(  0-C ,  1-C ) :   1.0737 B(  0-C ,  9-H ) :   0.9306 B(  0-C , 10-H ) :   0.9114
B(  0-C , 11-H ) :   0.9289 B(  1-C ,  2-O ) :   2.1613 B(  1-C ,  3-C ) :   0.9145
B(  3-C ,  4-C ) :   1.1290 B(  3-C ,  8-C ) :   1.0901 B(  3-C , 12-H ) :   0.8586
B(  4-C ,  5-C ) :   1.1519 B(  4-C , 13-H ) :   0.9074 B(  4-C , 14-H ) :   0.8967
B(  5-C ,  6-C ) :   1.1456 B(  5-C , 15-H ) :   0.9123 B(  5-C , 16-H ) :   0.9169
B(  6-C ,  7-C ) :   1.1840 B(  6-C , 17-H ) :   0.9024 B(  6-C , 18-H ) :   0.9219
B(  7-C ,  8-C ) :   1.1606 B(  7-C , 19-H ) :   0.9208 B(  7-C , 20-H ) :   0.9081
B(  8-C , 21-H ) :   0.8928 B(  8-C , 22-H ) :   0.9109

Dispersion correction           -0.023176625
FINAL SINGLE POINT ENERGY      -387.600649105026

DIPOLE MOMENT
-------------

Method             : SCF
Type of density    : Electron Density
Multiplicity       :   1
Irrep              :   0
Energy             :  -387.6783348271883938 Eh
Relativity type    :
Basis              : AO
                                X                 Y                 Z
Electronic contribution:     -4.021617163      -3.150795473      -1.593809068
Nuclear contribution   :      4.185441404       3.877531947       2.217700479
                        -----------------------------------------
Total Dipole Moment    :      0.163824240       0.726736474       0.623891411
                        -----------------------------------------
Magnitude (a.u.)       :      0.971712291
Magnitude (Debye)      :      2.469896358

Rotational constants in cm-1:             0.080800             0.046749             0.040408
Rotational constants in MHz :          2422.333024          1401.513784          1211.408301

                             ****ORCA TERMINATED NORMALLY****
TOTAL RUN TIME: 0 days 0 hours 0 minutes 10 seconds 359 msec
