                         Program Version 6.0.0  -   RELEASE  -
|  1> ! r2scan-3c def2/J RI DEFGRID2 scfconv6 printgap
|  2> %output
|  3>     printlevel normal
|  4> end
|  5> * xyz 0 1
|  6> C 1.1046449702 -1.8564936505 -0.0034408776
|  7> C 2.1016959338 -0.9011321958 -0.0065542317
|  8> C 1.7998097434 0.4734812806 -0.0057466359
|  9> C 0.452355667 0.8483914547 -0.0040145862
| 10> C -0.5368476629 -0.1277617609 -0.0003246382
| 11> C -0.2290192408 -1.4885085599 -0.0001615188
| 12> N -1.8949158998 0.2740784897 0.0005765308
| 13> O -2.7667217037 -0.5867688293 0.0119605059
| 14> O -2.1579627717 1.4707153159 -0.0106482455
| 15> N 2.7818374309 1.4015494622 0.028942749
| 16> H 1.3669609739 -2.9022055995 -0.0046512337
| 17> H 3.1361719693 -1.2071200708 -0.0080890663
| 18> H 0.1647719985 1.8879953167 -0.0033108265
| 19> H -1.0245336561 -2.2148154307 0.0012451425
| 20> H 3.7361441555 1.1167983831 -0.0940719043
| 21> H 2.5487682745 2.3712819714 -0.0809507225
| 22> *
| 23>
| 24>                          ****END OF INPUT****

CARTESIAN COORDINATES (ANGSTROEM)
---------------------------------
  C      1.104645   -1.856494   -0.003441
  C      2.101696   -0.901132   -0.006554
  C      1.799810    0.473481   -0.005747
  C      0.452356    0.848391   -0.004015
  C     -0.536848   -0.127762   -0.000325
  C     -0.229019   -1.488509   -0.000162
  N     -1.894916    0.274078    0.000577
  O     -2.766722   -0.586769    0.011961
  O     -2.157963    1.470715   -0.010648
  N      2.781837    1.401549    0.028943
  H      1.366961   -2.902206   -0.004651
  H      3.136172   -1.207120   -0.008089
  H      0.164772    1.887995   -0.003311
  H     -1.024534   -2.214815    0.001245
  H      3.736144    1.116798   -0.094072
  H      2.548768    2.371282   -0.080951

 Total Charge           Charge          ....    0
 Multiplicity           Mult            ....    1
 Number of Electrons    NEL             ....   72
 Basis Dimension        Dim             ....  240

ORBITAL ENERGIES
----------------

  NO   OCC          E(Eh)            E(eV)
   0   2.0000     -18.971627      -516.2442
   1   2.0000     -18.971144      -516.2311
   2   2.0000     -14.384685      -391.4272
   3   2.0000     -14.194274      -386.2458
   4   2.0000     -10.103949      -274.9424
   5   2.0000     -10.096273      -274.7336
   6   2.0000     -10.057145      -273.6688
   7   2.0000     -10.056195      -273.6430
   8   2.0000     -10.056043      -273.6388
   9   2.0000     -10.049930      -273.4725
  10   2.0000      -1.190636       -32.3989
  11   2.0000      -1.009410       -27.4674
  12   2.0000      -0.922913       -25.1137
  13   2.0000      -0.847897       -23.0724
  14   2.0000      -0.776578       -21.1318
  15   2.0000      -0.726362       -19.7653
  16   2.0000      -0.676160       -18.3992
  17   2.0000      -0.602964       -16.4075
  18   2.0000      -0.576395       -15.6845
  19   2.0000      -0.528642       -14.3851
  20   2.0000      -0.518199       -14.1009
  21   2.0000      -0.501481       -13.6460
  22   2.0000      -0.477831       -13.0024
  23   2.0000      -0.471669       -12.8348
  24   2.0000      -0.467162       -12.7121
  25   2.0000      -0.423531       -11.5249
  26   2.0000      -0.418521       -11.3885
  27   2.0000      -0.386587       -10.5196
  28   2.0000      -0.361035        -9.8243
  29   2.0000      -0.344135        -9.3644
  30   2.0000      -0.315974        -8.5981
  31   2.0000      -0.280332        -7.6282
  32   2.0000      -0.273190        -7.4339
  33   2.0000      -0.262349        -7.1389
  34   2.0000      -0.245211        -6.6725
  35   2.0000      -0.207176        -5.6375
  36   0.0000      -0.117823        -3.2061
  37   0.0000      -0.039880        -1.0852
  38   0.0000      -0.014244        -0.3876
  39   0.0000       0.053214         1.4480
  40   0.0000       0.074709         2.0329

MULLIKEN ATOMIC CHARGES
-----------------------
   0 C :   -0.111869
   1 C :   -0.335865
   2 C :    0.584688
   3 C :   -0.472015
   4 C :    0.025079
   5 C :   -0.255992
   6 N :    0.347942
   7 O :   -0.230699
   8 O :   -0.231222
   9 N :   -0.488642
  10 H :    0.153175
  11 H :    0.141480
  12 H :    0.176489
  13 H :    0.182885
  14 H :    0.254733
  15 H :    0.259833
Sum of atomic charges:    0.0000000

LOEWDIN ATOMIC CHARGES
----------------------
   0 C :   -0.141488
   1 C :   -0.135012
   2 C :    0.135213
   3 C :   -0.076380
   4 C :    0.199467
   5 C :   -0.112139
   6 N :   -0.493635
   7 O :   -0.022954
   8 O :   -0.028760
   9 N :   -0.577236
  10 H :    0.173021
  11 H :    0.170703
  12 H :    0.199331
  13 H :    0.196995
  14 H :    0.255853
  15 H :    0.257020

  Mayer bond orders larger than 0.100000
B(  0-C ,  1-C ) :   1.4240 B(  0-C ,  5-C ) :   1.3327 B(  0-C , 10-H ) :   0.9515
B(  1-C ,  2-C ) :   1.2760 B(  1-C , 11-H ) :   0.9479 B(  2-C ,  3-C ) :   1.1823
B(  2-C ,  9-N ) :   0.9495 B(  3-C ,  4-C ) :   1.4569 B(  3-C ,  9-N ) :   0.1052
B(  3-C , 12-H ) :   0.9228 B(  4-C ,  5-C ) :   1.4170 B(  4-C ,  6-N ) :   0.9665
B(  5-C ,  7-O ) :   0.1069 B(  5-C , 13-H ) :   0.9394 B(  6-N ,  7-O ) :   1.8421
B(  6-N ,  8-O ) :   1.8372 B(  7-O ,  8-O ) :   0.2410 B(  9-N , 14-H ) :   0.9323
B(  9-N , 15-H ) :   0.9312

Dispersion correction           -0.005558032
FINAL SINGLE POINT ENERGY      -492.021155226209

DIPOLE MOMENT
-------------

Method             : SCF
Type of density    : Electron Density
Multiplicity       :   1
Irrep              :   0
Energy             :  -492.0276773447626510 Eh
Relativity type    :
Basis              : AO
                                X                 Y                 Z
Electronic contribution:     -6.758100255       0.897628015       0.049392326
Nuclear contribution   :      9.246365307      -0.867122907      -0.177910423
                        -----------------------------------------
Total Dipole Moment    :      2.488265053       0.030505108      -0.128518096
                        -----------------------------------------
Magnitude (a.u.)       :      2.491768536
Magnitude (Debye)      :      6.333572280

Rotational constants in cm-1:             0.091901             0.033557             0.024583
Rotational constants in MHz :          2755.134583          1006.002271           736.994221

                             ****ORCA TERMINATED NORMALLY****
TOTAL RUN TIME: 0 days 0 hours 0 minutes 25 seconds 607 msec
