                         Program Version 6.0.0  -   RELEASE  -
|  1> ! r2scan-3c def2/J RI DEFGRID2 scfconv6 printgap
|  2> %output
|  3>     printlevel normal
|  4> end
|  5> %cpcm
|  6>     smd true
|  7>     smdsolvent "water"
|  8> end
|  9> * xyz 0 1
| 10> C 1.1046449702 -1.8564936505 -0.0034408776
| 11> C 2.1016959338 -0.9011321958 -0.0065542317
| 12> C 1.7998097434 0.4734812806 -0.0057466359
| 13> C 0.452355667 0.8483914547 -0.0040145862
| 14> C -0.5368476629 -0.1277617609 -0.0003246382
| 15> C -0.2290192408 -1.4885085599 -0.0001615188
| 16> N -1.8949158998 0.2740784897 0.0005765308
| 17> O -2.7667217037 -0.5867688293 0.0119605059
| 18> O -2.1579627717 1.4707153159 -0.0106482455
| 19> N 2.7818374309 1.4015494622 0.028942749
| 20> H 1.3669609739 -2.9022055995 -0.0046512337
| 21> H 3.1361719693 -1.2071200708 -0.0080890663
| 22> H 0.1647719985 1.8879953167 -0.0033108265
| 23> H -1.0245336561 -2.2148154307 0.0012451425
| 24> H 3.7361441555 1.1167983831 -0.0940719043
| 25> H 2.5487682745 2.3712819714 -0.0809507225
| 26> *
| 27>
| 28>                          ****END OF INPUT****

CARTESIAN COORDINATES (ANGSTROEM)
---------------------------------
  C      1.104645   -1.856494   -0.003441
  C      2.101696   -0.901132   -0.006554
  C      1.799810    0.473481   -0.005747
  C      0.452356    0.848391   -0.004015
  C     -0.536848   -0.127762   -0.000325
  C     -0.229019   -1.488509   -0.000162
  N     -1.894916    0.274078    0.000577
  O     -2.766722   -0.586769    0.011961
  O     -2.157963    1.470715   -0.010648
  N      2.781837    1.401549    0.028943
  H      1.366961   -2.902206   -0.004651
  H      3.136172   -1.207120   -0.008089
  H      0.164772    1.887995   -0.003311
  H     -1.024534   -2.214815    0.001245
  H      3.736144    1.116798   -0.094072
  H      2.548768    2.371282   -0.080951

 Total Charge           Charge          ....    0
 Multiplicity           Mult            ....    1
 Number of Electrons    NEL             ....   72
 Basis Dimension        Dim             ....  240

ORBITAL ENERGIES
----------------

  NO   OCC          E(Eh)            E(eV)
   0   2.0000     -18.989855      -516.7402
   1   2.0000     -18.989404      -516.7280
   2   2.0000     -14.400802      -391.8657
   3   2.0000     -14.168346      -385.5403
   4   2.0000     -10.094566      -274.6871
   5   2.0000     -10.092006      -274.6174
   6   2.0000     -10.047397      -273.4036
   7   2.0000     -10.046928      -273.3908
   8   2.0000     -10.044839      -273.3340
   9   2.0000     -10.044642      -273.3286
  10   2.0000      -1.208391       -32.8820
  11   2.0000      -1.028151       -27.9774
  12   2.0000      -0.902098       -24.5473
  13   2.0000      -0.843931       -22.9645
  14   2.0000      -0.773788       -21.0558
  15   2.0000      -0.716093       -19.4859
  16   2.0000      -0.672855       -18.3093
  17   2.0000      -0.591620       -16.0988
  18   2.0000      -0.569197       -15.4886
  19   2.0000      -0.536640       -14.6027
  20   2.0000      -0.516656       -14.0589
  21   2.0000      -0.504845       -13.7375
  22   2.0000      -0.484541       -13.1850
  23   2.0000      -0.467263       -12.7149
  24   2.0000      -0.454893       -12.3783
  25   2.0000      -0.412511       -11.2250
  26   2.0000      -0.406306       -11.0561
  27   2.0000      -0.377393       -10.2694
  28   2.0000      -0.350234        -9.5304
  29   2.0000      -0.332677        -9.0526
  30   2.0000      -0.307272        -8.3613
  31   2.0000      -0.300854        -8.1867
  32   2.0000      -0.293927        -7.9982
  33   2.0000      -0.266556        -7.2534
  34   2.0000      -0.258320        -7.0293
  35   2.0000      -0.194693        -5.2979
  36   0.0000      -0.128828        -3.5056
  37   0.0000      -0.033255        -0.9049
  38   0.0000      -0.010781        -0.2934
  39   0.0000       0.080707         2.1962
  40   0.0000       0.087784         2.3887

MULLIKEN ATOMIC CHARGES
-----------------------
   0 C :   -0.152313
   1 C :   -0.330035
   2 C :    0.488086
   3 C :   -0.467016
   4 C :    0.075172
   5 C :   -0.287602
   6 N :    0.401171
   7 O :   -0.298374
   8 O :   -0.294341
   9 N :   -0.544316
  10 H :    0.189689
  11 H :    0.189023
  12 H :    0.203601
  13 H :    0.200544
  14 H :    0.312649
  15 H :    0.314061
Sum of atomic charges:    0.0000000

LOEWDIN ATOMIC CHARGES
----------------------
   0 C :   -0.145590
   1 C :   -0.119782
   2 C :    0.131774
   3 C :   -0.078033
   4 C :    0.192096
   5 C :   -0.122408
   6 N :   -0.495498
   7 O :   -0.064665
   8 O :   -0.065324
   9 N :   -0.557181
  10 H :    0.185824
  11 H :    0.188838
  12 H :    0.208400
  13 H :    0.200567
  14 H :    0.270593
  15 H :    0.270387

  Mayer bond orders larger than 0.100000
B(  0-C ,  1-C ) :   1.3955 B(  0-C ,  5-C ) :   1.3205 B(  0-C , 10-H ) :   0.9580
B(  1-C ,  2-C ) :   1.2633 B(  1-C , 11-H ) :   0.9547 B(  2-C ,  3-C ) :   1.2383
B(  2-C ,  9-N ) :   0.9628 B(  3-C ,  4-C ) :   1.3595 B(  3-C ,  9-N ) :   0.1042
B(  3-C , 12-H ) :   0.9341 B(  4-C ,  5-C ) :   1.3141 B(  4-C ,  6-N ) :   1.0046
B(  5-C , 13-H ) :   0.9517 B(  6-N ,  7-O ) :   1.7766 B(  6-N ,  8-O ) :   1.7776
B(  7-O ,  8-O ) :   0.2203 B(  9-N , 14-H ) :   0.9058 B(  9-N , 15-H ) :   0.9056

Dispersion correction           -0.005558032
FINAL SINGLE POINT ENERGY      -492.033290796256

DIPOLE MOMENT
-------------

Method             : SCF
Type of density    : Electron Density
Multiplicity       :   1
Irrep              :   0
Energy             :  -492.0398129148096018 Eh
Relativity type    :
Basis              : AO
                                X                 Y                 Z
Electronic contribution:     -5.708364094       0.902790886       0.004382477
Nuclear contribution   :      9.246365307      -0.867122907      -0.177910423
                        -----------------------------------------
Total Dipole Moment    :      3.538001213       0.035667979      -0.173527945
                        -----------------------------------------
Magnitude (a.u.)       :      3.542433731
Magnitude (Debye)      :      9.004150972

Rotational constants in cm-1:             0.091901             0.033557             0.024583
Rotational constants in MHz :          2755.134583          1006.002271           736.994221

                             ****ORCA TERMINATED NORMALLY****
TOTAL RUN TIME: 0 days 0 hours 0 minutes 36 seconds 205 msec
