                         Program Version 6.0.0  -   RELEASE  -
|  1> ! pbe def2-sv(p) def2/J RI DEFGRID1 loosescf d4 GCP(DFT/SV(P)) printgap
|  2> %output
|  3>     printlevel normal
|  4> end
|  5> * xyz 0 1
|  6> C -2.4879129493 -0.8176742958 -0.0731596209
|  7> C -1.1201883081 -0.5590464252 0.5737077053
|  8> H -1.1268258376 -0.9447020324 1.6067408665
|  9> C -0.7629408448 0.9470417797 0.6154435092
| 10> H -1.6513694893 1.5272729569 0.3339756584
| 11> C 0.363601252 1.2597588008 -0.3920507492
| 12> H 0.671396239 2.3047491535 -0.2368822579
| 13> C 1.5932399068 0.3825648845 -0.0892603219
| 14> H 2.2262805139 0.3646412215 -0.9827191713
| 15> C 1.1539558488 -1.0722971004 0.2353342613
| 16> H 1.2406641419 -1.2268884196 1.3249168703
| 17> O -0.1734063657 -1.3009654348 -0.1772598859
| 18> O 1.9565726425 -2.0304743625 -0.3506408058
| 19> O 2.3818351952 0.9281957333 0.933162898
| 20> O -0.0213619651 1.0405439324 -1.7218663943
| 21> O -0.2851821687 1.3426396514 1.8821169502
| 22> O -2.6251686128 -0.174645886 -1.3122659521
| 23> H -3.2814039675 -0.4260849265 0.5656726201
| 24> H -2.6107490061 -1.9023160033 -0.1793624216
| 25> H 1.7767881467 -2.0589635637 -1.3034794912
| 26> H 1.8098424884 1.1333007309 1.6918925746
| 27> H -0.7115967988 1.6739935848 -1.9684969986
| 28> H -1.0171907086 1.422097725 2.5094947777
| 29> H -1.8848949578 -0.4488352347 -1.87563792
| 30> *
| 31>
| 32>                          ****END OF INPUT****

CARTESIAN COORDINATES (ANGSTROEM)
---------------------------------
  C     -2.487913   -0.817674   -0.073160
  C     -1.120188   -0.559046    0.573708
  H     -1.126826   -0.944702    1.606741
  C     -0.762941    0.947042    0.615444
  H     -1.651369    1.527273    0.333976
  C      0.363601    1.259759   -0.392051
  H      0.671396    2.304749   -0.236882
  C      1.593240    0.382565   -0.089260
  H      2.226281    0.364641   -0.982719
  C      1.153956   -1.072297    0.235334
  H      1.240664   -1.226888    1.324917
  O     -0.173406   -1.300965   -0.177260
  O      1.956573   -2.030474   -0.350641
  O      2.381835    0.928196    0.933163
  O     -0.021362    1.040544   -1.721866
  O     -0.285182    1.342640    1.882117
  O     -2.625169   -0.174646   -1.312266
  H     -3.281404   -0.426085    0.565673
  H     -2.610749   -1.902316   -0.179362
  H      1.776788   -2.058964   -1.303479
  H      1.809842    1.133301    1.691893
  H     -0.711597    1.673994   -1.968497
  H     -1.017191    1.422098    2.509495
  H     -1.884895   -0.448835   -1.875638

 Total Charge           Charge          ....    0
 Multiplicity           Mult            ....    1
 Number of Electrons    NEL             ....   96
 Basis Dimension        Dim             ....  192

ORBITAL ENERGIES
----------------

  NO   OCC          E(Eh)            E(eV)
   0   2.0000     -18.780988      -511.0567
   1   2.0000     -18.768237      -510.7097
   2   2.0000     -18.766977      -510.6754
   3   2.0000     -18.752919      -510.2929
   4   2.0000     -18.750938      -510.2390
   5   2.0000     -18.737547      -509.8746
   6   2.0000      -9.978833      -271.5379
   7   2.0000      -9.954943      -270.8878
   8   2.0000      -9.949819      -270.7483
   9   2.0000      -9.947703      -270.6908
  10   2.0000      -9.939989      -270.4808
  11   2.0000      -9.932669      -270.2817
  12   2.0000      -0.982931       -26.7469
  13   2.0000      -0.956076       -26.0162
  14   2.0000      -0.941562       -25.6212
  15   2.0000      -0.931552       -25.3488
  16   2.0000      -0.916015       -24.9260
  17   2.0000      -0.908434       -24.7197
  18   2.0000      -0.704104       -19.1596
  19   2.0000      -0.685707       -18.6590
  20   2.0000      -0.621419       -16.9097
  21   2.0000      -0.591959       -16.1080
  22   2.0000      -0.568085       -15.4584
  23   2.0000      -0.524406       -14.2698
  24   2.0000      -0.509780       -13.8718
  25   2.0000      -0.496384       -13.5073
  26   2.0000      -0.473643       -12.8885
  27   2.0000      -0.466055       -12.6820
  28   2.0000      -0.459220       -12.4960
  29   2.0000      -0.432904       -11.7799
  30   2.0000      -0.411508       -11.1977
  31   2.0000      -0.392796       -10.6885
  32   2.0000      -0.391393       -10.6503
  33   2.0000      -0.385347       -10.4858
  34   2.0000      -0.361241        -9.8299
  35   2.0000      -0.356901        -9.7118
  36   2.0000      -0.324470        -8.8293
  37   2.0000      -0.321973        -8.7613
  38   2.0000      -0.308402        -8.3920
  39   2.0000      -0.300435        -8.1752
  40   2.0000      -0.289128        -7.8676
  41   2.0000      -0.260525        -7.0892
  42   2.0000      -0.257685        -7.0120
  43   2.0000      -0.254154        -6.9159
  44   2.0000      -0.240010        -6.5310
  45   2.0000      -0.222435        -6.0528
  46   2.0000      -0.216021        -5.8782
  47   2.0000      -0.195179        -5.3111
  48   0.0000      -0.002401        -0.0653
  49   0.0000       0.014814         0.4031
  50   0.0000       0.043611         1.1867
  51   0.0000       0.048677         1.3246
  52   0.0000       0.061568         1.6754

MULLIKEN ATOMIC CHARGES
-----------------------
   0 C :    0.074767
   1 C :    0.030543
   2 H :    0.050845
   3 C :   -0.019763
   4 H :    0.074105
   5 C :    0.041647
   6 H :    0.076594
   7 C :    0.059261
   8 H :    0.063880
   9 C :    0.214901
  10 H :    0.042834
  11 O :   -0.305992
  12 O :   -0.384131
  13 O :   -0.427597
  14 O :   -0.410933
  15 O :   -0.426915
  16 O :   -0.447675
  17 H :    0.080436
  18 H :    0.089873
  19 H :    0.300753
  20 H :    0.303664
  21 H :    0.304158
  22 H :    0.313713
  23 H :    0.301034
Sum of atomic charges:    0.0000000

LOEWDIN ATOMIC CHARGES
----------------------
   0 C :   -0.122602
   1 C :   -0.077896
   2 H :    0.102433
   3 C :   -0.084071
   4 H :    0.106851
   5 C :   -0.075801
   6 H :    0.107391
   7 C :   -0.081241
   8 H :    0.119015
   9 C :    0.001799
  10 H :    0.094419
  11 O :   -0.159072
  12 O :   -0.290023
  13 O :   -0.313546
  14 O :   -0.308979
  15 O :   -0.315031
  16 O :   -0.338240
  17 H :    0.111670
  18 H :    0.106972
  19 H :    0.286352
  20 H :    0.273481
  21 H :    0.285619
  22 H :    0.293848
  23 H :    0.276651

  Mayer bond orders larger than 0.100000
B(  0-C ,  1-C ) :   1.0395 B(  0-C , 16-O ) :   1.0773 B(  0-C , 17-H ) :   0.9217
B(  0-C , 18-H ) :   0.9146 B(  1-C ,  2-H ) :   0.8818 B(  1-C ,  3-C ) :   0.9438
B(  1-C , 11-O ) :   1.0166 B(  3-C ,  4-H ) :   0.8983 B(  3-C ,  5-C ) :   1.0006
B(  3-C , 15-O ) :   1.0294 B(  5-C ,  6-H ) :   0.8971 B(  5-C ,  7-C ) :   0.9780
B(  5-C , 14-O ) :   1.0576 B(  7-C ,  8-H ) :   0.8860 B(  7-C ,  9-C ) :   0.9580
B(  7-C , 13-O ) :   1.0657 B(  9-C , 10-H ) :   0.8759 B(  9-C , 11-O ) :   1.0250
B(  9-C , 12-O ) :   1.1377 B( 12-O , 19-H ) :   0.8441 B( 13-O , 20-H ) :   0.8219
B( 14-O , 21-H ) :   0.8329 B( 15-O , 22-H ) :   0.8412 B( 16-O , 23-H ) :   0.8207

Dispersion correction           -0.025370234
FINAL SINGLE POINT ENERGY      -685.690555882617

DIPOLE MOMENT
-------------

Method             : SCF
Type of density    : Electron Density
Multiplicity       :   1
Irrep              :   0
Energy             :  -685.8220258218424306 Eh
Relativity type    :
Basis              : AO
                                X                 Y                 Z
Electronic contribution:      2.972196261      -0.732837411      -1.057493007
Nuclear contribution   :     -4.258902596       1.327689547       1.383166017
                        -----------------------------------------
Total Dipole Moment    :     -1.286706335       0.594852136       0.325673010
                        -----------------------------------------
Magnitude (a.u.)       :      1.454484502
Magnitude (Debye)      :      3.697005797

Rotational constants in cm-1:             0.041540             0.027484             0.023531
Rotational constants in MHz :          1245.329565           823.936263           705.443272

                             ****ORCA TERMINATED NORMALLY****
TOTAL RUN TIME: 0 days 0 hours 0 minutes 12 seconds 274 msec
