                         Program Version 6.0.0  -   RELEASE  -
|  1> ! r2scan-3c def2/J RI DEFGRID2 scfconv6 printgap
|  2> %output
|  3>     printlevel normal
|  4> end
|  5> * xyz 0 1
|  6> C 3.7241345654 0.1811190103 0.0642125228
|  7> C 2.2502717445 0.3301716534 -0.3034502342
|  8> H 2.1757705283 0.5483323455 -1.3752768205
|  9> C 1.6003252873 1.4752397959 0.470255375
| 10> C 0.1222572477 1.5990103399 0.1162408192
| 11> C -0.6431141875 0.3039083469 0.4076113497
| 12> H -0.5177760201 0.0606755923 1.468699315
| 13> C 0.0041168642 -0.8365075588 -0.3932687995
| 14> H -0.066810991 -0.6027975757 -1.4678954379
| 15> C 1.4854505914 -0.9610355801 -0.0200120832
| 16> O -0.6813157204 -2.0504720171 -0.1344200981
| 17> C -2.1567015183 0.4938645127 0.1602644785
| 18> C -2.5543742502 0.3597476342 -1.3081019094
| 19> C -2.9848068765 -0.4671857743 1.012802107
| 20> H 4.1819261086 -0.6245452399 -0.5046529645
| 21> H 4.2630228005 1.1013790977 -0.147291702
| 22> H 3.8291810284 -0.0427539635 1.1234130017
| 23> H 1.7024625098 1.2880201049 1.5415382882
| 24> H 2.1116693084 2.4127453326 0.2434777664
| 25> H -0.3214354304 2.4132539511 0.6920855816
| 26> H 0.0237073698 1.8472713644 -0.9428336806
| 27> H 1.5583930075 -1.2075433753 1.0420253372
| 28> H 1.9304802011 -1.7828516922 -0.5875640102
| 29> H -0.2006651052 -2.7762719097 -0.5542163312
| 30> H -2.3994609465 1.514789727 0.4809967733
| 31> H -3.5953207125 0.6486500884 -1.4345459211
| 32> H -2.4467080404 -0.6708979307 -1.6353051805
| 33> H -1.9450987986 1.0001512911 -1.9411725339
| 34> H -4.045939188 -0.3146085652 0.8288292966
| 35> H -2.7922019608 -0.3029434139 2.0707152101
| 36> H -2.7302378681 -1.4948039411 0.7712880481
| 37> *
| 38>
| 39>                          ****END OF INPUT****

CARTESIAN COORDINATES (ANGSTROEM)
---------------------------------
  C      3.724135    0.181119    0.064213
  C      2.250272    0.330172   -0.303450
  H      2.175771    0.548332   -1.375277
  C      1.600325    1.475240    0.470255
  C      0.122257    1.599010    0.116241
  C     -0.643114    0.303908    0.407611
  H     -0.517776    0.060676    1.468699
  C      0.004117   -0.836508   -0.393269
  H     -0.066811   -0.602798   -1.467895
  C      1.485451   -0.961036   -0.020012
  O     -0.681316   -2.050472   -0.134420
  C     -2.156702    0.493865    0.160264
  C     -2.554374    0.359748   -1.308102
  C     -2.984807   -0.467186    1.012802
  H      4.181926   -0.624545   -0.504653
  H      4.263023    1.101379   -0.147292
  H      3.829181   -0.042754    1.123413
  H      1.702463    1.288020    1.541538
  H      2.111669    2.412745    0.243478
  H     -0.321435    2.413254    0.692086
  H      0.023707    1.847271   -0.942834
  H      1.558393   -1.207543    1.042025
  H      1.930480   -1.782852   -0.587564
  H     -0.200665   -2.776272   -0.554216
  H     -2.399461    1.514790    0.480997
  H     -3.595321    0.648650   -1.434546
  H     -2.446708   -0.670898   -1.635305
  H     -1.945099    1.000151   -1.941173
  H     -4.045939   -0.314609    0.828829
  H     -2.792202   -0.302943    2.070715
  H     -2.730238   -1.494804    0.771288

 Total Charge           Charge          ....    0
 Multiplicity           Mult            ....    1
 Number of Electrons    NEL             ....   88
 Basis Dimension        Dim             ....  314

ORBITAL ENERGIES
----------------

  NO   OCC          E(Eh)            E(eV)
   0   2.0000     -18.946355      -515.5565
   1   2.0000     -10.076876      -274.2057
   2   2.0000     -10.034613      -273.0557
   3   2.0000     -10.026168      -272.8259
   4   2.0000     -10.024512      -272.7808
   5   2.0000     -10.024260      -272.7740
   6   2.0000     -10.023076      -272.7418
   7   2.0000     -10.022623      -272.7294
   8   2.0000     -10.017485      -272.5896
   9   2.0000     -10.006473      -272.2900
  10   2.0000      -9.997429      -272.0439
  11   2.0000      -0.984834       -26.7987
  12   2.0000      -0.806546       -21.9472
  13   2.0000      -0.764150       -20.7936
  14   2.0000      -0.711691       -19.3661
  15   2.0000      -0.697961       -18.9925
  16   2.0000      -0.641904       -17.4671
  17   2.0000      -0.638037       -17.3619
  18   2.0000      -0.583469       -15.8770
  19   2.0000      -0.561254       -15.2725
  20   2.0000      -0.529512       -14.4088
  21   2.0000      -0.509758       -13.8712
  22   2.0000      -0.474151       -12.9023
  23   2.0000      -0.435712       -11.8563
  24   2.0000      -0.433627       -11.7996
  25   2.0000      -0.421100       -11.4587
  26   2.0000      -0.409471       -11.1423
  27   2.0000      -0.386687       -10.5223
  28   2.0000      -0.376676       -10.2499
  29   2.0000      -0.367259        -9.9936
  30   2.0000      -0.359646        -9.7865
  31   2.0000      -0.351926        -9.5764
  32   2.0000      -0.347789        -9.4638
  33   2.0000      -0.334625        -9.1056
  34   2.0000      -0.327796        -8.9198
  35   2.0000      -0.323524        -8.8035
  36   2.0000      -0.310002        -8.4356
  37   2.0000      -0.302810        -8.2399
  38   2.0000      -0.295226        -8.0335
  39   2.0000      -0.281002        -7.6465
  40   2.0000      -0.279116        -7.5951
  41   2.0000      -0.269653        -7.3376
  42   2.0000      -0.254670        -6.9299
  43   2.0000      -0.231839        -6.3087
  44   0.0000       0.060109         1.6357
  45   0.0000       0.081531         2.2186
  46   0.0000       0.090027         2.4497
  47   0.0000       0.102561         2.7908
  48   0.0000       0.111835         3.0432

MULLIKEN ATOMIC CHARGES
-----------------------
   0 C :   -0.499981
   1 C :   -0.034155
   2 H :    0.160235
   3 C :   -0.335662
   4 C :   -0.353898
   5 C :   -0.146613
   6 H :    0.176564
   7 C :   -0.018481
   8 H :    0.157462
   9 C :   -0.379324
  10 O :   -0.415973
  11 C :    0.088437
  12 C :   -0.581035
  13 C :   -0.556446
  14 H :    0.146208
  15 H :    0.148125
  16 H :    0.151490
  17 H :    0.157959
  18 H :    0.147325
  19 H :    0.147826
  20 H :    0.157873
  21 H :    0.174694
  22 H :    0.130819
  23 H :    0.284062
  24 H :    0.144076
  25 H :    0.148901
  26 H :    0.172289
  27 H :    0.154228
  28 H :    0.138835
  29 H :    0.139508
  30 H :    0.194649
Sum of atomic charges:   -0.0000000

LOEWDIN ATOMIC CHARGES
----------------------
   0 C :   -0.412009
   1 C :   -0.233081
   2 H :    0.158546
   3 C :   -0.293024
   4 C :   -0.286326
   5 C :   -0.185850
   6 H :    0.172661
   7 C :    0.067803
   8 H :    0.168871
   9 C :   -0.270013
  10 O :   -0.620457
  11 C :   -0.228076
  12 C :   -0.414223
  13 C :   -0.414074
  14 H :    0.152803
  15 H :    0.153593
  16 H :    0.154554
  17 H :    0.159111
  18 H :    0.158327
  19 H :    0.159834
  20 H :    0.160065
  21 H :    0.168679
  22 H :    0.157240
  23 H :    0.268035
  24 H :    0.156493
  25 H :    0.153216
  26 H :    0.162176
  27 H :    0.150344
  28 H :    0.148553
  29 H :    0.150441
  30 H :    0.175787

  Mayer bond orders larger than 0.100000
B(  0-C ,  1-C ) :   0.8831 B(  0-C , 14-H ) :   0.9777 B(  0-C , 15-H ) :   0.9762
B(  0-C , 16-H ) :   0.9961 B(  1-C ,  2-H ) :   0.9538 B(  1-C ,  3-C ) :   0.9195
B(  1-C ,  9-C ) :   0.9036 B(  3-C ,  4-C ) :   0.8781 B(  3-C , 17-H ) :   1.0172
B(  3-C , 18-H ) :   0.9470 B(  4-C ,  5-C ) :   0.9162 B(  4-C , 19-H ) :   0.9464
B(  4-C , 20-H ) :   0.9939 B(  5-C ,  6-H ) :   1.0146 B(  5-C ,  7-C ) :   0.9168
B(  5-C , 11-C ) :   0.8544 B(  7-C ,  8-H ) :   0.9841 B(  7-C ,  9-C ) :   0.8620
B(  7-C , 10-O ) :   0.8578 B(  9-C , 21-H ) :   1.0222 B(  9-C , 22-H ) :   0.9423
B( 10-O , 23-H ) :   0.9017 B( 11-C , 12-C ) :   0.8354 B( 11-C , 13-C ) :   0.8928
B( 11-C , 24-H ) :   0.9915 B( 12-C , 25-H ) :   0.9676 B( 12-C , 26-H ) :   0.9732
B( 12-C , 27-H ) :   0.9907 B( 13-C , 28-H ) :   0.9793 B( 13-C , 29-H ) :   0.9805
B( 13-C , 30-H ) :   0.9781

Dispersion correction           -0.010862949
FINAL SINGLE POINT ENERGY      -468.207929929630

DIPOLE MOMENT
-------------

Method             : SCF
Type of density    : Electron Density
Multiplicity       :   1
Irrep              :   0
Energy             :  -468.2123150556476503 Eh
Relativity type    :
Basis              : AO
                                X                 Y                 Z
Electronic contribution:     -0.086098054      -2.747006095       0.027096829
Nuclear contribution   :      0.660639026       2.798377814      -0.309417746
                        -----------------------------------------
Total Dipole Moment    :      0.574540972       0.051371719      -0.282320916
                        -----------------------------------------
Magnitude (a.u.)       :      0.642216071
Magnitude (Debye)      :      1.632383525

Rotational constants in cm-1:             0.065854             0.022728             0.019575
Rotational constants in MHz :          1974.263281           681.364358           586.835247

                             ****ORCA TERMINATED NORMALLY****
TOTAL RUN TIME: 0 days 0 hours 0 minutes 48 seconds 411 msec
