                         Program Version 6.0.0  -   RELEASE  -
|  1> ! r2scan-3c def2/J RI DEFGRID2 scfconv6 printgap
|  2> %output
|  3>     printlevel normal
|  4> end
|  5> %cpcm
|  6>     smd true
|  7>     smdsolvent "water"
|  8> end
|  9> * xyz 0 1
| 10> C 3.7241345654 0.1811190103 0.0642125228
| 11> C 2.2502717445 0.3301716534 -0.3034502342
| 12> H 2.1757705283 0.5483323455 -1.3752768205
| 13> C 1.6003252873 1.4752397959 0.470255375
| 14> C 0.1222572477 1.5990103399 0.1162408192
| 15> C -0.6431141875 0.3039083469 0.4076113497
| 16> H -0.5177760201 0.0606755923 1.468699315
| 17> C 0.0041168642 -0.8365075588 -0.3932687995
| 18> H -0.066810991 -0.6027975757 -1.4678954379
| 19> C 1.4854505914 -0.9610355801 -0.0200120832
| 20> O -0.6813157204 -2.0504720171 -0.1344200981
| 21> C -2.1567015183 0.4938645127 0.1602644785
| 22> C -2.5543742502 0.3597476342 -1.3081019094
| 23> C -2.9848068765 -0.4671857743 1.012802107
| 24> H 4.1819261086 -0.6245452399 -0.5046529645
| 25> H 4.2630228005 1.1013790977 -0.147291702
| 26> H 3.8291810284 -0.0427539635 1.1234130017
| 27> H 1.7024625098 1.2880201049 1.5415382882
| 28> H 2.1116693084 2.4127453326 0.2434777664
| 29> H -0.3214354304 2.4132539511 0.6920855816
| 30> H 0.0237073698 1.8472713644 -0.9428336806
| 31> H 1.5583930075 -1.2075433753 1.0420253372
| 32> H 1.9304802011 -1.7828516922 -0.5875640102
| 33> H -0.2006651052 -2.7762719097 -0.5542163312
| 34> H -2.3994609465 1.514789727 0.4809967733
| 35> H -3.5953207125 0.6486500884 -1.4345459211
| 36> H -2.4467080404 -0.6708979307 -1.6353051805
| 37> H -1.9450987986 1.0001512911 -1.9411725339
| 38> H -4.045939188 -0.3146085652 0.8288292966
| 39> H -2.7922019608 -0.3029434139 2.0707152101
| 40> H -2.7302378681 -1.4948039411 0.7712880481
| 41> *
| 42>
| 43>                          ****END OF INPUT****

CARTESIAN COORDINATES (ANGSTROEM)
---------------------------------
  C      3.724135    0.181119    0.064213
  C      2.250272    0.330172   -0.303450
  H      2.175771    0.548332   -1.375277
  C      1.600325    1.475240    0.470255
  C      0.122257    1.599010    0.116241
  C     -0.643114    0.303908    0.407611
  H     -0.517776    0.060676    1.468699
  C      0.004117   -0.836508   -0.393269
  H     -0.066811   -0.602798   -1.467895
  C      1.485451   -0.961036   -0.020012
  O     -0.681316   -2.050472   -0.134420
  C     -2.156702    0.493865    0.160264
  C     -2.554374    0.359748   -1.308102
  C     -2.984807   -0.467186    1.012802
  H      4.181926   -0.624545   -0.504653
  H      4.263023    1.101379   -0.147292
  H      3.829181   -0.042754    1.123413
  H      1.702463    1.288020    1.541538
  H      2.111669    2.412745    0.243478
  H     -0.321435    2.413254    0.692086
  H      0.023707    1.847271   -0.942834
  H      1.558393   -1.207543    1.042025
  H      1.930480   -1.782852   -0.587564
  H     -0.200665   -2.776272   -0.554216
  H     -2.399461    1.514790    0.480997
  H     -3.595321    0.648650   -1.434546
  H     -2.446708   -0.670898   -1.635305
  H     -1.945099    1.000151   -1.941173
  H     -4.045939   -0.314609    0.828829
  H     -2.792202   -0.302943    2.070715
  H     -2.730238   -1.494804    0.771288

 Total Charge           Charge          ....    0
 Multiplicity           Mult            ....    1
 Number of Electrons    NEL             ....   88
 Basis Dimension        Dim             ....  314

ORBITAL ENERGIES
----------------

  NO   OCC          E(Eh)            E(eV)
   0   2.0000     -18.946282      -515.5545
   1   2.0000     -10.069989      -274.0183
   2   2.0000     -10.023271      -272.7471
   3   2.0000     -10.022523      -272.7267
   4   2.0000     -10.020243      -272.6647
   5   2.0000     -10.013708      -272.4869
   6   2.0000     -10.012774      -272.4614
   7   2.0000     -10.011753      -272.4336
   8   2.0000     -10.006542      -272.2919
   9   2.0000     -10.004519      -272.2368
  10   2.0000     -10.000942      -272.1395
  11   2.0000      -0.983936       -26.7743
  12   2.0000      -0.798065       -21.7165
  13   2.0000      -0.759209       -20.6591
  14   2.0000      -0.705164       -19.1885
  15   2.0000      -0.689367       -18.7586
  16   2.0000      -0.639617       -17.4049
  17   2.0000      -0.633166       -17.2293
  18   2.0000      -0.575674       -15.6649
  19   2.0000      -0.555471       -15.1151
  20   2.0000      -0.519782       -14.1440
  21   2.0000      -0.505752       -13.7622
  22   2.0000      -0.468379       -12.7452
  23   2.0000      -0.429563       -11.6890
  24   2.0000      -0.426534       -11.6066
  25   2.0000      -0.414126       -11.2689
  26   2.0000      -0.403699       -10.9852
  27   2.0000      -0.380887       -10.3645
  28   2.0000      -0.372846       -10.1457
  29   2.0000      -0.361360        -9.8331
  30   2.0000      -0.351078        -9.5533
  31   2.0000      -0.348228        -9.4758
  32   2.0000      -0.343645        -9.3511
  33   2.0000      -0.332163        -9.0386
  34   2.0000      -0.323021        -8.7899
  35   2.0000      -0.317541        -8.6407
  36   2.0000      -0.304815        -8.2944
  37   2.0000      -0.298935        -8.1344
  38   2.0000      -0.284420        -7.7395
  39   2.0000      -0.276695        -7.5292
  40   2.0000      -0.272092        -7.4040
  41   2.0000      -0.265334        -7.2201
  42   2.0000      -0.249725        -6.7954
  43   2.0000      -0.231270        -6.2932
  44   0.0000       0.074757         2.0342
  45   0.0000       0.092662         2.5215
  46   0.0000       0.098895         2.6911
  47   0.0000       0.111817         3.0427
  48   0.0000       0.122148         3.3238

MULLIKEN ATOMIC CHARGES
-----------------------
   0 C :   -0.550085
   1 C :   -0.014698
   2 H :    0.169330
   3 C :   -0.355493
   4 C :   -0.375848
   5 C :   -0.138432
   6 H :    0.183639
   7 C :   -0.013857
   8 H :    0.166571
   9 C :   -0.398873
  10 O :   -0.498052
  11 C :    0.092812
  12 C :   -0.604336
  13 C :   -0.604785
  14 H :    0.158628
  15 H :    0.158591
  16 H :    0.162933
  17 H :    0.165285
  18 H :    0.155368
  19 H :    0.156453
  20 H :    0.170333
  21 H :    0.174486
  22 H :    0.155863
  23 H :    0.337824
  24 H :    0.155874
  25 H :    0.161044
  26 H :    0.165186
  27 H :    0.171171
  28 H :    0.153685
  29 H :    0.157326
  30 H :    0.182058
Sum of atomic charges:   -0.0000000

LOEWDIN ATOMIC CHARGES
----------------------
   0 C :   -0.421015
   1 C :   -0.230251
   2 H :    0.161994
   3 C :   -0.295902
   4 C :   -0.287757
   5 C :   -0.187625
   6 H :    0.173392
   7 C :    0.069256
   8 H :    0.174756
   9 C :   -0.270027
  10 O :   -0.651824
  11 C :   -0.228772
  12 C :   -0.420525
  13 C :   -0.424865
  14 H :    0.155678
  15 H :    0.155603
  16 H :    0.156555
  17 H :    0.160973
  18 H :    0.160125
  19 H :    0.161707
  20 H :    0.163915
  21 H :    0.168300
  22 H :    0.165584
  23 H :    0.285118
  24 H :    0.160454
  25 H :    0.155355
  26 H :    0.158908
  27 H :    0.156536
  28 H :    0.152156
  29 H :    0.154392
  30 H :    0.167804

  Mayer bond orders larger than 0.100000
B(  0-C ,  1-C ) :   0.8681 B(  0-C , 14-H ) :   0.9753 B(  0-C , 15-H ) :   0.9746
B(  0-C , 16-H ) :   0.9950 B(  1-C ,  2-H ) :   0.9518 B(  1-C ,  3-C ) :   0.9132
B(  1-C ,  9-C ) :   0.9035 B(  3-C ,  4-C ) :   0.8815 B(  3-C , 17-H ) :   1.0146
B(  3-C , 18-H ) :   0.9467 B(  4-C ,  5-C ) :   0.9219 B(  4-C , 19-H ) :   0.9468
B(  4-C , 20-H ) :   0.9916 B(  5-C ,  6-H ) :   1.0135 B(  5-C ,  7-C ) :   0.9194
B(  5-C , 11-C ) :   0.8437 B(  7-C ,  8-H ) :   0.9740 B(  7-C ,  9-C ) :   0.8909
B(  7-C , 10-O ) :   0.8417 B(  9-C , 21-H ) :   1.0167 B(  9-C , 22-H ) :   0.9401
B( 10-O , 23-H ) :   0.8776 B( 11-C , 12-C ) :   0.8405 B( 11-C , 13-C ) :   0.8744
B( 11-C , 24-H ) :   0.9877 B( 12-C , 25-H ) :   0.9673 B( 12-C , 26-H ) :   0.9721
B( 12-C , 27-H ) :   0.9841 B( 13-C , 28-H ) :   0.9770 B( 13-C , 29-H ) :   0.9787
B( 13-C , 30-H ) :   0.9846

Dispersion correction           -0.010862949
FINAL SINGLE POINT ENERGY      -468.211643857040

DIPOLE MOMENT
-------------

Method             : SCF
Type of density    : Electron Density
Multiplicity       :   1
Irrep              :   0
Energy             :  -468.2160289830573561 Eh
Relativity type    :
Basis              : AO
                                X                 Y                 Z
Electronic contribution:      0.134010028      -2.638140612      -0.147155891
Nuclear contribution   :      0.660639026       2.798377814      -0.309417746
                        -----------------------------------------
Total Dipole Moment    :      0.794649054       0.160237201      -0.456573637
                        -----------------------------------------
Magnitude (a.u.)       :      0.930377646
Magnitude (Debye)      :      2.364832041

Rotational constants in cm-1:             0.065854             0.022728             0.019575
Rotational constants in MHz :          1974.263281           681.364358           586.835247

                             ****ORCA TERMINATED NORMALLY****
TOTAL RUN TIME: 0 days 0 hours 0 minutes 59 seconds 897 msec
