                         Program Version 6.0.0  -   RELEASE  -
|  1> ! pbe def2-sv(p) def2/J RI DEFGRID1 loosescf d4 GCP(DFT/SV(P)) printgap
|  2> %output
|  3>     printlevel normal
|  4> end
|  5> * xyz 0 1
|  6> C 3.2505132595 -0.5225733889 0.7800082382
|  7> C 1.899149278 -0.3145612923 0.1909330359
|  8> C 1.304042755 0.8889552219 0.1777060612
|  9> C -0.0250371965 1.135060562 -0.3483202548
| 10> O -0.5159493905 2.2621549243 -0.3631566146
| 11> C -0.8015883178 -0.064667332 -0.8519703952
| 12> H -1.4173377211 0.2874177015 -1.6871781012
| 13> C 0.1482332587 -1.137659047 -1.3869735553
| 14> C 1.2331279557 -1.520852315 -0.3875478313
| 15> C -1.7860341084 -0.5653690729 0.2416974297
| 16> C -1.2773518025 -0.3785167933 1.6716273111
| 17> C -3.1210437201 0.1640698206 0.0944186616
| 18> H 3.2312581094 -1.3622471877 1.4720170977
| 19> H 3.5985960796 0.3653409323 1.2992164134
| 20> H 3.9595554514 -0.7680831921 -0.0095491017
| 21> H 1.8043358555 1.757766382 0.5844858611
| 22> H -0.4263417627 -2.0191764174 -1.6754479121
| 23> H 0.6274503184 -0.7430159541 -2.2866980922
| 24> H 0.8037901123 -2.1101564186 0.427029017
| 25> H 1.9796697627 -2.1514135112 -0.8739350127
| 26> H -1.9526928079 -1.6339842068 0.0680683446
| 27> H -1.9950089849 -0.8035791119 2.3700747709
| 28> H -1.1716241356 0.6808397083 1.8998736044
| 29> H -0.3179449789 -0.8581774592 1.8336240528
| 30> H -3.8107433291 -0.1388300672 0.8786732729
| 31> H -3.5785412808 -0.0503503901 -0.8687340975
| 32> H -2.9638678422 1.2390068631 0.1693789414
| 33> *
| 34>
| 35>                          ****END OF INPUT****

CARTESIAN COORDINATES (ANGSTROEM)
---------------------------------
  C      3.250513   -0.522573    0.780008
  C      1.899149   -0.314561    0.190933
  C      1.304043    0.888955    0.177706
  C     -0.025037    1.135061   -0.348320
  O     -0.515949    2.262155   -0.363157
  C     -0.801588   -0.064667   -0.851970
  H     -1.417338    0.287418   -1.687178
  C      0.148233   -1.137659   -1.386974
  C      1.233128   -1.520852   -0.387548
  C     -1.786034   -0.565369    0.241697
  C     -1.277352   -0.378517    1.671627
  C     -3.121044    0.164070    0.094419
  H      3.231258   -1.362247    1.472017
  H      3.598596    0.365341    1.299216
  H      3.959555   -0.768083   -0.009549
  H      1.804336    1.757766    0.584486
  H     -0.426342   -2.019176   -1.675448
  H      0.627450   -0.743016   -2.286698
  H      0.803790   -2.110156    0.427029
  H      1.979670   -2.151414   -0.873935
  H     -1.952693   -1.633984    0.068068
  H     -1.995009   -0.803579    2.370075
  H     -1.171624    0.680840    1.899874
  H     -0.317945   -0.858177    1.833624
  H     -3.810743   -0.138830    0.878673
  H     -3.578541   -0.050350   -0.868734
  H     -2.963868    1.239007    0.169379

 Total Charge           Charge          ....    0
 Multiplicity           Mult            ....    1
 Number of Electrons    NEL             ....   84
 Basis Dimension        Dim             ....  186

ORBITAL ENERGIES
----------------

  NO   OCC          E(Eh)            E(eV)
   0   2.0000     -18.722242      -509.4581
   1   2.0000      -9.960239      -271.0319
   2   2.0000      -9.923349      -270.0281
   3   2.0000      -9.902750      -269.4675
   4   2.0000      -9.901747      -269.4402
   5   2.0000      -9.894932      -269.2548
   6   2.0000      -9.894786      -269.2508
   7   2.0000      -9.892942      -269.2007
   8   2.0000      -9.889133      -269.0970
   9   2.0000      -9.873550      -268.6730
  10   2.0000      -9.867187      -268.4998
  11   2.0000      -0.916692       -24.9445
  12   2.0000      -0.775066       -21.0906
  13   2.0000      -0.731063       -19.8932
  14   2.0000      -0.685599       -18.6561
  15   2.0000      -0.656038       -17.8517
  16   2.0000      -0.626073       -17.0363
  17   2.0000      -0.606862       -16.5136
  18   2.0000      -0.553011       -15.0482
  19   2.0000      -0.524027       -14.2595
  20   2.0000      -0.505126       -13.7452
  21   2.0000      -0.451666       -12.2904
  22   2.0000      -0.436047       -11.8654
  23   2.0000      -0.426632       -11.6092
  24   2.0000      -0.406019       -11.0483
  25   2.0000      -0.395819       -10.7708
  26   2.0000      -0.385452       -10.4887
  27   2.0000      -0.378232       -10.2922
  28   2.0000      -0.369144       -10.0449
  29   2.0000      -0.356821        -9.7096
  30   2.0000      -0.348582        -9.4854
  31   2.0000      -0.344743        -9.3809
  32   2.0000      -0.336575        -9.1587
  33   2.0000      -0.331021        -9.0076
  34   2.0000      -0.325301        -8.8519
  35   2.0000      -0.304540        -8.2870
  36   2.0000      -0.297755        -8.1023
  37   2.0000      -0.290243        -7.8979
  38   2.0000      -0.277018        -7.5381
  39   2.0000      -0.271689        -7.3930
  40   2.0000      -0.232978        -6.3397
  41   2.0000      -0.182260        -4.9595
  42   0.0000      -0.080048        -2.1782
  43   0.0000       0.022389         0.6092
  44   0.0000       0.027821         0.7570
  45   0.0000       0.048777         1.3273
  46   0.0000       0.056909         1.5486

MULLIKEN ATOMIC CHARGES
-----------------------
   0 C :   -0.216851
   1 C :   -0.072387
   2 C :   -0.139608
   3 C :    0.070530
   4 O :   -0.180286
   5 C :   -0.126183
   6 H :    0.075216
   7 C :   -0.109777
   8 C :   -0.112592
   9 C :   -0.159551
  10 C :   -0.257011
  11 C :   -0.244035
  12 H :    0.116109
  13 H :    0.113118
  14 H :    0.123060
  15 H :    0.043459
  16 H :    0.081024
  17 H :    0.092706
  18 H :    0.109592
  19 H :    0.093437
  20 H :    0.067939
  21 H :    0.100578
  22 H :    0.122357
  23 H :    0.102952
  24 H :    0.094094
  25 H :    0.096193
  26 H :    0.115918
Sum of atomic charges:    0.0000000

LOEWDIN ATOMIC CHARGES
----------------------
   0 C :   -0.321509
   1 C :   -0.014912
   2 C :   -0.169642
   3 C :    0.042345
   4 O :   -0.148427
   5 C :   -0.155149
   6 H :    0.131565
   7 C :   -0.207978
   8 C :   -0.217655
   9 C :   -0.135982
  10 C :   -0.335572
  11 C :   -0.330961
  12 H :    0.134731
  13 H :    0.129668
  14 H :    0.138875
  15 H :    0.128274
  16 H :    0.118053
  17 H :    0.122128
  18 H :    0.134916
  19 H :    0.128010
  20 H :    0.111858
  21 H :    0.119808
  22 H :    0.126180
  23 H :    0.113847
  24 H :    0.114992
  25 H :    0.115827
  26 H :    0.126709

  Mayer bond orders larger than 0.100000
B(  0-C ,  1-C ) :   1.1269 B(  0-C , 12-H ) :   0.9288 B(  0-C , 13-H ) :   0.9421
B(  0-C , 14-H ) :   0.9219 B(  1-C ,  2-C ) :   1.7113 B(  1-C ,  8-C ) :   1.0733
B(  2-C ,  3-C ) :   1.0626 B(  2-C , 15-H ) :   0.9352 B(  3-C ,  4-O ) :   2.0744
B(  3-C ,  5-C ) :   0.9713 B(  5-C ,  6-H ) :   0.8704 B(  5-C ,  7-C ) :   1.0671
B(  5-C ,  9-C ) :   0.9906 B(  7-C ,  8-C ) :   1.1250 B(  7-C , 16-H ) :   0.9052
B(  7-C , 17-H ) :   0.9206 B(  8-C , 18-H ) :   0.8701 B(  8-C , 19-H ) :   0.9043
B(  9-C , 10-C ) :   1.1376 B(  9-C , 11-C ) :   1.1155 B(  9-C , 20-H ) :   0.9027
B( 10-C , 21-H ) :   0.9443 B( 10-C , 22-H ) :   0.9272 B( 10-C , 23-H ) :   0.9379
B( 11-C , 24-H ) :   0.9473 B( 11-C , 25-H ) :   0.9469 B( 11-C , 26-H ) :   0.9395

Dispersion correction           -0.029523382
FINAL SINGLE POINT ENERGY      -464.841362229710

DIPOLE MOMENT
-------------

Method             : SCF
Type of density    : Electron Density
Multiplicity       :   1
Irrep              :   0
Energy             :  -464.9259048867224919 Eh
Relativity type    :
Basis              : AO
                                X                 Y                 Z
Electronic contribution:      2.266992135       6.418041190      -3.241122591
Nuclear contribution   :     -1.536343708      -7.761345288       3.372857865
                        -----------------------------------------
Total Dipole Moment    :      0.730648427      -1.343304098       0.131735274
                        -----------------------------------------
Magnitude (a.u.)       :      1.534818297
Magnitude (Debye)      :      3.901198079

Rotational constants in cm-1:             0.058646             0.027610             0.024857
Rotational constants in MHz :          1758.157746           827.729177           745.189917

                             ****ORCA TERMINATED NORMALLY****
TOTAL RUN TIME: 0 days 0 hours 0 minutes 10 seconds 948 msec
