                         Program Version 6.0.0  -   RELEASE  -
|  1> ! pbe def2-sv(p) def2/J RI DEFGRID1 loosescf d4 GCP(DFT/SV(P)) printgap
|  2> %output
|  3>     printlevel normal
|  4> end
|  5> * xyz 0 1
|  6> C -5.0637176541 -0.6837068535 0.0349551065
|  7> C -4.3080163872 -1.3777060028 -0.895827439
|  8> C -2.9296813722 -1.2639340855 -0.8951215494
|  9> C -2.2938196202 -0.4405655642 0.030434055
| 10> C -3.0579639864 0.2498210454 0.9666496951
| 11> C -4.4354674613 0.1243082166 0.9683182704
| 12> C -0.8234966042 -0.3347369377 0.0233479341
| 13> C -0.0548864422 -1.4942642967 0.0653590816
| 14> C 1.3270651488 -1.4345424391 0.0682104373
| 15> C 1.9789383211 -0.2047980153 0.0234337243
| 16> C 1.2222708104 0.9626661754 -0.0349459262
| 17> C -0.1686510215 0.8975209168 -0.035437136
| 18> Cl -1.0607629114 2.3670543411 -0.1670059625
| 19> Cl 2.0199350761 2.4877729661 -0.1135307252
| 20> Cl 3.6994264234 -0.1195608853 0.0326230674
| 21> Cl 2.2539026707 -2.8848178734 0.1310807858
| 22> H -6.1390315445 -0.7742515662 0.0351612784
| 23> H -4.7933585399 -2.0099826845 -1.6232235492
| 24> H -2.3390281696 -1.7952283866 -1.6251676029
| 25> H -2.5701723451 0.8672525902 1.7046670124
| 26> H -5.0196352073 0.6592526653 1.7013156785
| 27> H -0.5447769832 -2.4532426222 0.1108946665
| 28> *
| 29>
| 30>                          ****END OF INPUT****

CARTESIAN COORDINATES (ANGSTROEM)
---------------------------------
  C     -5.063718   -0.683707    0.034955
  C     -4.308016   -1.377706   -0.895827
  C     -2.929681   -1.263934   -0.895122
  C     -2.293820   -0.440566    0.030434
  C     -3.057964    0.249821    0.966650
  C     -4.435467    0.124308    0.968318
  C     -0.823497   -0.334737    0.023348
  C     -0.054886   -1.494264    0.065359
  C      1.327065   -1.434542    0.068210
  C      1.978938   -0.204798    0.023434
  C      1.222271    0.962666   -0.034946
  C     -0.168651    0.897521   -0.035437
  Cl    -1.060763    2.367054   -0.167006
  Cl     2.019935    2.487773   -0.113531
  Cl     3.699426   -0.119561    0.032623
  Cl     2.253903   -2.884818    0.131081
  H     -6.139032   -0.774252    0.035161
  H     -4.793359   -2.009983   -1.623224
  H     -2.339028   -1.795228   -1.625168
  H     -2.570172    0.867253    1.704667
  H     -5.019635    0.659253    1.701316
  H     -0.544777   -2.453243    0.110895

 Total Charge           Charge          ....    0
 Multiplicity           Mult            ....    1
 Number of Electrons    NEL             ....  146
 Basis Dimension        Dim             ....  252

ORBITAL ENERGIES
----------------

  NO   OCC          E(Eh)            E(eV)
   0   2.0000    -100.656500     -2739.0026
   1   2.0000    -100.656398     -2738.9998
   2   2.0000    -100.655496     -2738.9753
   3   2.0000    -100.654913     -2738.9594
   4   2.0000      -9.978807      -271.5371
   5   2.0000      -9.977456      -271.5004
   6   2.0000      -9.974256      -271.4133
   7   2.0000      -9.973588      -271.3951
   8   2.0000      -9.936724      -270.3920
   9   2.0000      -9.923484      -270.0317
  10   2.0000      -9.919690      -269.9285
  11   2.0000      -9.905806      -269.5507
  12   2.0000      -9.904710      -269.5209
  13   2.0000      -9.903155      -269.4785
  14   2.0000      -9.902605      -269.4636
  15   2.0000      -9.902360      -269.4569
  16   2.0000      -9.192248      -250.1338
  17   2.0000      -9.192156      -250.1313
  18   2.0000      -9.191105      -250.1027
  19   2.0000      -9.190782      -250.0939
  20   2.0000      -7.024012      -191.1331
  21   2.0000      -7.023924      -191.1307
  22   2.0000      -7.022701      -191.0974
  23   2.0000      -7.022357      -191.0881
  24   2.0000      -7.012270      -190.8136
  25   2.0000      -7.012229      -190.8125
  26   2.0000      -7.011200      -190.7845
  27   2.0000      -7.011132      -190.7826
  28   2.0000      -7.011067      -190.7808
  29   2.0000      -7.010788      -190.7732
  30   2.0000      -7.010109      -190.7548
  31   2.0000      -7.009906      -190.7492
  32   2.0000      -0.868010       -23.6197
  33   2.0000      -0.828537       -22.5456
  34   2.0000      -0.810255       -22.0481
  35   2.0000      -0.789664       -21.4878
  36   2.0000      -0.778605       -21.1869
  37   2.0000      -0.760683       -20.6992
  38   2.0000      -0.707329       -19.2474
  39   2.0000      -0.682497       -18.5717
  40   2.0000      -0.665925       -18.1207
  41   2.0000      -0.652753       -17.7623
  42   2.0000      -0.580621       -15.7995
  43   2.0000      -0.565705       -15.3936
  44   2.0000      -0.550260       -14.9733
  45   2.0000      -0.533121       -14.5070
  46   2.0000      -0.490742       -13.3538
  47   2.0000      -0.480508       -13.0753
  48   2.0000      -0.464566       -12.6415
  49   2.0000      -0.433090       -11.7850
  50   2.0000      -0.421509       -11.4699
  51   2.0000      -0.417838       -11.3699
  52   2.0000      -0.414498       -11.2791
  53   2.0000      -0.403515       -10.9802
  54   2.0000      -0.399717       -10.8768
  55   2.0000      -0.386362       -10.5134
  56   2.0000      -0.372074       -10.1246
  57   2.0000      -0.368532       -10.0283
  58   2.0000      -0.350471        -9.5368
  59   2.0000      -0.344000        -9.3607
  60   2.0000      -0.326521        -8.8851
  61   2.0000      -0.320120        -8.7109
  62   2.0000      -0.314080        -8.5466
  63   2.0000      -0.299677        -8.1546
  64   2.0000      -0.298580        -8.1248
  65   2.0000      -0.291881        -7.9425
  66   2.0000      -0.283932        -7.7262
  67   2.0000      -0.277502        -7.5512
  68   2.0000      -0.259424        -7.0593
  69   2.0000      -0.245943        -6.6924
  70   2.0000      -0.239199        -6.5089
  71   2.0000      -0.227234        -6.1833
  72   2.0000      -0.217088        -5.9073
  73   0.0000      -0.076689        -2.0868
  74   0.0000      -0.066247        -1.8027
  75   0.0000      -0.049256        -1.3403
  76   0.0000      -0.043237        -1.1766
  77   0.0000      -0.034425        -0.9367

MULLIKEN ATOMIC CHARGES
-----------------------
   0 C :   -0.040420
   1 C :   -0.050368
   2 C :   -0.095462
   3 C :    0.063770
   4 C :   -0.077139
   5 C :   -0.056201
   6 C :    0.081756
   7 C :   -0.192139
   8 C :    0.090975
   9 C :    0.026934
  10 C :    0.009950
  11 C :    0.016761
  12 Cl:   -0.026479
  13 Cl:   -0.018500
  14 Cl:   -0.017999
  15 Cl:   -0.044359
  16 H :    0.058951
  17 H :    0.057630
  18 H :    0.051634
  19 H :    0.051545
  20 H :    0.058132
  21 H :    0.051029
Sum of atomic charges:   -0.0000000

LOEWDIN ATOMIC CHARGES
----------------------
   0 C :   -0.117391
   1 C :   -0.118615
   2 C :   -0.111743
   3 C :   -0.037827
   4 C :   -0.111209
   5 C :   -0.118082
   6 C :   -0.037687
   7 C :   -0.126600
   8 C :   -0.157196
   9 C :   -0.178981
  10 C :   -0.173370
  11 C :   -0.151989
  12 Cl:    0.175854
  13 Cl:    0.168125
  14 Cl:    0.167994
  15 Cl:    0.156907
  16 H :    0.126251
  17 H :    0.126714
  18 H :    0.127286
  19 H :    0.123917
  20 H :    0.126926
  21 H :    0.140715

  Mayer bond orders larger than 0.100000
B(  0-C ,  1-C ) :   1.3792 B(  0-C ,  5-C ) :   1.3740 B(  0-C , 16-H ) :   0.9655
B(  1-C ,  2-C ) :   1.3647 B(  1-C , 17-H ) :   0.9637 B(  2-C ,  3-C ) :   1.3842
B(  2-C , 18-H ) :   0.9613 B(  3-C ,  4-C ) :   1.3727 B(  3-C ,  6-C ) :   0.9601
B(  4-C ,  5-C ) :   1.3779 B(  4-C , 19-H ) :   0.9601 B(  5-C , 20-H ) :   0.9630
B(  6-C ,  7-C ) :   1.3153 B(  6-C , 11-C ) :   1.3989 B(  7-C ,  8-C ) :   1.3190
B(  7-C , 21-H ) :   0.9760 B(  8-C ,  9-C ) :   1.3985 B(  8-C , 15-Cl) :   1.0330
B(  9-C , 10-C ) :   1.4174 B(  9-C , 14-Cl) :   1.1158 B( 10-C , 11-C ) :   1.3878
B( 10-C , 13-Cl) :   1.1160 B( 11-C , 12-Cl) :   1.0970

Dispersion correction           -0.039636231
FINAL SINGLE POINT ENERGY     -2299.401111146570

DIPOLE MOMENT
-------------

Method             : SCF
Type of density    : Electron Density
Multiplicity       :   1
Irrep              :   0
Energy             : -2299.4342669119732818 Eh
Relativity type    :
Basis              : AO
                                X                 Y                 Z
Electronic contribution:     28.575437626       7.365417041      -0.416405144
Nuclear contribution   :    -29.360615746      -7.649472319       0.441688782
                        -----------------------------------------
Total Dipole Moment    :     -0.785178120      -0.284055279       0.025283638
                        -----------------------------------------
Magnitude (a.u.)       :      0.835363001
Magnitude (Debye)      :      2.123324006

Rotational constants in cm-1:             0.018544             0.007861             0.005728
Rotational constants in MHz :           555.939366           235.661628           171.712160

                             ****ORCA TERMINATED NORMALLY****
TOTAL RUN TIME: 0 days 0 hours 0 minutes 17 seconds 862 msec
