                         Program Version 6.0.0  -   RELEASE  -
|  1> ! r2scan-3c def2/J RI DEFGRID2 scfconv6 printgap
|  2> %output
|  3>     printlevel normal
|  4> end
|  5> * xyz 0 1
|  6> N 0.7189574388 -0.0002564599 -0.0410939441
|  7> N -0.7076905085 -0.0002393547 0.1332398253
|  8> H 0.9897126631 -0.3012191528 -0.9776346995
|  9> H 1.0346036025 0.9568087295 0.0837523219
| 10> H -0.9853335695 -0.9587801201 0.3207899181
| 11> H -1.1955519679 0.3100805598 -0.7073994852
| 12> *
| 13>
| 14>                          ****END OF INPUT****

CARTESIAN COORDINATES (ANGSTROEM)
---------------------------------
  N      0.718957   -0.000256   -0.041094
  N     -0.707691   -0.000239    0.133240
  H      0.989713   -0.301219   -0.977635
  H      1.034604    0.956809    0.083752
  H     -0.985334   -0.958780    0.320790
  H     -1.195552    0.310081   -0.707399

 Total Charge           Charge          ....    0
 Multiplicity           Mult            ....    1
 Number of Electrons    NEL             ....   18
 Basis Dimension        Dim             ....   68

ORBITAL ENERGIES
----------------

  NO   OCC          E(Eh)            E(eV)
   0   2.0000     -14.164460      -385.4346
   1   2.0000     -14.164424      -385.4336
   2   2.0000      -0.909681       -24.7537
   3   2.0000      -0.712730       -19.3944
   4   2.0000      -0.462831       -12.5943
   5   2.0000      -0.460477       -12.5302
   6   2.0000      -0.414459       -11.2780
   7   2.0000      -0.228841        -6.2271
   8   2.0000      -0.211093        -5.7441
   9   0.0000       0.096519         2.6264
  10   0.0000       0.098868         2.6903
  11   0.0000       0.162554         4.4233
  12   0.0000       0.180045         4.8993
  13   0.0000       0.197606         5.3771

MULLIKEN ATOMIC CHARGES
-----------------------
   0 N :   -0.468047
   1 N :   -0.468048
   2 H :    0.227370
   3 H :    0.240680
   4 H :    0.240665
   5 H :    0.227380
Sum of atomic charges:    0.0000000

LOEWDIN ATOMIC CHARGES
----------------------
   0 N :   -0.507421
   1 N :   -0.507415
   2 H :    0.248413
   3 H :    0.259018
   4 H :    0.258989
   5 H :    0.248417

  Mayer bond orders larger than 0.100000
B(  0-N ,  1-N ) :   0.8982 B(  0-N ,  2-H ) :   0.9230 B(  0-N ,  3-H ) :   0.9242
B(  1-N ,  4-H ) :   0.9243 B(  1-N ,  5-H ) :   0.9230

Dispersion correction           -0.000542895
FINAL SINGLE POINT ENERGY      -111.833644346902

DIPOLE MOMENT
-------------

Method             : SCF
Type of density    : Electron Density
Multiplicity       :   1
Irrep              :   0
Energy             :  -111.8440164948817994 Eh
Relativity type    :
Basis              : AO
                                X                 Y                 Z
Electronic contribution:      0.048171730      -0.002209713       0.394245328
Nuclear contribution   :     -0.146826858       0.006461290      -1.200814230
                        -----------------------------------------
Total Dipole Moment    :     -0.098655129       0.004251576      -0.806568902
                        -----------------------------------------
Magnitude (a.u.)       :      0.812591105
Magnitude (Debye)      :      2.065442445

Rotational constants in cm-1:             4.765440             0.814820             0.801474
Rotational constants in MHz :        142864.307644         24427.679563         24027.573805

                             ****ORCA TERMINATED NORMALLY****
TOTAL RUN TIME: 0 days 0 hours 0 minutes 5 seconds 656 msec
