                         Program Version 6.0.0  -   RELEASE  -
|  1> ! r2scan-3c def2/J RI DEFGRID2 scfconv6 printgap
|  2> %output
|  3>     printlevel normal
|  4> end
|  5> %cpcm
|  6>     smd true
|  7>     smdsolvent "water"
|  8> end
|  9> * xyz 0 1
| 10> N 0.7189574388 -0.0002564599 -0.0410939441
| 11> N -0.7076905085 -0.0002393547 0.1332398253
| 12> H 0.9897126631 -0.3012191528 -0.9776346995
| 13> H 1.0346036025 0.9568087295 0.0837523219
| 14> H -0.9853335695 -0.9587801201 0.3207899181
| 15> H -1.1955519679 0.3100805598 -0.7073994852
| 16> *
| 17>
| 18>                          ****END OF INPUT****

CARTESIAN COORDINATES (ANGSTROEM)
---------------------------------
  N      0.718957   -0.000256   -0.041094
  N     -0.707691   -0.000239    0.133240
  H      0.989713   -0.301219   -0.977635
  H      1.034604    0.956809    0.083752
  H     -0.985334   -0.958780    0.320790
  H     -1.195552    0.310081   -0.707399

 Total Charge           Charge          ....    0
 Multiplicity           Mult            ....    1
 Number of Electrons    NEL             ....   18
 Basis Dimension        Dim             ....   68

ORBITAL ENERGIES
----------------

  NO   OCC          E(Eh)            E(eV)
   0   2.0000     -14.157289      -385.2394
   1   2.0000     -14.157246      -385.2383
   2   2.0000      -0.903135       -24.5755
   3   2.0000      -0.704888       -19.1810
   4   2.0000      -0.455237       -12.3876
   5   2.0000      -0.452789       -12.3210
   6   2.0000      -0.407161       -11.0794
   7   2.0000      -0.228466        -6.2169
   8   2.0000      -0.210332        -5.7234
   9   0.0000       0.106840         2.9073
  10   0.0000       0.116212         3.1623
  11   0.0000       0.178538         4.8583
  12   0.0000       0.194458         5.2915
  13   0.0000       0.216722         5.8973

MULLIKEN ATOMIC CHARGES
-----------------------
   0 N :   -0.551790
   1 N :   -0.551787
   2 H :    0.273898
   3 H :    0.277851
   4 H :    0.277756
   5 H :    0.274072
Sum of atomic charges:   -0.0000000

LOEWDIN ATOMIC CHARGES
----------------------
   0 N :   -0.527886
   1 N :   -0.527829
   2 H :    0.261259
   3 H :    0.266596
   4 H :    0.266531
   5 H :    0.261328

  Mayer bond orders larger than 0.100000
B(  0-N ,  1-N ) :   0.8972 B(  0-N ,  2-H ) :   0.9096 B(  0-N ,  3-H ) :   0.9086
B(  1-N ,  4-H ) :   0.9086 B(  1-N ,  5-H ) :   0.9096

Dispersion correction           -0.000542895
FINAL SINGLE POINT ENERGY      -111.841950111004

DIPOLE MOMENT
-------------

Method             : SCF
Type of density    : Electron Density
Multiplicity       :   1
Irrep              :   0
Energy             :  -111.8523222589840600 Eh
Relativity type    :
Basis              : AO
                                X                 Y                 Z
Electronic contribution:      0.016333510      -0.000616968       0.135859026
Nuclear contribution   :     -0.146826858       0.006461290      -1.200814230
                        -----------------------------------------
Total Dipole Moment    :     -0.130493348       0.005844322      -1.064955204
                        -----------------------------------------
Magnitude (a.u.)       :      1.072936278
Magnitude (Debye)      :      2.727187285

Rotational constants in cm-1:             4.765440             0.814820             0.801474
Rotational constants in MHz :        142864.307644         24427.679563         24027.573805

                             ****ORCA TERMINATED NORMALLY****
TOTAL RUN TIME: 0 days 0 hours 0 minutes 6 seconds 356 msec
