                         Program Version 6.0.0  -   RELEASE  -
|  1> ! r2scan-3c def2/J RI DEFGRID2 scfconv6 printgap
|  2> %output
|  3>     printlevel normal
|  4> end
|  5> * xyz 0 1
|  6> C -2.3872412292 -1.1596398569 -0.3252919926
|  7> C -1.0667533935 -0.6268311911 0.24079619
|  8> H -1.1089083463 -0.6332362637 1.3414351391
|  9> C -0.7814796777 0.8106417031 -0.2222200622
| 10> H -0.848395492 0.8476428404 -1.3227956397
| 11> C 0.63844492 1.2501663488 0.1786802466
| 12> H 0.6697912782 1.3824104144 1.2711047408
| 13> C 1.6784314407 0.1959419943 -0.2036616196
| 14> H 1.7805168183 0.1962910734 -1.2996614368
| 15> C 1.2200223855 -1.2000459943 0.2719463473
| 16> H 1.2295001861 -1.2080633572 1.3755341072
| 17> O -0.0620181689 -1.5101575909 -0.2148405201
| 18> O 2.0922679118 -2.1898893081 -0.140262414
| 19> O 2.8982625689 0.5288923443 0.4064417965
| 20> O 0.9749079916 2.4530011273 -0.4649925894
| 21> O -1.6652532602 1.7403311209 0.3530638435
| 22> O -3.4483159425 -0.373360889 0.1637094054
| 23> H -2.4858517126 -2.2055503652 -0.0150499864
| 24> H -2.3352090121 -1.1186749277 -1.4203039717
| 25> H 1.8898772956 -2.4311944582 -1.0584713174
| 26> H 3.5354867235 -0.1838106351 0.2406150258
| 27> H 0.3153356123 3.1200189753 -0.2209025694
| 28> H -2.5653919717 1.3701785077 0.3280128362
| 29> H -4.2900192813 -0.7387979835 -0.1443929403
| 30> *
| 31>
| 32>                          ****END OF INPUT****

CARTESIAN COORDINATES (ANGSTROEM)
---------------------------------
  C     -2.387241   -1.159640   -0.325292
  C     -1.066753   -0.626831    0.240796
  H     -1.108908   -0.633236    1.341435
  C     -0.781480    0.810642   -0.222220
  H     -0.848395    0.847643   -1.322796
  C      0.638445    1.250166    0.178680
  H      0.669791    1.382410    1.271105
  C      1.678431    0.195942   -0.203662
  H      1.780517    0.196291   -1.299661
  C      1.220022   -1.200046    0.271946
  H      1.229500   -1.208063    1.375534
  O     -0.062018   -1.510158   -0.214841
  O      2.092268   -2.189889   -0.140262
  O      2.898263    0.528892    0.406442
  O      0.974908    2.453001   -0.464993
  O     -1.665253    1.740331    0.353064
  O     -3.448316   -0.373361    0.163709
  H     -2.485852   -2.205550   -0.015050
  H     -2.335209   -1.118675   -1.420304
  H      1.889877   -2.431194   -1.058471
  H      3.535487   -0.183811    0.240615
  H      0.315336    3.120019   -0.220903
  H     -2.565392    1.370179    0.328013
  H     -4.290019   -0.738798   -0.144393

 Total Charge           Charge          ....    0
 Multiplicity           Mult            ....    1
 Number of Electrons    NEL             ....   96
 Basis Dimension        Dim             ....  318

ORBITAL ENERGIES
----------------

  NO   OCC          E(Eh)            E(eV)
   0   2.0000     -18.987767      -516.6834
   1   2.0000     -18.979666      -516.4630
   2   2.0000     -18.974382      -516.3192
   3   2.0000     -18.950669      -515.6739
   4   2.0000     -18.950496      -515.6692
   5   2.0000     -18.944913      -515.5173
   6   2.0000     -10.141519      -275.9648
   7   2.0000     -10.102145      -274.8933
   8   2.0000     -10.101320      -274.8709
   9   2.0000     -10.087171      -274.4859
  10   2.0000     -10.084807      -274.4216
  11   2.0000     -10.083891      -274.3966
  12   2.0000      -1.059474       -28.8297
  13   2.0000      -1.025629       -27.9088
  14   2.0000      -1.002121       -27.2691
  15   2.0000      -0.997272       -27.1372
  16   2.0000      -0.985126       -26.8067
  17   2.0000      -0.974175       -26.5086
  18   2.0000      -0.752320       -20.4717
  19   2.0000      -0.739764       -20.1300
  20   2.0000      -0.662223       -18.0200
  21   2.0000      -0.621262       -16.9054
  22   2.0000      -0.591998       -16.1091
  23   2.0000      -0.558300       -15.1921
  24   2.0000      -0.536502       -14.5990
  25   2.0000      -0.512380       -13.9426
  26   2.0000      -0.498774       -13.5723
  27   2.0000      -0.486567       -13.2401
  28   2.0000      -0.481528       -13.1031
  29   2.0000      -0.460498       -12.5308
  30   2.0000      -0.437905       -11.9160
  31   2.0000      -0.427692       -11.6381
  32   2.0000      -0.410086       -11.1590
  33   2.0000      -0.393140       -10.6979
  34   2.0000      -0.378833       -10.3086
  35   2.0000      -0.368367       -10.0238
  36   2.0000      -0.358660        -9.7596
  37   2.0000      -0.351678        -9.5697
  38   2.0000      -0.344530        -9.3752
  39   2.0000      -0.323625        -8.8063
  40   2.0000      -0.304920        -8.2973
  41   2.0000      -0.292554        -7.9608
  42   2.0000      -0.276086        -7.5127
  43   2.0000      -0.268316        -7.3013
  44   2.0000      -0.263235        -7.1630
  45   2.0000      -0.241669        -6.5762
  46   2.0000      -0.235974        -6.4212
  47   2.0000      -0.221057        -6.0153
  48   0.0000       0.016518         0.4495
  49   0.0000       0.051121         1.3911
  50   0.0000       0.063107         1.7172
  51   0.0000       0.084852         2.3089
  52   0.0000       0.088986         2.4214

MULLIKEN ATOMIC CHARGES
-----------------------
   0 C :   -0.200654
   1 C :   -0.106153
   2 H :    0.179386
   3 C :    0.057563
   4 H :    0.168003
   5 C :   -0.065776
   6 H :    0.171736
   7 C :    0.052011
   8 H :    0.164504
   9 C :   -0.124831
  10 H :    0.155698
  11 O :   -0.194315
  12 O :   -0.382968
  13 O :   -0.416671
  14 O :   -0.422345
  15 O :   -0.445715
  16 O :   -0.428669
  17 H :    0.141063
  18 H :    0.135981
  19 H :    0.321506
  20 H :    0.306873
  21 H :    0.312039
  22 H :    0.313309
  23 H :    0.308427
Sum of atomic charges:   -0.0000000

LOEWDIN ATOMIC CHARGES
----------------------
   0 C :    0.056084
   1 C :    0.125199
   2 H :    0.187792
   3 C :    0.106294
   4 H :    0.181622
   5 C :    0.119648
   6 H :    0.189838
   7 C :    0.117843
   8 H :    0.183885
   9 C :    0.294478
  10 H :    0.197041
  11 O :   -0.686433
  12 O :   -0.494010
  13 O :   -0.559995
  14 O :   -0.557859
  15 O :   -0.589969
  16 O :   -0.624900
  17 H :    0.172902
  18 H :    0.169373
  19 H :    0.283767
  20 H :    0.280510
  21 H :    0.281451
  22 H :    0.287940
  23 H :    0.277500

  Mayer bond orders larger than 0.100000
B(  0-C ,  1-C ) :   0.9797 B(  0-C , 16-O ) :   0.9736 B(  0-C , 17-H ) :   0.9563
B(  0-C , 18-H ) :   0.9723 B(  1-C ,  2-H ) :   0.9505 B(  1-C ,  3-C ) :   0.7984
B(  1-C , 11-O ) :   0.8051 B(  3-C ,  4-H ) :   0.9622 B(  3-C ,  5-C ) :   0.8380
B(  3-C , 15-O ) :   0.8647 B(  5-C ,  6-H ) :   1.0055 B(  5-C ,  7-C ) :   0.9306
B(  5-C , 14-O ) :   0.9323 B(  7-C ,  8-H ) :   0.9675 B(  7-C ,  9-C ) :   0.7705
B(  7-C , 13-O ) :   0.9160 B(  9-C , 10-H ) :   1.0057 B(  9-C , 11-O ) :   0.9380
B(  9-C , 12-O ) :   1.1083 B( 12-O , 19-H ) :   0.8714 B( 13-O , 20-H ) :   0.8788
B( 14-O , 21-H ) :   0.8783 B( 15-O , 22-H ) :   0.8470 B( 16-O , 23-H ) :   0.8908

Dispersion correction           -0.007964824
FINAL SINGLE POINT ENERGY      -687.073663862157

DIPOLE MOMENT
-------------

Method             : SCF
Type of density    : Electron Density
Multiplicity       :   1
Irrep              :   0
Energy             :  -687.0856627962332368 Eh
Relativity type    :
Basis              : AO
                                X                 Y                 Z
Electronic contribution:      2.547084304       0.418718626       0.298619374
Nuclear contribution   :     -3.941060803      -1.494074208      -0.866163375
                        -----------------------------------------
Total Dipole Moment    :     -1.393976498      -1.075355582      -0.567544001
                        -----------------------------------------
Magnitude (a.u.)       :      1.849774662
Magnitude (Debye)      :      4.701753535

Rotational constants in cm-1:             0.043783             0.024546             0.016532
Rotational constants in MHz :          1312.576151           735.868359           495.614942

                             ****ORCA TERMINATED NORMALLY****
TOTAL RUN TIME: 0 days 0 hours 0 minutes 48 seconds 196 msec
