                         Program Version 6.0.0  -   RELEASE  -
|  1> ! r2scan-3c def2/J RI DEFGRID2 scfconv6 printgap
|  2> %output
|  3>     printlevel normal
|  4> end
|  5> %cpcm
|  6>     smd true
|  7>     smdsolvent "water"
|  8> end
|  9> * xyz 0 1
| 10> C -2.3872412292 -1.1596398569 -0.3252919926
| 11> C -1.0667533935 -0.6268311911 0.24079619
| 12> H -1.1089083463 -0.6332362637 1.3414351391
| 13> C -0.7814796777 0.8106417031 -0.2222200622
| 14> H -0.848395492 0.8476428404 -1.3227956397
| 15> C 0.63844492 1.2501663488 0.1786802466
| 16> H 0.6697912782 1.3824104144 1.2711047408
| 17> C 1.6784314407 0.1959419943 -0.2036616196
| 18> H 1.7805168183 0.1962910734 -1.2996614368
| 19> C 1.2200223855 -1.2000459943 0.2719463473
| 20> H 1.2295001861 -1.2080633572 1.3755341072
| 21> O -0.0620181689 -1.5101575909 -0.2148405201
| 22> O 2.0922679118 -2.1898893081 -0.140262414
| 23> O 2.8982625689 0.5288923443 0.4064417965
| 24> O 0.9749079916 2.4530011273 -0.4649925894
| 25> O -1.6652532602 1.7403311209 0.3530638435
| 26> O -3.4483159425 -0.373360889 0.1637094054
| 27> H -2.4858517126 -2.2055503652 -0.0150499864
| 28> H -2.3352090121 -1.1186749277 -1.4203039717
| 29> H 1.8898772956 -2.4311944582 -1.0584713174
| 30> H 3.5354867235 -0.1838106351 0.2406150258
| 31> H 0.3153356123 3.1200189753 -0.2209025694
| 32> H -2.5653919717 1.3701785077 0.3280128362
| 33> H -4.2900192813 -0.7387979835 -0.1443929403
| 34> *
| 35>
| 36>                          ****END OF INPUT****

CARTESIAN COORDINATES (ANGSTROEM)
---------------------------------
  C     -2.387241   -1.159640   -0.325292
  C     -1.066753   -0.626831    0.240796
  H     -1.108908   -0.633236    1.341435
  C     -0.781480    0.810642   -0.222220
  H     -0.848395    0.847643   -1.322796
  C      0.638445    1.250166    0.178680
  H      0.669791    1.382410    1.271105
  C      1.678431    0.195942   -0.203662
  H      1.780517    0.196291   -1.299661
  C      1.220022   -1.200046    0.271946
  H      1.229500   -1.208063    1.375534
  O     -0.062018   -1.510158   -0.214841
  O      2.092268   -2.189889   -0.140262
  O      2.898263    0.528892    0.406442
  O      0.974908    2.453001   -0.464993
  O     -1.665253    1.740331    0.353064
  O     -3.448316   -0.373361    0.163709
  H     -2.485852   -2.205550   -0.015050
  H     -2.335209   -1.118675   -1.420304
  H      1.889877   -2.431194   -1.058471
  H      3.535487   -0.183811    0.240615
  H      0.315336    3.120019   -0.220903
  H     -2.565392    1.370179    0.328013
  H     -4.290019   -0.738798   -0.144393

 Total Charge           Charge          ....    0
 Multiplicity           Mult            ....    1
 Number of Electrons    NEL             ....   96
 Basis Dimension        Dim             ....  318

ORBITAL ENERGIES
----------------

  NO   OCC          E(Eh)            E(eV)
   0   2.0000     -18.977890      -516.4146
   1   2.0000     -18.970379      -516.2103
   2   2.0000     -18.966111      -516.0941
   3   2.0000     -18.961204      -515.9606
   4   2.0000     -18.958946      -515.8991
   5   2.0000     -18.955665      -515.8099
   6   2.0000     -10.137782      -275.8631
   7   2.0000     -10.092011      -274.6176
   8   2.0000     -10.087135      -274.4849
   9   2.0000     -10.086006      -274.4542
  10   2.0000     -10.085101      -274.4296
  11   2.0000     -10.081044      -274.3192
  12   2.0000      -1.056364       -28.7451
  13   2.0000      -1.012688       -27.5566
  14   2.0000      -1.006876       -27.3985
  15   2.0000      -0.996196       -27.1079
  16   2.0000      -0.985623       -26.8202
  17   2.0000      -0.983188       -26.7539
  18   2.0000      -0.747038       -20.3279
  19   2.0000      -0.737013       -20.0551
  20   2.0000      -0.653691       -17.7878
  21   2.0000      -0.620684       -16.8897
  22   2.0000      -0.584425       -15.9030
  23   2.0000      -0.556339       -15.1387
  24   2.0000      -0.524908       -14.2835
  25   2.0000      -0.511889       -13.9292
  26   2.0000      -0.501761       -13.6536
  27   2.0000      -0.482600       -13.1322
  28   2.0000      -0.470085       -12.7917
  29   2.0000      -0.456754       -12.4289
  30   2.0000      -0.436585       -11.8801
  31   2.0000      -0.418892       -11.3986
  32   2.0000      -0.402196       -10.9443
  33   2.0000      -0.398405       -10.8411
  34   2.0000      -0.382361       -10.4046
  35   2.0000      -0.368618       -10.0306
  36   2.0000      -0.358089        -9.7441
  37   2.0000      -0.345656        -9.4058
  38   2.0000      -0.343537        -9.3481
  39   2.0000      -0.333179        -9.0663
  40   2.0000      -0.310036        -8.4365
  41   2.0000      -0.290710        -7.9106
  42   2.0000      -0.275672        -7.5014
  43   2.0000      -0.269068        -7.3217
  44   2.0000      -0.256968        -6.9925
  45   2.0000      -0.246842        -6.7169
  46   2.0000      -0.242162        -6.5896
  47   2.0000      -0.225563        -6.1379
  48   0.0000       0.033719         0.9175
  49   0.0000       0.063445         1.7264
  50   0.0000       0.082811         2.2534
  51   0.0000       0.089137         2.4255
  52   0.0000       0.099795         2.7156

MULLIKEN ATOMIC CHARGES
-----------------------
   0 C :   -0.212612
   1 C :   -0.108191
   2 H :    0.204844
   3 C :    0.041650
   4 H :    0.184396
   5 C :   -0.023916
   6 H :    0.178606
   7 C :    0.041209
   8 H :    0.184636
   9 C :   -0.108768
  10 H :    0.178763
  11 O :   -0.237524
  12 O :   -0.436532
  13 O :   -0.493862
  14 O :   -0.496486
  15 O :   -0.505595
  16 O :   -0.481612
  17 H :    0.156947
  18 H :    0.156083
  19 H :    0.372204
  20 H :    0.350159
  21 H :    0.352889
  22 H :    0.346283
  23 H :    0.356430
Sum of atomic charges:   -0.0000000

LOEWDIN ATOMIC CHARGES
----------------------
   0 C :    0.059756
   1 C :    0.126620
   2 H :    0.195476
   3 C :    0.109452
   4 H :    0.189738
   5 C :    0.115660
   6 H :    0.195526
   7 C :    0.117940
   8 H :    0.193828
   9 C :    0.296774
  10 H :    0.205770
  11 O :   -0.697614
  12 O :   -0.510414
  13 O :   -0.594348
  14 O :   -0.594982
  15 O :   -0.614342
  16 O :   -0.633432
  17 H :    0.178952
  18 H :    0.176818
  19 H :    0.301281
  20 H :    0.295987
  21 H :    0.294974
  22 H :    0.294652
  23 H :    0.295929

  Mayer bond orders larger than 0.100000
B(  0-C ,  1-C ) :   0.9500 B(  0-C , 16-O ) :   0.9705 B(  0-C , 17-H ) :   0.9588
B(  0-C , 18-H ) :   0.9697 B(  1-C ,  2-H ) :   0.9492 B(  1-C ,  3-C ) :   0.8111
B(  1-C , 11-O ) :   0.8080 B(  3-C ,  4-H ) :   0.9559 B(  3-C ,  5-C ) :   0.8755
B(  3-C , 15-O ) :   0.8508 B(  5-C ,  6-H ) :   0.9731 B(  5-C ,  7-C ) :   0.9337
B(  5-C , 14-O ) :   0.9048 B(  7-C ,  8-H ) :   0.9570 B(  7-C ,  9-C ) :   0.7941
B(  7-C , 13-O ) :   0.8930 B(  9-C , 10-H ) :   0.9978 B(  9-C , 11-O ) :   0.9305
B(  9-C , 12-O ) :   1.1004 B( 12-O , 19-H ) :   0.8433 B( 13-O , 20-H ) :   0.8591
B( 14-O , 21-H ) :   0.8589 B( 15-O , 22-H ) :   0.8308 B( 16-O , 23-H ) :   0.8640

Dispersion correction           -0.007964824
FINAL SINGLE POINT ENERGY      -687.107628062145

DIPOLE MOMENT
-------------

Method             : SCF
Type of density    : Electron Density
Multiplicity       :   1
Irrep              :   0
Energy             :  -687.1196269962214274 Eh
Relativity type    :
Basis              : AO
                                X                 Y                 Z
Electronic contribution:      2.114986158      -0.000059924       0.072015488
Nuclear contribution   :     -3.941060803      -1.494074208      -0.866163375
                        -----------------------------------------
Total Dipole Moment    :     -1.826074644      -1.494134132      -0.794147886
                        -----------------------------------------
Magnitude (a.u.)       :      2.489509244
Magnitude (Debye)      :      6.327829618

Rotational constants in cm-1:             0.043783             0.024546             0.016532
Rotational constants in MHz :          1312.576151           735.868359           495.614942

                             ****ORCA TERMINATED NORMALLY****
TOTAL RUN TIME: 0 days 0 hours 0 minutes 57 seconds 111 msec
