                         Program Version 6.0.0  -   RELEASE  -
|  1> ! r2scan-3c def2/J RI DEFGRID2 scfconv6 printgap
|  2> %output
|  3>     printlevel normal
|  4> end
|  5> * xyz 0 1
|  6> C -2.5141103838 -0.2079030567 1.0139835256
|  7> S -1.8508277346 0.2390360072 -0.6255746871
|  8> C -0.1044167526 0.0749821333 -0.2504423382
|  9> C 0.5988373662 1.1703970367 0.2220615609
| 10> C 1.9437058484 1.0369526498 0.5215543431
| 11> C 2.5770721977 -0.1823263856 0.3443383291
| 12> C 1.8680159129 -1.2713905181 -0.135586262
| 13> C 0.5229453622 -1.1453729017 -0.4373123304
| 14> H -2.1500063919 0.5004188991 1.7512862113
| 15> H -2.2050537482 -1.2186364547 1.2606036543
| 16> H -3.5935370558 -0.1494201566 0.9300018591
| 17> H 0.0923287398 2.1151387196 0.3492267783
| 18> H 2.4959260284 1.8872469631 0.8912990153
| 19> H 3.6257689509 -0.2833070616 0.5780736446
| 20> H 2.3610359513 -2.2207769038 -0.2779107619
| 21> H -0.0418222777 -1.9829989903 -0.8175933713
| 22> *
| 23>
| 24>                          ****END OF INPUT****

CARTESIAN COORDINATES (ANGSTROEM)
---------------------------------
  C     -2.514110   -0.207903    1.013984
  S     -1.850828    0.239036   -0.625575
  C     -0.104417    0.074982   -0.250442
  C      0.598837    1.170397    0.222062
  C      1.943706    1.036953    0.521554
  C      2.577072   -0.182326    0.344338
  C      1.868016   -1.271391   -0.135586
  C      0.522945   -1.145373   -0.437312
  H     -2.150006    0.500419    1.751286
  H     -2.205054   -1.218636    1.260604
  H     -3.593537   -0.149420    0.930002
  H      0.092329    2.115139    0.349227
  H      2.495926    1.887247    0.891299
  H      3.625769   -0.283307    0.578074
  H      2.361036   -2.220777   -0.277911
  H     -0.041822   -1.982999   -0.817593

 Total Charge           Charge          ....    0
 Multiplicity           Mult            ....    1
 Number of Electrons    NEL             ....   66
 Basis Dimension        Dim             ....  200

ORBITAL ENERGIES
----------------

  NO   OCC          E(Eh)            E(eV)
   0   2.0000     -88.551858     -2409.6186
   1   2.0000     -10.067395      -273.9477
   2   2.0000     -10.055976      -273.6370
   3   2.0000     -10.043160      -273.2883
   4   2.0000     -10.042963      -273.2829
   5   2.0000     -10.042664      -273.2748
   6   2.0000     -10.042450      -273.2690
   7   2.0000     -10.042341      -273.2660
   8   2.0000      -7.845583      -213.4892
   9   2.0000      -5.793232      -157.6419
  10   2.0000      -5.789441      -157.5387
  11   2.0000      -5.781998      -157.3362
  12   2.0000      -0.839718       -22.8499
  13   2.0000      -0.763345       -20.7717
  14   2.0000      -0.725680       -19.7467
  15   2.0000      -0.706274       -19.2187
  16   2.0000      -0.614953       -16.7337
  17   2.0000      -0.584079       -15.8936
  18   2.0000      -0.552381       -15.0311
  19   2.0000      -0.488000       -13.2792
  20   2.0000      -0.432585       -11.7712
  21   2.0000      -0.429255       -11.6806
  22   2.0000      -0.407516       -11.0891
  23   2.0000      -0.400867       -10.9081
  24   2.0000      -0.393216       -10.6999
  25   2.0000      -0.380354       -10.3499
  26   2.0000      -0.355909        -9.6848
  27   2.0000      -0.329015        -8.9530
  28   2.0000      -0.322739        -8.7822
  29   2.0000      -0.292714        -7.9651
  30   2.0000      -0.246227        -6.7002
  31   2.0000      -0.239595        -6.5197
  32   2.0000      -0.198991        -5.4148
  33   0.0000      -0.047360        -1.2887
  34   0.0000      -0.040165        -1.0929
  35   0.0000       0.024522         0.6673
  36   0.0000       0.051522         1.4020
  37   0.0000       0.084875         2.3096

MULLIKEN ATOMIC CHARGES
-----------------------
   0 C :   -0.408643
   1 S :   -0.159357
   2 C :    0.101229
   3 C :   -0.197593
   4 C :   -0.119607
   5 C :   -0.150187
   6 C :   -0.119666
   7 C :   -0.197605
   8 H :    0.161707
   9 H :    0.161692
  10 H :    0.152414
  11 H :    0.164492
  12 H :    0.148945
  13 H :    0.148791
  14 H :    0.148942
  15 H :    0.164449
Sum of atomic charges:   -0.0000000

LOEWDIN ATOMIC CHARGES
----------------------
   0 C :   -0.439800
   1 S :    0.079126
   2 C :   -0.183272
   3 C :   -0.156210
   4 C :   -0.160268
   5 C :   -0.160593
   6 C :   -0.160267
   7 C :   -0.156232
   8 H :    0.157309
   9 H :    0.157313
  10 H :    0.164156
  11 H :    0.176777
  12 H :    0.168597
  13 H :    0.168007
  14 H :    0.168594
  15 H :    0.176763

  Mayer bond orders larger than 0.100000
B(  0-C ,  1-S ) :   0.9846 B(  0-C ,  8-H ) :   0.9546 B(  0-C ,  9-H ) :   0.9546
B(  0-C , 10-H ) :   0.9488 B(  1-S ,  2-C ) :   0.8899 B(  2-C ,  3-C ) :   1.3940
B(  2-C ,  7-C ) :   1.3939 B(  3-C ,  4-C ) :   1.3950 B(  3-C , 11-H ) :   0.9504
B(  4-C ,  5-C ) :   1.4222 B(  4-C , 12-H ) :   0.9490 B(  5-C ,  6-C ) :   1.4223
B(  5-C , 13-H ) :   0.9465 B(  6-C ,  7-C ) :   1.3952 B(  6-C , 14-H ) :   0.9489
B(  7-C , 15-H ) :   0.9503

Dispersion correction           -0.005557758
FINAL SINGLE POINT ENERGY      -669.644476795659

DIPOLE MOMENT
-------------

Method             : SCF
Type of density    : Electron Density
Multiplicity       :   1
Irrep              :   0
Energy             :  -669.6464501566430272 Eh
Relativity type    :
Basis              : AO
                                X                 Y                 Z
Electronic contribution:     -0.265439703       1.086992468      -3.772905831
Nuclear contribution   :      0.601462505      -1.275566656       4.394473494
                        -----------------------------------------
Total Dipole Moment    :      0.336022803      -0.188574188       0.621567663
                        -----------------------------------------
Magnitude (a.u.)       :      0.731312456
Magnitude (Debye)      :      1.858848538

Rotational constants in cm-1:             0.134264             0.037791             0.033754
Rotational constants in MHz :          4025.127479          1132.936835          1011.905022

                             ****ORCA TERMINATED NORMALLY****
TOTAL RUN TIME: 0 days 0 hours 0 minutes 19 seconds 53 msec
