                         Program Version 6.0.0  -   RELEASE  -
|  1> ! r2scan-3c def2/J RI DEFGRID2 scfconv6 printgap
|  2> %output
|  3>     printlevel normal
|  4> end
|  5> %cpcm
|  6>     smd true
|  7>     smdsolvent "water"
|  8> end
|  9> * xyz 0 1
| 10> C -2.5141103838 -0.2079030567 1.0139835256
| 11> S -1.8508277346 0.2390360072 -0.6255746871
| 12> C -0.1044167526 0.0749821333 -0.2504423382
| 13> C 0.5988373662 1.1703970367 0.2220615609
| 14> C 1.9437058484 1.0369526498 0.5215543431
| 15> C 2.5770721977 -0.1823263856 0.3443383291
| 16> C 1.8680159129 -1.2713905181 -0.135586262
| 17> C 0.5229453622 -1.1453729017 -0.4373123304
| 18> H -2.1500063919 0.5004188991 1.7512862113
| 19> H -2.2050537482 -1.2186364547 1.2606036543
| 20> H -3.5935370558 -0.1494201566 0.9300018591
| 21> H 0.0923287398 2.1151387196 0.3492267783
| 22> H 2.4959260284 1.8872469631 0.8912990153
| 23> H 3.6257689509 -0.2833070616 0.5780736446
| 24> H 2.3610359513 -2.2207769038 -0.2779107619
| 25> H -0.0418222777 -1.9829989903 -0.8175933713
| 26> *
| 27>
| 28>                          ****END OF INPUT****

CARTESIAN COORDINATES (ANGSTROEM)
---------------------------------
  C     -2.514110   -0.207903    1.013984
  S     -1.850828    0.239036   -0.625575
  C     -0.104417    0.074982   -0.250442
  C      0.598837    1.170397    0.222062
  C      1.943706    1.036953    0.521554
  C      2.577072   -0.182326    0.344338
  C      1.868016   -1.271391   -0.135586
  C      0.522945   -1.145373   -0.437312
  H     -2.150006    0.500419    1.751286
  H     -2.205054   -1.218636    1.260604
  H     -3.593537   -0.149420    0.930002
  H      0.092329    2.115139    0.349227
  H      2.495926    1.887247    0.891299
  H      3.625769   -0.283307    0.578074
  H      2.361036   -2.220777   -0.277911
  H     -0.041822   -1.982999   -0.817593

 Total Charge           Charge          ....    0
 Multiplicity           Mult            ....    1
 Number of Electrons    NEL             ....   66
 Basis Dimension        Dim             ....  200

ORBITAL ENERGIES
----------------

  NO   OCC          E(Eh)            E(eV)
   0   2.0000     -88.553267     -2409.6569
   1   2.0000     -10.066621      -273.9267
   2   2.0000     -10.047055      -273.3943
   3   2.0000     -10.039260      -273.1822
   4   2.0000     -10.039246      -273.1818
   5   2.0000     -10.037749      -273.1410
   6   2.0000     -10.037568      -273.1361
   7   2.0000     -10.036994      -273.1205
   8   2.0000      -7.847087      -213.5301
   9   2.0000      -5.794580      -157.6785
  10   2.0000      -5.790850      -157.5770
  11   2.0000      -5.783789      -157.3849
  12   2.0000      -0.837752       -22.7964
  13   2.0000      -0.760875       -20.7045
  14   2.0000      -0.721999       -19.6466
  15   2.0000      -0.701599       -19.0915
  16   2.0000      -0.610255       -16.6059
  17   2.0000      -0.579509       -15.7692
  18   2.0000      -0.547812       -14.9067
  19   2.0000      -0.482184       -13.1209
  20   2.0000      -0.428891       -11.6707
  21   2.0000      -0.422141       -11.4870
  22   2.0000      -0.400090       -10.8870
  23   2.0000      -0.394176       -10.7261
  24   2.0000      -0.384750       -10.4696
  25   2.0000      -0.376823       -10.2539
  26   2.0000      -0.352090        -9.5808
  27   2.0000      -0.325727        -8.8635
  28   2.0000      -0.316099        -8.6015
  29   2.0000      -0.291572        -7.9341
  30   2.0000      -0.245183        -6.6718
  31   2.0000      -0.239020        -6.5041
  32   2.0000      -0.201292        -5.4774
  33   0.0000      -0.045931        -1.2499
  34   0.0000      -0.038367        -1.0440
  35   0.0000       0.024079         0.6552
  36   0.0000       0.052953         1.4409
  37   0.0000       0.089939         2.4474

MULLIKEN ATOMIC CHARGES
-----------------------
   0 C :   -0.431717
   1 S :   -0.210998
   2 C :    0.122742
   3 C :   -0.220507
   4 C :   -0.162944
   5 C :   -0.178721
   6 C :   -0.163021
   7 C :   -0.220490
   8 H :    0.180686
   9 H :    0.180532
  10 H :    0.174705
  11 H :    0.189955
  12 H :    0.183348
  13 H :    0.183123
  14 H :    0.183284
  15 H :    0.190022
Sum of atomic charges:    0.0000000

LOEWDIN ATOMIC CHARGES
----------------------
   0 C :   -0.437615
   1 S :    0.048850
   2 C :   -0.194346
   3 C :   -0.164121
   4 C :   -0.166199
   5 C :   -0.166754
   6 C :   -0.166164
   7 C :   -0.164126
   8 H :    0.164429
   9 H :    0.164378
  10 H :    0.172685
  11 H :    0.184579
  12 H :    0.180210
  13 H :    0.179410
  14 H :    0.180189
  15 H :    0.184595

  Mayer bond orders larger than 0.100000
B(  0-C ,  1-S ) :   0.9820 B(  0-C ,  8-H ) :   0.9488 B(  0-C ,  9-H ) :   0.9489
B(  0-C , 10-H ) :   0.9405 B(  1-S ,  2-C ) :   0.8451 B(  2-C ,  3-C ) :   1.3540
B(  2-C ,  7-C ) :   1.3539 B(  3-C ,  4-C ) :   1.3891 B(  3-C , 11-H ) :   0.9527
B(  4-C ,  5-C ) :   1.3910 B(  4-C , 12-H ) :   0.9532 B(  5-C ,  6-C ) :   1.3910
B(  5-C , 13-H ) :   0.9513 B(  6-C ,  7-C ) :   1.3894 B(  6-C , 14-H ) :   0.9532
B(  7-C , 15-H ) :   0.9526

Dispersion correction           -0.005557758
FINAL SINGLE POINT ENERGY      -669.647212968189

DIPOLE MOMENT
-------------

Method             : SCF
Type of density    : Electron Density
Multiplicity       :   1
Irrep              :   0
Energy             :  -669.6491863291728350 Eh
Relativity type    :
Basis              : AO
                                X                 Y                 Z
Electronic contribution:     -0.160586442       1.011781672      -3.521663843
Nuclear contribution   :      0.601462505      -1.275566656       4.394473494
                        -----------------------------------------
Total Dipole Moment    :      0.440876063      -0.263784984       0.872809651
                        -----------------------------------------
Magnitude (a.u.)       :      1.012793616
Magnitude (Debye)      :      2.574316787

Rotational constants in cm-1:             0.134264             0.037791             0.033754
Rotational constants in MHz :          4025.127479          1132.936835          1011.905022

                             ****ORCA TERMINATED NORMALLY****
TOTAL RUN TIME: 0 days 0 hours 0 minutes 23 seconds 503 msec
