                         Program Version 6.0.0  -   RELEASE  -
|  1> ! pbe def2-sv(p) def2/J RI DEFGRID1 loosescf d4 GCP(DFT/SV(P)) printgap
|  2> %output
|  3>     printlevel normal
|  4> end
|  5> * xyz 0 1
|  6> C -3.6616290828 -0.435856021 -1.5121539095
|  7> N -2.4791402785 -0.1118487612 -0.7445676596
|  8> C -2.4259847072 -0.2300417216 0.5869808783
|  9> O -3.3473641823 -0.6125448005 1.2866577514
| 10> O -1.2545231091 0.0814680606 1.1870070741
| 11> C -0.1913736125 0.6456736951 0.4723467925
| 12> C -0.2463409769 1.952445065 0.0595017789
| 13> C 0.8518193391 2.5267628903 -0.5980959665
| 14> C 1.9800079881 1.792202191 -0.8335322415
| 15> C 2.0657471083 0.4468331215 -0.4172247977
| 16> C 0.9629415056 -0.147589825 0.2524607905
| 17> C 1.0486004337 -1.4913535602 0.6712289856
| 18> C 2.1807239372 -2.2195845192 0.4334291481
| 19> C 3.2726629028 -1.6375193793 -0.2299177087
| 20> C 3.2174434115 -0.3360700205 -0.6444699161
| 21> H -4.4411698969 -0.7335166175 -0.8140247855
| 22> H -3.4521590349 -1.2579052683 -2.1954442838
| 23> H -3.9894462889 0.4359636868 -2.0764668105
| 24> H -1.6570183516 0.1842558058 -1.2507936922
| 25> H -1.134720199 2.5346482804 0.2516875547
| 26> H 0.7902588044 3.5564663122 -0.9118801912
| 27> H 2.8255482996 2.2320713943 -1.3392702934
| 28> H 0.2045164576 -1.9252131248 1.1872920172
| 29> H 2.2406601372 -3.2475379465 0.75636128
| 30> H 4.1576370446 -2.228866235 -0.4077669977
| 31> H 4.0560417566 0.1154669516 -1.1523768729
| 32> *
| 33>
| 34>                          ****END OF INPUT****

CARTESIAN COORDINATES (ANGSTROEM)
---------------------------------
  C     -3.661629   -0.435856   -1.512154
  N     -2.479140   -0.111849   -0.744568
  C     -2.425985   -0.230042    0.586981
  O     -3.347364   -0.612545    1.286658
  O     -1.254523    0.081468    1.187007
  C     -0.191374    0.645674    0.472347
  C     -0.246341    1.952445    0.059502
  C      0.851819    2.526763   -0.598096
  C      1.980008    1.792202   -0.833532
  C      2.065747    0.446833   -0.417225
  C      0.962942   -0.147590    0.252461
  C      1.048600   -1.491354    0.671229
  C      2.180724   -2.219585    0.433429
  C      3.272663   -1.637519   -0.229918
  C      3.217443   -0.336070   -0.644470
  H     -4.441170   -0.733517   -0.814025
  H     -3.452159   -1.257905   -2.195444
  H     -3.989446    0.435964   -2.076467
  H     -1.657018    0.184256   -1.250794
  H     -1.134720    2.534648    0.251688
  H      0.790259    3.556466   -0.911880
  H      2.825548    2.232071   -1.339270
  H      0.204516   -1.925213    1.187292
  H      2.240660   -3.247538    0.756361
  H      4.157637   -2.228866   -0.407767
  H      4.056042    0.115467   -1.152377

 Total Charge           Charge          ....    0
 Multiplicity           Mult            ....    1
 Number of Electrons    NEL             ....  106
 Basis Dimension        Dim             ....  232

ORBITAL ENERGIES
----------------

  NO   OCC          E(Eh)            E(eV)
   0   2.0000     -18.804525      -511.6971
   1   2.0000     -18.708495      -509.0840
   2   2.0000     -14.022938      -381.5836
   3   2.0000     -10.022120      -272.7157
   4   2.0000      -9.968197      -271.2484
   5   2.0000      -9.922415      -270.0026
   6   2.0000      -9.918226      -269.8886
   7   2.0000      -9.917784      -269.8766
   8   2.0000      -9.910037      -269.6658
   9   2.0000      -9.909761      -269.6583
  10   2.0000      -9.906315      -269.5645
  11   2.0000      -9.905408      -269.5399
  12   2.0000      -9.904937      -269.5270
  13   2.0000      -9.904002      -269.5016
  14   2.0000      -9.903661      -269.4923
  15   2.0000      -1.011155       -27.5149
  16   2.0000      -0.910726       -24.7821
  17   2.0000      -0.841612       -22.9014
  18   2.0000      -0.807745       -21.9799
  19   2.0000      -0.758555       -20.6413
  20   2.0000      -0.709967       -19.3192
  21   2.0000      -0.682893       -18.5825
  22   2.0000      -0.662825       -18.0364
  23   2.0000      -0.645679       -17.5698
  24   2.0000      -0.589556       -16.0426
  25   2.0000      -0.568105       -15.4589
  26   2.0000      -0.566609       -15.4182
  27   2.0000      -0.537026       -14.6132
  28   2.0000      -0.514089       -13.9891
  29   2.0000      -0.478720       -13.0266
  30   2.0000      -0.463115       -12.6020
  31   2.0000      -0.456463       -12.4210
  32   2.0000      -0.438340       -11.9278
  33   2.0000      -0.425845       -11.5878
  34   2.0000      -0.409191       -11.1347
  35   2.0000      -0.393439       -10.7060
  36   2.0000      -0.391683       -10.6582
  37   2.0000      -0.383280       -10.4296
  38   2.0000      -0.372374       -10.1328
  39   2.0000      -0.366263        -9.9665
  40   2.0000      -0.362926        -9.8757
  41   2.0000      -0.354130        -9.6364
  42   2.0000      -0.349576        -9.5125
  43   2.0000      -0.335182        -9.1208
  44   2.0000      -0.314535        -8.5589
  45   2.0000      -0.311285        -8.4705
  46   2.0000      -0.304662        -8.2903
  47   2.0000      -0.269750        -7.3403
  48   2.0000      -0.255874        -6.9627
  49   2.0000      -0.240858        -6.5541
  50   2.0000      -0.217376        -5.9151
  51   2.0000      -0.216900        -5.9022
  52   2.0000      -0.205155        -5.5825
  53   0.0000      -0.082645        -2.2489
  54   0.0000      -0.054557        -1.4846
  55   0.0000      -0.016866        -0.4589
  56   0.0000       0.026281         0.7151
  57   0.0000       0.033901         0.9225

MULLIKEN ATOMIC CHARGES
-----------------------
   0 C :   -0.175697
   1 N :   -0.319263
   2 C :    0.192343
   3 O :   -0.216488
   4 O :   -0.209068
   5 C :    0.080714
   6 C :   -0.132088
   7 C :   -0.038337
   8 C :   -0.108685
   9 C :    0.136661
  10 C :    0.122091
  11 C :   -0.135525
  12 C :   -0.036881
  13 C :   -0.033263
  14 C :   -0.129969
  15 H :    0.141881
  16 H :    0.115742
  17 H :    0.113115
  18 H :    0.247834
  19 H :    0.054732
  20 H :    0.060347
  21 H :    0.042334
  22 H :    0.066072
  23 H :    0.059915
  24 H :    0.058187
  25 H :    0.043295
Sum of atomic charges:   -0.0000000

LOEWDIN ATOMIC CHARGES
----------------------
   0 C :   -0.255321
   1 N :   -0.184708
   2 C :    0.025444
   3 O :   -0.203519
   4 O :   -0.039587
   5 C :    0.029733
   6 C :   -0.145830
   7 C :   -0.120936
   8 C :   -0.114492
   9 C :   -0.022843
  10 C :   -0.038864
  11 C :   -0.107433
  12 C :   -0.117415
  13 C :   -0.118594
  14 C :   -0.109111
  15 H :    0.139746
  16 H :    0.118513
  17 H :    0.117661
  18 H :    0.238277
  19 H :    0.135806
  20 H :    0.129132
  21 H :    0.126942
  22 H :    0.135901
  23 H :    0.128174
  24 H :    0.127035
  25 H :    0.126288

  Mayer bond orders larger than 0.100000
B(  0-C ,  1-N ) :   1.0207 B(  0-C , 15-H ) :   0.9351 B(  0-C , 16-H ) :   0.9596
B(  0-C , 17-H ) :   0.9585 B(  1-N ,  2-C ) :   1.2099 B(  1-N , 18-H ) :   0.8355
B(  2-C ,  3-O ) :   2.0755 B(  2-C ,  4-O ) :   1.0482 B(  4-O ,  5-C ) :   1.0550
B(  5-C ,  6-C ) :   1.4539 B(  5-C , 10-C ) :   1.2270 B(  6-C ,  7-C ) :   1.2121
B(  6-C , 19-H ) :   0.9635 B(  7-C ,  8-C ) :   1.4399 B(  7-C , 20-H ) :   0.9623
B(  8-C ,  9-C ) :   1.2361 B(  8-C , 21-H ) :   0.9682 B(  9-C , 10-C ) :   1.2501
B(  9-C , 14-C ) :   1.2403 B( 10-C , 11-C ) :   1.2661 B( 11-C , 12-C ) :   1.4401
B( 11-C , 22-H ) :   0.9614 B( 12-C , 13-C ) :   1.2545 B( 12-C , 23-H ) :   0.9636
B( 13-C , 14-C ) :   1.4608 B( 13-C , 24-H ) :   0.9625 B( 14-C , 25-H ) :   0.9657

Dispersion correction           -0.032864511
FINAL SINGLE POINT ENERGY      -667.731382474610

DIPOLE MOMENT
-------------

Method             : SCF
Type of density    : Electron Density
Multiplicity       :   1
Irrep              :   0
Energy             :  -667.8067919016169753 Eh
Relativity type    :
Basis              : AO
                                X                 Y                 Z
Electronic contribution:      1.452740139       0.694546843       5.814416406
Nuclear contribution   :     -0.456895876      -0.321985024      -7.428432681
                        -----------------------------------------
Total Dipole Moment    :      0.995844263       0.372561819      -1.614016275
                        -----------------------------------------
Magnitude (a.u.)       :      1.932758816
Magnitude (Debye)      :      4.912682493

Rotational constants in cm-1:             0.035338             0.014218             0.011800
Rotational constants in MHz :          1059.418050           426.232617           353.758801

                             ****ORCA TERMINATED NORMALLY****
TOTAL RUN TIME: 0 days 0 hours 0 minutes 13 seconds 468 msec
