                         Program Version 6.0.0  -   RELEASE  -
|  1> ! r2scan-3c def2/J RI DEFGRID2 scfconv6 printgap
|  2> %output
|  3>     printlevel normal
|  4> end
|  5> %cpcm
|  6>     smd true
|  7>     smdsolvent "water"
|  8> end
|  9> * xyz 0 1
| 10> C 1.7215753014 0.2953968444 -5.07455e-05
| 11> C 0.6785033595 -0.5060670917 5.51847e-05
| 12> Cl -0.95722655 0.0807859093 -7.6951e-06
| 13> H 2.7145714856 -0.1155355451 -5.82399e-05
| 14> H 1.6249377559 1.3663036668 0.0003266926
| 15> H 0.7300171099 -1.5819315329 -5.06866e-05
| 16> *
| 17>
| 18>                          ****END OF INPUT****

CARTESIAN COORDINATES (ANGSTROEM)
---------------------------------
  C      1.721575    0.295397   -0.000051
  C      0.678503   -0.506067    0.000055
  Cl    -0.957227    0.080786   -0.000008
  H      2.714571   -0.115536   -0.000058
  H      1.624938    1.366304    0.000327
  H      0.730017   -1.581932   -0.000051

 Total Charge           Charge          ....    0
 Multiplicity           Mult            ....    1
 Number of Electrons    NEL             ....   32
 Basis Dimension        Dim             ....   80

ORBITAL ENERGIES
----------------

  NO   OCC          E(Eh)            E(eV)
   0   2.0000    -101.221229     -2754.3697
   1   2.0000     -10.091701      -274.6091
   2   2.0000     -10.034078      -273.0411
   3   2.0000      -9.377325      -255.1700
   4   2.0000      -7.123203      -193.8322
   5   2.0000      -7.113902      -193.5791
   6   2.0000      -7.113151      -193.5587
   7   2.0000      -0.838642       -22.8206
   8   2.0000      -0.714865       -19.4525
   9   2.0000      -0.548194       -14.9171
  10   2.0000      -0.453296       -12.3348
  11   2.0000      -0.417475       -11.3601
  12   2.0000      -0.348314        -9.4781
  13   2.0000      -0.343062        -9.3352
  14   2.0000      -0.286778        -7.8036
  15   2.0000      -0.241247        -6.5647
  16   0.0000      -0.031198        -0.8489
  17   0.0000       0.019672         0.5353
  18   0.0000       0.123017         3.3475
  19   0.0000       0.152101         4.1389
  20   0.0000       0.169433         4.6105

MULLIKEN ATOMIC CHARGES
-----------------------
   0 C :   -0.368767
   1 C :   -0.056006
   2 Cl:   -0.160840
   3 H :    0.188521
   4 H :    0.184327
   5 H :    0.212765
Sum of atomic charges:    0.0000000

LOEWDIN ATOMIC CHARGES
----------------------
   0 C :   -0.325617
   1 C :   -0.264485
   2 Cl:    0.055635
   3 H :    0.180951
   4 H :    0.175697
   5 H :    0.177820

  Mayer bond orders larger than 0.100000
B(  0-C ,  1-C ) :   1.8880 B(  0-C ,  3-H ) :   0.9372 B(  0-C ,  4-H ) :   0.9627
B(  1-C ,  2-Cl) :   0.9746 B(  1-C ,  5-H ) :   0.9206

Dispersion correction           -0.001000223
FINAL SINGLE POINT ENERGY      -538.138731981581

DIPOLE MOMENT
-------------

Method             : SCF
Type of density    : Electron Density
Multiplicity       :   1
Irrep              :   0
Energy             :  -538.1410995126466332 Eh
Relativity type    :
Basis              : AO
                                X                 Y                 Z
Electronic contribution:     -5.279169306       0.195851346      -0.000116697
Nuclear contribution   :      6.040886068      -0.419119497       0.000214631
                        -----------------------------------------
Total Dipole Moment    :      0.761716762      -0.223268151       0.000097934
                        -----------------------------------------
Magnitude (a.u.)       :      0.793763883
Magnitude (Debye)      :      2.017587451

Rotational constants in cm-1:             1.921489             0.200116             0.181240
Rotational constants in MHz :         57604.805417          5999.318633          5433.446165

                             ****ORCA TERMINATED NORMALLY****
TOTAL RUN TIME: 0 days 0 hours 0 minutes 6 seconds 909 msec
