                         Program Version 6.0.0  -   RELEASE  -
|  1> ! r2scan-3c def2/J RI DEFGRID2 scfconv6 printgap
|  2> %output
|  3>     printlevel normal
|  4> end
|  5> * xyz 0 1
|  6> C 4.4384315136 -0.3779930361 -0.0744304089
|  7> C 3.7154019543 -0.5183560096 -1.2471804089
|  8> C 2.3601415443 -0.2372359301 -1.266181021
|  9> C 1.7375533109 0.1866203677 -0.1029686457
| 10> C 2.4534973821 0.327970249 1.0750344772
| 11> C 3.8083365353 0.0443798053 1.0842286996
| 12> N 0.3324356594 0.4678126838 -0.1149354145
| 13> C -0.552996322 -0.5732104637 0.1452230742
| 14> O -0.1287133141 -1.7109677289 0.3806437299
| 15> C -1.9225755526 -0.1840871312 0.1084279269
| 16> C -2.3342770751 1.1097792231 -0.1617223658
| 17> C -1.2652517537 2.0368920857 -0.4027283141
| 18> N -0.0201473408 1.7119863739 -0.3749192053
| 19> N -3.6116222213 1.4910558551 -0.2004563946
| 20> Cl -3.0839812217 -1.4442480819 0.4278664025
| 21> H 5.4936996894 -0.6014516088 -0.0626566854
| 22> H 4.2037797789 -0.8499657798 -2.149982921
| 23> H 1.7839082967 -0.3493552446 -2.1714887808
| 24> H 1.9491913519 0.6512685814 1.9724186108
| 25> H 4.3690064531 0.1503381499 1.9996024247
| 26> H -1.4717693506 3.0713293057 -0.622494502
| 27> H -3.8534044617 2.4448245407 -0.4025164474
| 28> H -4.3262394162 0.8047191196 -0.0247434574
| 29> *
| 30>
| 31>                          ****END OF INPUT****

CARTESIAN COORDINATES (ANGSTROEM)
---------------------------------
  C      4.438432   -0.377993   -0.074430
  C      3.715402   -0.518356   -1.247180
  C      2.360142   -0.237236   -1.266181
  C      1.737553    0.186620   -0.102969
  C      2.453497    0.327970    1.075034
  C      3.808337    0.044380    1.084229
  N      0.332436    0.467813   -0.114935
  C     -0.552996   -0.573210    0.145223
  O     -0.128713   -1.710968    0.380644
  C     -1.922576   -0.184087    0.108428
  C     -2.334277    1.109779   -0.161722
  C     -1.265252    2.036892   -0.402728
  N     -0.020147    1.711986   -0.374919
  N     -3.611622    1.491056   -0.200456
  Cl    -3.083981   -1.444248    0.427866
  H      5.493700   -0.601452   -0.062657
  H      4.203780   -0.849966   -2.149983
  H      1.783908   -0.349355   -2.171489
  H      1.949191    0.651269    1.972419
  H      4.369006    0.150338    1.999602
  H     -1.471769    3.071329   -0.622495
  H     -3.853404    2.444825   -0.402516
  H     -4.326239    0.804719   -0.024743

 Total Charge           Charge          ....    0
 Multiplicity           Mult            ....    1
 Number of Electrons    NEL             ....  114
 Basis Dimension        Dim             ....  353

ORBITAL ENERGIES
----------------

  NO   OCC          E(Eh)            E(eV)
   0   2.0000    -101.227429     -2754.5384
   1   2.0000     -18.902893      -514.3739
   2   2.0000     -14.252908      -387.8413
   3   2.0000     -14.216671      -386.8553
   4   2.0000     -14.210260      -386.6808
   5   2.0000     -10.132645      -275.7233
   6   2.0000     -10.119266      -275.3592
   7   2.0000     -10.100361      -274.8448
   8   2.0000     -10.087840      -274.5041
   9   2.0000     -10.082324      -274.3540
  10   2.0000     -10.044237      -273.3176
  11   2.0000     -10.044173      -273.3158
  12   2.0000     -10.042378      -273.2670
  13   2.0000     -10.042258      -273.2637
  14   2.0000     -10.041336      -273.2386
  15   2.0000      -9.382416      -255.3085
  16   2.0000      -7.128790      -193.9842
  17   2.0000      -7.118741      -193.7108
  18   2.0000      -7.118201      -193.6961
  19   2.0000      -1.043246       -28.3882
  20   2.0000      -0.970056       -26.3966
  21   2.0000      -0.939547       -25.5664
  22   2.0000      -0.856032       -23.2938
  23   2.0000      -0.836537       -22.7633
  24   2.0000      -0.814480       -22.1631
  25   2.0000      -0.748714       -20.3735
  26   2.0000      -0.726435       -19.7673
  27   2.0000      -0.722410       -19.6578
  28   2.0000      -0.642484       -17.4829
  29   2.0000      -0.638608       -17.3774
  30   2.0000      -0.588909       -16.0250
  31   2.0000      -0.582161       -15.8414
  32   2.0000      -0.563313       -15.3285
  33   2.0000      -0.524029       -14.2595
  34   2.0000      -0.512335       -13.9413
  35   2.0000      -0.481362       -13.0985
  36   2.0000      -0.472009       -12.8440
  37   2.0000      -0.461394       -12.5552
  38   2.0000      -0.434584       -11.8256
  39   2.0000      -0.420640       -11.4462
  40   2.0000      -0.410410       -11.1678
  41   2.0000      -0.402716       -10.9585
  42   2.0000      -0.399710       -10.8767
  43   2.0000      -0.377727       -10.2785
  44   2.0000      -0.370614       -10.0849
  45   2.0000      -0.352221        -9.5844
  46   2.0000      -0.351318        -9.5599
  47   2.0000      -0.336626        -9.1600
  48   2.0000      -0.323334        -8.7984
  49   2.0000      -0.305405        -8.3105
  50   2.0000      -0.293219        -7.9789
  51   2.0000      -0.281195        -7.6517
  52   2.0000      -0.245881        -6.6908
  53   2.0000      -0.244230        -6.6458
  54   2.0000      -0.236790        -6.4434
  55   2.0000      -0.213489        -5.8093
  56   2.0000      -0.205526        -5.5926
  57   0.0000      -0.079393        -2.1604
  58   0.0000      -0.042273        -1.1503
  59   0.0000      -0.037517        -1.0209
  60   0.0000      -0.021453        -0.5838
  61   0.0000       0.004072         0.1108

MULLIKEN ATOMIC CHARGES
-----------------------
   0 C :   -0.133637
   1 C :   -0.119794
   2 C :   -0.239619
   3 C :    0.056799
   4 C :   -0.242474
   5 C :   -0.119493
   6 N :    0.485619
   7 C :    0.074367
   8 O :   -0.417932
   9 C :   -0.170589
  10 C :    0.644580
  11 C :   -0.422594
  12 N :   -0.207475
  13 N :   -0.475665
  14 Cl:   -0.127188
  15 H :    0.146726
  16 H :    0.147044
  17 H :    0.151804
  18 H :    0.151928
  19 H :    0.146996
  20 H :    0.135377
  21 H :    0.260912
  22 H :    0.274307
Sum of atomic charges:   -0.0000000

LOEWDIN ATOMIC CHARGES
----------------------
   0 C :   -0.154598
   1 C :   -0.152962
   2 C :   -0.093309
   3 C :    0.184538
   4 C :   -0.093946
   5 C :   -0.153093
   6 N :   -0.536221
   7 C :    0.370000
   8 O :   -0.466431
   9 C :   -0.113464
  10 C :    0.159017
  11 C :    0.141154
  12 N :   -0.315669
  13 N :   -0.551091
  14 Cl:    0.180552
  15 H :    0.168560
  16 H :    0.169810
  17 H :    0.181012
  18 H :    0.180833
  19 H :    0.169780
  20 H :    0.198117
  21 H :    0.262327
  22 H :    0.265089

  Mayer bond orders larger than 0.100000
B(  0-C ,  1-C ) :   1.4233 B(  0-C ,  5-C ) :   1.4238 B(  0-C , 15-H ) :   0.9421
B(  1-C ,  2-C ) :   1.3968 B(  1-C , 16-H ) :   0.9448 B(  2-C ,  3-C ) :   1.4351
B(  2-C , 17-H ) :   0.9420 B(  3-C ,  4-C ) :   1.4363 B(  3-C ,  6-N ) :   1.0160
B(  4-C ,  5-C ) :   1.3956 B(  4-C , 18-H ) :   0.9421 B(  5-C , 19-H ) :   0.9447
B(  6-N ,  7-C ) :   1.0330 B(  6-N , 11-C ) :   0.1590 B(  6-N , 12-N ) :   1.2869
B(  7-C ,  8-O ) :   1.9071 B(  7-C ,  9-C ) :   0.9678 B(  9-C , 10-C ) :   1.2936
B(  9-C , 13-N ) :   0.1281 B(  9-C , 14-Cl) :   1.0939 B( 10-C , 11-C ) :   0.9125
B( 10-C , 13-N ) :   1.0166 B( 11-C , 12-N ) :   1.6180 B( 11-C , 20-H ) :   1.0059
B( 13-N , 21-H ) :   0.9280 B( 13-N , 22-H ) :   0.9088

Dispersion correction           -0.010497025
FINAL SINGLE POINT ENERGY     -1085.380687108036

DIPOLE MOMENT
-------------

Method             : SCF
Type of density    : Electron Density
Multiplicity       :   1
Irrep              :   0
Energy             : -1085.3860384410572806 Eh
Relativity type    :
Basis              : AO
                                X                 Y                 Z
Electronic contribution:    -12.560596928      -5.183417867       1.586653948
Nuclear contribution   :     11.763697273       6.926025930      -1.943927419
                        -----------------------------------------
Total Dipole Moment    :     -0.796899655       1.742608063      -0.357273472
                        -----------------------------------------
Magnitude (a.u.)       :      1.949198875
Magnitude (Debye)      :      4.954469802

Rotational constants in cm-1:             0.043603             0.010492             0.009274
Rotational constants in MHz :          1307.180103           314.540006           278.026344

                             ****ORCA TERMINATED NORMALLY****
TOTAL RUN TIME: 0 days 0 hours 0 minutes 46 seconds 668 msec
