                         Program Version 6.0.0  -   RELEASE  -
|  1> ! r2scan-3c def2/J RI DEFGRID2 scfconv6 printgap
|  2> %output
|  3>     printlevel normal
|  4> end
|  5> %cpcm
|  6>     smd true
|  7>     smdsolvent "water"
|  8> end
|  9> * xyz 0 1
| 10> C 4.4384315136 -0.3779930361 -0.0744304089
| 11> C 3.7154019543 -0.5183560096 -1.2471804089
| 12> C 2.3601415443 -0.2372359301 -1.266181021
| 13> C 1.7375533109 0.1866203677 -0.1029686457
| 14> C 2.4534973821 0.327970249 1.0750344772
| 15> C 3.8083365353 0.0443798053 1.0842286996
| 16> N 0.3324356594 0.4678126838 -0.1149354145
| 17> C -0.552996322 -0.5732104637 0.1452230742
| 18> O -0.1287133141 -1.7109677289 0.3806437299
| 19> C -1.9225755526 -0.1840871312 0.1084279269
| 20> C -2.3342770751 1.1097792231 -0.1617223658
| 21> C -1.2652517537 2.0368920857 -0.4027283141
| 22> N -0.0201473408 1.7119863739 -0.3749192053
| 23> N -3.6116222213 1.4910558551 -0.2004563946
| 24> Cl -3.0839812217 -1.4442480819 0.4278664025
| 25> H 5.4936996894 -0.6014516088 -0.0626566854
| 26> H 4.2037797789 -0.8499657798 -2.149982921
| 27> H 1.7839082967 -0.3493552446 -2.1714887808
| 28> H 1.9491913519 0.6512685814 1.9724186108
| 29> H 4.3690064531 0.1503381499 1.9996024247
| 30> H -1.4717693506 3.0713293057 -0.622494502
| 31> H -3.8534044617 2.4448245407 -0.4025164474
| 32> H -4.3262394162 0.8047191196 -0.0247434574
| 33> *
| 34>
| 35>                          ****END OF INPUT****

CARTESIAN COORDINATES (ANGSTROEM)
---------------------------------
  C      4.438432   -0.377993   -0.074430
  C      3.715402   -0.518356   -1.247180
  C      2.360142   -0.237236   -1.266181
  C      1.737553    0.186620   -0.102969
  C      2.453497    0.327970    1.075034
  C      3.808337    0.044380    1.084229
  N      0.332436    0.467813   -0.114935
  C     -0.552996   -0.573210    0.145223
  O     -0.128713   -1.710968    0.380644
  C     -1.922576   -0.184087    0.108428
  C     -2.334277    1.109779   -0.161722
  C     -1.265252    2.036892   -0.402728
  N     -0.020147    1.711986   -0.374919
  N     -3.611622    1.491056   -0.200456
  Cl    -3.083981   -1.444248    0.427866
  H      5.493700   -0.601452   -0.062657
  H      4.203780   -0.849966   -2.149983
  H      1.783908   -0.349355   -2.171489
  H      1.949191    0.651269    1.972419
  H      4.369006    0.150338    1.999602
  H     -1.471769    3.071329   -0.622495
  H     -3.853404    2.444825   -0.402516
  H     -4.326239    0.804719   -0.024743

 Total Charge           Charge          ....    0
 Multiplicity           Mult            ....    1
 Number of Electrons    NEL             ....  114
 Basis Dimension        Dim             ....  353

ORBITAL ENERGIES
----------------

  NO   OCC          E(Eh)            E(eV)
   0   2.0000    -101.233626     -2754.7070
   1   2.0000     -18.926334      -515.0117
   2   2.0000     -14.257444      -387.9648
   3   2.0000     -14.218612      -386.9081
   4   2.0000     -14.193082      -386.2134
   5   2.0000     -10.147484      -276.1271
   6   2.0000     -10.116649      -275.2880
   7   2.0000     -10.102006      -274.8896
   8   2.0000     -10.086003      -274.4541
   9   2.0000     -10.083740      -274.3925
  10   2.0000     -10.045074      -273.3404
  11   2.0000     -10.045033      -273.3392
  12   2.0000     -10.041800      -273.2513
  13   2.0000     -10.041722      -273.2491
  14   2.0000     -10.040400      -273.2132
  15   2.0000      -9.388808      -255.4825
  16   2.0000      -7.135077      -194.1553
  17   2.0000      -7.125155      -193.8853
  18   2.0000      -7.124635      -193.8712
  19   2.0000      -1.049728       -28.5646
  20   2.0000      -0.990687       -26.9580
  21   2.0000      -0.926421       -25.2092
  22   2.0000      -0.858058       -23.3490
  23   2.0000      -0.841159       -22.8891
  24   2.0000      -0.816458       -22.2170
  25   2.0000      -0.751054       -20.4372
  26   2.0000      -0.727443       -19.7947
  27   2.0000      -0.722698       -19.6656
  28   2.0000      -0.641636       -17.4598
  29   2.0000      -0.637762       -17.3544
  30   2.0000      -0.588857       -16.0236
  31   2.0000      -0.580803       -15.8044
  32   2.0000      -0.555974       -15.1288
  33   2.0000      -0.523720       -14.2511
  34   2.0000      -0.504197       -13.7199
  35   2.0000      -0.471553       -12.8316
  36   2.0000      -0.464469       -12.6388
  37   2.0000      -0.464053       -12.6275
  38   2.0000      -0.433600       -11.7988
  39   2.0000      -0.421596       -11.4722
  40   2.0000      -0.413726       -11.2581
  41   2.0000      -0.407195       -11.0803
  42   2.0000      -0.398158       -10.8344
  43   2.0000      -0.397079       -10.8051
  44   2.0000      -0.367753       -10.0071
  45   2.0000      -0.362777        -9.8717
  46   2.0000      -0.357427        -9.7261
  47   2.0000      -0.334273        -9.0960
  48   2.0000      -0.320994        -8.7347
  49   2.0000      -0.312179        -8.4948
  50   2.0000      -0.300537        -8.1780
  51   2.0000      -0.290008        -7.8915
  52   2.0000      -0.253509        -6.8983
  53   2.0000      -0.248745        -6.7687
  54   2.0000      -0.236540        -6.4366
  55   2.0000      -0.235817        -6.4169
  56   2.0000      -0.212603        -5.7852
  57   0.0000      -0.078788        -2.1439
  58   0.0000      -0.046644        -1.2692
  59   0.0000      -0.041383        -1.1261
  60   0.0000      -0.027044        -0.7359
  61   0.0000       0.000419         0.0114

MULLIKEN ATOMIC CHARGES
-----------------------
   0 C :   -0.154184
   1 C :   -0.152844
   2 C :   -0.257455
   3 C :   -0.056221
   4 C :   -0.258051
   5 C :   -0.152662
   6 N :    0.554062
   7 C :    0.095335
   8 O :   -0.539148
   9 C :   -0.186333
  10 C :    0.649910
  11 C :   -0.372937
  12 N :   -0.268496
  13 N :   -0.518669
  14 Cl:   -0.149843
  15 H :    0.183437
  16 H :    0.183748
  17 H :    0.191530
  18 H :    0.191624
  19 H :    0.183748
  20 H :    0.187773
  21 H :    0.326009
  22 H :    0.319666
Sum of atomic charges:   -0.0000000

LOEWDIN ATOMIC CHARGES
----------------------
   0 C :   -0.157467
   1 C :   -0.157438
   2 C :   -0.105922
   3 C :    0.160231
   4 C :   -0.106129
   5 C :   -0.157314
   6 N :   -0.537702
   7 C :    0.368933
   8 O :   -0.566146
   9 C :   -0.122390
  10 C :    0.173288
  11 C :    0.172757
  12 N :   -0.332691
  13 N :   -0.506512
  14 Cl:    0.163796
  15 H :    0.181069
  16 H :    0.182582
  17 H :    0.193491
  18 H :    0.193372
  19 H :    0.182599
  20 H :    0.219935
  21 H :    0.282354
  22 H :    0.275303

  Mayer bond orders larger than 0.100000
B(  0-C ,  1-C ) :   1.3869 B(  0-C ,  5-C ) :   1.3873 B(  0-C , 15-H ) :   0.9470
B(  1-C ,  2-C ) :   1.3718 B(  1-C , 16-H ) :   0.9505 B(  2-C ,  3-C ) :   1.4050
B(  2-C , 17-H ) :   0.9496 B(  3-C ,  4-C ) :   1.4076 B(  3-C ,  6-N ) :   0.9781
B(  4-C ,  5-C ) :   1.3710 B(  4-C , 18-H ) :   0.9492 B(  5-C , 19-H ) :   0.9505
B(  6-N ,  7-C ) :   1.0646 B(  6-N , 11-C ) :   0.1491 B(  6-N , 12-N ) :   1.2650
B(  7-C ,  8-O ) :   1.8347 B(  7-C ,  9-C ) :   1.0074 B(  9-C , 10-C ) :   1.2518
B(  9-C , 13-N ) :   0.1415 B(  9-C , 14-Cl) :   1.0510 B( 10-C , 11-C ) :   0.9562
B( 10-C , 13-N ) :   1.0456 B( 11-C , 12-N ) :   1.6236 B( 11-C , 20-H ) :   0.9698
B( 13-N , 21-H ) :   0.8975 B( 13-N , 22-H ) :   0.8927

Dispersion correction           -0.010497025
FINAL SINGLE POINT ENERGY     -1085.405982150203

DIPOLE MOMENT
-------------

Method             : SCF
Type of density    : Electron Density
Multiplicity       :   1
Irrep              :   0
Energy             : -1085.4113334832247801 Eh
Relativity type    :
Basis              : AO
                                X                 Y                 Z
Electronic contribution:    -13.139003571      -4.078347746       1.363386841
Nuclear contribution   :     11.763697273       6.926025930      -1.943927419
                        -----------------------------------------
Total Dipole Moment    :     -1.375306297       2.847678185      -0.580540578
                        -----------------------------------------
Magnitude (a.u.)       :      3.215239621
Magnitude (Debye)      :      8.172489638

Rotational constants in cm-1:             0.043603             0.010492             0.009274
Rotational constants in MHz :          1307.180103           314.540006           278.026344

                             ****ORCA TERMINATED NORMALLY****
TOTAL RUN TIME: 0 days 0 hours 1 minutes 7 seconds 982 msec
