                         Program Version 6.0.0  -   RELEASE  -
|  1> ! pbe def2-sv(p) def2/J RI DEFGRID1 loosescf d4 GCP(DFT/SV(P)) printgap
|  2> %output
|  3>     printlevel normal
|  4> end
|  5> * xyz 0 1
|  6> C -2.109580329 -1.3452407163 -0.103430259
|  7> C -1.014889583 -0.503642737 0.5739505833
|  8> H -1.4204129947 -0.1165154625 1.5173362119
|  9> C -0.6128163799 0.6874347749 -0.3028213944
| 10> H -0.4899709911 0.3534070895 -1.3475597796
| 11> C 0.733593888 1.233049049 0.1943349818
| 12> H 0.6831274948 1.4131281554 1.2738116809
| 13> C 1.81728414 0.1816284483 -0.0681112921
| 14> H 2.1476133253 0.2654833363 -1.114193538
| 15> C 1.2252917771 -1.2449138507 0.0894195263
| 16> H 1.9613777928 -1.873926809 0.6109145605
| 17> O 0.1083318531 -1.3019392226 0.9367586204
| 18> O 0.9541605122 -1.729308239 -1.1904927427
| 19> O 2.877682098 0.4191206405 0.8178753687
| 20> O 1.0057201255 2.4825053947 -0.3827016301
| 21> O -1.6228838676 1.6631126665 -0.2433013302
| 22> O -3.3567888116 -0.6989867011 -0.0794257908
| 23> H -2.2342977115 -2.2804088569 0.4474883373
| 24> H -1.8122135726 -1.5729157497 -1.1370252326
| 25> H 0.743236751 -2.6747969711 -1.1547848054
| 26> H 3.6642932182 -0.0767785153 0.5484845611
| 27> H 1.2688368617 2.3725253364 -1.3091166028
| 28> H -1.2034748075 2.5381697439 -0.305048859
| 29> H -3.2352913732 0.2234760061 -0.3557427977
| 30> *
| 31>
| 32>                          ****END OF INPUT****

CARTESIAN COORDINATES (ANGSTROEM)
---------------------------------
  C     -2.109580   -1.345241   -0.103430
  C     -1.014890   -0.503643    0.573951
  H     -1.420413   -0.116515    1.517336
  C     -0.612816    0.687435   -0.302821
  H     -0.489971    0.353407   -1.347560
  C      0.733594    1.233049    0.194335
  H      0.683127    1.413128    1.273812
  C      1.817284    0.181628   -0.068111
  H      2.147613    0.265483   -1.114194
  C      1.225292   -1.244914    0.089420
  H      1.961378   -1.873927    0.610915
  O      0.108332   -1.301939    0.936759
  O      0.954161   -1.729308   -1.190493
  O      2.877682    0.419121    0.817875
  O      1.005720    2.482505   -0.382702
  O     -1.622884    1.663113   -0.243301
  O     -3.356789   -0.698987   -0.079426
  H     -2.234298   -2.280409    0.447488
  H     -1.812214   -1.572916   -1.137025
  H      0.743237   -2.674797   -1.154785
  H      3.664293   -0.076779    0.548485
  H      1.268837    2.372525   -1.309117
  H     -1.203475    2.538170   -0.305049
  H     -3.235291    0.223476   -0.355743

 Total Charge           Charge          ....    0
 Multiplicity           Mult            ....    1
 Number of Electrons    NEL             ....   96
 Basis Dimension        Dim             ....  192

ORBITAL ENERGIES
----------------

  NO   OCC          E(Eh)            E(eV)
   0   2.0000     -18.775942      -510.9193
   1   2.0000     -18.771525      -510.7992
   2   2.0000     -18.771030      -510.7857
   3   2.0000     -18.763905      -510.5918
   4   2.0000     -18.759927      -510.4836
   5   2.0000     -18.730526      -509.6835
   6   2.0000      -9.994256      -271.9575
   7   2.0000      -9.955386      -270.8998
   8   2.0000      -9.951582      -270.7963
   9   2.0000      -9.945037      -270.6182
  10   2.0000      -9.939996      -270.4810
  11   2.0000      -9.920282      -269.9446
  12   2.0000      -0.987873       -26.8814
  13   2.0000      -0.959172       -26.1004
  14   2.0000      -0.940725       -25.5984
  15   2.0000      -0.928631       -25.2693
  16   2.0000      -0.919330       -25.0162
  17   2.0000      -0.905818       -24.6486
  18   2.0000      -0.711333       -19.3564
  19   2.0000      -0.694988       -18.9116
  20   2.0000      -0.615686       -16.7537
  21   2.0000      -0.595541       -16.2055
  22   2.0000      -0.570066       -15.5123
  23   2.0000      -0.534358       -14.5406
  24   2.0000      -0.519746       -14.1430
  25   2.0000      -0.486389       -13.2353
  26   2.0000      -0.473744       -12.8912
  27   2.0000      -0.461386       -12.5550
  28   2.0000      -0.449395       -12.2287
  29   2.0000      -0.432512       -11.7692
  30   2.0000      -0.421648       -11.4736
  31   2.0000      -0.402531       -10.9534
  32   2.0000      -0.391244       -10.6463
  33   2.0000      -0.371051       -10.0968
  34   2.0000      -0.367620       -10.0035
  35   2.0000      -0.353680        -9.6241
  36   2.0000      -0.331613        -9.0236
  37   2.0000      -0.322793        -8.7836
  38   2.0000      -0.312575        -8.5056
  39   2.0000      -0.293636        -7.9903
  40   2.0000      -0.284837        -7.7508
  41   2.0000      -0.272280        -7.4091
  42   2.0000      -0.262862        -7.1529
  43   2.0000      -0.243273        -6.6198
  44   2.0000      -0.239653        -6.5213
  45   2.0000      -0.224316        -6.1039
  46   2.0000      -0.222852        -6.0641
  47   2.0000      -0.198133        -5.3915
  48   0.0000       0.008839         0.2405
  49   0.0000       0.015006         0.4083
  50   0.0000       0.021311         0.5799
  51   0.0000       0.039184         1.0662
  52   0.0000       0.055613         1.5133

MULLIKEN ATOMIC CHARGES
-----------------------
   0 C :    0.086633
   1 C :    0.043581
   2 H :    0.078750
   3 C :    0.001162
   4 H :    0.058400
   5 C :    0.051726
   6 H :    0.083339
   7 C :    0.063251
   8 H :    0.053024
   9 C :    0.160102
  10 H :    0.051581
  11 O :   -0.311671
  12 O :   -0.397016
  13 O :   -0.399637
  14 O :   -0.413156
  15 O :   -0.425535
  16 O :   -0.448073
  17 H :    0.080911
  18 H :    0.055821
  19 H :    0.309167
  20 H :    0.304306
  21 H :    0.302187
  22 H :    0.306116
  23 H :    0.305030
Sum of atomic charges:    0.0000000

LOEWDIN ATOMIC CHARGES
----------------------
   0 C :   -0.129076
   1 C :   -0.067856
   2 H :    0.120464
   3 C :   -0.088254
   4 H :    0.100375
   5 C :   -0.071085
   6 H :    0.129892
   7 C :   -0.081878
   8 H :    0.102737
   9 C :   -0.010737
  10 H :    0.096761
  11 O :   -0.140175
  12 O :   -0.312285
  13 O :   -0.308343
  14 O :   -0.301570
  15 O :   -0.320668
  16 O :   -0.341267
  17 H :    0.109724
  18 H :    0.090151
  19 H :    0.288959
  20 H :    0.288542
  21 H :    0.286302
  22 H :    0.282820
  23 H :    0.276467

  Mayer bond orders larger than 0.100000
B(  0-C ,  1-C ) :   1.0591 B(  0-C , 16-O ) :   1.0848 B(  0-C , 17-H ) :   0.9195
B(  0-C , 18-H ) :   0.9031 B(  1-C ,  2-H ) :   0.8810 B(  1-C ,  3-C ) :   0.9763
B(  1-C , 11-O ) :   0.9554 B(  3-C ,  4-H ) :   0.8711 B(  3-C ,  5-C ) :   1.0259
B(  3-C , 15-O ) :   1.0627 B(  5-C ,  6-H ) :   0.8503 B(  5-C ,  7-C ) :   1.0295
B(  5-C , 14-O ) :   1.0299 B(  7-C ,  8-H ) :   0.8728 B(  7-C ,  9-C ) :   0.9749
B(  7-C , 13-O ) :   1.1111 B(  9-C , 10-H ) :   0.8970 B(  9-C , 11-O ) :   1.1002
B(  9-C , 12-O ) :   1.0932 B( 12-O , 19-H ) :   0.8338 B( 13-O , 20-H ) :   0.8459
B( 14-O , 21-H ) :   0.8447 B( 15-O , 22-H ) :   0.8122 B( 16-O , 23-H ) :   0.8253

Dispersion correction           -0.024572194
FINAL SINGLE POINT ENERGY      -685.691870167581

DIPOLE MOMENT
-------------

Method             : SCF
Type of density    : Electron Density
Multiplicity       :   1
Irrep              :   0
Energy             :  -685.8229863480327140 Eh
Relativity type    :
Basis              : AO
                                X                 Y                 Z
Electronic contribution:      1.384209817       1.032988868       1.247870188
Nuclear contribution   :      0.067820889      -1.328425594      -2.183747916
                        -----------------------------------------
Total Dipole Moment    :      1.452030706      -0.295436726      -0.935877728
                        -----------------------------------------
Magnitude (a.u.)       :      1.752581853
Magnitude (Debye)      :      4.454709049

Rotational constants in cm-1:             0.043992             0.025923             0.018766
Rotational constants in MHz :          1318.860960           777.159928           562.583280

                             ****ORCA TERMINATED NORMALLY****
TOTAL RUN TIME: 0 days 0 hours 0 minutes 12 seconds 128 msec
