                         Program Version 6.0.0  -   RELEASE  -
|  1> ! r2scan-3c def2/J RI DEFGRID2 scfconv6 printgap
|  2> %output
|  3>     printlevel normal
|  4> end
|  5> %cpcm
|  6>     smd true
|  7>     smdsolvent "water"
|  8> end
|  9> * xyz 0 1
| 10> C 0.8297868112 -1.8408501212 -8.22959e-05
| 11> C 1.8594377851 -0.9179915154 -2.22194e-05
| 12> C 1.5723691148 0.4436749179 6.1499e-06
| 13> C 0.2449698135 0.8685903131 1.49258e-05
| 14> C -0.7634249379 -0.0741191009 5.17993e-05
| 15> C -0.4929259879 -1.4318404447 8.58825e-05
| 16> Cl -2.4182745797 0.4672572694 -4.39209e-05
| 17> O 2.534868361 1.3940290271 2.88759e-05
| 18> H 1.0581163789 -2.8946319317 -0.0001194932
| 19> H 2.8849043397 -1.2545104341 0.0003901569
| 20> H 0.02961347 1.924273026 -6.12235e-05
| 21> H -1.2977434984 -2.1475671729 0.0003596563
| 22> H 3.4178357452 0.9921305407 -0.0001289536
| 23> *
| 24>
| 25>                          ****END OF INPUT****

CARTESIAN COORDINATES (ANGSTROEM)
---------------------------------
  C      0.829787   -1.840850   -0.000082
  C      1.859438   -0.917992   -0.000022
  C      1.572369    0.443675    0.000006
  C      0.244970    0.868590    0.000015
  C     -0.763425   -0.074119    0.000052
  C     -0.492926   -1.431840    0.000086
  Cl    -2.418275    0.467257   -0.000044
  O      2.534868    1.394029    0.000029
  H      1.058116   -2.894632   -0.000119
  H      2.884904   -1.254510    0.000390
  H      0.029613    1.924273   -0.000061
  H     -1.297743   -2.147567    0.000360
  H      3.417836    0.992131   -0.000129

 Total Charge           Charge          ....    0
 Multiplicity           Mult            ....    1
 Number of Electrons    NEL             ....   66
 Basis Dimension        Dim             ....  190

ORBITAL ENERGIES
----------------

  NO   OCC          E(Eh)            E(eV)
   0   2.0000    -101.223307     -2754.4262
   1   2.0000     -18.988688      -516.7085
   2   2.0000     -10.107541      -275.0402
   3   2.0000     -10.103009      -274.9168
   4   2.0000     -10.044235      -273.3175
   5   2.0000     -10.041925      -273.2547
   6   2.0000     -10.038122      -273.1512
   7   2.0000     -10.036001      -273.0935
   8   2.0000      -9.379370      -255.2256
   9   2.0000      -7.125405      -193.8921
  10   2.0000      -7.115728      -193.6288
  11   2.0000      -7.115242      -193.6156
  12   2.0000      -1.034544       -28.1514
  13   2.0000      -0.862454       -23.4686
  14   2.0000      -0.803987       -21.8776
  15   2.0000      -0.725615       -19.7450
  16   2.0000      -0.702232       -19.1087
  17   2.0000      -0.594721       -16.1832
  18   2.0000      -0.586030       -15.9467
  19   2.0000      -0.512179       -13.9371
  20   2.0000      -0.475377       -12.9357
  21   2.0000      -0.453060       -12.3284
  22   2.0000      -0.420063       -11.4305
  23   2.0000      -0.402484       -10.9521
  24   2.0000      -0.397558       -10.8181
  25   2.0000      -0.372425       -10.1342
  26   2.0000      -0.352903        -9.6030
  27   2.0000      -0.344480        -9.3738
  28   2.0000      -0.319969        -8.7068
  29   2.0000      -0.299943        -8.1619
  30   2.0000      -0.290624        -7.9083
  31   2.0000      -0.237054        -6.4506
  32   2.0000      -0.214690        -5.8420
  33   0.0000      -0.042797        -1.1646
  34   0.0000      -0.027456        -0.7471
  35   0.0000       0.008119         0.2209
  36   0.0000       0.082030         2.2321
  37   0.0000       0.109745         2.9863

MULLIKEN ATOMIC CHARGES
-----------------------
   0 C :   -0.135226
   1 C :   -0.333223
   2 C :    0.385623
   3 C :   -0.395363
   4 C :    0.228863
   5 C :   -0.281118
   6 Cl:   -0.170501
   7 O :   -0.446272
   8 H :    0.189369
   9 H :    0.190399
  10 H :    0.199135
  11 H :    0.193028
  12 H :    0.375286
Sum of atomic charges:   -0.0000000

LOEWDIN ATOMIC CHARGES
----------------------
   0 C :   -0.146211
   1 C :   -0.166949
   2 C :    0.182058
   3 C :   -0.166555
   4 C :   -0.167971
   5 C :   -0.210853
   6 Cl:    0.106074
   7 O :   -0.498547
   8 H :    0.184429
   9 H :    0.189278
  10 H :    0.198135
  11 H :    0.186871
  12 H :    0.310242

  Mayer bond orders larger than 0.100000
B(  0-C ,  1-C ) :   1.3882 B(  0-C ,  5-C ) :   1.3943 B(  0-C ,  8-H ) :   0.9500
B(  1-C ,  2-C ) :   1.3445 B(  1-C ,  9-H ) :   0.9451 B(  2-C ,  3-C ) :   1.3957
B(  2-C ,  7-O ) :   0.9303 B(  3-C ,  4-C ) :   1.3707 B(  3-C , 10-H ) :   0.9317
B(  4-C ,  5-C ) :   1.3434 B(  4-C ,  6-Cl) :   0.8844 B(  5-C , 11-H ) :   0.9466
B(  7-O , 12-H ) :   0.8485

Dispersion correction           -0.004471660
FINAL SINGLE POINT ENERGY      -766.990899809059

DIPOLE MOMENT
-------------

Method             : SCF
Type of density    : Electron Density
Multiplicity       :   1
Irrep              :   0
Energy             :  -766.9914397174893566 Eh
Relativity type    :
Basis              : AO
                                X                 Y                 Z
Electronic contribution:     -7.476642646       3.011424256      -0.000355514
Nuclear contribution   :      8.999366227      -3.777823173       0.000472309
                        -----------------------------------------
Total Dipole Moment    :      1.522723581      -0.766398917       0.000116795
                        -----------------------------------------
Magnitude (a.u.)       :      1.704715349
Magnitude (Debye)      :      4.333042064

Rotational constants in cm-1:             0.116139             0.039826             0.029656
Rotational constants in MHz :          3481.750852          1193.946955           889.070682

                             ****ORCA TERMINATED NORMALLY****
TOTAL RUN TIME: 0 days 0 hours 0 minutes 24 seconds 668 msec
