                         Program Version 6.0.0  -   RELEASE  -
|  1> ! pbe def2-sv(p) def2/J RI DEFGRID1 loosescf d4 GCP(DFT/SV(P)) printgap
|  2> %output
|  3>     printlevel normal
|  4> end
|  5> * xyz 0 1
|  6> C -2.4648940618 -0.8543620645 -0.0850106129
|  7> C -1.0974629786 -0.5637614034 0.5526421808
|  8> H -1.0973195796 -0.9173496172 1.59772568
|  9> C -0.7524707209 0.9458185735 0.5541757978
| 10> H -1.6259387367 1.5078797928 0.2038638707
| 11> C 0.3997036159 1.2228148999 -0.4284450324
| 12> H 0.6873612176 2.27942314 -0.3165010003
| 13> C 1.6242449086 0.3693262749 -0.0416449682
| 14> H 2.3332563288 0.3305733253 -0.8761225564
| 15> C 1.1821906796 -1.0879201606 0.2402761449
| 16> H 1.2569363058 -1.2685108556 1.3353805814
| 17> O -0.1438770442 -1.3254680677 -0.1692669208
| 18> O 2.0048271562 -1.9445400099 -0.464020036
| 19> O 2.3241638475 0.9316002864 1.0340398505
| 20> O -0.0670629329 0.9632069907 -1.7248216242
| 21> O -0.3343713109 1.3857667544 1.8270869192
| 22> O -2.7422792759 -0.0588239646 -1.2066569765
| 23> H -3.2610945824 -0.6487331359 0.6330565747
| 24> H -2.4838165763 -1.9195678034 -0.3497830549
| 25> H 1.6267540788 -2.8383239372 -0.4564966349
| 26> H 1.6876895135 1.1664686881 1.7315610739
| 27> H 0.6220354587 1.172817358 -2.370679643
| 28> H -1.1008521297 1.5725771848 2.3862955481
| 29> H -1.9641143216 -0.0515465264 -1.7868148039
| 30> *
| 31>
| 32>                          ****END OF INPUT****

CARTESIAN COORDINATES (ANGSTROEM)
---------------------------------
  C     -2.464894   -0.854362   -0.085011
  C     -1.097463   -0.563761    0.552642
  H     -1.097320   -0.917350    1.597726
  C     -0.752471    0.945819    0.554176
  H     -1.625939    1.507880    0.203864
  C      0.399704    1.222815   -0.428445
  H      0.687361    2.279423   -0.316501
  C      1.624245    0.369326   -0.041645
  H      2.333256    0.330573   -0.876123
  C      1.182191   -1.087920    0.240276
  H      1.256936   -1.268511    1.335381
  O     -0.143877   -1.325468   -0.169267
  O      2.004827   -1.944540   -0.464020
  O      2.324164    0.931600    1.034040
  O     -0.067063    0.963207   -1.724822
  O     -0.334371    1.385767    1.827087
  O     -2.742279   -0.058824   -1.206657
  H     -3.261095   -0.648733    0.633057
  H     -2.483817   -1.919568   -0.349783
  H      1.626754   -2.838324   -0.456497
  H      1.687690    1.166469    1.731561
  H      0.622035    1.172817   -2.370680
  H     -1.100852    1.572577    2.386296
  H     -1.964114   -0.051547   -1.786815

 Total Charge           Charge          ....    0
 Multiplicity           Mult            ....    1
 Number of Electrons    NEL             ....   96
 Basis Dimension        Dim             ....  192

ORBITAL ENERGIES
----------------

  NO   OCC          E(Eh)            E(eV)
   0   2.0000     -18.779719      -511.0221
   1   2.0000     -18.770453      -510.7700
   2   2.0000     -18.766125      -510.6522
   3   2.0000     -18.755689      -510.3683
   4   2.0000     -18.737705      -509.8789
   5   2.0000     -18.737558      -509.8749
   6   2.0000      -9.980206      -271.5752
   7   2.0000      -9.952852      -270.8309
   8   2.0000      -9.950073      -270.7553
   9   2.0000      -9.945893      -270.6415
  10   2.0000      -9.934668      -270.3361
  11   2.0000      -9.931854      -270.2595
  12   2.0000      -0.982976       -26.7481
  13   2.0000      -0.955881       -26.0109
  14   2.0000      -0.943467       -25.6730
  15   2.0000      -0.921949       -25.0875
  16   2.0000      -0.914959       -24.8973
  17   2.0000      -0.907137       -24.6844
  18   2.0000      -0.703858       -19.1529
  19   2.0000      -0.684542       -18.6273
  20   2.0000      -0.624482       -16.9930
  21   2.0000      -0.582376       -15.8472
  22   2.0000      -0.564322       -15.3560
  23   2.0000      -0.528112       -14.3707
  24   2.0000      -0.504425       -13.7261
  25   2.0000      -0.493406       -13.4263
  26   2.0000      -0.476087       -12.9550
  27   2.0000      -0.466573       -12.6961
  28   2.0000      -0.452304       -12.3078
  29   2.0000      -0.443067       -12.0565
  30   2.0000      -0.405632       -11.0378
  31   2.0000      -0.394303       -10.7295
  32   2.0000      -0.386611       -10.5202
  33   2.0000      -0.369431       -10.0527
  34   2.0000      -0.360554        -9.8112
  35   2.0000      -0.354870        -9.6565
  36   2.0000      -0.327121        -8.9014
  37   2.0000      -0.322586        -8.7780
  38   2.0000      -0.316636        -8.6161
  39   2.0000      -0.302320        -8.2266
  40   2.0000      -0.274952        -7.4818
  41   2.0000      -0.267156        -7.2697
  42   2.0000      -0.256605        -6.9826
  43   2.0000      -0.241887        -6.5821
  44   2.0000      -0.234946        -6.3932
  45   2.0000      -0.225344        -6.1319
  46   2.0000      -0.210033        -5.7153
  47   2.0000      -0.195467        -5.3189
  48   0.0000      -0.001733        -0.0472
  49   0.0000       0.019176         0.5218
  50   0.0000       0.036643         0.9971
  51   0.0000       0.053084         1.4445
  52   0.0000       0.069721         1.8972

MULLIKEN ATOMIC CHARGES
-----------------------
   0 C :    0.092394
   1 C :    0.009189
   2 H :    0.046721
   3 C :   -0.017118
   4 H :    0.095594
   5 C :    0.039235
   6 H :    0.079123
   7 C :    0.042020
   8 H :    0.066357
   9 C :    0.217741
  10 H :    0.030526
  11 O :   -0.305461
  12 O :   -0.383945
  13 O :   -0.427867
  14 O :   -0.414580
  15 O :   -0.427719
  16 O :   -0.444054
  17 H :    0.076543
  18 H :    0.080532
  19 H :    0.301590
  20 H :    0.304440
  21 H :    0.313308
  22 H :    0.317980
  23 H :    0.307454
Sum of atomic charges:    0.0000000

LOEWDIN ATOMIC CHARGES
----------------------
   0 C :   -0.120539
   1 C :   -0.080293
   2 H :    0.100290
   3 C :   -0.076025
   4 H :    0.118241
   5 C :   -0.072840
   6 H :    0.107735
   7 C :   -0.084650
   8 H :    0.116319
   9 C :    0.003292
  10 H :    0.076297
  11 O :   -0.159045
  12 O :   -0.295559
  13 O :   -0.315922
  14 O :   -0.305490
  15 O :   -0.313291
  16 O :   -0.338957
  17 H :    0.109796
  18 H :    0.103853
  19 H :    0.286173
  20 H :    0.273141
  21 H :    0.293911
  22 H :    0.297301
  23 H :    0.276260

  Mayer bond orders larger than 0.100000
B(  0-C ,  1-C ) :   1.0368 B(  0-C , 16-O ) :   1.0950 B(  0-C , 17-H ) :   0.9225
B(  0-C , 18-H ) :   0.9110 B(  1-C ,  2-H ) :   0.8781 B(  1-C ,  3-C ) :   0.9649
B(  1-C , 11-O ) :   1.0102 B(  3-C ,  4-H ) :   0.8910 B(  3-C ,  5-C ) :   1.0265
B(  3-C , 15-O ) :   1.0346 B(  5-C ,  6-H ) :   0.8989 B(  5-C ,  7-C ) :   0.9808
B(  5-C , 14-O ) :   1.0346 B(  7-C ,  8-H ) :   0.8873 B(  7-C ,  9-C ) :   0.9486
B(  7-C , 13-O ) :   1.0665 B(  9-C , 10-H ) :   0.8834 B(  9-C , 11-O ) :   1.0378
B(  9-C , 12-O ) :   1.1641 B( 12-O , 19-H ) :   0.8403 B( 13-O , 20-H ) :   0.8167
B( 14-O , 21-H ) :   0.8391 B( 15-O , 22-H ) :   0.8417 B( 16-O , 23-H ) :   0.8119

Dispersion correction           -0.025328441
FINAL SINGLE POINT ENERGY      -685.690960836294

DIPOLE MOMENT
-------------

Method             : SCF
Type of density    : Electron Density
Multiplicity       :   1
Irrep              :   0
Energy             :  -685.8228175616250155 Eh
Relativity type    :
Basis              : AO
                                X                 Y                 Z
Electronic contribution:      2.586753640      -0.305793919      -1.155195747
Nuclear contribution   :     -3.098455457       0.361144439       1.614004032
                        -----------------------------------------
Total Dipole Moment    :     -0.511701817       0.055350520       0.458808285
                        -----------------------------------------
Magnitude (a.u.)       :      0.689497986
Magnitude (Debye)      :      1.752564601

Rotational constants in cm-1:             0.042061             0.027417             0.023305
Rotational constants in MHz :          1260.957118           821.927941           698.673422

                             ****ORCA TERMINATED NORMALLY****
TOTAL RUN TIME: 0 days 0 hours 0 minutes 12 seconds 53 msec
