                         Program Version 6.0.0  -   RELEASE  -
|  1> ! pbe def2-sv(p) def2/J RI DEFGRID1 loosescf d4 GCP(DFT/SV(P)) printgap
|  2> %output
|  3>     printlevel normal
|  4> end
|  5> * xyz 0 1
|  6> C -2.5198819235 -0.6532006862 -0.076636007
|  7> C -1.1696979843 -0.4517348109 0.6277050658
|  8> H -1.2469590999 -0.7775012124 1.6773207388
|  9> C -0.7099059028 1.0314758038 0.6493100569
| 10> H -1.5730093155 1.6703550539 0.4279121247
| 11> C 0.372566985 1.2746197198 -0.40737755
| 12> H 0.7624466775 2.2943998301 -0.2796659316
| 13> C 1.5667504678 0.3223993837 -0.1511318206
| 14> H 2.1112533051 0.2078163995 -1.0961096739
| 15> C 1.0817920436 -1.0767303167 0.2908298026
| 16> H 1.1686660928 -1.1450536921 1.3972211135
| 17> O -0.2596160237 -1.2947041966 -0.0656670406
| 18> O 1.8605400221 -2.0330140749 -0.3316375301
| 19> O 2.3663725057 0.9131848168 0.8466952309
| 20> O -0.1055862402 1.1794615227 -1.7196234805
| 21> O -0.2680749581 1.4011547177 1.9357246966
| 22> O -2.4087086776 -0.4409020776 -1.465099319
| 23> H -3.2437306907 0.0699024406 0.3009985373
| 24> H -2.8812006085 -1.6647277015 0.1282931045
| 25> H 1.4524128672 -2.9074651573 -0.2308769673
| 26> H 3.2381489788 0.4938651397 0.8677963594
| 27> H -0.9335693499 0.6545552469 -1.7435458968
| 28> H 0.70028278 1.336898063 1.9799362375
| 29> H -1.9383483296 -1.1953625588 -1.8511618257
| 30> *
| 31>
| 32>                          ****END OF INPUT****

CARTESIAN COORDINATES (ANGSTROEM)
---------------------------------
  C     -2.519882   -0.653201   -0.076636
  C     -1.169698   -0.451735    0.627705
  H     -1.246959   -0.777501    1.677321
  C     -0.709906    1.031476    0.649310
  H     -1.573009    1.670355    0.427912
  C      0.372567    1.274620   -0.407378
  H      0.762447    2.294400   -0.279666
  C      1.566750    0.322399   -0.151132
  H      2.111253    0.207816   -1.096110
  C      1.081792   -1.076730    0.290830
  H      1.168666   -1.145054    1.397221
  O     -0.259616   -1.294704   -0.065667
  O      1.860540   -2.033014   -0.331638
  O      2.366373    0.913185    0.846695
  O     -0.105586    1.179462   -1.719623
  O     -0.268075    1.401155    1.935725
  O     -2.408709   -0.440902   -1.465099
  H     -3.243731    0.069902    0.300999
  H     -2.881201   -1.664728    0.128293
  H      1.452413   -2.907465   -0.230877
  H      3.238149    0.493865    0.867796
  H     -0.933569    0.654555   -1.743546
  H      0.700283    1.336898    1.979936
  H     -1.938348   -1.195363   -1.851162

 Total Charge           Charge          ....    0
 Multiplicity           Mult            ....    1
 Number of Electrons    NEL             ....   96
 Basis Dimension        Dim             ....  192

ORBITAL ENERGIES
----------------

  NO   OCC          E(Eh)            E(eV)
   0   2.0000     -18.781247      -511.0637
   1   2.0000     -18.780192      -511.0350
   2   2.0000     -18.772617      -510.8289
   3   2.0000     -18.768726      -510.7230
   4   2.0000     -18.739974      -509.9406
   5   2.0000     -18.730527      -509.6835
   6   2.0000      -9.991474      -271.8818
   7   2.0000      -9.949680      -270.7446
   8   2.0000      -9.948170      -270.7035
   9   2.0000      -9.940645      -270.4987
  10   2.0000      -9.940248      -270.4879
  11   2.0000      -9.937138      -270.4033
  12   2.0000      -0.993848       -27.0440
  13   2.0000      -0.955804       -26.0088
  14   2.0000      -0.946844       -25.7649
  15   2.0000      -0.928183       -25.2571
  16   2.0000      -0.914647       -24.8888
  17   2.0000      -0.906224       -24.6596
  18   2.0000      -0.702809       -19.1244
  19   2.0000      -0.688670       -18.7397
  20   2.0000      -0.623327       -16.9616
  21   2.0000      -0.595472       -16.2036
  22   2.0000      -0.572107       -15.5678
  23   2.0000      -0.518810       -14.1175
  24   2.0000      -0.509191       -13.8558
  25   2.0000      -0.495463       -13.4822
  26   2.0000      -0.485635       -13.2148
  27   2.0000      -0.470129       -12.7929
  28   2.0000      -0.459490       -12.5034
  29   2.0000      -0.430590       -11.7170
  30   2.0000      -0.414991       -11.2925
  31   2.0000      -0.402365       -10.9489
  32   2.0000      -0.391657       -10.6575
  33   2.0000      -0.379834       -10.3358
  34   2.0000      -0.357916        -9.7394
  35   2.0000      -0.356191        -9.6924
  36   2.0000      -0.330138        -8.9835
  37   2.0000      -0.319587        -8.6964
  38   2.0000      -0.315276        -8.5791
  39   2.0000      -0.304048        -8.2736
  40   2.0000      -0.295084        -8.0296
  41   2.0000      -0.264150        -7.1879
  42   2.0000      -0.259224        -7.0538
  43   2.0000      -0.246979        -6.7206
  44   2.0000      -0.243591        -6.6284
  45   2.0000      -0.232484        -6.3262
  46   2.0000      -0.207653        -5.6505
  47   2.0000      -0.199813        -5.4372
  48   0.0000       0.010135         0.2758
  49   0.0000       0.018442         0.5018
  50   0.0000       0.031825         0.8660
  51   0.0000       0.052765         1.4358
  52   0.0000       0.059546         1.6203

MULLIKEN ATOMIC CHARGES
-----------------------
   0 C :    0.052455
   1 C :    0.026002
   2 H :    0.070717
   3 C :   -0.016656
   4 H :    0.082421
   5 C :    0.059302
   6 H :    0.081869
   7 C :    0.021863
   8 H :    0.080625
   9 C :    0.198879
  10 H :    0.029850
  11 O :   -0.328009
  12 O :   -0.384037
  13 O :   -0.421204
  14 O :   -0.427802
  15 O :   -0.427702
  16 O :   -0.430292
  17 H :    0.107200
  18 H :    0.092123
  19 H :    0.303363
  20 H :    0.315678
  21 H :    0.286790
  22 H :    0.307764
  23 H :    0.318802
Sum of atomic charges:    0.0000000

LOEWDIN ATOMIC CHARGES
----------------------
   0 C :   -0.123117
   1 C :   -0.081653
   2 H :    0.111815
   3 C :   -0.074556
   4 H :    0.115568
   5 C :   -0.066537
   6 H :    0.115881
   7 C :   -0.089330
   8 H :    0.119783
   9 C :   -0.004955
  10 H :    0.075164
  11 O :   -0.166697
  12 O :   -0.299194
  13 O :   -0.311960
  14 O :   -0.329877
  15 O :   -0.325018
  16 O :   -0.310442
  17 H :    0.123202
  18 H :    0.108806
  19 H :    0.287185
  20 H :    0.296743
  21 H :    0.261928
  22 H :    0.275155
  23 H :    0.292106

  Mayer bond orders larger than 0.100000
B(  0-C ,  1-C ) :   1.0278 B(  0-C , 16-O ) :   1.0340 B(  0-C , 17-H ) :   0.9240
B(  0-C , 18-H ) :   0.9239 B(  1-C ,  2-H ) :   0.8799 B(  1-C ,  3-C ) :   0.9341
B(  1-C , 11-O ) :   0.9850 B(  3-C ,  4-H ) :   0.9001 B(  3-C ,  5-C ) :   1.0420
B(  3-C , 15-O ) :   1.0778 B(  5-C ,  6-H ) :   0.8960 B(  5-C ,  7-C ) :   0.9552
B(  5-C , 14-O ) :   1.1123 B(  7-C ,  8-H ) :   0.8770 B(  7-C ,  9-C ) :   0.9814
B(  7-C , 13-O ) :   1.0282 B(  9-C , 10-H ) :   0.8790 B(  9-C , 11-O ) :   1.0399
B(  9-C , 12-O ) :   1.1627 B( 12-O , 19-H ) :   0.8390 B( 13-O , 20-H ) :   0.8415
B( 14-O , 21-H ) :   0.7789 B( 15-O , 22-H ) :   0.8119 B( 16-O , 21-H ) :   0.1610
B( 16-O , 23-H ) :   0.8259

Dispersion correction           -0.025439352
FINAL SINGLE POINT ENERGY      -685.696535278128

DIPOLE MOMENT
-------------

Method             : SCF
Type of density    : Electron Density
Multiplicity       :   1
Irrep              :   0
Energy             :  -685.8303742615096326 Eh
Relativity type    :
Basis              : AO
                                X                 Y                 Z
Electronic contribution:      2.389796625      -0.509598637      -1.087251829
Nuclear contribution   :     -2.218674487      -0.906889439       1.468697298
                        -----------------------------------------
Total Dipole Moment    :      0.171122138      -1.416488076       0.381445469
                        -----------------------------------------
Magnitude (a.u.)       :      1.476896036
Magnitude (Debye)      :      3.753971391

Rotational constants in cm-1:             0.040948             0.028016             0.023812
Rotational constants in MHz :          1227.585333           839.899353           713.879533

                             ****ORCA TERMINATED NORMALLY****
TOTAL RUN TIME: 0 days 0 hours 0 minutes 12 seconds 75 msec
