                         Program Version 6.0.0  -   RELEASE  -
|  1> ! wb97x-v def2-tzvp def2/J RIJCOSX DEFGRID2 scfconv7 GCP(DFT/TZ) printgap
|  2> %output
|  3>     printlevel normal
|  4> end
|  5> * xyz 0 1
|  6> C -1.8143790051457993 -0.02013698522800002 -0.9850093502425834
|  7> C -0.9614263816471299 0.32831002821768707 0.21653215281468657
|  8> H -1.059752731067432 1.3927717722135742 0.468487680235512
|  9> C 0.5202589994547865 0.09808455448232432 -0.07121951104917582
| 10> F 1.2887248855846534 0.37660604703384154 1.0128601411290612
| 11> F 0.7906800783361845 -1.1818387277162352 -0.42155155185900384
| 12> F 0.9579733582424875 0.890534317148406 -1.0798146362473557
| 13> O -1.353864320906863 -0.49677434105041685 1.3109160387779715
| 14> H -1.7328034931501484 -1.0848558650804558 -1.221125061023615
| 15> H -1.5134895409490947 0.5641496850774376 -1.8577152264345107
| 16> H -2.8570979135842607 0.21189369267634436 -0.7574489506038599
| 17> H -1.0216247450678448 -0.10248014626891593 2.1289284300936817
| 18> *
| 19>
| 20>                          ****END OF INPUT****

CARTESIAN COORDINATES (ANGSTROEM)
---------------------------------
  C     -1.814379   -0.020137   -0.985009
  C     -0.961426    0.328310    0.216532
  H     -1.059753    1.392772    0.468488
  C      0.520259    0.098085   -0.071220
  F      1.288725    0.376606    1.012860
  F      0.790680   -1.181839   -0.421552
  F      0.957973    0.890534   -1.079815
  O     -1.353864   -0.496774    1.310916
  H     -1.732803   -1.084856   -1.221125
  H     -1.513490    0.564150   -1.857715
  H     -2.857098    0.211894   -0.757449
  H     -1.021625   -0.102480    2.128928

 Total Charge           Charge          ....    0
 Multiplicity           Mult            ....    1
 Number of Electrons    NEL             ....   58
 Basis Dimension        Dim             ....  247

ORBITAL ENERGIES
----------------

  NO   OCC          E(Eh)            E(eV)
   0   2.0000     -27.600512      -751.0481
   1   2.0000     -27.600166      -751.0387
   2   2.0000     -27.595413      -750.9094
   3   2.0000     -21.699396      -590.4706
   4   2.0000     -12.297210      -334.6241
   5   2.0000     -12.137798      -330.2863
   6   2.0000     -12.057219      -328.0936
   7   2.0000      -2.058611       -56.0177
   8   2.0000      -2.012191       -54.7545
   9   2.0000      -2.008611       -54.6571
  10   2.0000      -1.704098       -46.3709
  11   2.0000      -1.394602       -37.9491
  12   2.0000      -1.304986       -35.5105
  13   2.0000      -1.255419       -34.1617
  14   2.0000      -1.253554       -34.1109
  15   2.0000      -1.203210       -32.7410
  16   2.0000      -1.163583       -31.6627
  17   2.0000      -1.163132       -31.6504
  18   2.0000      -1.151295       -31.3283
  19   2.0000      -1.148083       -31.2409
  20   2.0000      -1.145999       -31.1842
  21   2.0000      -1.144549       -31.1448
  22   2.0000      -1.076806       -29.3014
  23   2.0000      -0.996519       -27.1167
  24   2.0000      -0.967891       -26.3377
  25   2.0000      -0.886863       -24.1328
  26   2.0000      -0.868800       -23.6412
  27   2.0000      -0.838008       -22.8034
  28   2.0000      -0.814908       -22.1748
  29   0.0000      -0.276949        -7.5362
  30   0.0000      -0.264262        -7.1909
  31   0.0000      -0.231094        -6.2884
  32   0.0000      -0.119742        -3.2583
  33   0.0000      -0.063203        -1.7198

MULLIKEN ATOMIC CHARGES
-----------------------
   0 C :   -0.350294
   1 C :    0.052813
   2 H :    0.100773
   3 C :    0.422993
   4 F :   -0.174180
   5 F :   -0.159451
   6 F :   -0.166692
   7 O :   -0.432557
   8 H :    0.135587
   9 H :    0.128046
  10 H :    0.127467
  11 H :    0.315495
Sum of atomic charges:   -0.0000000

LOEWDIN ATOMIC CHARGES
----------------------
   0 C :   -0.267294
   1 C :   -0.353892
   2 H :    0.146429
   3 C :   -0.631425
   4 F :    0.170665
   5 F :    0.186470
   6 F :    0.179896
   7 O :    0.002621
   8 H :    0.131293
   9 H :    0.129499
  10 H :    0.128285
  11 H :    0.177452

  Mayer bond orders larger than 0.100000
B(  0-C ,  1-C ) :   0.9818 B(  0-C ,  8-H ) :   0.9699 B(  0-C ,  9-H ) :   0.9680
B(  0-C , 10-H ) :   0.9726 B(  1-C ,  2-H ) :   0.9503 B(  1-C ,  3-C ) :   0.9842
B(  1-C ,  7-O ) :   1.0567 B(  3-C ,  4-F ) :   1.1343 B(  3-C ,  5-F ) :   1.1525
B(  3-C ,  6-F ) :   1.1401 B(  7-O , 11-H ) :   0.8916

FINAL SINGLE POINT ENERGY      -492.139361058367

DIPOLE MOMENT
-------------

Method             : SCF
Type of density    : Electron Density
Multiplicity       :   1
Irrep              :   0
Energy             :  -492.1531767142668627 Eh
Relativity type    :
Basis              : AO
                                X                 Y                 Z
Electronic contribution:      9.921276889      -0.224999137       0.878106729
Nuclear contribution   :    -10.524867099       0.842159834      -0.696327220
                        -----------------------------------------
Total Dipole Moment    :     -0.603590210       0.617160697       0.181779509
                        -----------------------------------------
Magnitude (a.u.)       :      0.882186067
Magnitude (Debye)      :      2.242338782

Rotational constants in cm-1:             0.115964             0.079522             0.065107
Rotational constants in MHz :          3476.516900          2384.007454          1951.844860

                             ****ORCA TERMINATED NORMALLY****
TOTAL RUN TIME: 0 days 0 hours 1 minutes 18 seconds 257 msec
