                         Program Version 6.0.0  -   RELEASE  -
|  1> ! wb97x-v def2-tzvp def2/J RIJCOSX DEFGRID2 scfconv7 GCP(DFT/TZ) printgap
|  2> %output
|  3>     printlevel normal
|  4> end
|  5> %cpcm
|  6>     smd true
|  7>     smdsolvent "water"
|  8> end
|  9> * xyz 0 1
| 10> C -1.8143790051457993 -0.02013698522800002 -0.9850093502425834
| 11> C -0.9614263816471299 0.32831002821768707 0.21653215281468657
| 12> H -1.059752731067432 1.3927717722135742 0.468487680235512
| 13> C 0.5202589994547865 0.09808455448232432 -0.07121951104917582
| 14> F 1.2887248855846534 0.37660604703384154 1.0128601411290612
| 15> F 0.7906800783361845 -1.1818387277162352 -0.42155155185900384
| 16> F 0.9579733582424875 0.890534317148406 -1.0798146362473557
| 17> O -1.353864320906863 -0.49677434105041685 1.3109160387779715
| 18> H -1.7328034931501484 -1.0848558650804558 -1.221125061023615
| 19> H -1.5134895409490947 0.5641496850774376 -1.8577152264345107
| 20> H -2.8570979135842607 0.21189369267634436 -0.7574489506038599
| 21> H -1.0216247450678448 -0.10248014626891593 2.1289284300936817
| 22> *
| 23>
| 24>                          ****END OF INPUT****

CARTESIAN COORDINATES (ANGSTROEM)
---------------------------------
  C     -1.814379   -0.020137   -0.985009
  C     -0.961426    0.328310    0.216532
  H     -1.059753    1.392772    0.468488
  C      0.520259    0.098085   -0.071220
  F      1.288725    0.376606    1.012860
  F      0.790680   -1.181839   -0.421552
  F      0.957973    0.890534   -1.079815
  O     -1.353864   -0.496774    1.310916
  H     -1.732803   -1.084856   -1.221125
  H     -1.513490    0.564150   -1.857715
  H     -2.857098    0.211894   -0.757449
  H     -1.021625   -0.102480    2.128928

 Total Charge           Charge          ....    0
 Multiplicity           Mult            ....    1
 Number of Electrons    NEL             ....   58
 Basis Dimension        Dim             ....  247

ORBITAL ENERGIES
----------------

  NO   OCC          E(Eh)            E(eV)
   0   2.0000     -27.601211      -751.0671
   1   2.0000     -27.600001      -751.0342
   2   2.0000     -27.599724      -751.0267
   3   2.0000     -21.690631      -590.2321
   4   2.0000     -12.295280      -334.5716
   5   2.0000     -12.123249      -329.8904
   6   2.0000     -12.040724      -327.6447
   7   2.0000      -2.060251       -56.0623
   8   2.0000      -2.012991       -54.7763
   9   2.0000      -2.011710       -54.7414
  10   2.0000      -1.695259       -46.1303
  11   2.0000      -1.393438       -37.9174
  12   2.0000      -1.295171       -35.2434
  13   2.0000      -1.257044       -34.2059
  14   2.0000      -1.256158       -34.1818
  15   2.0000      -1.199282       -32.6341
  16   2.0000      -1.165565       -31.7166
  17   2.0000      -1.165252       -31.7081
  18   2.0000      -1.151827       -31.3428
  19   2.0000      -1.151237       -31.3267
  20   2.0000      -1.148462       -31.2512
  21   2.0000      -1.135521       -30.8991
  22   2.0000      -1.068302       -29.0700
  23   2.0000      -0.989471       -26.9249
  24   2.0000      -0.959086       -26.0980
  25   2.0000      -0.877076       -23.8665
  26   2.0000      -0.854019       -23.2390
  27   2.0000      -0.821721       -22.3602
  28   2.0000      -0.798716       -21.7342
  29   0.0000      -0.277336        -7.5467
  30   0.0000      -0.259174        -7.0525
  31   0.0000      -0.226850        -6.1729
  32   0.0000      -0.108323        -2.9476
  33   0.0000      -0.051564        -1.4031

MULLIKEN ATOMIC CHARGES
-----------------------
   0 C :   -0.389124
   1 C :    0.084041
   2 H :    0.141214
   3 C :    0.419206
   4 F :   -0.179994
   5 F :   -0.176669
   6 F :   -0.176540
   7 O :   -0.526660
   8 H :    0.139039
   9 H :    0.145302
  10 H :    0.148265
  11 H :    0.371919
Sum of atomic charges:   -0.0000000

LOEWDIN ATOMIC CHARGES
----------------------
   0 C :   -0.271631
   1 C :   -0.344846
   2 H :    0.162017
   3 C :   -0.628072
   4 F :    0.166799
   5 F :    0.174678
   6 F :    0.174778
   7 O :   -0.029735
   8 H :    0.129797
   9 H :    0.134654
  10 H :    0.132880
  11 H :    0.198683

  Mayer bond orders larger than 0.100000
B(  0-C ,  1-C ) :   0.9815 B(  0-C ,  8-H ) :   0.9630 B(  0-C ,  9-H ) :   0.9651
B(  0-C , 10-H ) :   0.9694 B(  1-C ,  2-H ) :   0.9456 B(  1-C ,  3-C ) :   0.9890
B(  1-C ,  7-O ) :   1.0167 B(  3-C ,  4-F ) :   1.1401 B(  3-C ,  5-F ) :   1.1360
B(  3-C ,  6-F ) :   1.1379 B(  7-O , 11-H ) :   0.8565

FINAL SINGLE POINT ENERGY      -492.146441821883

DIPOLE MOMENT
-------------

Method             : SCF
Type of density    : Electron Density
Multiplicity       :   1
Irrep              :   0
Energy             :  -492.1602574777832615 Eh
Relativity type    :
Basis              : AO
                                X                 Y                 Z
Electronic contribution:      9.844193368       0.054006528       0.935831606
Nuclear contribution   :    -10.524867099       0.842159834      -0.696327220
                        -----------------------------------------
Total Dipole Moment    :     -0.680673731       0.896166361       0.239504385
                        -----------------------------------------
Magnitude (a.u.)       :      1.150562135
Magnitude (Debye)      :      2.924496532

Rotational constants in cm-1:             0.115964             0.079522             0.065107
Rotational constants in MHz :          3476.516900          2384.007454          1951.844860

                             ****ORCA TERMINATED NORMALLY****
TOTAL RUN TIME: 0 days 0 hours 1 minutes 23 seconds 472 msec
