                         Program Version 6.0.0  -   RELEASE  -
|  1> ! wb97x-v def2-tzvp def2/J RIJCOSX DEFGRID2 scfconv7 GCP(DFT/TZ) printgap
|  2> %output
|  3>     printlevel normal
|  4> end
|  5> * xyz 0 1
|  6> C -1.9622539174727793 -0.23529258802791142 0.501739534903154
|  7> C -1.174543637776808 -0.1062684236847058 -0.7966271624956297
|  8> C 0.12235035888909805 0.6794930122631601 -0.6569695080027804
|  9> S 1.4099121257307126 -0.1351999768513237 0.3990526236121292
| 10> H -1.4187498998699541 -0.8256649981522256 1.2465468078278463
| 11> H -2.167498481616535 0.7505212681848648 0.9342562713984658
| 12> H -2.9213868709287474 -0.7318674983515193 0.3260684564413357
| 13> H -1.7861964469629952 0.4217471188381397 -1.5406323692576274
| 14> H -0.9584040836065679 -1.0979686507241777 -1.2103117422738945
| 15> H 0.6088554590270687 0.7955332422955906 -1.6300724893642495
| 16> H -0.06352406550086029 1.6806142359164968 -0.25625784767442844
| 17> H 0.7789803699883076 0.010797054115033101 1.5778454473137253
| 18> *
| 19>
| 20>                          ****END OF INPUT****

CARTESIAN COORDINATES (ANGSTROEM)
---------------------------------
  C     -1.962254   -0.235293    0.501740
  C     -1.174544   -0.106268   -0.796627
  C      0.122350    0.679493   -0.656970
  S      1.409912   -0.135200    0.399053
  H     -1.418750   -0.825665    1.246547
  H     -2.167498    0.750521    0.934256
  H     -2.921387   -0.731867    0.326068
  H     -1.786196    0.421747   -1.540632
  H     -0.958404   -1.097969   -1.210312
  H      0.608855    0.795533   -1.630072
  H     -0.063524    1.680614   -0.256258
  H      0.778980    0.010797    1.577845

 Total Charge           Charge          ....    0
 Multiplicity           Mult            ....    1
 Number of Electrons    NEL             ....   42
 Basis Dimension        Dim             ....  178

ORBITAL ENERGIES
----------------

  NO   OCC          E(Eh)            E(eV)
   0   2.0000     -94.118513     -2561.0949
   1   2.0000     -12.081748      -328.7611
   2   2.0000     -12.052087      -327.9540
   3   2.0000     -12.040347      -327.6345
   4   2.0000      -9.629805      -262.0403
   5   2.0000      -7.607468      -207.0097
   6   2.0000      -7.606306      -206.9781
   7   2.0000      -7.605780      -206.9638
   8   2.0000      -1.312291       -35.7092
   9   2.0000      -1.235163       -33.6105
  10   2.0000      -1.152333       -31.3566
  11   2.0000      -1.056124       -28.7386
  12   2.0000      -0.899415       -24.4743
  13   2.0000      -0.884072       -24.0568
  14   2.0000      -0.855145       -23.2697
  15   2.0000      -0.835828       -22.7440
  16   2.0000      -0.797824       -21.7099
  17   2.0000      -0.783058       -21.3081
  18   2.0000      -0.774531       -21.0760
  19   2.0000      -0.741026       -20.1643
  20   2.0000      -0.643561       -17.5122
  21   0.0000      -0.197406        -5.3717
  22   0.0000      -0.108030        -2.9397
  23   0.0000      -0.022500        -0.6123
  24   0.0000      -0.016174        -0.4401
  25   0.0000       0.000621         0.0169

MULLIKEN ATOMIC CHARGES
-----------------------
   0 C :   -0.372920
   1 C :   -0.119577
   2 C :   -0.190836
   3 S :   -0.228447
   4 H :    0.112011
   5 H :    0.106746
   6 H :    0.117555
   7 H :    0.091307
   8 H :    0.100673
   9 H :    0.126079
  10 H :    0.122157
  11 H :    0.135253
Sum of atomic charges:    0.0000000

LOEWDIN ATOMIC CHARGES
----------------------
   0 C :   -0.315133
   1 C :   -0.324432
   2 C :   -0.468643
   3 S :    0.214662
   4 H :    0.113341
   5 H :    0.116387
   6 H :    0.118714
   7 H :    0.134588
   8 H :    0.133172
   9 H :    0.126196
  10 H :    0.121434
  11 H :    0.029713

  Mayer bond orders larger than 0.100000
B(  0-C ,  1-C ) :   0.9762 B(  0-C ,  4-H ) :   0.9799 B(  0-C ,  5-H ) :   0.9770
B(  0-C ,  6-H ) :   0.9805 B(  1-C ,  2-C ) :   0.9626 B(  1-C ,  7-H ) :   0.9621
B(  1-C ,  8-H ) :   0.9718 B(  2-C ,  3-S ) :   1.0352 B(  2-C ,  9-H ) :   0.9657
B(  2-C , 10-H ) :   0.9711 B(  3-S , 11-H ) :   0.9721

FINAL SINGLE POINT ENERGY      -517.280672459388

DIPOLE MOMENT
-------------

Method             : SCF
Type of density    : Electron Density
Multiplicity       :   1
Irrep              :   0
Energy             :  -517.2890016159881270 Eh
Relativity type    :
Basis              : AO
                                X                 Y                 Z
Electronic contribution:      6.948137239      -0.614900296       0.489066003
Nuclear contribution   :     -7.577162820       0.873305377      -0.608868217
                        -----------------------------------------
Total Dipole Moment    :     -0.629025581       0.258405081      -0.119802214
                        -----------------------------------------
Magnitude (a.u.)       :      0.690506291
Magnitude (Debye)      :      1.755127509

Rotational constants in cm-1:             0.383367             0.106268             0.091505
Rotational constants in MHz :         11493.057210          3185.845580          2743.240598

                             ****ORCA TERMINATED NORMALLY****
TOTAL RUN TIME: 0 days 0 hours 0 minutes 44 seconds 193 msec
