                         Program Version 6.0.0  -   RELEASE  -
|  1> ! wb97x-v def2-tzvp def2/J RIJCOSX DEFGRID2 scfconv7 GCP(DFT/TZ) printgap
|  2> %output
|  3>     printlevel normal
|  4> end
|  5> %cpcm
|  6>     smd true
|  7>     smdsolvent "water"
|  8> end
|  9> * xyz 0 1
| 10> C -1.9622539174727793 -0.23529258802791142 0.501739534903154
| 11> C -1.174543637776808 -0.1062684236847058 -0.7966271624956297
| 12> C 0.12235035888909805 0.6794930122631601 -0.6569695080027804
| 13> S 1.4099121257307126 -0.1351999768513237 0.3990526236121292
| 14> H -1.4187498998699541 -0.8256649981522256 1.2465468078278463
| 15> H -2.167498481616535 0.7505212681848648 0.9342562713984658
| 16> H -2.9213868709287474 -0.7318674983515193 0.3260684564413357
| 17> H -1.7861964469629952 0.4217471188381397 -1.5406323692576274
| 18> H -0.9584040836065679 -1.0979686507241777 -1.2103117422738945
| 19> H 0.6088554590270687 0.7955332422955906 -1.6300724893642495
| 20> H -0.06352406550086029 1.6806142359164968 -0.25625784767442844
| 21> H 0.7789803699883076 0.010797054115033101 1.5778454473137253
| 22> *
| 23>
| 24>                          ****END OF INPUT****

CARTESIAN COORDINATES (ANGSTROEM)
---------------------------------
  C     -1.962254   -0.235293    0.501740
  C     -1.174544   -0.106268   -0.796627
  C      0.122350    0.679493   -0.656970
  S      1.409912   -0.135200    0.399053
  H     -1.418750   -0.825665    1.246547
  H     -2.167498    0.750521    0.934256
  H     -2.921387   -0.731867    0.326068
  H     -1.786196    0.421747   -1.540632
  H     -0.958404   -1.097969   -1.210312
  H      0.608855    0.795533   -1.630072
  H     -0.063524    1.680614   -0.256258
  H      0.778980    0.010797    1.577845

 Total Charge           Charge          ....    0
 Multiplicity           Mult            ....    1
 Number of Electrons    NEL             ....   42
 Basis Dimension        Dim             ....  178

ORBITAL ENERGIES
----------------

  NO   OCC          E(Eh)            E(eV)
   0   2.0000     -94.115670     -2561.0176
   1   2.0000     -12.070136      -328.4451
   2   2.0000     -12.039018      -327.5983
   3   2.0000     -12.026468      -327.2568
   4   2.0000      -9.627112      -261.9670
   5   2.0000      -7.604796      -206.9370
   6   2.0000      -7.603650      -206.9058
   7   2.0000      -7.603333      -206.8972
   8   2.0000      -1.301270       -35.4094
   9   2.0000      -1.226873       -33.3849
  10   2.0000      -1.142313       -31.0839
  11   2.0000      -1.044216       -28.4146
  12   2.0000      -0.887553       -24.1515
  13   2.0000      -0.871493       -23.7145
  14   2.0000      -0.842898       -22.9364
  15   2.0000      -0.825905       -22.4740
  16   2.0000      -0.785428       -21.3726
  17   2.0000      -0.770671       -20.9710
  18   2.0000      -0.763909       -20.7870
  19   2.0000      -0.734259       -19.9802
  20   2.0000      -0.641865       -17.4660
  21   0.0000      -0.191744        -5.2176
  22   0.0000      -0.099113        -2.6970
  23   0.0000      -0.010500        -0.2857
  24   0.0000      -0.001717        -0.0467
  25   0.0000       0.014083         0.3832

MULLIKEN ATOMIC CHARGES
-----------------------
   0 C :   -0.407855
   1 C :   -0.142777
   2 C :   -0.197738
   3 S :   -0.306340
   4 H :    0.119256
   5 H :    0.123477
   6 H :    0.131659
   7 H :    0.109482
   8 H :    0.105324
   9 H :    0.150583
  10 H :    0.145198
  11 H :    0.169731
Sum of atomic charges:    0.0000000

LOEWDIN ATOMIC CHARGES
----------------------
   0 C :   -0.319968
   1 C :   -0.324310
   2 C :   -0.463081
   3 S :    0.177570
   4 H :    0.114057
   5 H :    0.120302
   6 H :    0.120358
   7 H :    0.140098
   8 H :    0.132865
   9 H :    0.132161
  10 H :    0.128052
  11 H :    0.041896

  Mayer bond orders larger than 0.100000
B(  0-C ,  1-C ) :   0.9754 B(  0-C ,  4-H ) :   0.9766 B(  0-C ,  5-H ) :   0.9749
B(  0-C ,  6-H ) :   0.9777 B(  1-C ,  2-C ) :   0.9664 B(  1-C ,  7-H ) :   0.9611
B(  1-C ,  8-H ) :   0.9737 B(  2-C ,  3-S ) :   1.0120 B(  2-C ,  9-H ) :   0.9587
B(  2-C , 10-H ) :   0.9675 B(  3-S , 11-H ) :   0.9664

FINAL SINGLE POINT ENERGY      -517.282657430855

DIPOLE MOMENT
-------------

Method             : SCF
Type of density    : Electron Density
Multiplicity       :   1
Irrep              :   0
Energy             :  -517.2909865874546540 Eh
Relativity type    :
Basis              : AO
                                X                 Y                 Z
Electronic contribution:      6.749136891      -0.479493928       0.442950637
Nuclear contribution   :     -7.577162820       0.873305377      -0.608868217
                        -----------------------------------------
Total Dipole Moment    :     -0.828025930       0.393811448      -0.165917580
                        -----------------------------------------
Magnitude (a.u.)       :      0.931795600
Magnitude (Debye)      :      2.368436192

Rotational constants in cm-1:             0.383367             0.106268             0.091505
Rotational constants in MHz :         11493.057210          3185.845580          2743.240598

                             ****ORCA TERMINATED NORMALLY****
TOTAL RUN TIME: 0 days 0 hours 0 minutes 48 seconds 727 msec
