                         Program Version 6.0.0  -   RELEASE  -
|  1> ! pbe def2-sv(p) def2/J RI DEFGRID1 loosescf d4 GCP(DFT/SV(P)) printgap
|  2> %output
|  3>     printlevel normal
|  4> end
|  5> * xyz 0 1
|  6> C -2.5067407311 -1.0201590136 0.3687618677
|  7> C -1.0618023245 -0.5339285438 0.6033213439
|  8> H -0.8840515071 -0.47453065 1.6885655746
|  9> C -0.7989823151 0.8429887825 -0.0408786646
| 10> H -0.9421799063 0.7342287018 -1.1236235791
| 11> C 0.6582296138 1.2580712192 0.2277058673
| 12> H 0.8273642456 1.3534810504 1.3075497977
| 13> C 1.5889038082 0.1596665613 -0.307348836
| 14> H 1.4873888924 0.1033028768 -1.403956155
| 15> C 1.1759452978 -1.2055184741 0.2928654573
| 16> H 1.3769940555 -1.1767548087 1.3793743145
| 17> O -0.1753431988 -1.4893686883 0.0469144333
| 18> O 1.9417947842 -2.2321551829 -0.2324456955
| 19> O 2.9130131562 0.4640942786 0.0454818123
| 20> O 0.9463277609 2.5288404131 -0.2871578
| 21> O -1.7288720787 1.8061341561 0.3789631142
| 22> O -3.0262784114 -0.6974157481 -0.8930664235
| 23> H -3.1425468883 -0.615845451 1.1626302611
| 24> H -2.50179129 -2.1101818175 0.4280329617
| 25> H 1.5004063384 -2.5798900282 -1.0237956416
| 26> H 3.4733265837 -0.3037755857 -0.1478791258
| 27> H 0.9011764123 2.51845847 -1.2541367707
| 28> H -1.4408796771 2.2112663652 1.2087858025
| 29> H -3.2209390649 0.2511464408 -0.9171610542
| 30> *
| 31>
| 32>                          ****END OF INPUT****

CARTESIAN COORDINATES (ANGSTROEM)
---------------------------------
  C     -2.506741   -1.020159    0.368762
  C     -1.061802   -0.533929    0.603321
  H     -0.884052   -0.474531    1.688566
  C     -0.798982    0.842989   -0.040879
  H     -0.942180    0.734229   -1.123624
  C      0.658230    1.258071    0.227706
  H      0.827364    1.353481    1.307550
  C      1.588904    0.159667   -0.307349
  H      1.487389    0.103303   -1.403956
  C      1.175945   -1.205518    0.292865
  H      1.376994   -1.176755    1.379374
  O     -0.175343   -1.489369    0.046914
  O      1.941795   -2.232155   -0.232446
  O      2.913013    0.464094    0.045482
  O      0.946328    2.528840   -0.287158
  O     -1.728872    1.806134    0.378963
  O     -3.026278   -0.697416   -0.893066
  H     -3.142547   -0.615845    1.162630
  H     -2.501791   -2.110182    0.428033
  H      1.500406   -2.579890   -1.023796
  H      3.473327   -0.303776   -0.147879
  H      0.901176    2.518458   -1.254137
  H     -1.440880    2.211266    1.208786
  H     -3.220939    0.251146   -0.917161

 Total Charge           Charge          ....    0
 Multiplicity           Mult            ....    1
 Number of Electrons    NEL             ....   96
 Basis Dimension        Dim             ....  192

ORBITAL ENERGIES
----------------

  NO   OCC          E(Eh)            E(eV)
   0   2.0000     -18.779688      -511.0213
   1   2.0000     -18.770541      -510.7724
   2   2.0000     -18.766548      -510.6637
   3   2.0000     -18.752698      -510.2868
   4   2.0000     -18.752573      -510.2835
   5   2.0000     -18.750460      -510.2259
   6   2.0000      -9.992653      -271.9139
   7   2.0000      -9.950409      -270.7644
   8   2.0000      -9.949650      -270.7437
   9   2.0000      -9.949254      -270.7330
  10   2.0000      -9.944619      -270.6068
  11   2.0000      -9.935091      -270.3476
  12   2.0000      -0.993792       -27.0424
  13   2.0000      -0.952066       -25.9070
  14   2.0000      -0.938855       -25.5475
  15   2.0000      -0.926433       -25.2095
  16   2.0000      -0.922861       -25.1123
  17   2.0000      -0.916674       -24.9440
  18   2.0000      -0.708209       -19.2713
  19   2.0000      -0.693100       -18.8602
  20   2.0000      -0.620779       -16.8923
  21   2.0000      -0.594321       -16.1723
  22   2.0000      -0.565257       -15.3814
  23   2.0000      -0.551688       -15.0122
  24   2.0000      -0.506221       -13.7750
  25   2.0000      -0.499698       -13.5975
  26   2.0000      -0.474979       -12.9248
  27   2.0000      -0.457687       -12.4543
  28   2.0000      -0.450951       -12.2710
  29   2.0000      -0.434266       -11.8170
  30   2.0000      -0.425264       -11.5720
  31   2.0000      -0.411761       -11.2046
  32   2.0000      -0.393317       -10.7027
  33   2.0000      -0.375632       -10.2215
  34   2.0000      -0.362798        -9.8722
  35   2.0000      -0.353927        -9.6309
  36   2.0000      -0.327243        -8.9047
  37   2.0000      -0.322827        -8.7846
  38   2.0000      -0.312435        -8.5018
  39   2.0000      -0.297008        -8.0820
  40   2.0000      -0.287523        -7.8239
  41   2.0000      -0.280850        -7.6423
  42   2.0000      -0.262104        -7.1322
  43   2.0000      -0.253397        -6.8953
  44   2.0000      -0.230299        -6.2668
  45   2.0000      -0.224729        -6.1152
  46   2.0000      -0.217383        -5.9153
  47   2.0000      -0.206134        -5.6092
  48   0.0000       0.009249         0.2517
  49   0.0000       0.013827         0.3762
  50   0.0000       0.033118         0.9012
  51   0.0000       0.045367         1.2345
  52   0.0000       0.052080         1.4172

MULLIKEN ATOMIC CHARGES
-----------------------
   0 C :    0.089900
   1 C :    0.016790
   2 H :    0.042883
   3 C :    0.017252
   4 H :    0.054818
   5 C :    0.070134
   6 H :    0.055186
   7 C :    0.045568
   8 H :    0.027590
   9 C :    0.170708
  10 H :    0.054035
  11 O :   -0.304782
  12 O :   -0.392352
  13 O :   -0.402742
  14 O :   -0.397192
  15 O :   -0.412542
  16 O :   -0.435257
  17 H :    0.074375
  18 H :    0.094098
  19 H :    0.309334
  20 H :    0.303162
  21 H :    0.299555
  22 H :    0.307991
  23 H :    0.311489
Sum of atomic charges:    0.0000000

LOEWDIN ATOMIC CHARGES
----------------------
   0 C :   -0.122297
   1 C :   -0.075893
   2 H :    0.100126
   3 C :   -0.091553
   4 H :    0.109187
   5 C :   -0.078122
   6 H :    0.113653
   7 C :   -0.097099
   8 H :    0.093155
   9 C :   -0.004700
  10 H :    0.095783
  11 O :   -0.147516
  12 O :   -0.299465
  13 O :   -0.315336
  14 O :   -0.304590
  15 O :   -0.312340
  16 O :   -0.330500
  17 H :    0.102513
  18 H :    0.121678
  19 H :    0.292521
  20 H :    0.285250
  21 H :    0.287152
  22 H :    0.291761
  23 H :    0.286631

  Mayer bond orders larger than 0.100000
B(  0-C ,  1-C ) :   0.9955 B(  0-C , 16-O ) :   1.1097 B(  0-C , 17-H ) :   0.9191
B(  0-C , 18-H ) :   0.9200 B(  1-C ,  2-H ) :   0.8717 B(  1-C ,  3-C ) :   0.9798
B(  1-C , 11-O ) :   0.9699 B(  3-C ,  4-H ) :   0.8525 B(  3-C ,  5-C ) :   1.0092
B(  3-C , 15-O ) :   1.0558 B(  5-C ,  6-H ) :   0.8672 B(  5-C ,  7-C ) :   0.9969
B(  5-C , 14-O ) :   1.0827 B(  7-C ,  8-H ) :   0.8565 B(  7-C ,  9-C ) :   0.9712
B(  7-C , 13-O ) :   1.0992 B(  9-C , 10-H ) :   0.8789 B(  9-C , 11-O ) :   1.0306
B(  9-C , 12-O ) :   1.1156 B( 12-O , 19-H ) :   0.8385 B( 13-O , 20-H ) :   0.8346
B( 14-O , 21-H ) :   0.8491 B( 15-O , 22-H ) :   0.8434 B( 16-O , 23-H ) :   0.8364

Dispersion correction           -0.023977782
FINAL SINGLE POINT ENERGY      -685.693735459806

DIPOLE MOMENT
-------------

Method             : SCF
Type of density    : Electron Density
Multiplicity       :   1
Irrep              :   0
Energy             :  -685.8234712092225891 Eh
Relativity type    :
Basis              : AO
                                X                 Y                 Z
Electronic contribution:      2.286563348       0.027584830      -1.211641731
Nuclear contribution   :     -2.394194793      -0.077954317       1.209791292
                        -----------------------------------------
Total Dipole Moment    :     -0.107631445      -0.050369487      -0.001850439
                        -----------------------------------------
Magnitude (a.u.)       :      0.118848800
Magnitude (Debye)      :      0.302089641

Rotational constants in cm-1:             0.040955             0.026053             0.017308
Rotational constants in MHz :          1227.804261           781.046513           518.875402

                             ****ORCA TERMINATED NORMALLY****
TOTAL RUN TIME: 0 days 0 hours 0 minutes 11 seconds 756 msec
