                         Program Version 6.0.0  -   RELEASE  -
|  1> ! wb97x-v def2-tzvp def2/J RIJCOSX DEFGRID2 scfconv7 GCP(DFT/TZ) printgap
|  2> %output
|  3>     printlevel normal
|  4> end
|  5> * xyz 0 1
|  6> C 0.005210975883287992 1.2487759742289033 0.14081929098254858
|  7> C 1.2290229119909102 0.3395112486869822 -0.11548347782233175
|  8> C 0.6631293501223681 -1.0452589508809067 0.0698798487856525
|  9> C -0.6718052717327008 -1.0396806877059472 0.0698633134371546
| 10> C -1.2261381245823648 0.3497701843773025 -0.11550785526971388
| 11> H 0.009022613430032985 2.150881236964005 -0.4757523318953995
| 12> H 0.006509089820722014 1.5618954482947154 1.1897986321716258
| 13> H 1.614563513978163 0.4536843126260058 -1.1388914168463398
| 14> H 2.0644005817960576 0.5555090649415044 0.5589173169884932
| 15> H 1.2847853940590832 -1.9329802240370928 0.14133652682805142
| 16> H -1.3008459941655757 -1.9221847368535585 0.14130188116913397
| 17> H -1.6107063180998216 0.4671634352412466 -1.1389161682885727
| 18> H -2.059682753164361 0.5727198439548974 0.5588982763528131
| 19> *
| 20>
| 21>                          ****END OF INPUT****

CARTESIAN COORDINATES (ANGSTROEM)
---------------------------------
  C      0.005211    1.248776    0.140819
  C      1.229023    0.339511   -0.115483
  C      0.663129   -1.045259    0.069880
  C     -0.671805   -1.039681    0.069863
  C     -1.226138    0.349770   -0.115508
  H      0.009023    2.150881   -0.475752
  H      0.006509    1.561895    1.189799
  H      1.614564    0.453684   -1.138891
  H      2.064401    0.555509    0.558917
  H      1.284785   -1.932980    0.141337
  H     -1.300846   -1.922185    0.141302
  H     -1.610706    0.467163   -1.138916
  H     -2.059683    0.572720    0.558898

 Total Charge           Charge          ....    0
 Multiplicity           Mult            ....    1
 Number of Electrons    NEL             ....   38
 Basis Dimension        Dim             ....  203

ORBITAL ENERGIES
----------------

  NO   OCC          E(Eh)            E(eV)
   0   2.0000     -12.042447      -327.6916
   1   2.0000     -12.042376      -327.6897
   2   2.0000     -12.040554      -327.6401
   3   2.0000     -12.039770      -327.6188
   4   2.0000     -12.037533      -327.5579
   5   2.0000      -1.358417       -36.9644
   6   2.0000      -1.219514       -33.1847
   7   2.0000      -1.205812       -32.8118
   8   2.0000      -1.054467       -28.6935
   9   2.0000      -0.992352       -27.0033
  10   2.0000      -0.938247       -25.5310
  11   2.0000      -0.889494       -24.2044
  12   2.0000      -0.841711       -22.9041
  13   2.0000      -0.822817       -22.3900
  14   2.0000      -0.800357       -21.7788
  15   2.0000      -0.796642       -21.6777
  16   2.0000      -0.786615       -21.4049
  17   2.0000      -0.765835       -20.8394
  18   2.0000      -0.635042       -17.2804
  19   0.0000      -0.189053        -5.1444
  20   0.0000      -0.042717        -1.1624
  21   0.0000      -0.019230        -0.5233
  22   0.0000      -0.013554        -0.3688
  23   0.0000       0.002442         0.0665

MULLIKEN ATOMIC CHARGES
-----------------------
   0 C :   -0.200297
   1 C :   -0.123385
   2 C :   -0.173447
   3 C :   -0.173412
   4 C :   -0.123402
   5 H :    0.098271
   6 H :    0.091634
   7 H :    0.089603
   8 H :    0.096968
   9 H :    0.115459
  10 H :    0.115436
  11 H :    0.089605
  12 H :    0.096967
Sum of atomic charges:    0.0000000

LOEWDIN ATOMIC CHARGES
----------------------
   0 C :   -0.232149
   1 C :   -0.239592
   2 C :   -0.166443
   3 C :   -0.166438
   4 C :   -0.239592
   5 H :    0.124616
   6 H :    0.132629
   7 H :    0.134202
   8 H :    0.129089
   9 H :    0.130194
  10 H :    0.130192
  11 H :    0.134202
  12 H :    0.129089

  Mayer bond orders larger than 0.100000
B(  0-C ,  1-C ) :   0.9995 B(  0-C ,  4-C ) :   0.9996 B(  0-C ,  5-H ) :   0.9808
B(  0-C ,  6-H ) :   0.9768 B(  1-C ,  2-C ) :   0.9784 B(  1-C ,  7-H ) :   0.9547
B(  1-C ,  8-H ) :   0.9753 B(  2-C ,  3-C ) :   1.9396 B(  2-C ,  9-H ) :   0.9655
B(  3-C ,  4-C ) :   0.9784 B(  3-C , 10-H ) :   0.9655 B(  4-C , 11-H ) :   0.9547
B(  4-C , 12-H ) :   0.9753

FINAL SINGLE POINT ENERGY      -195.333871604876

DIPOLE MOMENT
-------------

Method             : SCF
Type of density    : Electron Density
Multiplicity       :   1
Irrep              :   0
Energy             :  -195.3416116329760541 Eh
Relativity type    :
Basis              : AO
                                X                 Y                 Z
Electronic contribution:     -0.007094034      -1.694382372       0.158348066
Nuclear contribution   :      0.007422837       1.771430206      -0.200675310
                        -----------------------------------------
Total Dipole Moment    :      0.000328803       0.077047833      -0.042327244
                        -----------------------------------------
Magnitude (a.u.)       :      0.087909455
Magnitude (Debye)      :      0.223448078

Rotational constants in cm-1:             0.244366             0.241889             0.132249
Rotational constants in MHz :          7325.902786          7251.636612          3964.733078

                             ****ORCA TERMINATED NORMALLY****
TOTAL RUN TIME: 0 days 0 hours 1 minutes 9 seconds 233 msec
