                         Program Version 6.0.0  -   RELEASE  -
|  1> ! wb97x-v def2-tzvp def2/J RIJCOSX DEFGRID2 scfconv7 GCP(DFT/TZ) printgap
|  2> %output
|  3>     printlevel normal
|  4> end
|  5> %cpcm
|  6>     smd true
|  7>     smdsolvent "water"
|  8> end
|  9> * xyz 0 1
| 10> C 0.005210975883287992 1.2487759742289033 0.14081929098254858
| 11> C 1.2290229119909102 0.3395112486869822 -0.11548347782233175
| 12> C 0.6631293501223681 -1.0452589508809067 0.0698798487856525
| 13> C -0.6718052717327008 -1.0396806877059472 0.0698633134371546
| 14> C -1.2261381245823648 0.3497701843773025 -0.11550785526971388
| 15> H 0.009022613430032985 2.150881236964005 -0.4757523318953995
| 16> H 0.006509089820722014 1.5618954482947154 1.1897986321716258
| 17> H 1.614563513978163 0.4536843126260058 -1.1388914168463398
| 18> H 2.0644005817960576 0.5555090649415044 0.5589173169884932
| 19> H 1.2847853940590832 -1.9329802240370928 0.14133652682805142
| 20> H -1.3008459941655757 -1.9221847368535585 0.14130188116913397
| 21> H -1.6107063180998216 0.4671634352412466 -1.1389161682885727
| 22> H -2.059682753164361 0.5727198439548974 0.5588982763528131
| 23> *
| 24>
| 25>                          ****END OF INPUT****

CARTESIAN COORDINATES (ANGSTROEM)
---------------------------------
  C      0.005211    1.248776    0.140819
  C      1.229023    0.339511   -0.115483
  C      0.663129   -1.045259    0.069880
  C     -0.671805   -1.039681    0.069863
  C     -1.226138    0.349770   -0.115508
  H      0.009023    2.150881   -0.475752
  H      0.006509    1.561895    1.189799
  H      1.614564    0.453684   -1.138891
  H      2.064401    0.555509    0.558917
  H      1.284785   -1.932980    0.141337
  H     -1.300846   -1.922185    0.141302
  H     -1.610706    0.467163   -1.138916
  H     -2.059683    0.572720    0.558898

 Total Charge           Charge          ....    0
 Multiplicity           Mult            ....    1
 Number of Electrons    NEL             ....   38
 Basis Dimension        Dim             ....  203

ORBITAL ENERGIES
----------------

  NO   OCC          E(Eh)            E(eV)
   0   2.0000     -12.037300      -327.5516
   1   2.0000     -12.036189      -327.5214
   2   2.0000     -12.035582      -327.5048
   3   2.0000     -12.034225      -327.4679
   4   2.0000     -12.033016      -327.4350
   5   2.0000      -1.354611       -36.8608
   6   2.0000      -1.215185       -33.0669
   7   2.0000      -1.200494       -32.6671
   8   2.0000      -1.048769       -28.5384
   9   2.0000      -0.987827       -26.8801
  10   2.0000      -0.933807       -25.4102
  11   2.0000      -0.883446       -24.0398
  12   2.0000      -0.837187       -22.7810
  13   2.0000      -0.816498       -22.2181
  14   2.0000      -0.794624       -21.6228
  15   2.0000      -0.791512       -21.5381
  16   2.0000      -0.780576       -21.2406
  17   2.0000      -0.759420       -20.6649
  18   2.0000      -0.633388       -17.2354
  19   0.0000      -0.187505        -5.1023
  20   0.0000      -0.037535        -1.0214
  21   0.0000      -0.013128        -0.3572
  22   0.0000      -0.005408        -0.1471
  23   0.0000       0.010738         0.2922

MULLIKEN ATOMIC CHARGES
-----------------------
   0 C :   -0.228678
   1 C :   -0.141179
   2 C :   -0.231619
   3 C :   -0.231589
   4 C :   -0.141164
   5 H :    0.114494
   6 H :    0.105998
   7 H :    0.106939
   8 H :    0.116040
   9 H :    0.153907
  10 H :    0.153880
  11 H :    0.106934
  12 H :    0.116037
Sum of atomic charges:    0.0000000

LOEWDIN ATOMIC CHARGES
----------------------
   0 C :   -0.235513
   1 C :   -0.242298
   2 C :   -0.179003
   3 C :   -0.178997
   4 C :   -0.242292
   5 H :    0.128084
   6 H :    0.134714
   7 H :    0.137989
   8 H :    0.132969
   9 H :    0.136696
  10 H :    0.136692
  11 H :    0.137990
  12 H :    0.132969

  Mayer bond orders larger than 0.100000
B(  0-C ,  1-C ) :   0.9920 B(  0-C ,  4-C ) :   0.9920 B(  0-C ,  5-H ) :   0.9774
B(  0-C ,  6-H ) :   0.9774 B(  1-C ,  2-C ) :   0.9734 B(  1-C ,  7-H ) :   0.9525
B(  1-C ,  8-H ) :   0.9734 B(  2-C ,  3-C ) :   1.9316 B(  2-C ,  9-H ) :   0.9611
B(  3-C ,  4-C ) :   0.9734 B(  3-C , 10-H ) :   0.9611 B(  4-C , 11-H ) :   0.9524
B(  4-C , 12-H ) :   0.9734

FINAL SINGLE POINT ENERGY      -195.333486192829

DIPOLE MOMENT
-------------

Method             : SCF
Type of density    : Electron Density
Multiplicity       :   1
Irrep              :   0
Energy             :  -195.3412262209293715 Eh
Relativity type    :
Basis              : AO
                                X                 Y                 Z
Electronic contribution:     -0.006912341      -1.647516173       0.128348546
Nuclear contribution   :      0.007422837       1.771430206      -0.200675310
                        -----------------------------------------
Total Dipole Moment    :      0.000510496       0.123914032      -0.072326764
                        -----------------------------------------
Magnitude (a.u.)       :      0.143478601
Magnitude (Debye)      :      0.364693621

Rotational constants in cm-1:             0.244366             0.241889             0.132249
Rotational constants in MHz :          7325.902786          7251.636612          3964.733078

                             ****ORCA TERMINATED NORMALLY****
TOTAL RUN TIME: 0 days 0 hours 1 minutes 8 seconds 896 msec
