                         Program Version 6.0.0  -   RELEASE  -
|  1> ! pbe def2-sv(p) def2/J RI DEFGRID1 loosescf d4 GCP(DFT/SV(P)) printgap
|  2> %output
|  3>     printlevel normal
|  4> end
|  5> * xyz 0 1
|  6> C -2.4337052763 -0.8437363607 0.3087270557
|  7> C -0.9756525042 -0.4407294698 0.5689783447
|  8> H -0.7405020939 -0.6476598619 1.6234286994
|  9> C -0.7375667134 1.0635795534 0.3130843715
| 10> H -1.55329827 1.4524047347 -0.3106591388
| 11> C 0.587762147 1.2568892752 -0.4599361851
| 12> H 0.9130634867 2.2994632117 -0.3731158351
| 13> C 1.6750389976 0.357507645 0.1615390049
| 14> H 2.6006058595 0.4442605682 -0.4193151918
| 15> C 1.2211275716 -1.1311241754 0.1063438579
| 16> H 1.3652315115 -1.5725871624 1.106331541
| 17> O -0.1440051963 -1.2316250313 -0.2642549516
| 18> O 1.9606470656 -1.9030124297 -0.7634822152
| 19> O 1.9969210645 0.76158792 1.4678422204
| 20> O 0.4277122068 1.0165402952 -1.8333578768
| 21> O -0.7005007186 1.6982209742 1.5725025854
| 22> O -2.8344614298 -0.5922066892 -1.0131633857
| 23> H -3.0783079101 -0.2407516077 0.9508206535
| 24> H -2.5566894279 -1.9012906704 0.5636574034
| 25> H 1.8423957005 -1.5914272628 -1.6748837479
| 26> H 1.1831353747 1.0265045613 1.9333273675
| 27> H -0.0262732352 0.1663326304 -1.9424572631
| 28> H -0.8554874302 2.6483563375 1.4740207399
| 29> H -2.4050570146 -1.2340715859 -1.5954134594
| 30> *
| 31>
| 32>                          ****END OF INPUT****

CARTESIAN COORDINATES (ANGSTROEM)
---------------------------------
  C     -2.433705   -0.843736    0.308727
  C     -0.975653   -0.440729    0.568978
  H     -0.740502   -0.647660    1.623429
  C     -0.737567    1.063580    0.313084
  H     -1.553298    1.452405   -0.310659
  C      0.587762    1.256889   -0.459936
  H      0.913063    2.299463   -0.373116
  C      1.675039    0.357508    0.161539
  H      2.600606    0.444261   -0.419315
  C      1.221128   -1.131124    0.106344
  H      1.365232   -1.572587    1.106332
  O     -0.144005   -1.231625   -0.264255
  O      1.960647   -1.903012   -0.763482
  O      1.996921    0.761588    1.467842
  O      0.427712    1.016540   -1.833358
  O     -0.700501    1.698221    1.572503
  O     -2.834461   -0.592207   -1.013163
  H     -3.078308   -0.240752    0.950821
  H     -2.556689   -1.901291    0.563657
  H      1.842396   -1.591427   -1.674884
  H      1.183135    1.026505    1.933327
  H     -0.026273    0.166333   -1.942457
  H     -0.855487    2.648356    1.474021
  H     -2.405057   -1.234072   -1.595413

 Total Charge           Charge          ....    0
 Multiplicity           Mult            ....    1
 Number of Electrons    NEL             ....   96
 Basis Dimension        Dim             ....  192

ORBITAL ENERGIES
----------------

  NO   OCC          E(Eh)            E(eV)
   0   2.0000     -18.786610      -511.2096
   1   2.0000     -18.785539      -511.1805
   2   2.0000     -18.765617      -510.6384
   3   2.0000     -18.762663      -510.5580
   4   2.0000     -18.757149      -510.4080
   5   2.0000     -18.741594      -509.9847
   6   2.0000      -9.986912      -271.7577
   7   2.0000      -9.956318      -270.9252
   8   2.0000      -9.954226      -270.8683
   9   2.0000      -9.946760      -270.6651
  10   2.0000      -9.945843      -270.6402
  11   2.0000      -9.935452      -270.3574
  12   2.0000      -0.994210       -27.0538
  13   2.0000      -0.959654       -26.1135
  14   2.0000      -0.942962       -25.6593
  15   2.0000      -0.935168       -25.4472
  16   2.0000      -0.921616       -25.0784
  17   2.0000      -0.917757       -24.9734
  18   2.0000      -0.710622       -19.3370
  19   2.0000      -0.683339       -18.5946
  20   2.0000      -0.628464       -17.1014
  21   2.0000      -0.597436       -16.2571
  22   2.0000      -0.574614       -15.6360
  23   2.0000      -0.537098       -14.6152
  24   2.0000      -0.514655       -14.0045
  25   2.0000      -0.495759       -13.4903
  26   2.0000      -0.477171       -12.9845
  27   2.0000      -0.471092       -12.8191
  28   2.0000      -0.464515       -12.6401
  29   2.0000      -0.446916       -12.1612
  30   2.0000      -0.411827       -11.2064
  31   2.0000      -0.397836       -10.8257
  32   2.0000      -0.387503       -10.5445
  33   2.0000      -0.384440       -10.4611
  34   2.0000      -0.363309        -9.8861
  35   2.0000      -0.359372        -9.7790
  36   2.0000      -0.336353        -9.1526
  37   2.0000      -0.321541        -8.7496
  38   2.0000      -0.314577        -8.5601
  39   2.0000      -0.307684        -8.3725
  40   2.0000      -0.294297        -8.0082
  41   2.0000      -0.277582        -7.5534
  42   2.0000      -0.264033        -7.1847
  43   2.0000      -0.258682        -7.0391
  44   2.0000      -0.244966        -6.6659
  45   2.0000      -0.238519        -6.4904
  46   2.0000      -0.217846        -5.9279
  47   2.0000      -0.197258        -5.3677
  48   0.0000      -0.002098        -0.0571
  49   0.0000       0.010002         0.2722
  50   0.0000       0.029555         0.8042
  51   0.0000       0.044709         1.2166
  52   0.0000       0.059337         1.6146

MULLIKEN ATOMIC CHARGES
-----------------------
   0 C :    0.060109
   1 C :    0.009758
   2 H :    0.068342
   3 C :   -0.006237
   4 H :    0.086853
   5 C :    0.038707
   6 H :    0.068027
   7 C :    0.031852
   8 H :    0.076566
   9 C :    0.194956
  10 H :    0.067164
  11 O :   -0.320375
  12 O :   -0.374684
  13 O :   -0.429354
  14 O :   -0.421607
  15 O :   -0.414906
  16 O :   -0.431720
  17 H :    0.098535
  18 H :    0.091327
  19 H :    0.296000
  20 H :    0.300145
  21 H :    0.290711
  22 H :    0.315809
  23 H :    0.304022
Sum of atomic charges:    0.0000000

LOEWDIN ATOMIC CHARGES
----------------------
   0 C :   -0.122135
   1 C :   -0.075502
   2 H :    0.112678
   3 C :   -0.086339
   4 H :    0.113780
   5 C :   -0.083923
   6 H :    0.113670
   7 C :   -0.093057
   8 H :    0.118033
   9 C :   -0.003535
  10 H :    0.104159
  11 O :   -0.166540
  12 O :   -0.284934
  13 O :   -0.322256
  14 O :   -0.315016
  15 O :   -0.307226
  16 O :   -0.328594
  17 H :    0.121971
  18 H :    0.108091
  19 H :    0.281676
  20 H :    0.269249
  21 H :    0.263723
  22 H :    0.296046
  23 H :    0.285982

  Mayer bond orders larger than 0.100000
B(  0-C ,  1-C ) :   1.0399 B(  0-C , 16-O ) :   1.0735 B(  0-C , 17-H ) :   0.9216
B(  0-C , 18-H ) :   0.9178 B(  1-C ,  2-H ) :   0.8608 B(  1-C ,  3-C ) :   0.9925
B(  1-C , 11-O ) :   1.0234 B(  3-C ,  4-H ) :   0.8845 B(  3-C ,  5-C ) :   0.9900
B(  3-C , 15-O ) :   1.0307 B(  5-C ,  6-H ) :   0.8925 B(  5-C ,  7-C ) :   0.9754
B(  5-C , 14-O ) :   1.0413 B(  7-C ,  8-H ) :   0.8979 B(  7-C ,  9-C ) :   0.9292
B(  7-C , 13-O ) :   1.0720 B(  9-C , 10-H ) :   0.8919 B(  9-C , 11-O ) :   0.9754
B(  9-C , 12-O ) :   1.1553 B( 12-O , 19-H ) :   0.8391 B( 13-O , 20-H ) :   0.8097
B( 14-O , 21-H ) :   0.8233 B( 15-O , 20-H ) :   0.1037 B( 15-O , 22-H ) :   0.8397
B( 16-O , 23-H ) :   0.8435

Dispersion correction           -0.025237046
FINAL SINGLE POINT ENERGY      -685.693971383514

DIPOLE MOMENT
-------------

Method             : SCF
Type of density    : Electron Density
Multiplicity       :   1
Irrep              :   0
Energy             :  -685.8264884807975932 Eh
Relativity type    :
Basis              : AO
                                X                 Y                 Z
Electronic contribution:      2.197594028      -0.543201037      -1.266753505
Nuclear contribution   :     -3.095989700       0.793296357       1.240799007
                        -----------------------------------------
Total Dipole Moment    :     -0.898395671       0.250095320      -0.025954499
                        -----------------------------------------
Magnitude (a.u.)       :      0.932918050
Magnitude (Debye)      :      2.371289233

Rotational constants in cm-1:             0.039274             0.028281             0.022877
Rotational constants in MHz :          1177.418360           847.838215           685.848546

                             ****ORCA TERMINATED NORMALLY****
TOTAL RUN TIME: 0 days 0 hours 0 minutes 12 seconds 265 msec
