                         Program Version 6.0.0  -   RELEASE  -
|  1> ! pbe def2-sv(p) def2/J RI DEFGRID1 loosescf d4 GCP(DFT/SV(P)) printgap
|  2> %output
|  3>     printlevel normal
|  4> end
|  5> * xyz 0 1
|  6> C -2.5408109332 -0.914886309 0.2745857378
|  7> C -1.1182696634 -0.4717461868 0.6215322191
|  8> H -1.0238274712 -0.4080612359 1.7169956226
|  9> C -0.8237182822 0.917952536 0.0386128052
| 10> H -1.0523896077 0.9038716432 -1.0368401718
| 11> C 0.6583599648 1.271381077 0.2144564407
| 12> H 0.8725005467 1.3883505788 1.2895146671
| 13> C 1.532537833 0.1413082363 -0.3303944853
| 14> H 1.3615893475 0.0490028197 -1.4144696143
| 15> C 1.1225334127 -1.1793332191 0.3508561673
| 16> H 1.3281948033 -1.0941730109 1.4334718913
| 17> O -0.2332995989 -1.4536466034 0.1212993733
| 18> O 1.8686383496 -2.2460049956 -0.1209042297
| 19> O 2.8776329278 0.4536118518 -0.0660187193
| 20> O 0.8888419867 2.4864568225 -0.4559004775
| 21> O -1.6443150895 1.8387546088 0.7103277018
| 22> O -2.7047524215 -0.8988896818 -1.1237239425
| 23> H -3.2305750047 -0.2157139538 0.7608131833
| 24> H -2.6857007693 -1.9260542048 0.6716786911
| 25> H 1.4210456486 -2.6198673016 -0.8968041636
| 26> H 3.4209657533 -0.3326940166 -0.2284399551
| 27> H 1.8396845653 2.6705545891 -0.440343614
| 28> H -1.4281144186 2.7259586362 0.3848354459
| 29> H -3.5994739558 -1.1986494067 -1.3380298047
| 30> *
| 31>
| 32>                          ****END OF INPUT****

CARTESIAN COORDINATES (ANGSTROEM)
---------------------------------
  C     -2.540811   -0.914886    0.274586
  C     -1.118270   -0.471746    0.621532
  H     -1.023827   -0.408061    1.716996
  C     -0.823718    0.917953    0.038613
  H     -1.052390    0.903872   -1.036840
  C      0.658360    1.271381    0.214456
  H      0.872501    1.388351    1.289515
  C      1.532538    0.141308   -0.330394
  H      1.361589    0.049003   -1.414470
  C      1.122533   -1.179333    0.350856
  H      1.328195   -1.094173    1.433472
  O     -0.233300   -1.453647    0.121299
  O      1.868638   -2.246005   -0.120904
  O      2.877633    0.453612   -0.066019
  O      0.888842    2.486457   -0.455900
  O     -1.644315    1.838755    0.710328
  O     -2.704752   -0.898890   -1.123724
  H     -3.230575   -0.215714    0.760813
  H     -2.685701   -1.926054    0.671679
  H      1.421046   -2.619867   -0.896804
  H      3.420966   -0.332694   -0.228440
  H      1.839685    2.670555   -0.440344
  H     -1.428114    2.725959    0.384835
  H     -3.599474   -1.198649   -1.338030

 Total Charge           Charge          ....    0
 Multiplicity           Mult            ....    1
 Number of Electrons    NEL             ....   96
 Basis Dimension        Dim             ....  192

ORBITAL ENERGIES
----------------

  NO   OCC          E(Eh)            E(eV)
   0   2.0000     -18.772185      -510.8171
   1   2.0000     -18.765321      -510.6303
   2   2.0000     -18.755583      -510.3654
   3   2.0000     -18.750344      -510.2228
   4   2.0000     -18.749654      -510.2040
   5   2.0000     -18.747024      -510.1325
   6   2.0000      -9.986812      -271.7550
   7   2.0000      -9.946568      -270.6599
   8   2.0000      -9.936427      -270.3839
   9   2.0000      -9.935209      -270.3508
  10   2.0000      -9.934554      -270.3330
  11   2.0000      -9.931751      -270.2567
  12   2.0000      -0.987996       -26.8847
  13   2.0000      -0.941861       -25.6293
  14   2.0000      -0.935027       -25.4434
  15   2.0000      -0.923028       -25.1169
  16   2.0000      -0.914196       -24.8765
  17   2.0000      -0.911551       -24.8046
  18   2.0000      -0.701753       -19.0957
  19   2.0000      -0.691981       -18.8298
  20   2.0000      -0.614023       -16.7084
  21   2.0000      -0.582412       -15.8482
  22   2.0000      -0.553156       -15.0521
  23   2.0000      -0.531549       -14.4642
  24   2.0000      -0.505402       -13.7527
  25   2.0000      -0.486352       -13.2343
  26   2.0000      -0.475791       -12.9469
  27   2.0000      -0.446203       -12.1418
  28   2.0000      -0.443805       -12.0765
  29   2.0000      -0.435085       -11.8393
  30   2.0000      -0.412468       -11.2238
  31   2.0000      -0.406142       -11.0517
  32   2.0000      -0.391797       -10.6613
  33   2.0000      -0.371326       -10.1043
  34   2.0000      -0.350782        -9.5453
  35   2.0000      -0.346497        -9.4287
  36   2.0000      -0.324298        -8.8246
  37   2.0000      -0.320844        -8.7306
  38   2.0000      -0.302563        -8.2331
  39   2.0000      -0.298037        -8.1100
  40   2.0000      -0.286542        -7.7972
  41   2.0000      -0.267435        -7.2773
  42   2.0000      -0.254123        -6.9150
  43   2.0000      -0.238411        -6.4875
  44   2.0000      -0.224598        -6.1116
  45   2.0000      -0.220337        -5.9957
  46   2.0000      -0.212461        -5.7814
  47   2.0000      -0.202315        -5.5053
  48   0.0000       0.020517         0.5583
  49   0.0000       0.027161         0.7391
  50   0.0000       0.034144         0.9291
  51   0.0000       0.049523         1.3476
  52   0.0000       0.065696         1.7877

MULLIKEN ATOMIC CHARGES
-----------------------
   0 C :    0.072376
   1 C :    0.022995
   2 H :    0.062205
   3 C :    0.050274
   4 H :    0.073115
   5 C :    0.068839
   6 H :    0.049512
   7 C :    0.045031
   8 H :    0.043959
   9 C :    0.178561
  10 H :    0.048920
  11 O :   -0.307467
  12 O :   -0.393757
  13 O :   -0.426691
  14 O :   -0.427367
  15 O :   -0.425504
  16 O :   -0.437591
  17 H :    0.083967
  18 H :    0.077863
  19 H :    0.308149
  20 H :    0.306077
  21 H :    0.312517
  22 H :    0.311015
  23 H :    0.303001
Sum of atomic charges:   -0.0000000

LOEWDIN ATOMIC CHARGES
----------------------
   0 C :   -0.123034
   1 C :   -0.053426
   2 H :    0.109542
   3 C :   -0.067865
   4 H :    0.112274
   5 C :   -0.077442
   6 H :    0.102029
   7 C :   -0.101316
   8 H :    0.101182
   9 C :   -0.002252
  10 H :    0.094236
  11 O :   -0.142140
  12 O :   -0.300821
  13 O :   -0.327099
  14 O :   -0.326576
  15 O :   -0.319136
  16 O :   -0.338649
  17 H :    0.108329
  18 H :    0.101967
  19 H :    0.291967
  20 H :    0.286919
  21 H :    0.291345
  22 H :    0.291012
  23 H :    0.288953

  Mayer bond orders larger than 0.100000
B(  0-C ,  1-C ) :   1.0696 B(  0-C , 16-O ) :   1.0883 B(  0-C , 17-H ) :   0.9064
B(  0-C , 18-H ) :   0.9127 B(  1-C ,  2-H ) :   0.8767 B(  1-C ,  3-C ) :   1.0241
B(  1-C , 11-O ) :   0.9830 B(  3-C ,  4-H ) :   0.8641 B(  3-C ,  5-C ) :   1.0330
B(  3-C , 15-O ) :   1.0559 B(  5-C ,  6-H ) :   0.8743 B(  5-C ,  7-C ) :   1.0042
B(  5-C , 14-O ) :   1.0817 B(  7-C ,  8-H ) :   0.8600 B(  7-C ,  9-C ) :   0.9795
B(  7-C , 13-O ) :   1.0682 B(  9-C , 10-H ) :   0.8778 B(  9-C , 11-O ) :   1.0309
B(  9-C , 12-O ) :   1.1140 B( 12-O , 19-H ) :   0.8394 B( 13-O , 20-H ) :   0.8321
B( 14-O , 21-H ) :   0.8373 B( 15-O , 22-H ) :   0.8377 B( 16-O , 23-H ) :   0.8502

Dispersion correction           -0.023857037
FINAL SINGLE POINT ENERGY      -685.700971593525

DIPOLE MOMENT
-------------

Method             : SCF
Type of density    : Electron Density
Multiplicity       :   1
Irrep              :   0
Energy             :  -685.8306598960507472 Eh
Relativity type    :
Basis              : AO
                                X                 Y                 Z
Electronic contribution:      2.345745498      -0.254787587      -1.087922809
Nuclear contribution   :     -2.588858694      -0.051250413       0.832737626
                        -----------------------------------------
Total Dipole Moment    :     -0.243113196      -0.306038001      -0.255185183
                        -----------------------------------------
Magnitude (a.u.)       :      0.466779136
Magnitude (Debye)      :      1.186458274

Rotational constants in cm-1:             0.039376             0.027042             0.017882
Rotational constants in MHz :          1180.459965           810.697673           536.092405

                             ****ORCA TERMINATED NORMALLY****
TOTAL RUN TIME: 0 days 0 hours 0 minutes 12 seconds 32 msec
