                         Program Version 6.0.0  -   RELEASE  -
|  1> ! r2scan-3c def2/J RI DEFGRID2 scfconv6 printgap
|  2> %output
|  3>     printlevel normal
|  4> end
|  5> %cpcm
|  6>     smd true
|  7>     smdsolvent "water"
|  8> end
|  9> * xyz 0 1
| 10> C 1.2902616589 4.37963e-05 2.12737e-05
| 11> C -0.1549003924 -0.0001499192 -8.60728e-05
| 12> C -1.3517615875 6.48534e-05 4.72506e-05
| 13> H 1.6598493045 -0.958867455 -0.359743891
| 14> H 1.6594986776 0.7912706028 -0.6504697993
| 15> H 1.6594531667 0.1679955895 1.0104474942
| 16> H -2.4001504653 9.30344e-05 -2.46944e-05
| 17> *
| 18>
| 19>                          ****END OF INPUT****

CARTESIAN COORDINATES (ANGSTROEM)
---------------------------------
  C      1.290262    0.000044    0.000021
  C     -0.154900   -0.000150   -0.000086
  C     -1.351762    0.000065    0.000047
  H      1.659849   -0.958867   -0.359744
  H      1.659499    0.791271   -0.650470
  H      1.659453    0.167996    1.010447
  H     -2.400150    0.000093   -0.000025

 Total Charge           Charge          ....    0
 Multiplicity           Mult            ....    1
 Number of Electrons    NEL             ....   22
 Basis Dimension        Dim             ....   77

ORBITAL ENERGIES
----------------

  NO   OCC          E(Eh)            E(eV)
   0   2.0000     -10.042658      -273.2746
   1   2.0000     -10.039883      -273.1991
   2   2.0000     -10.019246      -272.6376
   3   2.0000      -0.751911       -20.4606
   4   2.0000      -0.670893       -18.2559
   5   2.0000      -0.496351       -13.5064
   6   2.0000      -0.417866       -11.3707
   7   2.0000      -0.396959       -10.8018
   8   2.0000      -0.396938       -10.8012
   9   2.0000      -0.252289        -6.8651
  10   2.0000      -0.252283        -6.8650
  11   0.0000       0.025277         0.6878
  12   0.0000       0.025282         0.6880
  13   0.0000       0.095438         2.5970
  14   0.0000       0.141733         3.8568
  15   0.0000       0.162755         4.4288

MULLIKEN ATOMIC CHARGES
-----------------------
   0 C :   -0.614820
   1 C :    0.040254
   2 C :   -0.207308
   3 H :    0.192041
   4 H :    0.192203
   5 H :    0.192159
   6 H :    0.205470
Sum of atomic charges:   -0.0000000

LOEWDIN ATOMIC CHARGES
----------------------
   0 C :   -0.385041
   1 C :   -0.104667
   2 C :   -0.258238
   3 H :    0.183967
   4 H :    0.184037
   5 H :    0.184010
   6 H :    0.195932

  Mayer bond orders larger than 0.100000
B(  0-C ,  1-C ) :   0.9357 B(  0-C ,  3-H ) :   0.9614 B(  0-C ,  4-H ) :   0.9614
B(  0-C ,  5-H ) :   0.9615 B(  1-C ,  2-C ) :   2.6133 B(  2-C ,  6-H ) :   1.0285

Dispersion correction           -0.000936729
FINAL SINGLE POINT ENERGY      -116.613642829974

DIPOLE MOMENT
-------------

Method             : SCF
Type of density    : Electron Density
Multiplicity       :   1
Irrep              :   0
Energy             :  -116.6148641330281635 Eh
Relativity type    :
Basis              : AO
                                X                 Y                 Z
Electronic contribution:     -1.913411607      -0.000049283      -0.000156287
Nuclear contribution   :      2.419220300       0.000461367       0.000196181
                        -----------------------------------------
Total Dipole Moment    :      0.505808692       0.000412084       0.000039894
                        -----------------------------------------
Magnitude (a.u.)       :      0.505808862
Magnitude (Debye)      :      1.285663954

Rotational constants in cm-1:             5.313732             0.290885             0.290884
Rotational constants in MHz :        159301.677482          8720.525414          8720.490839

                             ****ORCA TERMINATED NORMALLY****
TOTAL RUN TIME: 0 days 0 hours 0 minutes 6 seconds 165 msec
