                         Program Version 6.0.0  -   RELEASE  -
|  1> ! r2scan-3c def2/J RI DEFGRID2 scfconv6 printgap
|  2> %output
|  3>     printlevel normal
|  4> end
|  5> * xyz 0 1
|  6> C -2.6604667751 -0.5830032654 -0.7405090253
|  7> C -1.8718623657 -0.5204809356 0.5698368743
|  8> C -0.4031120287 -0.3229154791 0.3041632441
|  9> C 0.4168399597 -1.4464930549 0.2628732307
| 10> C 1.7688708261 -1.3495925588 -0.0037630363
| 11> C 2.3282329737 -0.1047523839 -0.2359280942
| 12> C 1.5239558255 1.0173490272 -0.2010342934
| 13> C 0.1593414215 0.9314464772 0.0608223234
| 14> C -0.6268446341 2.2116416323 0.073863324
| 15> H -2.5454032918 0.3391968638 -1.3045094099
| 16> H -3.7176006954 -0.7397955442 -0.5398477159
| 17> H -2.297817221 -1.4034782402 -1.3557080772
| 18> H -2.0112468576 -1.458824126 1.1103282171
| 19> H -2.2620340334 0.2812228618 1.1980380842
| 20> H -0.0194227083 -2.4184518378 0.4470606675
| 21> H 2.3825745774 -2.2379338297 -0.0287429176
| 22> H 3.3838588786 -0.0103351712 -0.4438554074
| 23> H 1.9576711992 1.9906415999 -0.3836382721
| 24> H -0.473636026 2.7465893001 -0.8620862977
| 25> H -1.6900066696 2.0474997987 0.204544162
| 26> H -0.2736073988 2.8514064919 0.8820322701
| 27> *
| 28>
| 29>                          ****END OF INPUT****

CARTESIAN COORDINATES (ANGSTROEM)
---------------------------------
  C     -2.660467   -0.583003   -0.740509
  C     -1.871862   -0.520481    0.569837
  C     -0.403112   -0.322915    0.304163
  C      0.416840   -1.446493    0.262873
  C      1.768871   -1.349593   -0.003763
  C      2.328233   -0.104752   -0.235928
  C      1.523956    1.017349   -0.201034
  C      0.159341    0.931446    0.060822
  C     -0.626845    2.211642    0.073863
  H     -2.545403    0.339197   -1.304509
  H     -3.717601   -0.739796   -0.539848
  H     -2.297817   -1.403478   -1.355708
  H     -2.011247   -1.458824    1.110328
  H     -2.262034    0.281223    1.198038
  H     -0.019423   -2.418452    0.447061
  H      2.382575   -2.237934   -0.028743
  H      3.383859   -0.010335   -0.443855
  H      1.957671    1.990642   -0.383638
  H     -0.473636    2.746589   -0.862086
  H     -1.690007    2.047500    0.204544
  H     -0.273607    2.851406    0.882032

 Total Charge           Charge          ....    0
 Multiplicity           Mult            ....    1
 Number of Electrons    NEL             ....   66
 Basis Dimension        Dim             ....  231

ORBITAL ENERGIES
----------------

  NO   OCC          E(Eh)            E(eV)
   0   2.0000     -10.039078      -273.1772
   1   2.0000     -10.036052      -273.0949
   2   2.0000     -10.032474      -272.9975
   3   2.0000     -10.026275      -272.8288
   4   2.0000     -10.026207      -272.8270
   5   2.0000     -10.025803      -272.8160
   6   2.0000     -10.025318      -272.8028
   7   2.0000     -10.025203      -272.7996
   8   2.0000     -10.020896      -272.6824
   9   2.0000      -0.828052       -22.5324
  10   2.0000      -0.755085       -20.5469
  11   2.0000      -0.736194       -20.0329
  12   2.0000      -0.690719       -18.7954
  13   2.0000      -0.651730       -17.7345
  14   2.0000      -0.597151       -16.2493
  15   2.0000      -0.562600       -15.3091
  16   2.0000      -0.533917       -14.5286
  17   2.0000      -0.468195       -12.7402
  18   2.0000      -0.447252       -12.1703
  19   2.0000      -0.419824       -11.4240
  20   2.0000      -0.399057       -10.8589
  21   2.0000      -0.393263       -10.7012
  22   2.0000      -0.386305       -10.5119
  23   2.0000      -0.374722       -10.1967
  24   2.0000      -0.361426        -9.8349
  25   2.0000      -0.352060        -9.5800
  26   2.0000      -0.338823        -9.2199
  27   2.0000      -0.320150        -8.7117
  28   2.0000      -0.318063        -8.6549
  29   2.0000      -0.298878        -8.1329
  30   2.0000      -0.290737        -7.9114
  31   2.0000      -0.225217        -6.1285
  32   2.0000      -0.217526        -5.9192
  33   0.0000      -0.027225        -0.7408
  34   0.0000      -0.020931        -0.5695
  35   0.0000       0.079969         2.1761
  36   0.0000       0.092352         2.5130
  37   0.0000       0.099629         2.7110

MULLIKEN ATOMIC CHARGES
-----------------------
   0 C :   -0.451645
   1 C :   -0.354801
   2 C :    0.190466
   3 C :   -0.233446
   4 C :   -0.164012
   5 C :   -0.159355
   6 C :   -0.199837
   7 C :    0.129666
   8 C :   -0.560270
   9 H :    0.147698
  10 H :    0.148100
  11 H :    0.150309
  12 H :    0.146175
  13 H :    0.151704
  14 H :    0.145471
  15 H :    0.143907
  16 H :    0.143995
  17 H :    0.144519
  18 H :    0.162533
  19 H :    0.153016
  20 H :    0.165807
Sum of atomic charges:   -0.0000000

LOEWDIN ATOMIC CHARGES
----------------------
   0 C :   -0.406205
   1 C :   -0.292079
   2 C :   -0.090311
   3 C :   -0.160655
   4 C :   -0.170782
   5 C :   -0.168795
   6 C :   -0.160953
   7 C :   -0.092768
   8 C :   -0.392875
   9 H :    0.152658
  10 H :    0.149333
  11 H :    0.155009
  12 H :    0.161398
  13 H :    0.159054
  14 H :    0.167378
  15 H :    0.165866
  16 H :    0.165845
  17 H :    0.167742
  18 H :    0.165948
  19 H :    0.158713
  20 H :    0.166480

  Mayer bond orders larger than 0.100000
B(  0-C ,  1-C ) :   0.9277 B(  0-C ,  9-H ) :   0.9792 B(  0-C , 10-H ) :   0.9735
B(  0-C , 11-H ) :   0.9761 B(  1-C ,  2-C ) :   0.7770 B(  1-C , 12-H ) :   0.9807
B(  1-C , 13-H ) :   0.9981 B(  2-C ,  3-C ) :   1.3768 B(  2-C ,  7-C ) :   1.4896
B(  3-C ,  4-C ) :   1.4527 B(  3-C , 14-H ) :   0.9346 B(  4-C ,  5-C ) :   1.4179
B(  4-C , 15-H ) :   0.9476 B(  5-C ,  6-C ) :   1.4496 B(  5-C , 16-H ) :   0.9489
B(  6-C ,  7-C ) :   1.3681 B(  6-C , 17-H ) :   0.9392 B(  7-C ,  8-C ) :   0.7712
B(  8-C , 18-H ) :   0.9829 B(  8-C , 19-H ) :   0.9869 B(  8-C , 20-H ) :   0.9788

Dispersion correction           -0.007101191
FINAL SINGLE POINT ENERGY      -350.080539542568

DIPOLE MOMENT
-------------

Method             : SCF
Type of density    : Electron Density
Multiplicity       :   1
Irrep              :   0
Energy             :  -350.0807925076824176 Eh
Relativity type    :
Basis              : AO
                                X                 Y                 Z
Electronic contribution:      6.875003905      -1.737052974       1.011689081
Nuclear contribution   :     -7.098800702       1.864830452      -1.009828656
                        -----------------------------------------
Total Dipole Moment    :     -0.223796797       0.127777478       0.001860426
                        -----------------------------------------
Magnitude (a.u.)       :      0.257712149
Magnitude (Debye)      :      0.655052224

Rotational constants in cm-1:             0.084505             0.048389             0.033490
Rotational constants in MHz :          2533.400895          1450.660092          1004.003464

                             ****ORCA TERMINATED NORMALLY****
TOTAL RUN TIME: 0 days 0 hours 0 minutes 25 seconds 924 msec
