                         Program Version 6.0.0  -   RELEASE  -
|  1> ! r2scan-3c def2/J RI DEFGRID2 scfconv6 printgap
|  2> %output
|  3>     printlevel normal
|  4> end
|  5> %cpcm
|  6>     smd true
|  7>     smdsolvent "water"
|  8> end
|  9> * xyz 0 1
| 10> C -2.6604667751 -0.5830032654 -0.7405090253
| 11> C -1.8718623657 -0.5204809356 0.5698368743
| 12> C -0.4031120287 -0.3229154791 0.3041632441
| 13> C 0.4168399597 -1.4464930549 0.2628732307
| 14> C 1.7688708261 -1.3495925588 -0.0037630363
| 15> C 2.3282329737 -0.1047523839 -0.2359280942
| 16> C 1.5239558255 1.0173490272 -0.2010342934
| 17> C 0.1593414215 0.9314464772 0.0608223234
| 18> C -0.6268446341 2.2116416323 0.073863324
| 19> H -2.5454032918 0.3391968638 -1.3045094099
| 20> H -3.7176006954 -0.7397955442 -0.5398477159
| 21> H -2.297817221 -1.4034782402 -1.3557080772
| 22> H -2.0112468576 -1.458824126 1.1103282171
| 23> H -2.2620340334 0.2812228618 1.1980380842
| 24> H -0.0194227083 -2.4184518378 0.4470606675
| 25> H 2.3825745774 -2.2379338297 -0.0287429176
| 26> H 3.3838588786 -0.0103351712 -0.4438554074
| 27> H 1.9576711992 1.9906415999 -0.3836382721
| 28> H -0.473636026 2.7465893001 -0.8620862977
| 29> H -1.6900066696 2.0474997987 0.204544162
| 30> H -0.2736073988 2.8514064919 0.8820322701
| 31> *
| 32>
| 33>                          ****END OF INPUT****

CARTESIAN COORDINATES (ANGSTROEM)
---------------------------------
  C     -2.660467   -0.583003   -0.740509
  C     -1.871862   -0.520481    0.569837
  C     -0.403112   -0.322915    0.304163
  C      0.416840   -1.446493    0.262873
  C      1.768871   -1.349593   -0.003763
  C      2.328233   -0.104752   -0.235928
  C      1.523956    1.017349   -0.201034
  C      0.159341    0.931446    0.060822
  C     -0.626845    2.211642    0.073863
  H     -2.545403    0.339197   -1.304509
  H     -3.717601   -0.739796   -0.539848
  H     -2.297817   -1.403478   -1.355708
  H     -2.011247   -1.458824    1.110328
  H     -2.262034    0.281223    1.198038
  H     -0.019423   -2.418452    0.447061
  H      2.382575   -2.237934   -0.028743
  H      3.383859   -0.010335   -0.443855
  H      1.957671    1.990642   -0.383638
  H     -0.473636    2.746589   -0.862086
  H     -1.690007    2.047500    0.204544
  H     -0.273607    2.851406    0.882032

 Total Charge           Charge          ....    0
 Multiplicity           Mult            ....    1
 Number of Electrons    NEL             ....   66
 Basis Dimension        Dim             ....  231

ORBITAL ENERGIES
----------------

  NO   OCC          E(Eh)            E(eV)
   0   2.0000     -10.038955      -273.1739
   1   2.0000     -10.035791      -273.0877
   2   2.0000     -10.026280      -272.8290
   3   2.0000     -10.025596      -272.8103
   4   2.0000     -10.025058      -272.7957
   5   2.0000     -10.024789      -272.7884
   6   2.0000     -10.024442      -272.7789
   7   2.0000     -10.016642      -272.5667
   8   2.0000     -10.012998      -272.4675
   9   2.0000      -0.828936       -22.5565
  10   2.0000      -0.751922       -20.4608
  11   2.0000      -0.733616       -19.9627
  12   2.0000      -0.688010       -18.7217
  13   2.0000      -0.647359       -17.6155
  14   2.0000      -0.592433       -16.1209
  15   2.0000      -0.560463       -15.2510
  16   2.0000      -0.530812       -14.4441
  17   2.0000      -0.465300       -12.6614
  18   2.0000      -0.443091       -12.0571
  19   2.0000      -0.414885       -11.2896
  20   2.0000      -0.394793       -10.7429
  21   2.0000      -0.387035       -10.5317
  22   2.0000      -0.380773       -10.3613
  23   2.0000      -0.371386       -10.1059
  24   2.0000      -0.355506        -9.6738
  25   2.0000      -0.344910        -9.3855
  26   2.0000      -0.333364        -9.0713
  27   2.0000      -0.320554        -8.7227
  28   2.0000      -0.311675        -8.4811
  29   2.0000      -0.294035        -8.0011
  30   2.0000      -0.286496        -7.7960
  31   2.0000      -0.228823        -6.2266
  32   2.0000      -0.219845        -5.9823
  33   0.0000      -0.029733        -0.8091
  34   0.0000      -0.023230        -0.6321
  35   0.0000       0.086528         2.3545
  36   0.0000       0.099681         2.7125
  37   0.0000       0.107797         2.9333

MULLIKEN ATOMIC CHARGES
-----------------------
   0 C :   -0.499147
   1 C :   -0.321659
   2 C :    0.132536
   3 C :   -0.254384
   4 C :   -0.205092
   5 C :   -0.202374
   6 C :   -0.229508
   7 C :    0.113852
   8 C :   -0.570781
   9 H :    0.161108
  10 H :    0.161818
  11 H :    0.158271
  12 H :    0.160447
  13 H :    0.167138
  14 H :    0.175823
  15 H :    0.174595
  16 H :    0.174757
  17 H :    0.174298
  18 H :    0.176507
  19 H :    0.172603
  20 H :    0.179191
Sum of atomic charges:   -0.0000000

LOEWDIN ATOMIC CHARGES
----------------------
   0 C :   -0.412147
   1 C :   -0.292137
   2 C :   -0.098865
   3 C :   -0.172176
   4 C :   -0.187492
   5 C :   -0.184978
   6 C :   -0.172077
   7 C :   -0.098186
   8 C :   -0.395700
   9 H :    0.155545
  10 H :    0.154445
  11 H :    0.155482
  12 H :    0.166513
  13 H :    0.165426
  14 H :    0.178188
  15 H :    0.175545
  16 H :    0.175566
  17 H :    0.178229
  18 H :    0.171690
  19 H :    0.165214
  20 H :    0.171917

  Mayer bond orders larger than 0.100000
B(  0-C ,  1-C ) :   0.9083 B(  0-C ,  9-H ) :   0.9788 B(  0-C , 10-H ) :   0.9693
B(  0-C , 11-H ) :   0.9766 B(  1-C ,  2-C ) :   0.8011 B(  1-C , 12-H ) :   0.9748
B(  1-C , 13-H ) :   0.9893 B(  2-C ,  3-C ) :   1.3588 B(  2-C ,  7-C ) :   1.4275
B(  3-C ,  4-C ) :   1.4095 B(  3-C , 14-H ) :   0.9497 B(  4-C ,  5-C ) :   1.3726
B(  4-C , 15-H ) :   0.9604 B(  5-C ,  6-C ) :   1.4087 B(  5-C , 16-H ) :   0.9616
B(  6-C ,  7-C ) :   1.3448 B(  6-C , 17-H ) :   0.9537 B(  7-C ,  8-C ) :   0.7906
B(  8-C , 18-H ) :   0.9738 B(  8-C , 19-H ) :   0.9829 B(  8-C , 20-H ) :   0.9712

Dispersion correction           -0.007101191
FINAL SINGLE POINT ENERGY      -350.081787797980

DIPOLE MOMENT
-------------

Method             : SCF
Type of density    : Electron Density
Multiplicity       :   1
Irrep              :   0
Energy             :  -350.0820407630935165 Eh
Relativity type    :
Basis              : AO
                                X                 Y                 Z
Electronic contribution:      6.729157435      -1.658010876       1.030392903
Nuclear contribution   :     -7.098800702       1.864830452      -1.009828656
                        -----------------------------------------
Total Dipole Moment    :     -0.369643267       0.206819576       0.020564247
                        -----------------------------------------
Magnitude (a.u.)       :      0.424067648
Magnitude (Debye)      :      1.077894300

Rotational constants in cm-1:             0.084505             0.048389             0.033490
Rotational constants in MHz :          2533.400895          1450.660092          1004.003464

                             ****ORCA TERMINATED NORMALLY****
TOTAL RUN TIME: 0 days 0 hours 0 minutes 31 seconds 152 msec
