                         Program Version 6.0.0  -   RELEASE  -
|  1> ! wb97x-v def2-tzvp def2/J RIJCOSX DEFGRID2 scfconv7 GCP(DFT/TZ) printgap
|  2> %output
|  3>     printlevel normal
|  4> end
|  5> * xyz 0 1
|  6> C -2.605103274734158 -1.472189946421564 -0.0010188616104640754
|  7> O -2.227673859346702 -0.0879314321103713 -0.011576087045349041
|  8> C -0.8842135754708329 0.20282218439497007 -0.012076127595717717
|  9> C -0.562872644417429 1.5654321256438688 -0.0268249631353267
| 10> C 0.7768681363834339 1.9321598526354091 -0.02236657063663125
| 11> C 1.7916264994803217 0.9802570267914726 -0.006300357331370184
| 12> C 1.4633238822562127 -0.38248604069412817 0.004604578681062524
| 13> C 0.11208135470197089 -0.7695092779395941 0.004680917794115242
| 14> N 2.458421706161254 -1.3513110445369811 -0.04576051966205396
| 15> H -2.24160717603314 -1.972776100625543 0.9035866263421705
| 16> H -2.2284542049387825 -1.9900811502155662 -0.8903488894278706
| 17> H -3.6956718881355557 -1.4808159499511078 -0.008918036710651429
| 18> H -1.3556886546896616 2.3051233574258383 -0.03807726095969973
| 19> H 1.038306617594295 2.986159731350961 -0.02901401505602118
| 20> H 2.8341927901873274 1.2834305115639968 -0.002610578511753815
| 21> H -0.13017278159694343 -1.825834402034555 0.017414053574174596
| 22> H 3.355121382738364 -1.0474460946961188 0.306655935232871
| 23> H 2.188725941142328 -2.252382915571973 0.3230982899705832
| 24> *
| 25>
| 26>                          ****END OF INPUT****

CARTESIAN COORDINATES (ANGSTROEM)
---------------------------------
  C     -2.605103   -1.472190   -0.001019
  O     -2.227674   -0.087931   -0.011576
  C     -0.884214    0.202822   -0.012076
  C     -0.562873    1.565432   -0.026825
  C      0.776868    1.932160   -0.022367
  C      1.791626    0.980257   -0.006300
  C      1.463324   -0.382486    0.004605
  C      0.112081   -0.769509    0.004681
  N      2.458422   -1.351311   -0.045761
  H     -2.241607   -1.972776    0.903587
  H     -2.228454   -1.990081   -0.890349
  H     -3.695672   -1.480816   -0.008918
  H     -1.355689    2.305123   -0.038077
  H      1.038307    2.986160   -0.029014
  H      2.834193    1.283431   -0.002611
  H     -0.130173   -1.825834    0.017414
  H      3.355121   -1.047446    0.306656
  H      2.188726   -2.252383    0.323098

 Total Charge           Charge          ....    0
 Multiplicity           Mult            ....    1
 Number of Electrons    NEL             ....   66
 Basis Dimension        Dim             ....  333

ORBITAL ENERGIES
----------------

  NO   OCC          E(Eh)            E(eV)
   0   2.0000     -21.698296      -590.4407
   1   2.0000     -16.531471      -449.8442
   2   2.0000     -12.107438      -329.4602
   3   2.0000     -12.099199      -329.2359
   4   2.0000     -12.091968      -329.0392
   5   2.0000     -12.048056      -327.8443
   6   2.0000     -12.039013      -327.5982
   7   2.0000     -12.032545      -327.4222
   8   2.0000     -12.029354      -327.3354
   9   2.0000      -1.710218       -46.5374
  10   2.0000      -1.491219       -40.5781
  11   2.0000      -1.368738       -37.2452
  12   2.0000      -1.285775       -34.9877
  13   2.0000      -1.263782       -34.3893
  14   2.0000      -1.218300       -33.1516
  15   2.0000      -1.117176       -30.3999
  16   2.0000      -1.107010       -30.1233
  17   2.0000      -1.049368       -28.5548
  18   2.0000      -1.014011       -27.5926
  19   2.0000      -0.977471       -26.5983
  20   2.0000      -0.971981       -26.4489
  21   2.0000      -0.968185       -26.3456
  22   2.0000      -0.938945       -25.5500
  23   2.0000      -0.915795       -24.9200
  24   2.0000      -0.880808       -23.9680
  25   2.0000      -0.834384       -22.7047
  26   2.0000      -0.829075       -22.5603
  27   2.0000      -0.824738       -22.4423
  28   2.0000      -0.817932       -22.2571
  29   2.0000      -0.811770       -22.0894
  30   2.0000      -0.738247       -20.0887
  31   2.0000      -0.633931       -17.2501
  32   2.0000      -0.612005       -16.6535
  33   0.0000      -0.238740        -6.4964
  34   0.0000      -0.232383        -6.3235
  35   0.0000      -0.177093        -4.8190
  36   0.0000      -0.115114        -3.1324
  37   0.0000      -0.065498        -1.7823

MULLIKEN ATOMIC CHARGES
-----------------------
   0 C :   -0.210834
   1 O :   -0.248509
   2 C :    0.317121
   3 C :   -0.269256
   4 C :   -0.044974
   5 C :   -0.290353
   6 C :    0.279856
   7 C :   -0.352785
   8 N :   -0.446862
   9 H :    0.118106
  10 H :    0.122277
  11 H :    0.136478
  12 H :    0.111341
  13 H :    0.112958
  14 H :    0.102154
  15 H :    0.114012
  16 H :    0.226283
  17 H :    0.222987
Sum of atomic charges:    0.0000000

LOEWDIN ATOMIC CHARGES
----------------------
   0 C :   -0.314688
   1 O :    0.214215
   2 C :   -0.237382
   3 C :   -0.145681
   4 C :   -0.136710
   5 C :   -0.160044
   6 C :   -0.237319
   7 C :   -0.142541
   8 N :   -0.049872
   9 H :    0.104497
  10 H :    0.105653
  11 H :    0.112071
  12 H :    0.143871
  13 H :    0.143012
  14 H :    0.137169
  15 H :    0.142354
  16 H :    0.161611
  17 H :    0.159785

  Mayer bond orders larger than 0.100000
B(  0-C ,  1-O ) :   0.9540 B(  0-C ,  9-H ) :   0.9718 B(  0-C , 10-H ) :   0.9720
B(  0-C , 11-H ) :   0.9787 B(  1-O ,  2-C ) :   1.1453 B(  2-C ,  3-C ) :   1.3669
B(  2-C ,  7-C ) :   1.4037 B(  3-C ,  4-C ) :   1.4604 B(  3-C , 12-H ) :   0.9805
B(  4-C ,  5-C ) :   1.4530 B(  4-C , 13-H ) :   0.9753 B(  5-C ,  6-C ) :   1.4023
B(  5-C , 14-H ) :   0.9649 B(  6-C ,  7-C ) :   1.3509 B(  6-C ,  8-N ) :   1.0632
B(  7-C , 15-H ) :   0.9314 B(  8-N , 16-H ) :   0.9307 B(  8-N , 17-H ) :   0.9299

FINAL SINGLE POINT ENERGY      -402.149356225638

DIPOLE MOMENT
-------------

Method             : SCF
Type of density    : Electron Density
Multiplicity       :   1
Irrep              :   0
Energy             :  -402.1599191738375794 Eh
Relativity type    :
Basis              : AO
                                X                 Y                 Z
Electronic contribution:      0.541633778       2.933543610      -0.210886305
Nuclear contribution   :     -0.216674175      -3.779717424       0.610821599
                        -----------------------------------------
Total Dipole Moment    :      0.324959602      -0.846173814       0.399935294
                        -----------------------------------------
Magnitude (a.u.)       :      0.990735639
Magnitude (Debye)      :      2.518249866

Rotational constants in cm-1:             0.093792             0.043436             0.029882
Rotational constants in MHz :          2811.806458          1302.175182           895.844195

                             ****ORCA TERMINATED NORMALLY****
TOTAL RUN TIME: 0 days 0 hours 3 minutes 33 seconds 874 msec
