                         Program Version 6.0.0  -   RELEASE  -
|  1> ! wb97x-v def2-tzvp def2/J RIJCOSX DEFGRID2 scfconv7 GCP(DFT/TZ) printgap
|  2> %output
|  3>     printlevel normal
|  4> end
|  5> %cpcm
|  6>     smd true
|  7>     smdsolvent "water"
|  8> end
|  9> * xyz 0 1
| 10> C -2.605103274734158 -1.472189946421564 -0.0010188616104640754
| 11> O -2.227673859346702 -0.0879314321103713 -0.011576087045349041
| 12> C -0.8842135754708329 0.20282218439497007 -0.012076127595717717
| 13> C -0.562872644417429 1.5654321256438688 -0.0268249631353267
| 14> C 0.7768681363834339 1.9321598526354091 -0.02236657063663125
| 15> C 1.7916264994803217 0.9802570267914726 -0.006300357331370184
| 16> C 1.4633238822562127 -0.38248604069412817 0.004604578681062524
| 17> C 0.11208135470197089 -0.7695092779395941 0.004680917794115242
| 18> N 2.458421706161254 -1.3513110445369811 -0.04576051966205396
| 19> H -2.24160717603314 -1.972776100625543 0.9035866263421705
| 20> H -2.2284542049387825 -1.9900811502155662 -0.8903488894278706
| 21> H -3.6956718881355557 -1.4808159499511078 -0.008918036710651429
| 22> H -1.3556886546896616 2.3051233574258383 -0.03807726095969973
| 23> H 1.038306617594295 2.986159731350961 -0.02901401505602118
| 24> H 2.8341927901873274 1.2834305115639968 -0.002610578511753815
| 25> H -0.13017278159694343 -1.825834402034555 0.017414053574174596
| 26> H 3.355121382738364 -1.0474460946961188 0.306655935232871
| 27> H 2.188725941142328 -2.252382915571973 0.3230982899705832
| 28> *
| 29>
| 30>                          ****END OF INPUT****

CARTESIAN COORDINATES (ANGSTROEM)
---------------------------------
  C     -2.605103   -1.472190   -0.001019
  O     -2.227674   -0.087931   -0.011576
  C     -0.884214    0.202822   -0.012076
  C     -0.562873    1.565432   -0.026825
  C      0.776868    1.932160   -0.022367
  C      1.791626    0.980257   -0.006300
  C      1.463324   -0.382486    0.004605
  C      0.112081   -0.769509    0.004681
  N      2.458422   -1.351311   -0.045761
  H     -2.241607   -1.972776    0.903587
  H     -2.228454   -1.990081   -0.890349
  H     -3.695672   -1.480816   -0.008918
  H     -1.355689    2.305123   -0.038077
  H      1.038307    2.986160   -0.029014
  H      2.834193    1.283431   -0.002611
  H     -0.130173   -1.825834    0.017414
  H      3.355121   -1.047446    0.306656
  H      2.188726   -2.252383    0.323098

 Total Charge           Charge          ....    0
 Multiplicity           Mult            ....    1
 Number of Electrons    NEL             ....   66
 Basis Dimension        Dim             ....  333

ORBITAL ENERGIES
----------------

  NO   OCC          E(Eh)            E(eV)
   0   2.0000     -21.703587      -590.5846
   1   2.0000     -16.521825      -449.5817
   2   2.0000     -12.112201      -329.5897
   3   2.0000     -12.093435      -329.0791
   4   2.0000     -12.087129      -328.9075
   5   2.0000     -12.051392      -327.9350
   6   2.0000     -12.038938      -327.5962
   7   2.0000     -12.034337      -327.4710
   8   2.0000     -12.033829      -327.4571
   9   2.0000      -1.715844       -46.6905
  10   2.0000      -1.484110       -40.3847
  11   2.0000      -1.372736       -37.3540
  12   2.0000      -1.288015       -35.0487
  13   2.0000      -1.265898       -34.4468
  14   2.0000      -1.217316       -33.1248
  15   2.0000      -1.118162       -30.4267
  16   2.0000      -1.105938       -30.0941
  17   2.0000      -1.048316       -28.5261
  18   2.0000      -1.010406       -27.4945
  19   2.0000      -0.976553       -26.5734
  20   2.0000      -0.973308       -26.4850
  21   2.0000      -0.968256       -26.3476
  22   2.0000      -0.939247       -25.5582
  23   2.0000      -0.916316       -24.9342
  24   2.0000      -0.880744       -23.9663
  25   2.0000      -0.833094       -22.6696
  26   2.0000      -0.822386       -22.3783
  27   2.0000      -0.821556       -22.3557
  28   2.0000      -0.813067       -22.1247
  29   2.0000      -0.808972       -22.0133
  30   2.0000      -0.741859       -20.1870
  31   2.0000      -0.639055       -17.3896
  32   2.0000      -0.615989       -16.7619
  33   0.0000      -0.244107        -6.6425
  34   0.0000      -0.237208        -6.4548
  35   0.0000      -0.174567        -4.7502
  36   0.0000      -0.113590        -3.0909
  37   0.0000      -0.068502        -1.8640

MULLIKEN ATOMIC CHARGES
-----------------------
   0 C :   -0.227029
   1 O :   -0.307511
   2 C :    0.351862
   3 C :   -0.345902
   4 C :   -0.080669
   5 C :   -0.365504
   6 C :    0.243834
   7 C :   -0.403171
   8 N :   -0.495929
   9 H :    0.143829
  10 H :    0.143955
  11 H :    0.157931
  12 H :    0.147521
  13 H :    0.159401
  14 H :    0.155381
  15 H :    0.172613
  16 H :    0.274882
  17 H :    0.274506
Sum of atomic charges:    0.0000000

LOEWDIN ATOMIC CHARGES
----------------------
   0 C :   -0.309053
   1 O :    0.188112
   2 C :   -0.253612
   3 C :   -0.170083
   4 C :   -0.151151
   5 C :   -0.169732
   6 C :   -0.248121
   7 C :   -0.140322
   8 N :   -0.053673
   9 H :    0.113701
  10 H :    0.113823
  11 H :    0.117506
  12 H :    0.149205
  13 H :    0.152676
  14 H :    0.149375
  15 H :    0.158667
  16 H :    0.176555
  17 H :    0.176128

  Mayer bond orders larger than 0.100000
B(  0-C ,  1-O ) :   0.9137 B(  0-C ,  9-H ) :   0.9694 B(  0-C , 10-H ) :   0.9694
B(  0-C , 11-H ) :   0.9701 B(  1-O ,  2-C ) :   1.1136 B(  2-C ,  3-C ) :   1.3196
B(  2-C ,  7-C ) :   1.3720 B(  3-C ,  4-C ) :   1.4425 B(  3-C , 12-H ) :   0.9905
B(  4-C ,  5-C ) :   1.4231 B(  4-C , 13-H ) :   0.9750 B(  5-C ,  6-C ) :   1.3692
B(  5-C , 14-H ) :   0.9778 B(  6-C ,  7-C ) :   1.3235 B(  6-C ,  8-N ) :   1.1247
B(  7-C , 15-H ) :   0.9486 B(  8-N , 16-H ) :   0.9093 B(  8-N , 17-H ) :   0.9081

FINAL SINGLE POINT ENERGY      -402.160261826454

DIPOLE MOMENT
-------------

Method             : SCF
Type of density    : Electron Density
Multiplicity       :   1
Irrep              :   0
Energy             :  -402.1708247746541929 Eh
Relativity type    :
Basis              : AO
                                X                 Y                 Z
Electronic contribution:      0.779387741       2.519718074      -0.063549020
Nuclear contribution   :     -0.216674175      -3.779717424       0.610821599
                        -----------------------------------------
Total Dipole Moment    :      0.562713566      -1.259999350       0.547272579
                        -----------------------------------------
Magnitude (a.u.)       :      1.484504023
Magnitude (Debye)      :      3.773309357

Rotational constants in cm-1:             0.093792             0.043436             0.029882
Rotational constants in MHz :          2811.806458          1302.175182           895.844195

                             ****ORCA TERMINATED NORMALLY****
TOTAL RUN TIME: 0 days 0 hours 3 minutes 41 seconds 555 msec
