                         Program Version 6.0.0  -   RELEASE  -
|  1> ! pbe def2-sv(p) def2/J RI DEFGRID1 loosescf d4 GCP(DFT/SV(P)) printgap
|  2> %output
|  3>     printlevel normal
|  4> end
|  5> * xyz 0 1
|  6> C 0.4071244437 -1.287039687 5.414e-07
|  7> C 1.7584740216 -0.9776341353 6.53139e-05
|  8> N 2.2216146939 0.2626116874 -2.82561e-05
|  9> C 1.3524920809 1.2615098145 1.64399e-05
| 10> C -0.0202834323 1.0736190874 7.27019e-05
| 11> C -0.5084652609 -0.2343963664 5.16703e-05
| 12> C -1.953567098 -0.4947697025 -5.15662e-05
| 13> O -2.8125815014 0.3575645737 2.4657e-06
| 14> H 0.0714189132 -2.3116402807 -0.0001936674
| 15> H 2.5104526281 -1.754038208 -0.0005068619
| 16> H 1.7819751239 2.2533216327 -0.0002858179
| 17> H -0.7104972776 1.9023346974 -0.0005672466
| 18> H -2.2229918863 -1.5657993486 5.89078e-05
| 19> *
| 20>
| 21>                          ****END OF INPUT****

CARTESIAN COORDINATES (ANGSTROEM)
---------------------------------
  C      0.407124   -1.287040    0.000001
  C      1.758474   -0.977634    0.000065
  N      2.221615    0.262612   -0.000028
  C      1.352492    1.261510    0.000016
  C     -0.020283    1.073619    0.000073
  C     -0.508465   -0.234396    0.000052
  C     -1.953567   -0.494770   -0.000052
  O     -2.812582    0.357565    0.000002
  H      0.071419   -2.311640   -0.000194
  H      2.510453   -1.754038   -0.000507
  H      1.781975    2.253322   -0.000286
  H     -0.710497    1.902335   -0.000567
  H     -2.222992   -1.565799    0.000059

 Total Charge           Charge          ....    0
 Multiplicity           Mult            ....    1
 Number of Electrons    NEL             ....   56
 Basis Dimension        Dim             ....  122

ORBITAL ENERGIES
----------------

  NO   OCC          E(Eh)            E(eV)
   0   2.0000     -18.767081      -510.6782
   1   2.0000     -14.002223      -381.0199
   2   2.0000      -9.986581      -271.7487
   3   2.0000      -9.941851      -270.5315
   4   2.0000      -9.940032      -270.4820
   5   2.0000      -9.932091      -270.2659
   6   2.0000      -9.926559      -270.1154
   7   2.0000      -9.920499      -269.9505
   8   2.0000      -0.959398       -26.1065
   9   2.0000      -0.877808       -23.8864
  10   2.0000      -0.754950       -20.5432
  11   2.0000      -0.705676       -19.2024
  12   2.0000      -0.618604       -16.8331
  13   2.0000      -0.589848       -16.0506
  14   2.0000      -0.535438       -14.5700
  15   2.0000      -0.483264       -13.1503
  16   2.0000      -0.452915       -12.3245
  17   2.0000      -0.434162       -11.8141
  18   2.0000      -0.403716       -10.9857
  19   2.0000      -0.399191       -10.8625
  20   2.0000      -0.394129       -10.7248
  21   2.0000      -0.383225       -10.4281
  22   2.0000      -0.362981        -9.8772
  23   2.0000      -0.335725        -9.1356
  24   2.0000      -0.279734        -7.6119
  25   2.0000      -0.261035        -7.1031
  26   2.0000      -0.225815        -6.1447
  27   2.0000      -0.219850        -5.9824
  28   0.0000      -0.118628        -3.2280
  29   0.0000      -0.064228        -1.7477
  30   0.0000      -0.018185        -0.4949
  31   0.0000       0.046656         1.2696
  32   0.0000       0.058958         1.6043

MULLIKEN ATOMIC CHARGES
-----------------------
   0 C :   -0.103770
   1 C :   -0.043410
   2 N :   -0.051602
   3 C :   -0.044407
   4 C :   -0.094918
   5 C :    0.083390
   6 C :    0.052044
   7 O :   -0.143568
   8 H :    0.066330
   9 H :    0.078273
  10 H :    0.080676
  11 H :    0.076445
  12 H :    0.044517
Sum of atomic charges:    0.0000000

LOEWDIN ATOMIC CHARGES
----------------------
   0 C :   -0.116358
   1 C :   -0.073998
   2 N :   -0.059597
   3 C :   -0.073077
   4 C :   -0.099982
   5 C :   -0.077438
   6 C :    0.010877
   7 O :   -0.106053
   8 H :    0.132594
   9 H :    0.119557
  10 H :    0.120345
  11 H :    0.139006
  12 H :    0.084126

  Mayer bond orders larger than 0.100000
B(  0-C ,  1-C ) :   1.3671 B(  0-C ,  5-C ) :   1.3555 B(  0-C ,  8-H ) :   0.9424
B(  1-C ,  2-N ) :   1.5512 B(  1-C ,  9-H ) :   0.9528 B(  2-N ,  3-C ) :   1.5284
B(  3-C ,  4-C ) :   1.3685 B(  3-C , 10-H ) :   0.9540 B(  4-C ,  5-C ) :   1.3768
B(  4-C , 11-H ) :   0.9420 B(  5-C ,  6-C ) :   0.9750 B(  6-C ,  7-O ) :   2.1634
B(  6-C , 12-H ) :   0.9181

Dispersion correction           -0.013074422
FINAL SINGLE POINT ENERGY      -360.861891766281

DIPOLE MOMENT
-------------

Method             : SCF
Type of density    : Electron Density
Multiplicity       :   1
Irrep              :   0
Energy             :  -360.8980331661600758 Eh
Relativity type    :
Basis              : AO
                                X                 Y                 Z
Electronic contribution:     -1.090346006       0.829964495       0.001120551
Nuclear contribution   :      1.312470380      -1.377832255      -0.001402396
                        -----------------------------------------
Total Dipole Moment    :      0.222124374      -0.547867760      -0.000281845
                        -----------------------------------------
Magnitude (a.u.)       :      0.591183896
Magnitude (Debye)      :      1.502670045

Rotational constants in cm-1:             0.185921             0.052550             0.040970
Rotational constants in MHz :          5573.760867          1575.396128          1228.240103

                             ****ORCA TERMINATED NORMALLY****
TOTAL RUN TIME: 0 days 0 hours 0 minutes 8 seconds 554 msec
