                         Program Version 6.0.0  -   RELEASE  -
|  1> ! wb97x-v def2-tzvp def2/J RIJCOSX DEFGRID2 scfconv7 GCP(DFT/TZ) printgap
|  2> %output
|  3>     printlevel normal
|  4> end
|  5> * xyz 0 1
|  6> C 1.7484713416539768 -0.8626333479583832 0.4204713484359785
|  7> C 0.9567069544522504 0.03669364595046841 -0.5304706687352991
|  8> C -0.46403217012424647 0.3064963159671338 -0.11857107088613955
|  9> O -1.0079566668826145 1.3929633009393105 -0.19537623353711175
| 10> O -1.191849251048211 -0.741831881934462 0.3432906127597891
| 11> H 1.7268138346714637 -0.47241213843140706 1.4418793041791054
| 12> H 1.3742744052918137 -1.8915491644831262 0.43202267921561804
| 13> H 2.790157034340258 -0.9041189327460131 0.09306453177980085
| 14> H 1.4411454191355497 1.0083932483028137 -0.6459425191217851
| 15> H 0.9073476584454431 -0.4221301753732314 -1.5273801159688218
| 16> H -0.6603902265048195 -1.5534833769647025 0.35163865833243424
| 17> *
| 18>
| 19>                          ****END OF INPUT****

CARTESIAN COORDINATES (ANGSTROEM)
---------------------------------
  C      1.748471   -0.862633    0.420471
  C      0.956707    0.036694   -0.530471
  C     -0.464032    0.306496   -0.118571
  O     -1.007957    1.392963   -0.195376
  O     -1.191849   -0.741832    0.343291
  H      1.726814   -0.472412    1.441879
  H      1.374274   -1.891549    0.432023
  H      2.790157   -0.904119    0.093065
  H      1.441145    1.008393   -0.645943
  H      0.907348   -0.422130   -1.527380
  H     -0.660390   -1.553483    0.351639

 Total Charge           Charge          ....    0
 Multiplicity           Mult            ....    1
 Number of Electrons    NEL             ....   40
 Basis Dimension        Dim             ....  191

ORBITAL ENERGIES
----------------

  NO   OCC          E(Eh)            E(eV)
   0   2.0000     -21.725019      -591.1678
   1   2.0000     -21.654687      -589.2540
   2   2.0000     -12.183624      -331.5333
   3   2.0000     -12.079025      -328.6870
   4   2.0000     -12.071628      -328.4857
   5   2.0000      -1.761132       -47.9228
   6   2.0000      -1.693985       -46.0957
   7   2.0000      -1.318318       -35.8732
   8   2.0000      -1.213771       -33.0284
   9   2.0000      -1.162184       -31.6246
  10   2.0000      -1.058450       -28.8019
  11   2.0000      -1.041955       -28.3530
  12   2.0000      -0.978962       -26.6389
  13   2.0000      -0.949622       -25.8405
  14   2.0000      -0.905653       -24.6441
  15   2.0000      -0.887250       -24.1433
  16   2.0000      -0.875760       -23.8306
  17   2.0000      -0.851643       -23.1744
  18   2.0000      -0.820168       -22.3179
  19   2.0000      -0.806926       -21.9576
  20   0.0000      -0.310084        -8.4378
  21   0.0000      -0.137984        -3.7547
  22   0.0000      -0.091295        -2.4843
  23   0.0000      -0.052751        -1.4354
  24   0.0000      -0.010731        -0.2920

MULLIKEN ATOMIC CHARGES
-----------------------
   0 C :   -0.365072
   1 C :   -0.198131
   2 C :    0.279832
   3 O :   -0.316099
   4 O :   -0.332537
   5 H :    0.140812
   6 H :    0.093599
   7 H :    0.130149
   8 H :    0.128860
   9 H :    0.128555
  10 H :    0.310033
Sum of atomic charges:   -0.0000000

LOEWDIN ATOMIC CHARGES
----------------------
   0 C :   -0.301028
   1 C :   -0.259080
   2 C :   -0.488448
   3 O :    0.094902
   4 O :    0.099808
   5 H :    0.125883
   6 H :    0.110607
   7 H :    0.125602
   8 H :    0.153564
   9 H :    0.152900
  10 H :    0.185290

  Mayer bond orders larger than 0.100000
B(  0-C ,  1-C ) :   0.9622 B(  0-C ,  5-H ) :   0.9731 B(  0-C ,  6-H ) :   0.9693
B(  0-C ,  7-H ) :   0.9755 B(  1-C ,  2-C ) :   0.9940 B(  1-C ,  8-H ) :   0.9612
B(  1-C ,  9-H ) :   0.9483 B(  2-C ,  3-O ) :   2.1447 B(  2-C ,  4-O ) :   1.1836
B(  4-O , 10-H ) :   0.8814

FINAL SINGLE POINT ENERGY      -268.409923720273

DIPOLE MOMENT
-------------

Method             : SCF
Type of density    : Electron Density
Multiplicity       :   1
Irrep              :   0
Energy             :  -268.4172193304731877 Eh
Relativity type    :
Basis              : AO
                                X                 Y                 Z
Electronic contribution:     -5.759624102       2.655221537      -0.248856781
Nuclear contribution   :      7.126837268      -3.956896016       0.156242874
                        -----------------------------------------
Total Dipole Moment    :      1.367213166      -1.301674479      -0.092613907
                        -----------------------------------------
Magnitude (a.u.)       :      1.890027943
Magnitude (Debye)      :      4.804069246

Rotational constants in cm-1:             0.305508             0.130349             0.099488
Rotational constants in MHz :          9158.897359          3907.764047          2982.584755

                             ****ORCA TERMINATED NORMALLY****
TOTAL RUN TIME: 0 days 0 hours 0 minutes 57 seconds 574 msec
