                         Program Version 6.0.0  -   RELEASE  -
|  1> ! wb97x-v def2-tzvp def2/J RIJCOSX DEFGRID2 scfconv7 GCP(DFT/TZ) printgap
|  2> %output
|  3>     printlevel normal
|  4> end
|  5> %cpcm
|  6>     smd true
|  7>     smdsolvent "water"
|  8> end
|  9> * xyz 0 1
| 10> C 1.7484713416539768 -0.8626333479583832 0.4204713484359785
| 11> C 0.9567069544522504 0.03669364595046841 -0.5304706687352991
| 12> C -0.46403217012424647 0.3064963159671338 -0.11857107088613955
| 13> O -1.0079566668826145 1.3929633009393105 -0.19537623353711175
| 14> O -1.191849251048211 -0.741831881934462 0.3432906127597891
| 15> H 1.7268138346714637 -0.47241213843140706 1.4418793041791054
| 16> H 1.3742744052918137 -1.8915491644831262 0.43202267921561804
| 17> H 2.790157034340258 -0.9041189327460131 0.09306453177980085
| 18> H 1.4411454191355497 1.0083932483028137 -0.6459425191217851
| 19> H 0.9073476584454431 -0.4221301753732314 -1.5273801159688218
| 20> H -0.6603902265048195 -1.5534833769647025 0.35163865833243424
| 21> *
| 22>
| 23>                          ****END OF INPUT****

CARTESIAN COORDINATES (ANGSTROEM)
---------------------------------
  C      1.748471   -0.862633    0.420471
  C      0.956707    0.036694   -0.530471
  C     -0.464032    0.306496   -0.118571
  O     -1.007957    1.392963   -0.195376
  O     -1.191849   -0.741832    0.343291
  H      1.726814   -0.472412    1.441879
  H      1.374274   -1.891549    0.432023
  H      2.790157   -0.904119    0.093065
  H      1.441145    1.008393   -0.645943
  H      0.907348   -0.422130   -1.527380
  H     -0.660390   -1.553483    0.351639

 Total Charge           Charge          ....    0
 Multiplicity           Mult            ....    1
 Number of Electrons    NEL             ....   40
 Basis Dimension        Dim             ....  191

ORBITAL ENERGIES
----------------

  NO   OCC          E(Eh)            E(eV)
   0   2.0000     -21.722643      -591.1032
   1   2.0000     -21.669012      -589.6438
   2   2.0000     -12.191917      -331.7589
   3   2.0000     -12.059008      -328.1423
   4   2.0000     -12.040857      -327.6484
   5   2.0000      -1.764937       -48.0264
   6   2.0000      -1.705204       -46.4010
   7   2.0000      -1.299193       -35.3528
   8   2.0000      -1.208889       -32.8955
   9   2.0000      -1.145732       -31.1770
  10   2.0000      -1.075297       -29.2603
  11   2.0000      -1.036948       -28.2168
  12   2.0000      -0.980621       -26.6841
  13   2.0000      -0.951236       -25.8844
  14   2.0000      -0.909520       -24.7493
  15   2.0000      -0.874741       -23.8029
  16   2.0000      -0.868744       -23.6397
  17   2.0000      -0.835221       -22.7275
  18   2.0000      -0.795878       -21.6570
  19   2.0000      -0.780227       -21.2310
  20   0.0000      -0.310364        -8.4454
  21   0.0000      -0.129306        -3.5186
  22   0.0000      -0.057610        -1.5677
  23   0.0000      -0.034110        -0.9282
  24   0.0000       0.014547         0.3958

MULLIKEN ATOMIC CHARGES
-----------------------
   0 C :   -0.409840
   1 C :   -0.185691
   2 C :    0.348381
   3 O :   -0.453813
   4 O :   -0.395593
   5 H :    0.142735
   6 H :    0.136939
   7 H :    0.143543
   8 H :    0.133791
   9 H :    0.155942
  10 H :    0.383607
Sum of atomic charges:   -0.0000000

LOEWDIN ATOMIC CHARGES
----------------------
   0 C :   -0.296692
   1 C :   -0.248449
   2 C :   -0.470020
   3 O :    0.010390
   4 O :    0.087786
   5 H :    0.126589
   6 H :    0.123197
   7 H :    0.128910
   8 H :    0.154801
   9 H :    0.166172
  10 H :    0.217317

  Mayer bond orders larger than 0.100000
B(  0-C ,  1-C ) :   0.9648 B(  0-C ,  5-H ) :   0.9727 B(  0-C ,  6-H ) :   0.9662
B(  0-C ,  7-H ) :   0.9702 B(  1-C ,  2-C ) :   1.0030 B(  1-C ,  8-H ) :   0.9611
B(  1-C ,  9-H ) :   0.9292 B(  2-C ,  3-O ) :   2.0151 B(  2-C ,  4-O ) :   1.2170
B(  4-O , 10-H ) :   0.8370

FINAL SINGLE POINT ENERGY      -268.427179081666

DIPOLE MOMENT
-------------

Method             : SCF
Type of density    : Electron Density
Multiplicity       :   1
Irrep              :   0
Energy             :  -268.4344746918660576 Eh
Relativity type    :
Basis              : AO
                                X                 Y                 Z
Electronic contribution:     -5.383185467       2.099647532      -0.286744119
Nuclear contribution   :      7.126837268      -3.956896016       0.156242874
                        -----------------------------------------
Total Dipole Moment    :      1.743651801      -1.857248484      -0.130501245
                        -----------------------------------------
Magnitude (a.u.)       :      2.550828122
Magnitude (Debye)      :      6.483689819

Rotational constants in cm-1:             0.305508             0.130349             0.099488
Rotational constants in MHz :          9158.897359          3907.764047          2982.584755

                             ****ORCA TERMINATED NORMALLY****
TOTAL RUN TIME: 0 days 0 hours 0 minutes 53 seconds 962 msec
