                         Program Version 6.0.0  -   RELEASE  -
|  1> ! pbe def2-sv(p) def2/J RI DEFGRID1 loosescf d4 GCP(DFT/SV(P)) printgap
|  2> %output
|  3>     printlevel normal
|  4> end
|  5> * xyz 0 1
|  6> C -2.228241214 -0.9880803732 -0.3941043331
|  7> C -1.1868796193 -0.1891810668 0.4121695728
|  8> H -1.6659203812 0.2447582252 1.2993265508
|  9> C -0.5913216701 0.9592920028 -0.422417906
| 10> H -0.4384744276 0.6352035614 -1.4598669446
| 11> C 0.7796206123 1.3331233633 0.164472383
| 12> H 0.6472633694 1.5338915825 1.2411201482
| 13> C 1.744017214 0.1547758062 -0.015800122
| 14> H 2.1391285686 0.1850821203 -1.0360608599
| 15> C 0.9850685115 -1.1848064505 0.1621800038
| 16> H 1.6197784329 -1.8603085969 0.7538378897
| 17> O -0.1744047648 -1.0420557051 0.9441598245
| 18> O 0.719891896 -1.7106897443 -1.0988535566
| 19> O 2.8615561394 0.2296666505 0.8245270527
| 20> O 1.3173946185 2.4616037263 -0.4698260402
| 21> O -1.3936299563 2.1151505404 -0.36514021
| 22> O -2.6986164009 -2.1244464611 0.2832411945
| 23> H -1.7755435612 -1.3582049279 -1.3161490882
| 24> H -3.0606274298 -0.318149999 -0.6481040766
| 25> H 0.4208928622 -2.6301656655 -1.0186892919
| 26> H 2.5795908508 0.3599647195 1.7423380048
| 27> H 0.6289652322 3.1461274909 -0.4948480212
| 28> H -2.1441263501 2.0373261715 -0.9685071596
| 29> H -3.0548820343 -1.8665082198 1.1449836846
| 30> *
| 31>
| 32>                          ****END OF INPUT****

CARTESIAN COORDINATES (ANGSTROEM)
---------------------------------
  C     -2.228241   -0.988080   -0.394104
  C     -1.186880   -0.189181    0.412170
  H     -1.665920    0.244758    1.299327
  C     -0.591322    0.959292   -0.422418
  H     -0.438474    0.635204   -1.459867
  C      0.779621    1.333123    0.164472
  H      0.647263    1.533892    1.241120
  C      1.744017    0.154776   -0.015800
  H      2.139129    0.185082   -1.036061
  C      0.985069   -1.184806    0.162180
  H      1.619778   -1.860309    0.753838
  O     -0.174405   -1.042056    0.944160
  O      0.719892   -1.710690   -1.098854
  O      2.861556    0.229667    0.824527
  O      1.317395    2.461604   -0.469826
  O     -1.393630    2.115151   -0.365140
  O     -2.698616   -2.124446    0.283241
  H     -1.775544   -1.358205   -1.316149
  H     -3.060627   -0.318150   -0.648104
  H      0.420893   -2.630166   -1.018689
  H      2.579591    0.359965    1.742338
  H      0.628965    3.146127   -0.494848
  H     -2.144126    2.037326   -0.968507
  H     -3.054882   -1.866508    1.144984

 Total Charge           Charge          ....    0
 Multiplicity           Mult            ....    1
 Number of Electrons    NEL             ....   96
 Basis Dimension        Dim             ....  192

ORBITAL ENERGIES
----------------

  NO   OCC          E(Eh)            E(eV)
   0   2.0000     -18.772894      -510.8364
   1   2.0000     -18.767774      -510.6971
   2   2.0000     -18.766117      -510.6520
   3   2.0000     -18.750953      -510.2394
   4   2.0000     -18.745717      -510.0969
   5   2.0000     -18.742343      -510.0051
   6   2.0000      -9.982569      -271.6395
   7   2.0000      -9.949061      -270.7277
   8   2.0000      -9.946338      -270.6536
   9   2.0000      -9.942035      -270.5365
  10   2.0000      -9.936669      -270.3905
  11   2.0000      -9.936269      -270.3796
  12   2.0000      -0.982015       -26.7220
  13   2.0000      -0.952670       -25.9235
  14   2.0000      -0.930612       -25.3232
  15   2.0000      -0.927726       -25.2447
  16   2.0000      -0.912536       -24.8314
  17   2.0000      -0.911011       -24.7899
  18   2.0000      -0.708049       -19.2670
  19   2.0000      -0.689535       -18.7632
  20   2.0000      -0.622976       -16.9520
  21   2.0000      -0.586652       -15.9636
  22   2.0000      -0.568256       -15.4630
  23   2.0000      -0.519882       -14.1467
  24   2.0000      -0.508348       -13.8329
  25   2.0000      -0.500536       -13.6203
  26   2.0000      -0.481699       -13.1077
  27   2.0000      -0.447788       -12.1849
  28   2.0000      -0.439701       -11.9649
  29   2.0000      -0.429172       -11.6784
  30   2.0000      -0.415050       -11.2941
  31   2.0000      -0.403175       -10.9710
  32   2.0000      -0.394139       -10.7251
  33   2.0000      -0.378217       -10.2918
  34   2.0000      -0.364027        -9.9057
  35   2.0000      -0.351866        -9.5748
  36   2.0000      -0.328733        -8.9453
  37   2.0000      -0.310947        -8.4613
  38   2.0000      -0.304710        -8.2916
  39   2.0000      -0.287071        -7.8116
  40   2.0000      -0.285290        -7.7631
  41   2.0000      -0.270543        -7.3619
  42   2.0000      -0.263039        -7.1577
  43   2.0000      -0.238574        -6.4919
  44   2.0000      -0.232126        -6.3165
  45   2.0000      -0.223196        -6.0735
  46   2.0000      -0.215905        -5.8751
  47   2.0000      -0.201167        -5.4740
  48   0.0000       0.002925         0.0796
  49   0.0000       0.018138         0.4936
  50   0.0000       0.025998         0.7074
  51   0.0000       0.038800         1.0558
  52   0.0000       0.060645         1.6502

MULLIKEN ATOMIC CHARGES
-----------------------
   0 C :    0.059643
   1 C :    0.050467
   2 H :    0.058915
   3 C :   -0.031447
   4 H :    0.075991
   5 C :    0.064114
   6 H :    0.038110
   7 C :    0.106976
   8 H :    0.084203
   9 C :    0.145747
  10 H :    0.064730
  11 O :   -0.311917
  12 O :   -0.396645
  13 O :   -0.412319
  14 O :   -0.408954
  15 O :   -0.415608
  16 O :   -0.425112
  17 H :    0.084058
  18 H :    0.051020
  19 H :    0.312961
  20 H :    0.296998
  21 H :    0.301093
  22 H :    0.311246
  23 H :    0.295731
Sum of atomic charges:   -0.0000000

LOEWDIN ATOMIC CHARGES
----------------------
   0 C :   -0.141067
   1 C :   -0.079246
   2 H :    0.110249
   3 C :   -0.084608
   4 H :    0.112146
   5 C :   -0.067039
   6 H :    0.098261
   7 C :   -0.071411
   8 H :    0.129494
   9 C :   -0.011809
  10 H :    0.099797
  11 O :   -0.150608
  12 O :   -0.306496
  13 O :   -0.304914
  14 O :   -0.314726
  15 O :   -0.316412
  16 O :   -0.332753
  17 H :    0.112594
  18 H :    0.088069
  19 H :    0.292102
  20 H :    0.282651
  21 H :    0.281076
  22 H :    0.290994
  23 H :    0.283655

  Mayer bond orders larger than 0.100000
B(  0-C ,  1-C ) :   1.0443 B(  0-C , 16-O ) :   1.0885 B(  0-C , 17-H ) :   0.9014
B(  0-C , 18-H ) :   0.9115 B(  1-C ,  2-H ) :   0.8774 B(  1-C ,  3-C ) :   0.9539
B(  1-C , 11-O ) :   0.9972 B(  3-C ,  4-H ) :   0.8872 B(  3-C ,  5-C ) :   1.0263
B(  3-C , 15-O ) :   1.0611 B(  5-C ,  6-H ) :   0.8549 B(  5-C ,  7-C ) :   1.0298
B(  5-C , 14-O ) :   1.1106 B(  7-C ,  8-H ) :   0.8658 B(  7-C ,  9-C ) :   0.9702
B(  7-C , 13-O ) :   1.0561 B(  9-C , 10-H ) :   0.8987 B(  9-C , 11-O ) :   1.0706
B(  9-C , 12-O ) :   1.0990 B( 12-O , 19-H ) :   0.8317 B( 13-O , 20-H ) :   0.8490
B( 14-O , 21-H ) :   0.8316 B( 15-O , 22-H ) :   0.8425 B( 16-O , 23-H ) :   0.8521

Dispersion correction           -0.024490305
FINAL SINGLE POINT ENERGY      -685.688364317141

DIPOLE MOMENT
-------------

Method             : SCF
Type of density    : Electron Density
Multiplicity       :   1
Irrep              :   0
Energy             :  -685.8177249460749181 Eh
Relativity type    :
Basis              : AO
                                X                 Y                 Z
Electronic contribution:      2.508058814      -0.048628606       0.982798027
Nuclear contribution   :     -3.840842227       0.101227551      -0.711840457
                        -----------------------------------------
Total Dipole Moment    :     -1.332783413       0.052598945       0.270957570
                        -----------------------------------------
Magnitude (a.u.)       :      1.361064392
Magnitude (Debye)      :      3.459550751

Rotational constants in cm-1:             0.042736             0.026122             0.018705
Rotational constants in MHz :          1281.196419           783.132269           560.758567

                             ****ORCA TERMINATED NORMALLY****
TOTAL RUN TIME: 0 days 0 hours 0 minutes 11 seconds 929 msec
