                         Program Version 6.0.0  -   RELEASE  -
|  1> ! pbe def2-sv(p) def2/J RI DEFGRID1 loosescf d4 GCP(DFT/SV(P)) printgap
|  2> %output
|  3>     printlevel normal
|  4> end
|  5> * xyz 0 1
|  6> C -2.1908110689 -0.9996141447 -0.4447083801
|  7> C -1.1704577045 -0.2244179412 0.3968953593
|  8> H -1.692804608 0.178598119 1.2717900825
|  9> C -0.5921828292 0.941265352 -0.4165737478
| 10> H -0.4441833612 0.6186146945 -1.4621681213
| 11> C 0.7716152499 1.3216007804 0.1721532358
| 12> H 0.6660990444 1.4927231389 1.2491431283
| 13> C 1.7414680484 0.1572466371 -0.0585768602
| 14> H 2.0544967242 0.1525740776 -1.115693395
| 15> C 1.0292978535 -1.1883461589 0.2003767862
| 16> H 1.6829801401 -1.7839735458 0.853015639
| 17> O -0.1523658755 -1.0578002067 0.9438006921
| 18> O 0.8241796962 -1.81053482 -1.0308347614
| 19> O 2.8640126547 0.2206578135 0.781504726
| 20> O 1.2416151635 2.5331013034 -0.3629260263
| 21> O -1.4959145197 2.015263549 -0.3844041434
| 22> O -2.8745774238 -1.9159186526 0.3778771851
| 23> H -1.6687206342 -1.5148236549 -1.2599669933
| 24> H -2.8811936102 -0.2572634977 -0.8653840517
| 25> H 0.5808902423 -2.7388036584 -0.8922814106
| 26> H 3.2606084087 1.1037140117 0.7177602823
| 27> H 1.4117196697 2.4296005324 -1.3121650881
| 28> H -0.9862210788 2.8434739045 -0.4026765238
| 29> H -3.5449208341 -2.3748283072 -0.1480068364
| 30> *
| 31>
| 32>                          ****END OF INPUT****

CARTESIAN COORDINATES (ANGSTROEM)
---------------------------------
  C     -2.190811   -0.999614   -0.444708
  C     -1.170458   -0.224418    0.396895
  H     -1.692805    0.178598    1.271790
  C     -0.592183    0.941265   -0.416574
  H     -0.444183    0.618615   -1.462168
  C      0.771615    1.321601    0.172153
  H      0.666099    1.492723    1.249143
  C      1.741468    0.157247   -0.058577
  H      2.054497    0.152574   -1.115693
  C      1.029298   -1.188346    0.200377
  H      1.682980   -1.783974    0.853016
  O     -0.152366   -1.057800    0.943801
  O      0.824180   -1.810535   -1.030835
  O      2.864013    0.220658    0.781505
  O      1.241615    2.533101   -0.362926
  O     -1.495915    2.015264   -0.384404
  O     -2.874577   -1.915919    0.377877
  H     -1.668721   -1.514824   -1.259967
  H     -2.881194   -0.257263   -0.865384
  H      0.580890   -2.738804   -0.892281
  H      3.260608    1.103714    0.717760
  H      1.411720    2.429601   -1.312165
  H     -0.986221    2.843474   -0.402677
  H     -3.544921   -2.374828   -0.148007

 Total Charge           Charge          ....    0
 Multiplicity           Mult            ....    1
 Number of Electrons    NEL             ....   96
 Basis Dimension        Dim             ....  192

ORBITAL ENERGIES
----------------

  NO   OCC          E(Eh)            E(eV)
   0   2.0000     -18.776696      -510.9399
   1   2.0000     -18.767017      -510.6765
   2   2.0000     -18.758695      -510.4500
   3   2.0000     -18.754842      -510.3452
   4   2.0000     -18.748052      -510.1604
   5   2.0000     -18.740738      -509.9614
   6   2.0000      -9.984884      -271.7025
   7   2.0000      -9.947219      -270.6776
   8   2.0000      -9.945312      -270.6257
   9   2.0000      -9.942147      -270.5396
  10   2.0000      -9.937601      -270.4159
  11   2.0000      -9.923469      -270.0313
  12   2.0000      -0.979021       -26.6405
  13   2.0000      -0.959149       -26.0998
  14   2.0000      -0.931189       -25.3389
  15   2.0000      -0.921980       -25.0884
  16   2.0000      -0.916923       -24.9507
  17   2.0000      -0.906821       -24.6759
  18   2.0000      -0.706310       -19.2197
  19   2.0000      -0.692983       -18.8570
  20   2.0000      -0.621422       -16.9098
  21   2.0000      -0.581305       -15.8181
  22   2.0000      -0.565801       -15.3962
  23   2.0000      -0.522766       -14.2252
  24   2.0000      -0.516015       -14.0415
  25   2.0000      -0.478331       -13.0160
  26   2.0000      -0.469386       -12.7726
  27   2.0000      -0.464899       -12.6506
  28   2.0000      -0.441497       -12.0137
  29   2.0000      -0.425852       -11.5880
  30   2.0000      -0.409523       -11.1437
  31   2.0000      -0.404193       -10.9987
  32   2.0000      -0.394796       -10.7429
  33   2.0000      -0.370354       -10.0778
  34   2.0000      -0.362970        -9.8769
  35   2.0000      -0.347740        -9.4625
  36   2.0000      -0.332314        -9.0427
  37   2.0000      -0.317710        -8.6453
  38   2.0000      -0.300809        -8.1854
  39   2.0000      -0.292622        -7.9626
  40   2.0000      -0.283968        -7.7272
  41   2.0000      -0.265203        -7.2166
  42   2.0000      -0.252381        -6.8676
  43   2.0000      -0.250312        -6.8113
  44   2.0000      -0.229947        -6.2572
  45   2.0000      -0.214986        -5.8501
  46   2.0000      -0.210274        -5.7219
  47   2.0000      -0.207019        -5.6333
  48   0.0000       0.006623         0.1802
  49   0.0000       0.021831         0.5940
  50   0.0000       0.036034         0.9805
  51   0.0000       0.047746         1.2992
  52   0.0000       0.051291         1.3957

MULLIKEN ATOMIC CHARGES
-----------------------
   0 C :    0.027273
   1 C :    0.109466
   2 H :    0.077412
   3 C :   -0.018002
   4 H :    0.051021
   5 C :    0.025852
   6 H :    0.075179
   7 C :    0.074589
   8 H :    0.051645
   9 C :    0.173948
  10 H :    0.078115
  11 O :   -0.309183
  12 O :   -0.400966
  13 O :   -0.410664
  14 O :   -0.421029
  15 O :   -0.411776
  16 O :   -0.428062
  17 H :    0.059140
  18 H :    0.081777
  19 H :    0.311295
  20 H :    0.304620
  21 H :    0.301352
  22 H :    0.298758
  23 H :    0.298238
Sum of atomic charges:   -0.0000000

LOEWDIN ATOMIC CHARGES
----------------------
   0 C :   -0.139700
   1 C :   -0.051102
   2 H :    0.124667
   3 C :   -0.081398
   4 H :    0.097529
   5 C :   -0.089711
   6 H :    0.125280
   7 C :   -0.081848
   8 H :    0.100882
   9 C :    0.001728
  10 H :    0.108054
  11 O :   -0.138000
  12 O :   -0.310335
  13 O :   -0.315268
  14 O :   -0.308925
  15 O :   -0.322427
  16 O :   -0.344152
  17 H :    0.093090
  18 H :    0.104545
  19 H :    0.290795
  20 H :    0.286754
  21 H :    0.285727
  22 H :    0.278739
  23 H :    0.285073

  Mayer bond orders larger than 0.100000
B(  0-C ,  1-C ) :   1.0828 B(  0-C , 16-O ) :   1.1091 B(  0-C , 17-H ) :   0.8939
B(  0-C , 18-H ) :   0.9110 B(  1-C ,  2-H ) :   0.8779 B(  1-C ,  3-C ) :   0.9679
B(  1-C , 11-O ) :   0.9779 B(  3-C ,  4-H ) :   0.8744 B(  3-C ,  5-C ) :   1.0302
B(  3-C , 15-O ) :   1.0871 B(  5-C ,  6-H ) :   0.8460 B(  5-C ,  7-C ) :   1.0372
B(  5-C , 14-O ) :   1.0138 B(  7-C ,  8-H ) :   0.8753 B(  7-C ,  9-C ) :   0.9764
B(  7-C , 13-O ) :   1.0900 B(  9-C , 10-H ) :   0.8953 B(  9-C , 11-O ) :   1.0996
B(  9-C , 12-O ) :   1.0945 B( 12-O , 19-H ) :   0.8354 B( 13-O , 20-H ) :   0.8415
B( 14-O , 21-H ) :   0.8444 B( 15-O , 22-H ) :   0.8233 B( 16-O , 23-H ) :   0.8531

Dispersion correction           -0.024321136
FINAL SINGLE POINT ENERGY      -685.690000706809

DIPOLE MOMENT
-------------

Method             : SCF
Type of density    : Electron Density
Multiplicity       :   1
Irrep              :   0
Energy             :  -685.8197511114806275 Eh
Relativity type    :
Basis              : AO
                                X                 Y                 Z
Electronic contribution:      1.718503340      -0.087522815       2.000747306
Nuclear contribution   :     -1.458689248       0.140130065      -3.153659778
                        -----------------------------------------
Total Dipole Moment    :      0.259814092       0.052607250      -1.152912472
                        -----------------------------------------
Magnitude (a.u.)       :      1.182995373
Magnitude (Debye)      :      3.006935273

Rotational constants in cm-1:             0.042694             0.025862             0.018374
Rotational constants in MHz :          1279.926088           775.311976           550.851887

                             ****ORCA TERMINATED NORMALLY****
TOTAL RUN TIME: 0 days 0 hours 0 minutes 11 seconds 666 msec
