                         Program Version 6.0.0  -   RELEASE  -
|  1> ! pbe def2-sv(p) def2/J RI DEFGRID1 loosescf d4 GCP(DFT/SV(P)) printgap
|  2> %output
|  3>     printlevel normal
|  4> end
|  5> * xyz 0 1
|  6> C -2.9008869002 0.7890476297 0.7433100158
|  7> C -1.4364185047 0.6259077743 0.3386617741
|  8> H -0.809196977 1.0593560457 1.1285922698
|  9> C -1.1064838377 1.3245160035 -0.9778886597
| 10> C 0.3970200087 1.3007105284 -1.2454372096
| 11> C 1.035652578 -0.0909135272 -0.9986413738
| 12> H 1.5962128652 -0.3712795958 -1.8967330513
| 13> C -0.0420124617 -1.1625089291 -0.8040162374
| 14> C -1.0528156865 -0.8350275369 0.258772712
| 15> O -1.5462103167 -1.6870611656 0.9748764546
| 16> C 2.0516075027 -0.0317227626 0.1310488312
| 17> C 3.1103520803 0.7580617502 0.017846294
| 18> C 1.8593722446 -0.8887125745 1.3438830977
| 19> H -3.1252980154 1.8317722425 0.9485260878
| 20> H -3.5521039124 0.4404214981 -0.055285621
| 21> H -3.1082756833 0.199210049 1.6330468416
| 22> H -1.6505710247 0.8384010793 -1.789623948
| 23> H -1.4452256312 2.3603446663 -0.9320434134
| 24> H 0.5769170841 1.6162549069 -2.2731474269
| 25> H 0.8798312465 2.028357366 -0.5917945564
| 26> H -0.6111227517 -1.2521232196 -1.7340321888
| 27> H 0.3960532784 -2.1401871449 -0.6016926891
| 28> H 3.8514910603 0.8297598953 0.7949189376
| 29> H 3.2800034985 1.3628795124 -0.8567148138
| 30> H 2.5875302846 -0.6291285387 2.1077551475
| 31> H 0.8609957179 -0.7768480781 1.7617809696
| 32> H 1.9919015343 -1.9403167868 1.0916471666
| 33> *
| 34>
| 35>                          ****END OF INPUT****

CARTESIAN COORDINATES (ANGSTROEM)
---------------------------------
  C     -2.900887    0.789048    0.743310
  C     -1.436419    0.625908    0.338662
  H     -0.809197    1.059356    1.128592
  C     -1.106484    1.324516   -0.977889
  C      0.397020    1.300711   -1.245437
  C      1.035653   -0.090914   -0.998641
  H      1.596213   -0.371280   -1.896733
  C     -0.042012   -1.162509   -0.804016
  C     -1.052816   -0.835028    0.258773
  O     -1.546210   -1.687061    0.974876
  C      2.051608   -0.031723    0.131049
  C      3.110352    0.758062    0.017846
  C      1.859372   -0.888713    1.343883
  H     -3.125298    1.831772    0.948526
  H     -3.552104    0.440421   -0.055286
  H     -3.108276    0.199210    1.633047
  H     -1.650571    0.838401   -1.789624
  H     -1.445226    2.360345   -0.932043
  H      0.576917    1.616255   -2.273147
  H      0.879831    2.028357   -0.591795
  H     -0.611123   -1.252123   -1.734032
  H      0.396053   -2.140187   -0.601693
  H      3.851491    0.829760    0.794919
  H      3.280003    1.362880   -0.856715
  H      2.587530   -0.629129    2.107755
  H      0.860996   -0.776848    1.761781
  H      1.991902   -1.940317    1.091647

 Total Charge           Charge          ....    0
 Multiplicity           Mult            ....    1
 Number of Electrons    NEL             ....   84
 Basis Dimension        Dim             ....  186

ORBITAL ENERGIES
----------------

  NO   OCC          E(Eh)            E(eV)
   0   2.0000     -18.739622      -509.9310
   1   2.0000      -9.971715      -271.3442
   2   2.0000      -9.908914      -269.6353
   3   2.0000      -9.902587      -269.4631
   4   2.0000      -9.902418      -269.4585
   5   2.0000      -9.896003      -269.2839
   6   2.0000      -9.893974      -269.2287
   7   2.0000      -9.891736      -269.1678
   8   2.0000      -9.883546      -268.9450
   9   2.0000      -9.878407      -268.8051
  10   2.0000      -9.873026      -268.6587
  11   2.0000      -0.935009       -25.4429
  12   2.0000      -0.773540       -21.0491
  13   2.0000      -0.727988       -19.8096
  14   2.0000      -0.684165       -18.6171
  15   2.0000      -0.662546       -18.0288
  16   2.0000      -0.621688       -16.9170
  17   2.0000      -0.600464       -16.3395
  18   2.0000      -0.557392       -15.1674
  19   2.0000      -0.531537       -14.4639
  20   2.0000      -0.475890       -12.9496
  21   2.0000      -0.468096       -12.7375
  22   2.0000      -0.437163       -11.8958
  23   2.0000      -0.427874       -11.6430
  24   2.0000      -0.415066       -11.2945
  25   2.0000      -0.396149       -10.7797
  26   2.0000      -0.384859       -10.4725
  27   2.0000      -0.376223       -10.2375
  28   2.0000      -0.375649       -10.2219
  29   2.0000      -0.361280        -9.8309
  30   2.0000      -0.353177        -9.6104
  31   2.0000      -0.345041        -9.3890
  32   2.0000      -0.336084        -9.1453
  33   2.0000      -0.327497        -8.9116
  34   2.0000      -0.324499        -8.8301
  35   2.0000      -0.315457        -8.5840
  36   2.0000      -0.300511        -8.1773
  37   2.0000      -0.292379        -7.9560
  38   2.0000      -0.282226        -7.6797
  39   2.0000      -0.272681        -7.4200
  40   2.0000      -0.217113        -5.9080
  41   2.0000      -0.192606        -5.2411
  42   0.0000      -0.054398        -1.4802
  43   0.0000      -0.022215        -0.6045
  44   0.0000       0.023991         0.6528
  45   0.0000       0.050577         1.3763
  46   0.0000       0.057128         1.5545

MULLIKEN ATOMIC CHARGES
-----------------------
   0 C :   -0.210291
   1 C :   -0.188210
   2 H :    0.096092
   3 C :   -0.121712
   4 C :   -0.092549
   5 C :   -0.152588
   6 H :    0.085229
   7 C :   -0.037279
   8 C :   -0.036538
   9 O :   -0.168238
  10 C :   -0.089745
  11 C :   -0.226838
  12 C :   -0.216537
  13 H :    0.096978
  14 H :    0.094983
  15 H :    0.118970
  16 H :    0.075459
  17 H :    0.088216
  18 H :    0.080175
  19 H :    0.090283
  20 H :    0.104321
  21 H :    0.091834
  22 H :    0.085265
  23 H :    0.084656
  24 H :    0.099937
  25 H :    0.130978
  26 H :    0.117151
Sum of atomic charges:   -0.0000000

LOEWDIN ATOMIC CHARGES
----------------------
   0 C :   -0.322785
   1 C :   -0.178160
   2 H :    0.141256
   3 C :   -0.216883
   4 C :   -0.214883
   5 C :   -0.132634
   6 H :    0.135431
   7 C :   -0.238558
   8 C :    0.048491
   9 O :   -0.131508
  10 C :   -0.053606
  11 C :   -0.267275
  12 C :   -0.325024
  13 H :    0.118862
  14 H :    0.120188
  15 H :    0.127804
  16 H :    0.115445
  17 H :    0.123157
  18 H :    0.120412
  19 H :    0.123327
  20 H :    0.147455
  21 H :    0.132251
  22 H :    0.118249
  23 H :    0.116239
  24 H :    0.127123
  25 H :    0.131027
  26 H :    0.134598

  Mayer bond orders larger than 0.100000
B(  0-C ,  1-C ) :   1.1265 B(  0-C , 13-H ) :   0.9480 B(  0-C , 14-H ) :   0.9518
B(  0-C , 15-H ) :   0.9379 B(  1-C ,  2-H ) :   0.8467 B(  1-C ,  3-C ) :   1.1147
B(  1-C ,  8-C ) :   0.9256 B(  3-C ,  4-C ) :   1.1786 B(  3-C , 16-H ) :   0.8920
B(  3-C , 17-H ) :   0.9120 B(  4-C ,  5-C ) :   1.0487 B(  4-C , 18-H ) :   0.9077
B(  4-C , 19-H ) :   0.9105 B(  5-C ,  6-H ) :   0.8711 B(  5-C ,  7-C ) :   1.1347
B(  5-C , 10-C ) :   0.9932 B(  7-C ,  8-C ) :   1.0449 B(  7-C , 20-H ) :   0.8510
B(  7-C , 21-H ) :   0.8846 B(  8-C ,  9-O ) :   2.1646 B( 10-C , 11-C ) :   2.0363
B( 10-C , 12-C ) :   1.1585 B( 11-C , 22-H ) :   0.9075 B( 11-C , 23-H ) :   0.9113
B( 12-C , 24-H ) :   0.9311 B( 12-C , 25-H ) :   0.9088 B( 12-C , 26-H ) :   0.9163

Dispersion correction           -0.029459384
FINAL SINGLE POINT ENERGY      -464.819072150018

DIPOLE MOMENT
-------------

Method             : SCF
Type of density    : Electron Density
Multiplicity       :   1
Irrep              :   0
Energy             :  -464.9051047141862227 Eh
Relativity type    :
Basis              : AO
                                X                 Y                 Z
Electronic contribution:     -1.284147131      -4.472712726       0.575404559
Nuclear contribution   :      1.589913643       5.094439484      -1.172137092
                        -----------------------------------------
Total Dipole Moment    :      0.305766512       0.621726759      -0.596732534
                        -----------------------------------------
Magnitude (a.u.)       :      0.914399824
Magnitude (Debye)      :      2.324219645

Rotational constants in cm-1:             0.056773             0.029136             0.023671
Rotational constants in MHz :          1702.024928           873.482971           709.626598

                             ****ORCA TERMINATED NORMALLY****
TOTAL RUN TIME: 0 days 0 hours 0 minutes 16 seconds 614 msec
