                         Program Version 6.0.0  -   RELEASE  -
|  1> ! pbe def2-sv(p) def2/J RI DEFGRID1 loosescf d4 GCP(DFT/SV(P)) printgap
|  2> %output
|  3>     printlevel normal
|  4> end
|  5> * xyz 0 1
|  6> C 0.4408244547 -2.83247e-05 -0.4025472857
|  7> F 1.0397752339 1.0763398508 0.1259379901
|  8> F 1.0402880057 -1.0760831213 0.1259750461
|  9> Cl -1.280194385 -0.000124213 0.0438245495
| 10> H 0.569622266 -0.000132483 -1.4929104758
| 11> *
| 12>
| 13>                          ****END OF INPUT****

CARTESIAN COORDINATES (ANGSTROEM)
---------------------------------
  C      0.440824   -0.000028   -0.402547
  F      1.039775    1.076340    0.125938
  F      1.040288   -1.076083    0.125975
  Cl    -1.280194   -0.000124    0.043825
  H      0.569622   -0.000132   -1.492910

 Total Charge           Charge          ....    0
 Multiplicity           Mult            ....    1
 Number of Electrons    NEL             ....   42
 Basis Dimension        Dim             ....   62

ORBITAL ENERGIES
----------------

  NO   OCC          E(Eh)            E(eV)
   0   2.0000    -100.648028     -2738.7721
   1   2.0000     -24.298428      -661.1938
   2   2.0000     -24.298313      -661.1907
   3   2.0000     -10.104306      -274.9521
   4   2.0000      -9.185550      -249.9515
   5   2.0000      -7.016816      -190.9373
   6   2.0000      -7.005240      -190.6223
   7   2.0000      -7.005017      -190.6162
   8   2.0000      -1.171092       -31.8670
   9   2.0000      -1.104130       -30.0449
  10   2.0000      -0.792686       -21.5701
  11   2.0000      -0.621444       -16.9104
  12   2.0000      -0.525292       -14.2939
  13   2.0000      -0.516872       -14.0648
  14   2.0000      -0.485249       -13.2043
  15   2.0000      -0.383102       -10.4247
  16   2.0000      -0.382427       -10.4064
  17   2.0000      -0.361314        -9.8319
  18   2.0000      -0.324992        -8.8435
  19   2.0000      -0.286685        -7.8011
  20   2.0000      -0.286472        -7.7953
  21   0.0000      -0.005704        -0.1552
  22   0.0000       0.057173         1.5557
  23   0.0000       0.072003         1.9593
  24   0.0000       0.124069         3.3761
  25   0.0000       0.348497         9.4831

MULLIKEN ATOMIC CHARGES
-----------------------
   0 C :    0.281094
   1 F :   -0.146227
   2 F :   -0.146207
   3 Cl:   -0.112328
   4 H :    0.123668
Sum of atomic charges:    0.0000000

LOEWDIN ATOMIC CHARGES
----------------------
   0 C :   -0.045299
   1 F :   -0.061642
   2 F :   -0.061622
   3 Cl:    0.064335
   4 H :    0.104228

  Mayer bond orders larger than 0.100000
B(  0-C ,  1-F ) :   1.1299 B(  0-C ,  2-F ) :   1.1299 B(  0-C ,  3-Cl) :   1.0660
B(  0-C ,  4-H ) :   0.9152

Dispersion correction           -0.002700744
FINAL SINGLE POINT ENERGY      -697.807423512790

DIPOLE MOMENT
-------------

Method             : SCF
Type of density    : Electron Density
Multiplicity       :   1
Irrep              :   0
Energy             :  -697.8333497198040050 Eh
Relativity type    :
Basis              : AO
                                X                 Y                 Z
Electronic contribution:     -0.277263467       0.000095313       1.166112666
Nuclear contribution   :      0.325423706      -0.000195445      -1.692848638
                        -----------------------------------------
Total Dipole Moment    :      0.048160240      -0.000100132      -0.526735972
                        -----------------------------------------
Magnitude (a.u.)       :      0.528933080
Magnitude (Debye)      :      1.344441044

Rotational constants in cm-1:             0.344935             0.157950             0.115565
Rotational constants in MHz :         10340.884571          4735.220683          3464.538704

                             ****ORCA TERMINATED NORMALLY****
TOTAL RUN TIME: 0 days 0 hours 0 minutes 3 seconds 349 msec
