                         Program Version 6.0.0  -   RELEASE  -
|  1> ! pbe def2-sv(p) def2/J RI DEFGRID1 loosescf d4 GCP(DFT/SV(P)) printgap
|  2> %output
|  3>     printlevel normal
|  4> end
|  5> * xyz 0 1
|  6> C -3.6101440124 -1.4802984642 0.0222022786
|  7> C -4.7163658651 -0.6014045702 0.5423801904
|  8> C -4.6124743205 0.7029749133 0.7557051012
|  9> C -3.3864045906 1.5279621497 0.4672294257
| 10> C -2.4772300394 0.7010982488 -0.4288243856
| 11> H -2.9568128591 0.6176370007 -1.4132122027
| 12> C -2.3084104583 -0.7044264969 0.1501927892
| 13> H -2.0688820056 -0.6159314965 1.218554201
| 14> C -1.0473442603 -1.2031118893 -0.4937967743
| 15> O -0.6434333407 -2.3181893589 -0.6714531537
| 16> N -0.3252314839 -0.0453522443 -0.8355642931
| 17> C -1.0707566337 1.1404287332 -0.714935678
| 18> O -0.608738991 2.2360389138 -0.8744405611
| 19> S 1.2715131143 -0.0809739292 -1.3974106174
| 20> C 2.187579204 0.0052809916 0.1879127613
| 21> Cl 3.8911505677 -0.0660740677 -0.262842007
| 22> Cl 1.8527245973 1.5196417173 1.0607524252
| 23> Cl 1.7825455302 -1.3620792039 1.2522136879
| 24> H -3.8012340222 -1.7477586391 -1.0201556063
| 25> H -3.568527479 -2.4082830802 0.593367366
| 26> H -5.6457109789 -1.1076768131 0.7550001708
| 27> H -5.4521789008 1.2500494779 1.1567218333
| 28> H -3.6686071562 2.462028927 -0.0195270146
| 29> H -2.8801229385 1.7871213293 1.4007935882
| 30> *
| 31>
| 32>                          ****END OF INPUT****

CARTESIAN COORDINATES (ANGSTROEM)
---------------------------------
  C     -3.610144   -1.480298    0.022202
  C     -4.716366   -0.601405    0.542380
  C     -4.612474    0.702975    0.755705
  C     -3.386405    1.527962    0.467229
  C     -2.477230    0.701098   -0.428824
  H     -2.956813    0.617637   -1.413212
  C     -2.308410   -0.704426    0.150193
  H     -2.068882   -0.615931    1.218554
  C     -1.047344   -1.203112   -0.493797
  O     -0.643433   -2.318189   -0.671453
  N     -0.325231   -0.045352   -0.835564
  C     -1.070757    1.140429   -0.714936
  O     -0.608739    2.236039   -0.874441
  S      1.271513   -0.080974   -1.397411
  C      2.187579    0.005281    0.187913
  Cl     3.891151   -0.066074   -0.262842
  Cl     1.852725    1.519642    1.060752
  Cl     1.782546   -1.362079    1.252214
  H     -3.801234   -1.747759   -1.020156
  H     -3.568527   -2.408283    0.593367
  H     -5.645711   -1.107677    0.755000
  H     -5.452179    1.250049    1.156722
  H     -3.668607    2.462029   -0.019527
  H     -2.880123    1.787121    1.400794

 Total Charge           Charge          ....    0
 Multiplicity           Mult            ....    1
 Number of Electrons    NEL             ....  152
 Basis Dimension        Dim             ....  256

ORBITAL ENERGIES
----------------

  NO   OCC          E(Eh)            E(eV)
   0   2.0000    -100.669335     -2739.3519
   1   2.0000    -100.659455     -2739.0830
   2   2.0000    -100.657037     -2739.0172
   3   2.0000     -88.091990     -2397.1049
   4   2.0000     -18.759063      -510.4601
   5   2.0000     -18.758730      -510.4510
   6   2.0000     -14.074217      -382.9789
   7   2.0000     -10.086550      -274.4690
   8   2.0000     -10.017325      -272.5853
   9   2.0000     -10.017108      -272.5794
  10   2.0000      -9.931835      -270.2590
  11   2.0000      -9.931306      -270.2446
  12   2.0000      -9.915001      -269.8009
  13   2.0000      -9.914788      -269.7951
  14   2.0000      -9.906985      -269.5828
  15   2.0000      -9.906393      -269.5667
  16   2.0000      -9.205872      -250.5045
  17   2.0000      -9.195706      -250.2279
  18   2.0000      -9.193403      -250.1652
  19   2.0000      -7.733042      -210.4268
  20   2.0000      -7.037910      -191.5113
  21   2.0000      -7.027781      -191.2356
  22   2.0000      -7.025550      -191.1749
  23   2.0000      -7.025412      -191.1712
  24   2.0000      -7.024903      -191.1573
  25   2.0000      -7.015232      -190.8942
  26   2.0000      -7.014744      -190.8809
  27   2.0000      -7.012844      -190.8292
  28   2.0000      -7.012444      -190.8183
  29   2.0000      -5.764050      -156.8478
  30   2.0000      -5.758123      -156.6865
  31   2.0000      -5.746982      -156.3833
  32   2.0000      -0.988500       -26.8985
  33   2.0000      -0.965593       -26.2751
  34   2.0000      -0.895370       -24.3643
  35   2.0000      -0.874437       -23.7946
  36   2.0000      -0.799856       -21.7652
  37   2.0000      -0.775713       -21.1082
  38   2.0000      -0.766318       -20.8526
  39   2.0000      -0.736813       -20.0497
  40   2.0000      -0.701898       -19.0996
  41   2.0000      -0.678125       -18.4527
  42   2.0000      -0.620215       -16.8769
  43   2.0000      -0.598446       -16.2845
  44   2.0000      -0.564004       -15.3473
  45   2.0000      -0.559782       -15.2324
  46   2.0000      -0.508456       -13.8358
  47   2.0000      -0.503316       -13.6959
  48   2.0000      -0.470498       -12.8029
  49   2.0000      -0.458734       -12.4828
  50   2.0000      -0.453226       -12.3329
  51   2.0000      -0.443924       -12.0798
  52   2.0000      -0.430254       -11.7078
  53   2.0000      -0.421632       -11.4732
  54   2.0000      -0.416840       -11.3428
  55   2.0000      -0.392838       -10.6897
  56   2.0000      -0.391876       -10.6635
  57   2.0000      -0.387288       -10.5386
  58   2.0000      -0.378124       -10.2893
  59   2.0000      -0.374055       -10.1785
  60   2.0000      -0.364364        -9.9149
  61   2.0000      -0.352776        -9.5995
  62   2.0000      -0.322069        -8.7639
  63   2.0000      -0.318956        -8.6792
  64   2.0000      -0.314789        -8.5658
  65   2.0000      -0.313429        -8.5288
  66   2.0000      -0.310683        -8.4541
  67   2.0000      -0.301742        -8.2108
  68   2.0000      -0.286077        -7.7845
  69   2.0000      -0.284336        -7.7372
  70   2.0000      -0.265685        -7.2296
  71   2.0000      -0.262038        -7.1304
  72   2.0000      -0.243872        -6.6361
  73   2.0000      -0.237889        -6.4733
  74   2.0000      -0.234226        -6.3736
  75   2.0000      -0.222105        -6.0438
  76   0.0000      -0.069817        -1.8998
  77   0.0000      -0.067393        -1.8338
  78   0.0000      -0.045328        -1.2334
  79   0.0000      -0.038685        -1.0527
  80   0.0000      -0.030263        -0.8235

MULLIKEN ATOMIC CHARGES
-----------------------
   0 C :    0.002394
   1 C :   -0.139071
   2 C :   -0.137644
   3 C :    0.001499
   4 C :   -0.257165
   5 H :    0.125793
   6 C :   -0.250906
   7 H :    0.125956
   8 C :    0.203391
   9 O :   -0.117411
  10 N :   -0.381725
  11 C :    0.209632
  12 O :   -0.119452
  13 S :    0.279242
  14 C :   -0.140897
  15 Cl:    0.013056
  16 Cl:    0.010893
  17 Cl:    0.008106
  18 H :    0.102931
  19 H :    0.108778
  20 H :    0.069818
  21 H :    0.069860
  22 H :    0.108517
  23 H :    0.104406
Sum of atomic charges:   -0.0000000

LOEWDIN ATOMIC CHARGES
----------------------
   0 C :   -0.204884
   1 C :   -0.141157
   2 C :   -0.141155
   3 C :   -0.204405
   4 C :   -0.151271
   5 H :    0.153731
   6 C :   -0.151741
   7 H :    0.153809
   8 C :    0.029432
   9 O :   -0.116407
  10 N :   -0.169215
  11 C :    0.031283
  12 O :   -0.118255
  13 S :    0.368446
  14 C :   -0.454550
  15 Cl:    0.119596
  16 Cl:    0.102202
  17 Cl:    0.102294
  18 H :    0.134434
  19 H :    0.135915
  20 H :    0.125484
  21 H :    0.125556
  22 H :    0.135814
  23 H :    0.135045

  Mayer bond orders larger than 0.100000
B(  0-C ,  1-C ) :   1.0496 B(  0-C ,  6-C ) :   1.1064 B(  0-C , 18-H ) :   0.8891
B(  0-C , 19-H ) :   0.8983 B(  1-C ,  2-C ) :   1.9572 B(  1-C , 20-H ) :   0.9362
B(  2-C ,  3-C ) :   1.0500 B(  2-C , 21-H ) :   0.9362 B(  3-C ,  4-C ) :   1.1082
B(  3-C , 22-H ) :   0.8979 B(  3-C , 23-H ) :   0.8892 B(  4-C ,  5-H ) :   0.8520
B(  4-C ,  6-C ) :   1.0279 B(  4-C , 11-C ) :   0.9292 B(  6-C ,  7-H ) :   0.8520
B(  6-C ,  8-C ) :   0.9263 B(  8-C ,  9-O ) :   2.2602 B(  8-C , 10-N ) :   0.9559
B( 10-N , 11-C ) :   0.9622 B( 10-N , 13-S ) :   0.9767 B( 11-C , 12-O ) :   2.2527
B( 13-S , 14-C ) :   0.9527 B( 14-C , 15-Cl) :   1.0322 B( 14-C , 16-Cl) :   1.0348
B( 14-C , 17-Cl) :   1.0283

Dispersion correction           -0.040733268
FINAL SINGLE POINT ENERGY     -2329.330597562195

DIPOLE MOMENT
-------------

Method             : SCF
Type of density    : Electron Density
Multiplicity       :   1
Irrep              :   0
Energy             : -2329.3844863837534831 Eh
Relativity type    :
Basis              : AO
                                X                 Y                 Z
Electronic contribution:     37.153248367      -0.075408866       0.572152799
Nuclear contribution   :    -38.343874329       0.100605452      -0.232331025
                        -----------------------------------------
Total Dipole Moment    :     -1.190625962       0.025196586       0.339821774
                        -----------------------------------------
Magnitude (a.u.)       :      1.238427991
Magnitude (Debye)      :      3.147833790

Rotational constants in cm-1:             0.025201             0.007579             0.006892
Rotational constants in MHz :           755.505075           227.213128           206.611383

                             ****ORCA TERMINATED NORMALLY****
TOTAL RUN TIME: 0 days 0 hours 0 minutes 20 seconds 137 msec
