                         Program Version 6.0.0  -   RELEASE  -
|  1> ! r2scan-3c def2/J RI DEFGRID2 scfconv6 printgap
|  2> %output
|  3>     printlevel normal
|  4> end
|  5> * xyz 0 1
|  6> C 1.5808486044 1.3018108058 -5.02723e-05
|  7> C 0.1997194755 1.3678510761 2.10921e-05
|  8> C -0.5268134913 0.1746086986 2.37362e-05
|  9> C 0.1876307258 -1.0294911884 -1.19952e-05
| 10> N 1.5039043851 -1.0917780814 4.21822e-05
| 11> C 2.1816122763 0.0487100705 6.1702e-06
| 12> C -1.9876107673 0.1781935805 1.21322e-05
| 13> O -2.6916216814 -0.8082835691 -8.9297e-06
| 14> H 2.1824770616 2.1956446904 -6.15515e-05
| 15> H -0.3162469257 2.3165379283 -0.0001757292
| 16> H -0.3458363605 -1.9706490963 -7.46734e-05
| 17> H 3.2574623125 -0.055739061 -0.0002248601
| 18> H -2.4390245991 1.1871911267 8.20936e-05
| 19> *
| 20>
| 21>                          ****END OF INPUT****

CARTESIAN COORDINATES (ANGSTROEM)
---------------------------------
  C      1.580849    1.301811   -0.000050
  C      0.199719    1.367851    0.000021
  C     -0.526813    0.174609    0.000024
  C      0.187631   -1.029491   -0.000012
  N      1.503904   -1.091778    0.000042
  C      2.181612    0.048710    0.000006
  C     -1.987611    0.178194    0.000012
  O     -2.691622   -0.808284   -0.000009
  H      2.182477    2.195645   -0.000062
  H     -0.316247    2.316538   -0.000176
  H     -0.345836   -1.970649   -0.000075
  H      3.257462   -0.055739   -0.000225
  H     -2.439025    1.187191    0.000082

 Total Charge           Charge          ....    0
 Multiplicity           Mult            ....    1
 Number of Electrons    NEL             ....   56
 Basis Dimension        Dim             ....  187

ORBITAL ENERGIES
----------------

  NO   OCC          E(Eh)            E(eV)
   0   2.0000     -18.957326      -515.8551
   1   2.0000     -14.175100      -385.7241
   2   2.0000     -10.130096      -275.6539
   3   2.0000     -10.092071      -274.6192
   4   2.0000     -10.089313      -274.5442
   5   2.0000     -10.081410      -274.3291
   6   2.0000     -10.068891      -273.9885
   7   2.0000     -10.067282      -273.9447
   8   2.0000      -1.020560       -27.7708
   9   2.0000      -0.937208       -25.5027
  10   2.0000      -0.805606       -21.9217
  11   2.0000      -0.760996       -20.7078
  12   2.0000      -0.654888       -17.8204
  13   2.0000      -0.623003       -16.9528
  14   2.0000      -0.570914       -15.5354
  15   2.0000      -0.512438       -13.9441
  16   2.0000      -0.482819       -13.1382
  17   2.0000      -0.453015       -12.3272
  18   2.0000      -0.428060       -11.6481
  19   2.0000      -0.410386       -11.1672
  20   2.0000      -0.410012       -11.1570
  21   2.0000      -0.397038       -10.8039
  22   2.0000      -0.371923       -10.1205
  23   2.0000      -0.358845        -9.7647
  24   2.0000      -0.295387        -8.0379
  25   2.0000      -0.268353        -7.3023
  26   2.0000      -0.250753        -6.8233
  27   2.0000      -0.228927        -6.2294
  28   0.0000      -0.111405        -3.0315
  29   0.0000      -0.072922        -1.9843
  30   0.0000      -0.011349        -0.3088
  31   0.0000       0.070105         1.9077
  32   0.0000       0.094930         2.5832

MULLIKEN ATOMIC CHARGES
-----------------------
   0 C :   -0.102042
   1 C :   -0.208035
   2 C :    0.285406
   3 C :   -0.121161
   4 N :   -0.175461
   5 C :   -0.061435
   6 C :   -0.000501
   7 O :   -0.335527
   8 H :    0.153323
   9 H :    0.158045
  10 H :    0.165741
  11 H :    0.139198
  12 H :    0.102448
Sum of atomic charges:    0.0000000

LOEWDIN ATOMIC CHARGES
----------------------
   0 C :   -0.141382
   1 C :   -0.095123
   2 C :   -0.082703
   3 C :    0.142265
   4 N :   -0.597623
   5 C :    0.104541
   6 C :    0.215557
   7 O :   -0.444563
   8 H :    0.173479
   9 H :    0.176045
  10 H :    0.203963
  11 H :    0.188744
  12 H :    0.156801

  Mayer bond orders larger than 0.100000
B(  0-C ,  1-C ) :   1.4190 B(  0-C ,  5-C ) :   1.3514 B(  0-C ,  8-H ) :   0.9419
B(  1-C ,  2-C ) :   1.3352 B(  1-C ,  9-H ) :   0.9281 B(  2-C ,  3-C ) :   1.2362
B(  2-C ,  6-C ) :   0.8325 B(  2-C ,  7-O ) :  -0.1077 B(  2-C , 12-H ) :  -0.1160
B(  3-C ,  4-N ) :   1.4799 B(  3-C , 10-H ) :   0.9988 B(  4-N ,  5-C ) :   1.4375
B(  5-C , 11-H ) :   0.9821 B(  6-C ,  7-O ) :   1.9608 B(  6-C , 12-H ) :   1.0372

Dispersion correction           -0.004111070
FINAL SINGLE POINT ENERGY      -361.522029349315

DIPOLE MOMENT
-------------

Method             : SCF
Type of density    : Electron Density
Multiplicity       :   1
Irrep              :   0
Energy             :  -361.5238351244523187 Eh
Relativity type    :
Basis              : AO
                                X                 Y                 Z
Electronic contribution:     -1.422461647      -2.026488613       0.000310611
Nuclear contribution   :      2.162618169       3.427909035      -0.000426507
                        -----------------------------------------
Total Dipole Moment    :      0.740156522       1.401420422      -0.000115897
                        -----------------------------------------
Magnitude (a.u.)       :      1.584869360
Magnitude (Debye)      :      4.028417770

Rotational constants in cm-1:             0.180566             0.053703             0.041393
Rotational constants in MHz :          5413.237503          1609.987640          1240.917855

                             ****ORCA TERMINATED NORMALLY****
TOTAL RUN TIME: 0 days 0 hours 0 minutes 20 seconds 911 msec
