                         Program Version 6.0.0  -   RELEASE  -
|  1> ! r2scan-3c def2/J RI DEFGRID2 scfconv6 printgap
|  2> %output
|  3>     printlevel normal
|  4> end
|  5> %cpcm
|  6>     smd true
|  7>     smdsolvent "water"
|  8> end
|  9> * xyz 0 1
| 10> C 1.5808486044 1.3018108058 -5.02723e-05
| 11> C 0.1997194755 1.3678510761 2.10921e-05
| 12> C -0.5268134913 0.1746086986 2.37362e-05
| 13> C 0.1876307258 -1.0294911884 -1.19952e-05
| 14> N 1.5039043851 -1.0917780814 4.21822e-05
| 15> C 2.1816122763 0.0487100705 6.1702e-06
| 16> C -1.9876107673 0.1781935805 1.21322e-05
| 17> O -2.6916216814 -0.8082835691 -8.9297e-06
| 18> H 2.1824770616 2.1956446904 -6.15515e-05
| 19> H -0.3162469257 2.3165379283 -0.0001757292
| 20> H -0.3458363605 -1.9706490963 -7.46734e-05
| 21> H 3.2574623125 -0.055739061 -0.0002248601
| 22> H -2.4390245991 1.1871911267 8.20936e-05
| 23> *
| 24>
| 25>                          ****END OF INPUT****

CARTESIAN COORDINATES (ANGSTROEM)
---------------------------------
  C      1.580849    1.301811   -0.000050
  C      0.199719    1.367851    0.000021
  C     -0.526813    0.174609    0.000024
  C      0.187631   -1.029491   -0.000012
  N      1.503904   -1.091778    0.000042
  C      2.181612    0.048710    0.000006
  C     -1.987611    0.178194    0.000012
  O     -2.691622   -0.808284   -0.000009
  H      2.182477    2.195645   -0.000062
  H     -0.316247    2.316538   -0.000176
  H     -0.345836   -1.970649   -0.000075
  H      3.257462   -0.055739   -0.000225
  H     -2.439025    1.187191    0.000082

 Total Charge           Charge          ....    0
 Multiplicity           Mult            ....    1
 Number of Electrons    NEL             ....   56
 Basis Dimension        Dim             ....  187

ORBITAL ENERGIES
----------------

  NO   OCC          E(Eh)            E(eV)
   0   2.0000     -18.960509      -515.9417
   1   2.0000     -14.169183      -385.5631
   2   2.0000     -10.128765      -275.6177
   3   2.0000     -10.081515      -274.3320
   4   2.0000     -10.080318      -274.2994
   5   2.0000     -10.066951      -273.9357
   6   2.0000     -10.058719      -273.7117
   7   2.0000     -10.051300      -273.5098
   8   2.0000      -1.025871       -27.9154
   9   2.0000      -0.930147       -25.3106
  10   2.0000      -0.793944       -21.6043
  11   2.0000      -0.749957       -20.4074
  12   2.0000      -0.645875       -17.5752
  13   2.0000      -0.609726       -16.5915
  14   2.0000      -0.561490       -15.2789
  15   2.0000      -0.499973       -13.6049
  16   2.0000      -0.472655       -12.8616
  17   2.0000      -0.446509       -12.1501
  18   2.0000      -0.418868       -11.3980
  19   2.0000      -0.411322       -11.1926
  20   2.0000      -0.404672       -11.0117
  21   2.0000      -0.381121       -10.3708
  22   2.0000      -0.372232       -10.1289
  23   2.0000      -0.347097        -9.4450
  24   2.0000      -0.286104        -7.7853
  25   2.0000      -0.259875        -7.0716
  26   2.0000      -0.252246        -6.8640
  27   2.0000      -0.229708        -6.2507
  28   0.0000      -0.105897        -2.8816
  29   0.0000      -0.062757        -1.7077
  30   0.0000      -0.003550        -0.0966
  31   0.0000       0.088590         2.4107
  32   0.0000       0.108973         2.9653

MULLIKEN ATOMIC CHARGES
-----------------------
   0 C :   -0.127717
   1 C :   -0.194573
   2 C :    0.258159
   3 C :   -0.137165
   4 N :   -0.228502
   5 C :   -0.067913
   6 C :    0.043652
   7 O :   -0.431709
   8 H :    0.192809
   9 H :    0.201007
  10 H :    0.177893
  11 H :    0.170283
  12 H :    0.143776
Sum of atomic charges:    0.0000000

LOEWDIN ATOMIC CHARGES
----------------------
   0 C :   -0.132246
   1 C :   -0.072017
   2 C :   -0.085575
   3 C :    0.133574
   4 N :   -0.638063
   5 C :    0.108148
   6 C :    0.237548
   7 O :   -0.516876
   8 H :    0.188263
   9 H :    0.193373
  10 H :    0.205888
  11 H :    0.199739
  12 H :    0.178243

  Mayer bond orders larger than 0.100000
B(  0-C ,  1-C ) :   1.4019 B(  0-C ,  5-C ) :   1.3526 B(  0-C ,  8-H ) :   0.9401
B(  1-C ,  2-C ) :   1.3393 B(  1-C ,  9-H ) :   0.9225 B(  2-C ,  3-C ) :   1.2149
B(  2-C ,  6-C ) :   0.8882 B(  2-C ,  7-O ) :  -0.1031 B(  3-C ,  4-N ) :   1.5075
B(  3-C , 10-H ) :   0.9887 B(  4-N ,  5-C ) :   1.4230 B(  5-C , 11-H ) :   0.9669
B(  6-C ,  7-O ) :   1.8955 B(  6-C , 12-H ) :   1.0044

Dispersion correction           -0.004111070
FINAL SINGLE POINT ENERGY      -361.533528137494

DIPOLE MOMENT
-------------

Method             : SCF
Type of density    : Electron Density
Multiplicity       :   1
Irrep              :   0
Energy             :  -361.5353339126320975 Eh
Relativity type    :
Basis              : AO
                                X                 Y                 Z
Electronic contribution:     -1.148900027      -1.304522035       0.000271370
Nuclear contribution   :      2.162618169       3.427909035      -0.000426507
                        -----------------------------------------
Total Dipole Moment    :      1.013718142       2.123387000      -0.000155137
                        -----------------------------------------
Magnitude (a.u.)       :      2.352954918
Magnitude (Debye)      :      5.980736105

Rotational constants in cm-1:             0.180566             0.053703             0.041393
Rotational constants in MHz :          5413.237503          1609.987640          1240.917855

                             ****ORCA TERMINATED NORMALLY****
TOTAL RUN TIME: 0 days 0 hours 0 minutes 23 seconds 113 msec
