                         Program Version 6.0.0  -   RELEASE  -
|  1> ! wb97x-v def2-tzvp def2/J RIJCOSX DEFGRID2 scfconv7 GCP(DFT/TZ) printgap
|  2> %output
|  3>     printlevel normal
|  4> end
|  5> %cpcm
|  6>     smd true
|  7>     smdsolvent "water"
|  8> end
|  9> * xyz 0 1
| 10> C 0.03623645613142483 -1.2192934610964714 0.00011435920276947177
| 11> C 1.41567600787264 -1.2183499311708332 4.3230809295292834e-05
| 12> C 2.1084341254693295 -0.00010975790600331026 2.2371863277149503e-05
| 13> C 1.415559226217983 1.2178917886490164 3.687187948630335e-05
| 14> C 0.03508139443176125 1.2192608638895903 0.00010747712817421834
| 15> C -0.6457525843778639 0.0003213465377756147 0.00014906604537297876
| 16> N -2.0892772804129383 0.0007648696813935518 3.2858517228234034e-05
| 17> O -2.6826961035733716 -1.0838021780482476 -0.00019947967448387402
| 18> O -2.6825047240265905 1.0853579006860228 -0.0002188713541068257
| 19> O 3.4616228305779186 -0.0575598200469433 -1.2134673972634212e-05
| 20> H -0.5124972566035221 -2.1524005775284607 7.075286398848265e-05
| 21> H 1.9728394417541053 -2.1483767043951527 -3.278796036382719e-06
| 22> H 1.968944667317986 2.151749191073383 -1.2866769381255832e-05
| 23> H -0.5127920560922019 2.152885114278212 6.09572846711277e-05
| 24> H 3.8290051305890023 0.839280916717312 -1.5763362134173327e-05
| 25> *
| 26>
| 27>                          ****END OF INPUT****

CARTESIAN COORDINATES (ANGSTROEM)
---------------------------------
  C      0.036236   -1.219293    0.000114
  C      1.415676   -1.218350    0.000043
  C      2.108434   -0.000110    0.000022
  C      1.415559    1.217892    0.000037
  C      0.035081    1.219261    0.000107
  C     -0.645753    0.000321    0.000149
  N     -2.089277    0.000765    0.000033
  O     -2.682696   -1.083802   -0.000199
  O     -2.682505    1.085358   -0.000219
  O      3.461623   -0.057560   -0.000012
  H     -0.512497   -2.152401    0.000071
  H      1.972839   -2.148377   -0.000003
  H      1.968945    2.151749   -0.000013
  H     -0.512792    2.152885    0.000061
  H      3.829005    0.839281   -0.000016

 Total Charge           Charge          ....    0
 Multiplicity           Mult            ....    1
 Number of Electrons    NEL             ....   72
 Basis Dimension        Dim             ....  340

ORBITAL ENERGIES
----------------

  NO   OCC          E(Eh)            E(eV)
   0   2.0000     -21.716710      -590.9417
   1   2.0000     -21.716314      -590.9309
   2   2.0000     -21.716189      -590.9275
   3   2.0000     -16.783141      -456.6925
   4   2.0000     -12.138082      -330.2940
   5   2.0000     -12.107515      -329.4622
   6   2.0000     -12.079949      -328.7121
   7   2.0000     -12.079077      -328.6884
   8   2.0000     -12.063503      -328.2646
   9   2.0000     -12.061680      -328.2150
  10   2.0000      -1.905940       -51.8633
  11   2.0000      -1.750895       -47.6443
  12   2.0000      -1.736788       -47.2604
  13   2.0000      -1.439018       -39.1577
  14   2.0000      -1.373481       -37.3743
  15   2.0000      -1.303627       -35.4735
  16   2.0000      -1.274569       -34.6828
  17   2.0000      -1.197915       -32.5969
  18   2.0000      -1.162227       -31.6258
  19   2.0000      -1.144954       -31.1558
  20   2.0000      -1.123658       -30.5763
  21   2.0000      -1.082065       -29.4445
  22   2.0000      -1.068223       -29.0678
  23   2.0000      -1.026830       -27.9415
  24   2.0000      -0.964414       -26.2430
  25   2.0000      -0.962969       -26.2037
  26   2.0000      -0.935693       -25.4615
  27   2.0000      -0.927367       -25.2350
  28   2.0000      -0.917327       -24.9617
  29   2.0000      -0.907240       -24.6873
  30   2.0000      -0.896732       -24.4013
  31   2.0000      -0.895577       -24.3699
  32   2.0000      -0.828221       -22.5370
  33   2.0000      -0.796841       -21.6831
  34   2.0000      -0.675192       -18.3729
  35   2.0000      -0.665109       -18.0985
  36   0.0000      -0.490268       -13.3409
  37   0.0000      -0.264612        -7.2005
  38   0.0000      -0.253085        -6.8868
  39   0.0000      -0.233967        -6.3666
  40   0.0000      -0.140981        -3.8363

MULLIKEN ATOMIC CHARGES
-----------------------
   0 C :   -0.176088
   1 C :   -0.215003
   2 C :    0.286263
   3 C :   -0.214515
   4 C :   -0.179859
   5 C :    0.096548
   6 N :    0.500396
   7 O :   -0.389172
   8 O :   -0.389088
   9 O :   -0.431992
  10 H :    0.184641
  11 H :    0.169994
  12 H :    0.182900
  13 H :    0.187247
  14 H :    0.387728
Sum of atomic charges:   -0.0000000

LOEWDIN ATOMIC CHARGES
----------------------
   0 C :   -0.078765
   1 C :   -0.110186
   2 C :   -0.242372
   3 C :   -0.115440
   4 C :   -0.077912
   5 C :   -0.187064
   6 N :    0.014458
   7 O :   -0.084532
   8 O :   -0.084527
   9 O :    0.088048
  10 H :    0.165383
  11 H :    0.162110
  12 H :    0.164260
  13 H :    0.165691
  14 H :    0.220849

  Mayer bond orders larger than 0.100000
B(  0-C ,  1-C ) :   1.4997 B(  0-C ,  5-C ) :   1.3402 B(  0-C , 10-H ) :   0.9448
B(  1-C ,  2-C ) :   1.3454 B(  1-C , 11-H ) :   0.9743 B(  2-C ,  3-C ) :   1.3381
B(  2-C ,  9-O ) :   1.1703 B(  3-C ,  4-C ) :   1.4463 B(  3-C , 12-H ) :   0.9618
B(  4-C ,  5-C ) :   1.3476 B(  4-C , 13-H ) :   0.9333 B(  5-C ,  6-N ) :   1.0387
B(  6-N ,  7-O ) :   1.5931 B(  6-N ,  8-O ) :   1.5939 B(  7-O ,  8-O ) :   0.1730
B(  9-O , 14-H ) :   0.8390

FINAL SINGLE POINT ENERGY      -512.025773282008

DIPOLE MOMENT
-------------

Method             : SCF
Type of density    : Electron Density
Multiplicity       :   1
Irrep              :   0
Energy             :  -512.0337872008078648 Eh
Relativity type    :
Basis              : AO
                                X                 Y                 Z
Electronic contribution:     -3.398829504      -0.000892876       0.000167301
Nuclear contribution   :      6.305495053       0.791509191       0.000109282
                        -----------------------------------------
Total Dipole Moment    :      2.906665549       0.790616315       0.000276583
                        -----------------------------------------
Magnitude (a.u.)       :      3.012271377
Magnitude (Debye)      :      7.656585360

Rotational constants in cm-1:             0.131269             0.027508             0.022742
Rotational constants in MHz :          3935.351769           824.658728           681.788874

                             ****ORCA TERMINATED NORMALLY****
TOTAL RUN TIME: 0 days 0 hours 3 minutes 46 seconds 992 msec
