                         Program Version 6.0.0  -   RELEASE  -
|  1> ! pbe def2-sv(p) def2/J RI DEFGRID1 loosescf d4 GCP(DFT/SV(P)) printgap
|  2> %output
|  3>     printlevel normal
|  4> end
|  5> * xyz 0 1
|  6> C -3.2510463109 0.3573877566 -0.0029141304
|  7> C -1.7732087087 0.5994258865 0.3265188638
|  8> H -1.7180778159 1.0066781117 1.3426052668
|  9> C -1.1180946652 1.5689258258 -0.6555342752
| 10> C 0.3961492606 1.5312922794 -0.4803450804
| 11> C 0.972770449 0.1597106259 -0.8818058494
| 12> H 1.2837882422 0.208546998 -1.9293792113
| 13> C -0.0965795242 -0.9507873259 -0.7792332053
| 14> C -1.0588302528 -0.7340831623 0.349364813
| 15> O -1.2857594288 -1.5739980169 1.2006962194
| 16> C 2.1959646376 -0.1761862666 -0.0603132915
| 17> C 3.4046591162 -0.1414568247 -0.6003053683
| 18> C 1.9852284673 -0.5387117103 1.378176985
| 19> H -3.3542136973 -0.0590653104 -1.002504201
| 20> H -3.6829748091 -0.3415236896 0.7095399742
| 21> H -3.7992362064 1.2942436467 0.0433679699
| 22> H -1.3808797696 1.3038107872 -1.6805518113
| 23> H -1.4905713364 2.5768591005 -0.4685056148
| 24> H 0.8679876394 2.3085905945 -1.081327631
| 25> H 0.6281514358 1.7425148076 0.5649796752
| 26> H -0.6943155937 -0.9433004937 -1.6931240278
| 27> H 0.3757588356 -1.9298649043 -0.6900291647
| 28> H 4.2894918356 -0.3629724064 -0.0282494782
| 29> H 3.5609614668 0.1126561904 -1.6349409707
| 30> H 1.4660849165 0.2564784372 1.9112201743
| 31> H 1.374840002 -1.436248179 1.4667103796
| 32> H 2.9369638009 -0.7186635657 1.8700970624
| 33> *
| 34>
| 35>                          ****END OF INPUT****

CARTESIAN COORDINATES (ANGSTROEM)
---------------------------------
  C     -3.251046    0.357388   -0.002914
  C     -1.773209    0.599426    0.326519
  H     -1.718078    1.006678    1.342605
  C     -1.118095    1.568926   -0.655534
  C      0.396149    1.531292   -0.480345
  C      0.972770    0.159711   -0.881806
  H      1.283788    0.208547   -1.929379
  C     -0.096580   -0.950787   -0.779233
  C     -1.058830   -0.734083    0.349365
  O     -1.285759   -1.573998    1.200696
  C      2.195965   -0.176186   -0.060313
  C      3.404659   -0.141457   -0.600305
  C      1.985228   -0.538712    1.378177
  H     -3.354214   -0.059065   -1.002504
  H     -3.682975   -0.341524    0.709540
  H     -3.799236    1.294244    0.043368
  H     -1.380880    1.303811   -1.680552
  H     -1.490571    2.576859   -0.468506
  H      0.867988    2.308591   -1.081328
  H      0.628151    1.742515    0.564980
  H     -0.694316   -0.943300   -1.693124
  H      0.375759   -1.929865   -0.690029
  H      4.289492   -0.362972   -0.028249
  H      3.560961    0.112656   -1.634941
  H      1.466085    0.256478    1.911220
  H      1.374840   -1.436248    1.466710
  H      2.936964   -0.718664    1.870097

 Total Charge           Charge          ....    0
 Multiplicity           Mult            ....    1
 Number of Electrons    NEL             ....   84
 Basis Dimension        Dim             ....  186

ORBITAL ENERGIES
----------------

  NO   OCC          E(Eh)            E(eV)
   0   2.0000     -18.739174      -509.9188
   1   2.0000      -9.970688      -271.3162
   2   2.0000      -9.909083      -269.6399
   3   2.0000      -9.903326      -269.4832
   4   2.0000      -9.901281      -269.4275
   5   2.0000      -9.895568      -269.2721
   6   2.0000      -9.895075      -269.2587
   7   2.0000      -9.894184      -269.2344
   8   2.0000      -9.887726      -269.0587
   9   2.0000      -9.879486      -268.8345
  10   2.0000      -9.874342      -268.6945
  11   2.0000      -0.934365       -25.4254
  12   2.0000      -0.774421       -21.0731
  13   2.0000      -0.730508       -19.8781
  14   2.0000      -0.683505       -18.5991
  15   2.0000      -0.663507       -18.0549
  16   2.0000      -0.619130       -16.8474
  17   2.0000      -0.603944       -16.4341
  18   2.0000      -0.556810       -15.1516
  19   2.0000      -0.534954       -14.5568
  20   2.0000      -0.476623       -12.9696
  21   2.0000      -0.468875       -12.7587
  22   2.0000      -0.440423       -11.9845
  23   2.0000      -0.424660       -11.5556
  24   2.0000      -0.410631       -11.1738
  25   2.0000      -0.399163       -10.8618
  26   2.0000      -0.389238       -10.5917
  27   2.0000      -0.380112       -10.3434
  28   2.0000      -0.371418       -10.1068
  29   2.0000      -0.356874        -9.7110
  30   2.0000      -0.352585        -9.5943
  31   2.0000      -0.350157        -9.5283
  32   2.0000      -0.336522        -9.1572
  33   2.0000      -0.326318        -8.8796
  34   2.0000      -0.323857        -8.8126
  35   2.0000      -0.319799        -8.7022
  36   2.0000      -0.304473        -8.2851
  37   2.0000      -0.291203        -7.9240
  38   2.0000      -0.280899        -7.6437
  39   2.0000      -0.277284        -7.5453
  40   2.0000      -0.220115        -5.9896
  41   2.0000      -0.192387        -5.2351
  42   0.0000      -0.056170        -1.5285
  43   0.0000      -0.012613        -0.3432
  44   0.0000       0.023817         0.6481
  45   0.0000       0.041234         1.1220
  46   0.0000       0.054919         1.4944

MULLIKEN ATOMIC CHARGES
-----------------------
   0 C :   -0.216562
   1 C :   -0.206407
   2 H :    0.088602
   3 C :   -0.089479
   4 C :   -0.094657
   5 C :   -0.136316
   6 H :    0.057395
   7 C :   -0.073844
   8 C :   -0.001319
   9 O :   -0.169515
  10 C :   -0.057905
  11 C :   -0.237360
  12 C :   -0.216388
  13 H :    0.094655
  14 H :    0.119387
  15 H :    0.106779
  16 H :    0.069051
  17 H :    0.087887
  18 H :    0.087528
  19 H :    0.081997
  20 H :    0.098964
  21 H :    0.101862
  22 H :    0.082330
  23 H :    0.082485
  24 H :    0.107390
  25 H :    0.133809
  26 H :    0.099628
Sum of atomic charges:   -0.0000000

LOEWDIN ATOMIC CHARGES
----------------------
   0 C :   -0.315729
   1 C :   -0.174173
   2 H :    0.135805
   3 C :   -0.219681
   4 C :   -0.214028
   5 C :   -0.122013
   6 H :    0.123043
   7 C :   -0.235277
   8 C :    0.051986
   9 O :   -0.133096
  10 C :   -0.048585
  11 C :   -0.266083
  12 C :   -0.328865
  13 H :    0.117890
  14 H :    0.127988
  15 H :    0.122339
  16 H :    0.115602
  17 H :    0.122456
  18 H :    0.123965
  19 H :    0.119302
  20 H :    0.142607
  21 H :    0.133218
  22 H :    0.117151
  23 H :    0.115757
  24 H :    0.125382
  25 H :    0.136312
  26 H :    0.126726

  Mayer bond orders larger than 0.100000
B(  0-C ,  1-C ) :   1.1027 B(  0-C , 13-H ) :   0.9455 B(  0-C , 14-H ) :   0.9432
B(  0-C , 15-H ) :   0.9480 B(  1-C ,  2-H ) :   0.8705 B(  1-C ,  3-C ) :   1.0839
B(  1-C ,  8-C ) :   0.9400 B(  3-C ,  4-C ) :   1.1737 B(  3-C , 16-H ) :   0.8856
B(  3-C , 17-H ) :   0.9075 B(  4-C ,  5-C ) :   1.0791 B(  4-C , 18-H ) :   0.9104
B(  4-C , 19-H ) :   0.8995 B(  5-C ,  6-H ) :   0.8656 B(  5-C ,  7-C ) :   1.0610
B(  5-C , 10-C ) :   1.0190 B(  7-C ,  8-C ) :   1.0874 B(  7-C , 20-H ) :   0.8599
B(  7-C , 21-H ) :   0.8971 B(  8-C ,  9-O ) :   2.1529 B( 10-C , 11-C ) :   2.0362
B( 10-C , 12-C ) :   1.1315 B( 11-C , 22-H ) :   0.9054 B( 11-C , 23-H ) :   0.9090
B( 12-C , 24-H ) :   0.9168 B( 12-C , 25-H ) :   0.9085 B( 12-C , 26-H ) :   0.9330

Dispersion correction           -0.029259939
FINAL SINGLE POINT ENERGY      -464.825521391530

DIPOLE MOMENT
-------------

Method             : SCF
Type of density    : Electron Density
Multiplicity       :   1
Irrep              :   0
Energy             :  -464.9112652445633103 Eh
Relativity type    :
Basis              : AO
                                X                 Y                 Z
Electronic contribution:     -0.621844854      -3.918614053       1.522910469
Nuclear contribution   :      0.603650198       4.685073624      -2.140064144
                        -----------------------------------------
Total Dipole Moment    :     -0.018194656       0.766459571      -0.617153675
                        -----------------------------------------
Magnitude (a.u.)       :      0.984210332
Magnitude (Debye)      :      2.501663853

Rotational constants in cm-1:             0.066590             0.026397             0.022028
Rotational constants in MHz :          1996.325150           791.374962           660.376061

                             ****ORCA TERMINATED NORMALLY****
TOTAL RUN TIME: 0 days 0 hours 0 minutes 17 seconds 638 msec
