                         Program Version 6.0.0  -   RELEASE  -
|  1> ! pbe def2-sv(p) def2/J RI DEFGRID1 loosescf d4 GCP(DFT/SV(P)) printgap
|  2> %output
|  3>     printlevel normal
|  4> end
|  5> * xyz 0 1
|  6> C -2.4058801239 -0.7063198807 -0.0116051462
|  7> C -0.9779029956 -0.2833892973 0.3485645434
|  8> H -0.9398945495 -0.0126101414 1.4139183957
|  9> C -0.5132545761 0.9130392051 -0.4978155543
| 10> H -0.5122854547 0.6133659754 -1.5522153807
| 11> C 0.9216649187 1.3233567525 -0.0950313151
| 12> H 0.8668044568 2.1074897596 0.6688237487
| 13> C 1.6880847912 0.1377432593 0.5308358162
| 14> H 2.7523233182 0.2723350295 0.2945787937
| 15> C 1.2112843765 -1.1683973378 -0.1226988585
| 16> H 1.7474197187 -2.0320629903 0.3019809066
| 17> O -0.1428935614 -1.4248218534 0.1369380792
| 18> O 1.4714112592 -1.0555720981 -1.4905209424
| 19> O 1.466581032 0.1433351055 1.9164308728
| 20> O 1.6321329786 1.8881177082 -1.1630147164
| 21> O -1.4154019564 1.984344776 -0.4272653264
| 22> O -2.9390232497 -1.6233561215 0.9082421977
| 23> H -2.4050922817 -1.127226072 -1.0249966839
| 24> H -3.0557148303 0.1698012588 0.0078583733
| 25> H 1.2467708257 -1.8831588581 -1.9428947042
| 26> H 2.0609705487 -0.4817434204 2.3560679855
| 27> H 1.7407124336 1.2184027319 -1.8564154007
| 28> H -1.4005854056 2.3686179383 0.4615080707
| 29> H -2.3514347348 -2.3914846637 0.9494694792
| 30> *
| 31>
| 32>                          ****END OF INPUT****

CARTESIAN COORDINATES (ANGSTROEM)
---------------------------------
  C     -2.405880   -0.706320   -0.011605
  C     -0.977903   -0.283389    0.348565
  H     -0.939895   -0.012610    1.413918
  C     -0.513255    0.913039   -0.497816
  H     -0.512285    0.613366   -1.552215
  C      0.921665    1.323357   -0.095031
  H      0.866804    2.107490    0.668824
  C      1.688085    0.137743    0.530836
  H      2.752323    0.272335    0.294579
  C      1.211284   -1.168397   -0.122699
  H      1.747420   -2.032063    0.301981
  O     -0.142894   -1.424822    0.136938
  O      1.471411   -1.055572   -1.490521
  O      1.466581    0.143335    1.916431
  O      1.632133    1.888118   -1.163015
  O     -1.415402    1.984345   -0.427265
  O     -2.939023   -1.623356    0.908242
  H     -2.405092   -1.127226   -1.024997
  H     -3.055715    0.169801    0.007858
  H      1.246771   -1.883159   -1.942895
  H      2.060971   -0.481743    2.356068
  H      1.740712    1.218403   -1.856415
  H     -1.400585    2.368618    0.461508
  H     -2.351435   -2.391485    0.949469

 Total Charge           Charge          ....    0
 Multiplicity           Mult            ....    1
 Number of Electrons    NEL             ....   96
 Basis Dimension        Dim             ....  192

ORBITAL ENERGIES
----------------

  NO   OCC          E(Eh)            E(eV)
   0   2.0000     -18.783332      -511.1204
   1   2.0000     -18.774984      -510.8933
   2   2.0000     -18.769884      -510.7545
   3   2.0000     -18.751358      -510.2504
   4   2.0000     -18.741248      -509.9753
   5   2.0000     -18.737457      -509.8721
   6   2.0000      -9.997527      -272.0465
   7   2.0000      -9.950331      -270.7623
   8   2.0000      -9.942256      -270.5425
   9   2.0000      -9.939028      -270.4547
  10   2.0000      -9.935472      -270.3579
  11   2.0000      -9.921986      -269.9910
  12   2.0000      -0.991846       -26.9895
  13   2.0000      -0.946182       -25.7469
  14   2.0000      -0.935387       -25.4532
  15   2.0000      -0.928724       -25.2719
  16   2.0000      -0.915964       -24.9247
  17   2.0000      -0.909887       -24.7593
  18   2.0000      -0.700846       -19.0710
  19   2.0000      -0.693933       -18.8829
  20   2.0000      -0.617728       -16.8092
  21   2.0000      -0.594008       -16.1638
  22   2.0000      -0.564828       -15.3698
  23   2.0000      -0.530836       -14.4448
  24   2.0000      -0.509701       -13.8697
  25   2.0000      -0.497097       -13.5267
  26   2.0000      -0.473096       -12.8736
  27   2.0000      -0.457720       -12.4552
  28   2.0000      -0.446084       -12.1386
  29   2.0000      -0.430361       -11.7107
  30   2.0000      -0.415604       -11.3092
  31   2.0000      -0.398098       -10.8328
  32   2.0000      -0.385564       -10.4917
  33   2.0000      -0.370441       -10.0802
  34   2.0000      -0.360031        -9.7969
  35   2.0000      -0.352786        -9.5998
  36   2.0000      -0.344512        -9.3747
  37   2.0000      -0.313250        -8.5240
  38   2.0000      -0.304948        -8.2981
  39   2.0000      -0.286436        -7.7943
  40   2.0000      -0.282790        -7.6951
  41   2.0000      -0.270956        -7.3731
  42   2.0000      -0.264121        -7.1871
  43   2.0000      -0.251753        -6.8505
  44   2.0000      -0.230200        -6.2641
  45   2.0000      -0.222122        -6.0443
  46   2.0000      -0.212136        -5.7725
  47   2.0000      -0.198515        -5.4019
  48   0.0000       0.005842         0.1590
  49   0.0000       0.011876         0.3232
  50   0.0000       0.031016         0.8440
  51   0.0000       0.046411         1.2629
  52   0.0000       0.058815         1.6004

MULLIKEN ATOMIC CHARGES
-----------------------
   0 C :    0.104381
   1 C :   -0.004891
   2 H :    0.060572
   3 C :    0.063933
   4 H :    0.047544
   5 C :    0.116229
   6 H :    0.057709
   7 C :    0.000112
   8 H :    0.077155
   9 C :    0.167137
  10 H :    0.051184
  11 O :   -0.324500
  12 O :   -0.399291
  13 O :   -0.407514
  14 O :   -0.424013
  15 O :   -0.408716
  16 O :   -0.435076
  17 H :    0.055991
  18 H :    0.086262
  19 H :    0.309833
  20 H :    0.306185
  21 H :    0.303332
  22 H :    0.300114
  23 H :    0.296328
Sum of atomic charges:    0.0000000

LOEWDIN ATOMIC CHARGES
----------------------
   0 C :   -0.126829
   1 C :   -0.084094
   2 H :    0.107880
   3 C :   -0.078008
   4 H :    0.114861
   5 C :   -0.062734
   6 H :    0.118741
   7 C :   -0.090335
   8 H :    0.111289
   9 C :   -0.011522
  10 H :    0.090257
  11 O :   -0.154608
  12 O :   -0.313052
  13 O :   -0.307489
  14 O :   -0.311400
  15 O :   -0.302311
  16 O :   -0.338067
  17 H :    0.095410
  18 H :    0.117353
  19 H :    0.290757
  20 H :    0.290992
  21 H :    0.277733
  22 H :    0.284249
  23 H :    0.280927

  Mayer bond orders larger than 0.100000
B(  0-C ,  1-C ) :   1.0465 B(  0-C , 16-O ) :   1.0743 B(  0-C , 17-H ) :   0.9058
B(  0-C , 18-H ) :   0.9082 B(  1-C ,  2-H ) :   0.8616 B(  1-C ,  3-C ) :   1.0277
B(  1-C , 11-O ) :   0.9459 B(  3-C ,  4-H ) :   0.8403 B(  3-C ,  5-C ) :   1.0119
B(  3-C , 15-O ) :   1.0303 B(  5-C ,  6-H ) :   0.8587 B(  5-C ,  7-C ) :   0.9879
B(  5-C , 14-O ) :   1.0570 B(  7-C ,  8-H ) :   0.8840 B(  7-C ,  9-C ) :   1.0190
B(  7-C , 13-O ) :   1.0376 B(  9-C , 10-H ) :   0.8953 B(  9-C , 11-O ) :   1.0874
B(  9-C , 12-O ) :   1.1121 B( 12-O , 19-H ) :   0.8361 B( 13-O , 20-H ) :   0.8446
B( 14-O , 21-H ) :   0.8355 B( 15-O , 22-H ) :   0.8464 B( 16-O , 23-H ) :   0.8498

Dispersion correction           -0.024676177
FINAL SINGLE POINT ENERGY      -685.691331816197

DIPOLE MOMENT
-------------

Method             : SCF
Type of density    : Electron Density
Multiplicity       :   1
Irrep              :   0
Energy             :  -685.8217671307885439 Eh
Relativity type    :
Basis              : AO
                                X                 Y                 Z
Electronic contribution:      1.356118040      -0.092068906       0.057021853
Nuclear contribution   :     -0.233469525      -1.106723915       0.071114680
                        -----------------------------------------
Total Dipole Moment    :      1.122648515      -1.198792821       0.128136533
                        -----------------------------------------
Magnitude (a.u.)       :      1.647380614
Magnitude (Debye)      :      4.187308749

Rotational constants in cm-1:             0.040957             0.025595             0.021454
Rotational constants in MHz :          1227.864358           767.332365           643.171320

                             ****ORCA TERMINATED NORMALLY****
TOTAL RUN TIME: 0 days 0 hours 0 minutes 12 seconds 255 msec
