                         Program Version 6.0.0  -   RELEASE  -
|  1> ! wb97x-v def2-tzvp def2/J RIJCOSX DEFGRID2 scfconv7 GCP(DFT/TZ) printgap
|  2> %output
|  3>     printlevel normal
|  4> end
|  5> * xyz 0 1
|  6> C -1.820456487988583 -1.3637271949676502 3.2216941497408875e-05
|  7> C -0.47773458117835443 -1.711868738057404 0.0005868111632268096
|  8> C 0.5070250002793816 -0.7292308827772371 0.0005779705631763909
|  9> C 0.13204496032512972 0.6153050902356002 -2.2024955806713182e-06
| 10> C -1.2078720520753834 0.9784406336395821 -0.0005450481966747755
| 11> C -2.182809446450151 -0.017009618521399508 -0.0005020131904776224
| 12> O -3.4897232973412042 0.3917450888540201 -0.0010304782184022661
| 13> Cl 1.3375411498505085 1.88143692567895 -2.462937996834011e-05
| 14> Cl 2.1901013160031746 -1.2049139869250982 0.0012819304090867117
| 15> H -2.5846559394883486 -2.134604099938481 7.191030945665603e-05
| 16> H -0.18986756124452864 -2.7570116716163473 0.0010586362662077958
| 17> H -1.4978720942350108 2.022535917495042 -0.001056506385641624
| 18> H -4.0645564697887755 -0.387295178599325 -0.0010519200567216593
| 19> *
| 20>
| 21>                          ****END OF INPUT****

CARTESIAN COORDINATES (ANGSTROEM)
---------------------------------
  C     -1.820456   -1.363727    0.000032
  C     -0.477735   -1.711869    0.000587
  C      0.507025   -0.729231    0.000578
  C      0.132045    0.615305   -0.000002
  C     -1.207872    0.978441   -0.000545
  C     -2.182809   -0.017010   -0.000502
  O     -3.489723    0.391745   -0.001030
  Cl     1.337541    1.881437   -0.000025
  Cl     2.190101   -1.204914    0.001282
  H     -2.584656   -2.134604    0.000072
  H     -0.189868   -2.757012    0.001059
  H     -1.497872    2.022536   -0.001057
  H     -4.064556   -0.387295   -0.001052

 Total Charge           Charge          ....    0
 Multiplicity           Mult            ....    1
 Number of Electrons    NEL             ....   82
 Basis Dimension        Dim             ....  315

ORBITAL ENERGIES
----------------

  NO   OCC          E(Eh)            E(eV)
   0   2.0000    -107.152067     -2915.7560
   1   2.0000    -107.149238     -2915.6790
   2   2.0000     -21.722789      -591.1071
   3   2.0000     -12.138109      -330.2947
   4   2.0000     -12.135805      -330.2320
   5   2.0000     -12.125326      -329.9469
   6   2.0000     -12.083344      -328.8045
   7   2.0000     -12.075115      -328.5806
   8   2.0000     -12.073145      -328.5270
   9   2.0000     -11.305092      -307.6272
  10   2.0000     -11.302200      -307.5485
  11   2.0000      -9.096718      -247.5343
  12   2.0000      -9.093970      -247.4595
  13   2.0000      -9.093920      -247.4581
  14   2.0000      -9.093796      -247.4548
  15   2.0000      -9.091023      -247.3793
  16   2.0000      -9.090969      -247.3779
  17   2.0000      -1.738508       -47.3072
  18   2.0000      -1.458544       -39.6890
  19   2.0000      -1.416373       -38.5415
  20   2.0000      -1.388551       -37.7844
  21   2.0000      -1.303558       -35.4716
  22   2.0000      -1.287160       -35.0254
  23   2.0000      -1.177286       -32.0356
  24   2.0000      -1.149090       -31.2683
  25   2.0000      -1.080888       -29.4125
  26   2.0000      -1.035697       -28.1828
  27   2.0000      -0.982256       -26.7285
  28   2.0000      -0.975015       -26.5315
  29   2.0000      -0.968375       -26.3508
  30   2.0000      -0.943469       -25.6731
  31   2.0000      -0.911651       -24.8073
  32   2.0000      -0.894462       -24.3396
  33   2.0000      -0.854431       -23.2502
  34   2.0000      -0.849559       -23.1177
  35   2.0000      -0.810918       -22.0662
  36   2.0000      -0.801605       -21.8128
  37   2.0000      -0.793889       -21.6028
  38   2.0000      -0.774050       -21.0630
  39   2.0000      -0.671369       -18.2689
  40   2.0000      -0.664422       -18.0798
  41   0.0000      -0.297662        -8.0998
  42   0.0000      -0.285495        -7.7687
  43   0.0000      -0.271770        -7.3952
  44   0.0000      -0.245264        -6.6740
  45   0.0000      -0.153812        -4.1854

MULLIKEN ATOMIC CHARGES
-----------------------
   0 C :   -0.204152
   1 C :   -0.178749
   2 C :    0.057214
   3 C :    0.121058
   4 C :   -0.257597
   5 C :    0.258643
   6 O :   -0.381141
   7 Cl:   -0.064360
   8 Cl:   -0.072742
   9 H :    0.120140
  10 H :    0.139491
  11 H :    0.144895
  12 H :    0.317298
Sum of atomic charges:    0.0000000

LOEWDIN ATOMIC CHARGES
----------------------
   0 C :   -0.139203
   1 C :   -0.132455
   2 C :   -0.438159
   3 C :   -0.418232
   4 C :   -0.116990
   5 C :   -0.261286
   6 O :    0.078987
   7 Cl:    0.399507
   8 Cl:    0.386708
   9 H :    0.144409
  10 H :    0.151475
  11 H :    0.155760
  12 H :    0.189476

  Mayer bond orders larger than 0.100000
B(  0-C ,  1-C ) :   1.4362 B(  0-C ,  5-C ) :   1.3696 B(  0-C ,  9-H ) :   0.9553
B(  1-C ,  2-C ) :   1.4111 B(  1-C , 10-H ) :   0.9484 B(  2-C ,  3-C ) :   1.3141
B(  2-C ,  8-Cl) :   1.0751 B(  3-C ,  4-C ) :   1.4059 B(  3-C ,  7-Cl) :   1.0813
B(  4-C ,  5-C ) :   1.4006 B(  4-C , 11-H ) :   0.9602 B(  5-C ,  6-O ) :   1.1560
B(  6-O , 12-H ) :   0.8865

FINAL SINGLE POINT ENERGY     -1226.576749388014

DIPOLE MOMENT
-------------

Method             : SCF
Type of density    : Electron Density
Multiplicity       :   1
Irrep              :   0
Energy             : -1226.5833528234136338 Eh
Relativity type    :
Basis              : AO
                                X                 Y                 Z
Electronic contribution:     11.447342800       3.184341123       0.002634902
Nuclear contribution   :    -12.609143773      -3.958678634      -0.002812098
                        -----------------------------------------
Total Dipole Moment    :     -1.161800974      -0.774337511      -0.000177197
                        -----------------------------------------
Magnitude (a.u.)       :      1.396202032
Magnitude (Debye)      :      3.548863534

Rotational constants in cm-1:             0.061096             0.029338             0.019820
Rotational constants in MHz :          1831.599211           879.534824           594.199796

                             ****ORCA TERMINATED NORMALLY****
TOTAL RUN TIME: 0 days 0 hours 2 minutes 19 seconds 56 msec
