                         Program Version 6.0.0  -   RELEASE  -
|  1> ! wb97x-v def2-tzvp def2/J RIJCOSX DEFGRID2 scfconv7 GCP(DFT/TZ) printgap
|  2> %output
|  3>     printlevel normal
|  4> end
|  5> %cpcm
|  6>     smd true
|  7>     smdsolvent "water"
|  8> end
|  9> * xyz 0 1
| 10> C -1.820456487988583 -1.3637271949676502 3.2216941497408875e-05
| 11> C -0.47773458117835443 -1.711868738057404 0.0005868111632268096
| 12> C 0.5070250002793816 -0.7292308827772371 0.0005779705631763909
| 13> C 0.13204496032512972 0.6153050902356002 -2.2024955806713182e-06
| 14> C -1.2078720520753834 0.9784406336395821 -0.0005450481966747755
| 15> C -2.182809446450151 -0.017009618521399508 -0.0005020131904776224
| 16> O -3.4897232973412042 0.3917450888540201 -0.0010304782184022661
| 17> Cl 1.3375411498505085 1.88143692567895 -2.462937996834011e-05
| 18> Cl 2.1901013160031746 -1.2049139869250982 0.0012819304090867117
| 19> H -2.5846559394883486 -2.134604099938481 7.191030945665603e-05
| 20> H -0.18986756124452864 -2.7570116716163473 0.0010586362662077958
| 21> H -1.4978720942350108 2.022535917495042 -0.001056506385641624
| 22> H -4.0645564697887755 -0.387295178599325 -0.0010519200567216593
| 23> *
| 24>
| 25>                          ****END OF INPUT****

CARTESIAN COORDINATES (ANGSTROEM)
---------------------------------
  C     -1.820456   -1.363727    0.000032
  C     -0.477735   -1.711869    0.000587
  C      0.507025   -0.729231    0.000578
  C      0.132045    0.615305   -0.000002
  C     -1.207872    0.978441   -0.000545
  C     -2.182809   -0.017010   -0.000502
  O     -3.489723    0.391745   -0.001030
  Cl     1.337541    1.881437   -0.000025
  Cl     2.190101   -1.204914    0.001282
  H     -2.584656   -2.134604    0.000072
  H     -0.189868   -2.757012    0.001059
  H     -1.497872    2.022536   -0.001057
  H     -4.064556   -0.387295   -0.001052

 Total Charge           Charge          ....    0
 Multiplicity           Mult            ....    1
 Number of Electrons    NEL             ....   82
 Basis Dimension        Dim             ....  315

ORBITAL ENERGIES
----------------

  NO   OCC          E(Eh)            E(eV)
   0   2.0000    -107.155160     -2915.8401
   1   2.0000    -107.152236     -2915.7606
   2   2.0000     -21.709071      -590.7339
   3   2.0000     -12.132001      -330.1285
   4   2.0000     -12.128524      -330.0339
   5   2.0000     -12.121078      -329.8313
   6   2.0000     -12.072613      -328.5125
   7   2.0000     -12.065415      -328.3166
   8   2.0000     -12.061251      -328.2033
   9   2.0000     -11.308280      -307.7139
  10   2.0000     -11.305285      -307.6324
  11   2.0000      -9.099882      -247.6204
  12   2.0000      -9.097214      -247.5478
  13   2.0000      -9.097152      -247.5461
  14   2.0000      -9.096862      -247.5382
  15   2.0000      -9.094159      -247.4646
  16   2.0000      -9.094111      -247.4633
  17   2.0000      -1.724869       -46.9361
  18   2.0000      -1.457795       -39.6686
  19   2.0000      -1.418724       -38.6054
  20   2.0000      -1.382966       -37.6324
  21   2.0000      -1.295535       -35.2533
  22   2.0000      -1.280819       -34.8529
  23   2.0000      -1.166579       -31.7442
  24   2.0000      -1.140844       -31.0439
  25   2.0000      -1.071839       -29.1662
  26   2.0000      -1.027474       -27.9590
  27   2.0000      -0.976931       -26.5836
  28   2.0000      -0.966955       -26.3122
  29   2.0000      -0.956865       -26.0376
  30   2.0000      -0.939111       -25.5545
  31   2.0000      -0.901824       -24.5399
  32   2.0000      -0.885814       -24.1042
  33   2.0000      -0.849866       -23.1260
  34   2.0000      -0.843229       -22.9454
  35   2.0000      -0.814674       -22.1684
  36   2.0000      -0.804266       -21.8852
  37   2.0000      -0.797102       -21.6902
  38   2.0000      -0.770234       -20.9591
  39   2.0000      -0.664187       -18.0734
  40   2.0000      -0.658635       -17.9224
  41   0.0000      -0.297038        -8.0828
  42   0.0000      -0.279500        -7.6056
  43   0.0000      -0.263525        -7.1709
  44   0.0000      -0.244890        -6.6638
  45   0.0000      -0.141499        -3.8504

MULLIKEN ATOMIC CHARGES
-----------------------
   0 C :   -0.252390
   1 C :   -0.186334
   2 C :    0.060867
   3 C :    0.116278
   4 C :   -0.286252
   5 C :    0.272606
   6 O :   -0.454429
   7 Cl:   -0.087385
   8 Cl:   -0.096295
   9 H :    0.179882
  10 H :    0.177925
  11 H :    0.172188
  12 H :    0.383338
Sum of atomic charges:    0.0000000

LOEWDIN ATOMIC CHARGES
----------------------
   0 C :   -0.120623
   1 C :   -0.130566
   2 C :   -0.447672
   3 C :   -0.428752
   4 C :   -0.122636
   5 C :   -0.261363
   6 O :    0.058844
   7 Cl:    0.380798
   8 Cl:    0.368017
   9 H :    0.163228
  10 H :    0.162065
  11 H :    0.162860
  12 H :    0.215799

  Mayer bond orders larger than 0.100000
B(  0-C ,  1-C ) :   1.4070 B(  0-C ,  5-C ) :   1.3661 B(  0-C ,  9-H ) :   0.9632
B(  1-C ,  2-C ) :   1.3689 B(  1-C , 10-H ) :   0.9525 B(  2-C ,  3-C ) :   1.3075
B(  2-C ,  8-Cl) :   1.0564 B(  3-C ,  4-C ) :   1.3985 B(  3-C ,  7-Cl) :   1.0657
B(  4-C ,  5-C ) :   1.3912 B(  4-C , 11-H ) :   0.9589 B(  5-C ,  6-O ) :   1.1232
B(  6-O , 12-H ) :   0.8443

FINAL SINGLE POINT ENERGY     -1226.586546226838

DIPOLE MOMENT
-------------

Method             : SCF
Type of density    : Electron Density
Multiplicity       :   1
Irrep              :   0
Energy             : -1226.5931496622379200 Eh
Relativity type    :
Basis              : AO
                                X                 Y                 Z
Electronic contribution:     10.926673438       2.806501507       0.002569699
Nuclear contribution   :    -12.609143773      -3.958678634      -0.002812098
                        -----------------------------------------
Total Dipole Moment    :     -1.682470335      -1.152177127      -0.000242400
                        -----------------------------------------
Magnitude (a.u.)       :      2.039171062
Magnitude (Debye)      :      5.183160926

Rotational constants in cm-1:             0.061096             0.029338             0.019820
Rotational constants in MHz :          1831.599211           879.534824           594.199796

                             ****ORCA TERMINATED NORMALLY****
TOTAL RUN TIME: 0 days 0 hours 2 minutes 34 seconds 521 msec
