                         Program Version 6.0.0  -   RELEASE  -
|  1> ! pbe def2-sv(p) def2/J RI DEFGRID1 loosescf d4 GCP(DFT/SV(P)) printgap
|  2> %output
|  3>     printlevel normal
|  4> end
|  5> * xyz 0 1
|  6> C -2.2789275844 0.3011028885 0.1032724269
|  7> C -1.3668122572 1.3320541499 -0.0476647434
|  8> C -0.0181255519 1.0508782054 -0.1736199966
|  9> C 0.4328254289 -0.2625301226 -0.1435311677
| 10> C -0.48630141 -1.2917819987 0.011652446
| 11> C -1.8362155193 -1.0109323793 0.1306040774
| 12> C 1.9050552173 -0.5614213085 -0.2939749174
| 13> O 2.7479308177 0.402117422 0.3027406436
| 14> H -3.3317750554 0.5191191279 0.1998255761
| 15> H -1.7061802233 2.3567140719 -0.0714179857
| 16> H 0.7006101897 1.8482325907 -0.2946261923
| 17> H -0.1427676544 -2.3158091896 0.036635736
| 18> H -2.5437112621 -1.8177222434 0.2498458051
| 19> H 2.1265249205 -1.5625303312 0.1001790662
| 20> H 2.1691232563 -0.5513780371 -1.357346046
| 21> H 2.5852430458 0.4148558372 1.2558684669
| 22> *
| 23>
| 24>                          ****END OF INPUT****

CARTESIAN COORDINATES (ANGSTROEM)
---------------------------------
  C     -2.278928    0.301103    0.103272
  C     -1.366812    1.332054   -0.047665
  C     -0.018126    1.050878   -0.173620
  C      0.432825   -0.262530   -0.143531
  C     -0.486301   -1.291782    0.011652
  C     -1.836216   -1.010932    0.130604
  C      1.905055   -0.561421   -0.293975
  O      2.747931    0.402117    0.302741
  H     -3.331775    0.519119    0.199826
  H     -1.706180    2.356714   -0.071418
  H      0.700610    1.848233   -0.294626
  H     -0.142768   -2.315809    0.036636
  H     -2.543711   -1.817722    0.249846
  H      2.126525   -1.562530    0.100179
  H      2.169123   -0.551378   -1.357346
  H      2.585243    0.414856    1.255868

 Total Charge           Charge          ....    0
 Multiplicity           Mult            ....    1
 Number of Electrons    NEL             ....   58
 Basis Dimension        Dim             ....  128

ORBITAL ENERGIES
----------------

  NO   OCC          E(Eh)            E(eV)
   0   2.0000     -18.747463      -510.1444
   1   2.0000      -9.936104      -270.3751
   2   2.0000      -9.899506      -269.3792
   3   2.0000      -9.893567      -269.2176
   4   2.0000      -9.893226      -269.2084
   5   2.0000      -9.893070      -269.2041
   6   2.0000      -9.892502      -269.1887
   7   2.0000      -9.890208      -269.1262
   8   2.0000      -0.923814       -25.1383
   9   2.0000      -0.777611       -21.1599
  10   2.0000      -0.688587       -18.7374
  11   2.0000      -0.670630       -18.2488
  12   2.0000      -0.607350       -16.5268
  13   2.0000      -0.544576       -14.8187
  14   2.0000      -0.528130       -14.3712
  15   2.0000      -0.476222       -12.9587
  16   2.0000      -0.447321       -12.1722
  17   2.0000      -0.410870       -11.1803
  18   2.0000      -0.395735       -10.7685
  19   2.0000      -0.393614       -10.7108
  20   2.0000      -0.376300       -10.2396
  21   2.0000      -0.371971       -10.1219
  22   2.0000      -0.328144        -8.9293
  23   2.0000      -0.316086        -8.6011
  24   2.0000      -0.301651        -8.2083
  25   2.0000      -0.275734        -7.5031
  26   2.0000      -0.233918        -6.3652
  27   2.0000      -0.230642        -6.2761
  28   2.0000      -0.215124        -5.8538
  29   0.0000      -0.037969        -1.0332
  30   0.0000      -0.036057        -0.9811
  31   0.0000       0.035953         0.9783
  32   0.0000       0.046976         1.2783
  33   0.0000       0.069484         1.8908

MULLIKEN ATOMIC CHARGES
-----------------------
   0 C :   -0.048966
   1 C :   -0.045361
   2 C :   -0.103062
   3 C :   -0.018604
   4 C :   -0.108534
   5 C :   -0.047449
   6 C :    0.088316
   7 O :   -0.432776
   8 H :    0.053463
   9 H :    0.053733
  10 H :    0.046566
  11 H :    0.037264
  12 H :    0.051740
  13 H :    0.074677
  14 H :    0.103434
  15 H :    0.295558
Sum of atomic charges:    0.0000000

LOEWDIN ATOMIC CHARGES
----------------------
   0 C :   -0.126079
   1 C :   -0.120314
   2 C :   -0.120043
   3 C :   -0.074031
   4 C :   -0.124893
   5 C :   -0.121080
   6 C :   -0.107682
   7 O :   -0.332506
   8 H :    0.123146
   9 H :    0.123659
  10 H :    0.125202
  11 H :    0.120411
  12 H :    0.123218
  13 H :    0.100629
  14 H :    0.126217
  15 H :    0.284145

  Mayer bond orders larger than 0.100000
B(  0-C ,  1-C ) :   1.3745 B(  0-C ,  5-C ) :   1.3846 B(  0-C ,  8-H ) :   0.9654
B(  1-C ,  2-C ) :   1.3662 B(  1-C ,  9-H ) :   0.9662 B(  2-C ,  3-C ) :   1.3958
B(  2-C , 10-H ) :   0.9606 B(  3-C ,  4-C ) :   1.3835 B(  3-C ,  6-C ) :   1.0337
B(  4-C ,  5-C ) :   1.3721 B(  4-C , 11-H ) :   0.9607 B(  5-C , 12-H ) :   0.9633
B(  6-C ,  7-O ) :   1.0673 B(  6-C , 13-H ) :   0.9218 B(  6-C , 14-H ) :   0.9034
B(  7-O , 15-H ) :   0.8528

Dispersion correction           -0.015373033
FINAL SINGLE POINT ENERGY      -346.006465752966

DIPOLE MOMENT
-------------

Method             : SCF
Type of density    : Electron Density
Multiplicity       :   1
Irrep              :   0
Energy             :  -346.0583979934349941 Eh
Relativity type    :
Basis              : AO
                                X                 Y                 Z
Electronic contribution:     -0.210195591       0.754711777       0.224339277
Nuclear contribution   :     -0.093311224      -1.034014553       0.116102565
                        -----------------------------------------
Total Dipole Moment    :     -0.303506815      -0.279302776       0.340441843
                        -----------------------------------------
Magnitude (a.u.)       :      0.534814992
Magnitude (Debye)      :      1.359391677

Rotational constants in cm-1:             0.163184             0.049707             0.039370
Rotational constants in MHz :          4892.136573          1490.178047          1180.283445

                             ****ORCA TERMINATED NORMALLY****
TOTAL RUN TIME: 0 days 0 hours 0 minutes 7 seconds 139 msec
