                         Program Version 6.0.0  -   RELEASE  -
|  1> ! pbe def2-sv(p) def2/J RI DEFGRID1 loosescf d4 GCP(DFT/SV(P)) printgap
|  2> %output
|  3>     printlevel normal
|  4> end
|  5> * xyz 0 1
|  6> C -2.2643279337 -0.6695734963 -0.8317864631
|  7> C -1.1176725236 -0.5817676123 0.175716735
|  8> H -1.4392773962 -1.0411571352 1.1255502907
|  9> C -0.7280009729 0.8849924092 0.4606891455
| 10> H -1.578631697 1.523342244 0.1964866442
| 11> C 0.4773687832 1.2809304954 -0.4047213314
| 12> H 0.759402539 2.3108488166 -0.1370341177
| 13> C 1.6782273894 0.3739478443 -0.0458914342
| 14> H 2.3648207588 0.3207386258 -0.8975317085
| 15> C 1.1891504926 -1.0630283416 0.2809120419
| 16> H 1.0795950389 -1.1547621748 1.3747785076
| 17> O -0.0397193504 -1.3272610648 -0.3579365175
| 18> O 2.0866353353 -2.0416664717 -0.1029174154
| 19> O 2.4299549367 0.9196614195 1.0055530218
| 20> O 0.0969006804 1.2003009587 -1.7518361311
| 21> O -0.3479724941 1.0854691576 1.8039542442
| 22> O -3.4098109676 -0.0980319914 -0.243372412
| 23> H -2.4219528041 -1.7272706741 -1.0718101499
| 24> H -1.9653454427 -0.132967612 -1.7385943453
| 25> H 1.9966174874 -2.1943436248 -1.0568856075
| 26> H 1.8412475245 1.0643553496 1.7639917973
| 27> H 0.806864968 1.5452383752 -2.3124576673
| 28> H -1.1344207827 1.0915253601 2.3673769348
| 29> H -4.1424807356 -0.1413200884 -0.8738299036
| 30> *
| 31>
| 32>                          ****END OF INPUT****

CARTESIAN COORDINATES (ANGSTROEM)
---------------------------------
  C     -2.264328   -0.669573   -0.831786
  C     -1.117673   -0.581768    0.175717
  H     -1.439277   -1.041157    1.125550
  C     -0.728001    0.884992    0.460689
  H     -1.578632    1.523342    0.196487
  C      0.477369    1.280930   -0.404721
  H      0.759403    2.310849   -0.137034
  C      1.678227    0.373948   -0.045891
  H      2.364821    0.320739   -0.897532
  C      1.189150   -1.063028    0.280912
  H      1.079595   -1.154762    1.374779
  O     -0.039719   -1.327261   -0.357937
  O      2.086635   -2.041666   -0.102917
  O      2.429955    0.919661    1.005553
  O      0.096901    1.200301   -1.751836
  O     -0.347972    1.085469    1.803954
  O     -3.409811   -0.098032   -0.243372
  H     -2.421953   -1.727271   -1.071810
  H     -1.965345   -0.132968   -1.738594
  H      1.996617   -2.194344   -1.056886
  H      1.841248    1.064355    1.763992
  H      0.806865    1.545238   -2.312458
  H     -1.134421    1.091525    2.367377
  H     -4.142481   -0.141320   -0.873830

 Total Charge           Charge          ....    0
 Multiplicity           Mult            ....    1
 Number of Electrons    NEL             ....   96
 Basis Dimension        Dim             ....  192

ORBITAL ENERGIES
----------------

  NO   OCC          E(Eh)            E(eV)
   0   2.0000     -18.771290      -510.7928
   1   2.0000     -18.762616      -510.5567
   2   2.0000     -18.759769      -510.4793
   3   2.0000     -18.755605      -510.3660
   4   2.0000     -18.746157      -510.1089
   5   2.0000     -18.734935      -509.8035
   6   2.0000      -9.974619      -271.4232
   7   2.0000      -9.945239      -270.6237
   8   2.0000      -9.942240      -270.5421
   9   2.0000      -9.941359      -270.5181
  10   2.0000      -9.929273      -270.1893
  11   2.0000      -9.929075      -270.1839
  12   2.0000      -0.976561       -26.5736
  13   2.0000      -0.947364       -25.7791
  14   2.0000      -0.934363       -25.4253
  15   2.0000      -0.929709       -25.2987
  16   2.0000      -0.913892       -24.8683
  17   2.0000      -0.903777       -24.5930
  18   2.0000      -0.700618       -19.0648
  19   2.0000      -0.681277       -18.5385
  20   2.0000      -0.614131       -16.7114
  21   2.0000      -0.580397       -15.7934
  22   2.0000      -0.557516       -15.1708
  23   2.0000      -0.520614       -14.1666
  24   2.0000      -0.506668       -13.7871
  25   2.0000      -0.487849       -13.2750
  26   2.0000      -0.483903       -13.1677
  27   2.0000      -0.447501       -12.1771
  28   2.0000      -0.438509       -11.9324
  29   2.0000      -0.435815       -11.8591
  30   2.0000      -0.416107       -11.3228
  31   2.0000      -0.390142       -10.6163
  32   2.0000      -0.384335       -10.4583
  33   2.0000      -0.372423       -10.1341
  34   2.0000      -0.354791        -9.6543
  35   2.0000      -0.348082        -9.4718
  36   2.0000      -0.319191        -8.6856
  37   2.0000      -0.309056        -8.4098
  38   2.0000      -0.305668        -8.3176
  39   2.0000      -0.297689        -8.1005
  40   2.0000      -0.291662        -7.9365
  41   2.0000      -0.265573        -7.2266
  42   2.0000      -0.243717        -6.6319
  43   2.0000      -0.235959        -6.4208
  44   2.0000      -0.231848        -6.3089
  45   2.0000      -0.221138        -6.0175
  46   2.0000      -0.217516        -5.9189
  47   2.0000      -0.185183        -5.0391
  48   0.0000       0.009160         0.2493
  49   0.0000       0.020738         0.5643
  50   0.0000       0.028157         0.7662
  51   0.0000       0.049755         1.3539
  52   0.0000       0.057763         1.5718

MULLIKEN ATOMIC CHARGES
-----------------------
   0 C :    0.037784
   1 C :    0.078892
   2 H :    0.055238
   3 C :   -0.035020
   4 H :    0.089565
   5 C :    0.064315
   6 H :    0.067439
   7 C :    0.059639
   8 H :    0.034375
   9 C :    0.213301
  10 H :    0.044406
  11 O :   -0.311884
  12 O :   -0.386425
  13 O :   -0.428367
  14 O :   -0.408576
  15 O :   -0.429069
  16 O :   -0.444175
  17 H :    0.079427
  18 H :    0.087940
  19 H :    0.297368
  20 H :    0.304839
  21 H :    0.305377
  22 H :    0.316793
  23 H :    0.306817
Sum of atomic charges:   -0.0000000

LOEWDIN ATOMIC CHARGES
----------------------
   0 C :   -0.130991
   1 C :   -0.057040
   2 H :    0.100974
   3 C :   -0.072566
   4 H :    0.114860
   5 C :   -0.075530
   6 H :    0.103129
   7 C :   -0.092125
   8 H :    0.106740
   9 C :    0.002348
  10 H :    0.094308
  11 O :   -0.154160
  12 O :   -0.294370
  13 O :   -0.315154
  14 O :   -0.312915
  15 O :   -0.316374
  16 O :   -0.345268
  17 H :    0.101609
  18 H :    0.106749
  19 H :    0.283983
  20 H :    0.275990
  21 H :    0.289158
  22 H :    0.295982
  23 H :    0.290664

  Mayer bond orders larger than 0.100000
B(  0-C ,  1-C ) :   1.0673 B(  0-C , 16-O ) :   1.0702 B(  0-C , 17-H ) :   0.9089
B(  0-C , 18-H ) :   0.9022 B(  1-C ,  2-H ) :   0.8916 B(  1-C ,  3-C ) :   0.9654
B(  1-C , 11-O ) :   1.0030 B(  3-C ,  4-H ) :   0.8926 B(  3-C ,  5-C ) :   1.0316
B(  3-C , 15-O ) :   1.0369 B(  5-C ,  6-H ) :   0.8938 B(  5-C ,  7-C ) :   0.9376
B(  5-C , 14-O ) :   1.0545 B(  7-C ,  8-H ) :   0.8823 B(  7-C ,  9-C ) :   0.9567
B(  7-C , 13-O ) :   1.0511 B(  9-C , 10-H ) :   0.8751 B(  9-C , 11-O ) :   1.0393
B(  9-C , 12-O ) :   1.1307 B( 12-O , 19-H ) :   0.8450 B( 13-O , 20-H ) :   0.8270
B( 14-O , 21-H ) :   0.8454 B( 15-O , 22-H ) :   0.8415 B( 16-O , 23-H ) :   0.8501

Dispersion correction           -0.024823055
FINAL SINGLE POINT ENERGY      -685.686406265856

DIPOLE MOMENT
-------------

Method             : SCF
Type of density    : Electron Density
Multiplicity       :   1
Irrep              :   0
Energy             :  -685.8165227813266256 Eh
Relativity type    :
Basis              : AO
                                X                 Y                 Z
Electronic contribution:      2.394165868      -0.885671488       0.537849099
Nuclear contribution   :     -3.584443497       1.369820047      -1.176820084
                        -----------------------------------------
Total Dipole Moment    :     -1.190277628       0.484148558      -0.638970985
                        -----------------------------------------
Magnitude (a.u.)       :      1.435076506
Magnitude (Debye)      :      3.647674593

Rotational constants in cm-1:             0.044632             0.024523             0.021564
Rotational constants in MHz :          1338.023877           735.184200           646.460556

                             ****ORCA TERMINATED NORMALLY****
TOTAL RUN TIME: 0 days 0 hours 0 minutes 11 seconds 967 msec
