                         Program Version 6.0.0  -   RELEASE  -
|  1> ! wb97x-v def2-tzvp def2/J RIJCOSX DEFGRID2 scfconv7 GCP(DFT/TZ) printgap
|  2> %output
|  3>     printlevel normal
|  4> end
|  5> * xyz 0 1
|  6> C -2.5684742270708725 -0.8976675077113687 0.3353782668330123
|  7> C -1.145175985918058 -0.4399706890813022 0.5899129560732782
|  8> H -0.9896783750858699 -0.39378672558982236 1.6820162595424963
|  9> C -0.8182093653763403 0.9241675378111737 -0.02389383027795138
| 10> H -1.032105405452678 0.8988155637888146 -1.0978829076252403
| 11> C 0.656849374437238 1.2625513017091132 0.1851783501518402
| 12> H 0.8342126339264818 1.3924660586785027 1.2667594120221004
| 13> C 1.544260094235499 0.13915786804785776 -0.31669962317176303
| 14> H 1.4426730426128196 0.04744309660217521 -1.4091882307528156
| 15> C 1.1031447163241073 -1.1789674713320617 0.3168467072043197
| 16> H 1.2331432699109044 -1.1446604492639758 1.411188538461587
| 17> O -0.27296159759731875 -1.430952939751203 0.014349464513790542
| 18> O 1.8647652636109362 -2.2100475019203953 -0.25271865059040677
| 19> O 2.8926964450086556 0.44539074160080605 0.043815617409586255
| 20> O 1.0142888762340627 2.45898714396836 -0.5134389325795733
| 21> O -1.6467252016932308 1.956977541571306 0.5193203121048774
| 22> O -2.902462654924941 -0.9468019214019161 -1.0564883354584675
| 23> H -3.2593120150942325 -0.1904881872675699 0.8011429794712576
| 24> H -2.7120809657003777 -1.880766635139646 0.8033690449270658
| 25> H 1.8349877413868112 -2.973525730769154 0.3400886154935535
| 26> H 3.4580953733940287 -0.22592554838142215 -0.3608651240015618
| 27> H 0.4319986976643977 3.1578611542746344 -0.18471723504348084
| 28> H -1.4934503203753065 1.983866014151892 1.4754561910748598
| 29> H -2.3303388452269744 -1.6084154406471742 -1.4673195116253155
| 30> *
| 31>
| 32>                          ****END OF INPUT****

CARTESIAN COORDINATES (ANGSTROEM)
---------------------------------
  C     -2.568474   -0.897668    0.335378
  C     -1.145176   -0.439971    0.589913
  H     -0.989678   -0.393787    1.682016
  C     -0.818209    0.924168   -0.023894
  H     -1.032105    0.898816   -1.097883
  C      0.656849    1.262551    0.185178
  H      0.834213    1.392466    1.266759
  C      1.544260    0.139158   -0.316700
  H      1.442673    0.047443   -1.409188
  C      1.103145   -1.178967    0.316847
  H      1.233143   -1.144660    1.411189
  O     -0.272962   -1.430953    0.014349
  O      1.864765   -2.210048   -0.252719
  O      2.892696    0.445391    0.043816
  O      1.014289    2.458987   -0.513439
  O     -1.646725    1.956978    0.519320
  O     -2.902463   -0.946802   -1.056488
  H     -3.259312   -0.190488    0.801143
  H     -2.712081   -1.880767    0.803369
  H      1.834988   -2.973526    0.340089
  H      3.458095   -0.225926   -0.360865
  H      0.431999    3.157861   -0.184717
  H     -1.493450    1.983866    1.475456
  H     -2.330339   -1.608415   -1.467320

 Total Charge           Charge          ....    0
 Multiplicity           Mult            ....    1
 Number of Electrons    NEL             ....   96
 Basis Dimension        Dim             ....  444

ORBITAL ENERGIES
----------------

  NO   OCC          E(Eh)            E(eV)
   0   2.0000     -21.704653      -590.6136
   1   2.0000     -21.699399      -590.4707
   2   2.0000     -21.694696      -590.3427
   3   2.0000     -21.677800      -589.8829
   4   2.0000     -21.675944      -589.8324
   5   2.0000     -21.674202      -589.7850
   6   2.0000     -12.165159      -331.0308
   7   2.0000     -12.118605      -329.7640
   8   2.0000     -12.110566      -329.5453
   9   2.0000     -12.108896      -329.4998
  10   2.0000     -12.108197      -329.4808
  11   2.0000     -12.102066      -329.3140
  12   2.0000      -1.733314       -47.1659
  13   2.0000      -1.698220       -46.2109
  14   2.0000      -1.691041       -46.0156
  15   2.0000      -1.682680       -45.7881
  16   2.0000      -1.675378       -45.5894
  17   2.0000      -1.673741       -45.5448
  18   2.0000      -1.339624       -36.4530
  19   2.0000      -1.329117       -36.1671
  20   2.0000      -1.240155       -33.7463
  21   2.0000      -1.207941       -32.8697
  22   2.0000      -1.166756       -31.7490
  23   2.0000      -1.126854       -30.6633
  24   2.0000      -1.102408       -29.9981
  25   2.0000      -1.073721       -29.2174
  26   2.0000      -1.054130       -28.6843
  27   2.0000      -1.049027       -28.5455
  28   2.0000      -1.039064       -28.2744
  29   2.0000      -1.009895       -27.4806
  30   2.0000      -0.997141       -27.1336
  31   2.0000      -0.985939       -26.8288
  32   2.0000      -0.980869       -26.6908
  33   2.0000      -0.970586       -26.4110
  34   2.0000      -0.961047       -26.1514
  35   2.0000      -0.950775       -25.8719
  36   2.0000      -0.943284       -25.6681
  37   2.0000      -0.938190       -25.5294
  38   2.0000      -0.925861       -25.1940
  39   2.0000      -0.914726       -24.8910
  40   2.0000      -0.899951       -24.4889
  41   2.0000      -0.883214       -24.0335
  42   2.0000      -0.853182       -23.2163
  43   2.0000      -0.843046       -22.9405
  44   2.0000      -0.822308       -22.3761
  45   2.0000      -0.809982       -22.0407
  46   2.0000      -0.800175       -21.7739
  47   2.0000      -0.778651       -21.1882
  48   0.0000      -0.243817        -6.6346
  49   0.0000      -0.200811        -5.4643
  50   0.0000      -0.178912        -4.8684
  51   0.0000      -0.157345        -4.2816
  52   0.0000      -0.134359        -3.6561

MULLIKEN ATOMIC CHARGES
-----------------------
   0 C :    0.038332
   1 C :   -0.056638
   2 H :    0.068908
   3 C :    0.042050
   4 H :    0.097780
   5 C :    0.081903
   6 H :    0.068422
   7 C :    0.106763
   8 H :    0.088875
   9 C :    0.063391
  10 H :    0.067033
  11 O :   -0.270575
  12 O :   -0.411307
  13 O :   -0.423590
  14 O :   -0.414026
  15 O :   -0.438170
  16 O :   -0.454453
  17 H :    0.096131
  18 H :    0.104210
  19 H :    0.317452
  20 H :    0.309649
  21 H :    0.307004
  22 H :    0.298239
  23 H :    0.312616
Sum of atomic charges:    0.0000000

LOEWDIN ATOMIC CHARGES
----------------------
   0 C :   -0.309635
   1 C :   -0.314905
   2 H :    0.138802
   3 C :   -0.306239
   4 H :    0.156254
   5 C :   -0.315887
   6 H :    0.138080
   7 C :   -0.305863
   8 H :    0.148616
   9 C :   -0.412512
  10 H :    0.122110
  11 O :    0.179825
  12 O :    0.014232
  13 O :   -0.002687
  14 O :   -0.003806
  15 O :   -0.008391
  16 O :   -0.041264
  17 H :    0.133514
  18 H :    0.121001
  19 H :    0.179498
  20 H :    0.174433
  21 H :    0.172547
  22 H :    0.170086
  23 H :    0.172194

  Mayer bond orders larger than 0.100000
B(  0-C ,  1-C ) :   0.9826 B(  0-C , 16-O ) :   1.0064 B(  0-C , 17-H ) :   0.9573
B(  0-C , 18-H ) :   0.9782 B(  1-C ,  2-H ) :   0.9480 B(  1-C ,  3-C ) :   0.9695
B(  1-C , 11-O ) :   0.9899 B(  1-C , 16-O ) :   0.1103 B(  3-C ,  4-H ) :   0.9271
B(  3-C ,  5-C ) :   0.9876 B(  3-C , 15-O ) :   0.9805 B(  5-C ,  6-H ) :   0.9577
B(  5-C ,  7-C ) :   0.9272 B(  5-C , 14-O ) :   1.1043 B(  7-C ,  8-H ) :   0.9676
B(  7-C ,  9-C ) :   0.9316 B(  7-C , 13-O ) :   1.1494 B(  9-C , 10-H ) :   0.9832
B(  9-C , 11-O ) :   1.0228 B(  9-C , 12-O ) :   1.2031 B( 12-O , 19-H ) :   0.8920
B( 13-O , 20-H ) :   0.8904 B( 14-O , 21-H ) :   0.8882 B( 15-O , 22-H ) :   0.8921
B( 16-O , 23-H ) :   0.8904

FINAL SINGLE POINT ENERGY      -687.244775335574

DIPOLE MOMENT
-------------

Method             : SCF
Type of density    : Electron Density
Multiplicity       :   1
Irrep              :   0
Energy             :  -687.2636324776743777 Eh
Relativity type    :
Basis              : AO
                                X                 Y                 Z
Electronic contribution:      2.375489060      -0.002278324      -1.858899629
Nuclear contribution   :     -2.272486854      -0.947006724       3.265727682
                        -----------------------------------------
Total Dipole Moment    :      0.103002206      -0.949285048       1.406828053
                        -----------------------------------------
Magnitude (a.u.)       :      1.700269605
Magnitude (Debye)      :      4.321741880

Rotational constants in cm-1:             0.039352             0.026475             0.017500
Rotational constants in MHz :          1179.750960           793.695830           524.624011

                             ****ORCA TERMINATED NORMALLY****
TOTAL RUN TIME: 0 days 0 hours 4 minutes 52 seconds 175 msec
