                         Program Version 6.0.0  -   RELEASE  -
|  1> ! wb97x-v def2-tzvp def2/J RIJCOSX DEFGRID2 scfconv7 GCP(DFT/TZ) printgap
|  2> %output
|  3>     printlevel normal
|  4> end
|  5> %cpcm
|  6>     smd true
|  7>     smdsolvent "water"
|  8> end
|  9> * xyz 0 1
| 10> C -2.5684742270708725 -0.8976675077113687 0.3353782668330123
| 11> C -1.145175985918058 -0.4399706890813022 0.5899129560732782
| 12> H -0.9896783750858699 -0.39378672558982236 1.6820162595424963
| 13> C -0.8182093653763403 0.9241675378111737 -0.02389383027795138
| 14> H -1.032105405452678 0.8988155637888146 -1.0978829076252403
| 15> C 0.656849374437238 1.2625513017091132 0.1851783501518402
| 16> H 0.8342126339264818 1.3924660586785027 1.2667594120221004
| 17> C 1.544260094235499 0.13915786804785776 -0.31669962317176303
| 18> H 1.4426730426128196 0.04744309660217521 -1.4091882307528156
| 19> C 1.1031447163241073 -1.1789674713320617 0.3168467072043197
| 20> H 1.2331432699109044 -1.1446604492639758 1.411188538461587
| 21> O -0.27296159759731875 -1.430952939751203 0.014349464513790542
| 22> O 1.8647652636109362 -2.2100475019203953 -0.25271865059040677
| 23> O 2.8926964450086556 0.44539074160080605 0.043815617409586255
| 24> O 1.0142888762340627 2.45898714396836 -0.5134389325795733
| 25> O -1.6467252016932308 1.956977541571306 0.5193203121048774
| 26> O -2.902462654924941 -0.9468019214019161 -1.0564883354584675
| 27> H -3.2593120150942325 -0.1904881872675699 0.8011429794712576
| 28> H -2.7120809657003777 -1.880766635139646 0.8033690449270658
| 29> H 1.8349877413868112 -2.973525730769154 0.3400886154935535
| 30> H 3.4580953733940287 -0.22592554838142215 -0.3608651240015618
| 31> H 0.4319986976643977 3.1578611542746344 -0.18471723504348084
| 32> H -1.4934503203753065 1.983866014151892 1.4754561910748598
| 33> H -2.3303388452269744 -1.6084154406471742 -1.4673195116253155
| 34> *
| 35>
| 36>                          ****END OF INPUT****

CARTESIAN COORDINATES (ANGSTROEM)
---------------------------------
  C     -2.568474   -0.897668    0.335378
  C     -1.145176   -0.439971    0.589913
  H     -0.989678   -0.393787    1.682016
  C     -0.818209    0.924168   -0.023894
  H     -1.032105    0.898816   -1.097883
  C      0.656849    1.262551    0.185178
  H      0.834213    1.392466    1.266759
  C      1.544260    0.139158   -0.316700
  H      1.442673    0.047443   -1.409188
  C      1.103145   -1.178967    0.316847
  H      1.233143   -1.144660    1.411189
  O     -0.272962   -1.430953    0.014349
  O      1.864765   -2.210048   -0.252719
  O      2.892696    0.445391    0.043816
  O      1.014289    2.458987   -0.513439
  O     -1.646725    1.956978    0.519320
  O     -2.902463   -0.946802   -1.056488
  H     -3.259312   -0.190488    0.801143
  H     -2.712081   -1.880767    0.803369
  H      1.834988   -2.973526    0.340089
  H      3.458095   -0.225926   -0.360865
  H      0.431999    3.157861   -0.184717
  H     -1.493450    1.983866    1.475456
  H     -2.330339   -1.608415   -1.467320

 Total Charge           Charge          ....    0
 Multiplicity           Mult            ....    1
 Number of Electrons    NEL             ....   96
 Basis Dimension        Dim             ....  444

ORBITAL ENERGIES
----------------

  NO   OCC          E(Eh)            E(eV)
   0   2.0000     -21.692349      -590.2788
   1   2.0000     -21.691242      -590.2487
   2   2.0000     -21.683947      -590.0502
   3   2.0000     -21.682488      -590.0105
   4   2.0000     -21.679694      -589.9345
   5   2.0000     -21.677312      -589.8697
   6   2.0000     -12.151806      -330.6674
   7   2.0000     -12.103517      -329.3534
   8   2.0000     -12.103083      -329.3416
   9   2.0000     -12.102058      -329.3137
  10   2.0000     -12.099958      -329.2566
  11   2.0000     -12.091267      -329.0201
  12   2.0000      -1.723212       -46.8910
  13   2.0000      -1.690310       -45.9957
  14   2.0000      -1.686680       -45.8969
  15   2.0000      -1.681534       -45.7569
  16   2.0000      -1.678041       -45.6618
  17   2.0000      -1.675894       -45.6034
  18   2.0000      -1.331828       -36.2409
  19   2.0000      -1.319032       -35.8927
  20   2.0000      -1.231605       -33.5137
  21   2.0000      -1.201199       -32.6863
  22   2.0000      -1.162000       -31.6196
  23   2.0000      -1.121665       -30.5221
  24   2.0000      -1.092196       -29.7202
  25   2.0000      -1.069607       -29.1055
  26   2.0000      -1.052533       -28.6409
  27   2.0000      -1.041013       -28.3274
  28   2.0000      -1.037596       -28.2344
  29   2.0000      -1.003329       -27.3020
  30   2.0000      -0.995835       -27.0981
  31   2.0000      -0.982769       -26.7425
  32   2.0000      -0.976534       -26.5729
  33   2.0000      -0.973300       -26.4848
  34   2.0000      -0.959437       -26.1076
  35   2.0000      -0.947771       -25.7902
  36   2.0000      -0.943820       -25.6827
  37   2.0000      -0.934989       -25.4423
  38   2.0000      -0.924041       -25.1444
  39   2.0000      -0.907035       -24.6817
  40   2.0000      -0.900112       -24.4933
  41   2.0000      -0.879164       -23.9233
  42   2.0000      -0.848736       -23.0953
  43   2.0000      -0.834032       -22.6952
  44   2.0000      -0.814016       -22.1505
  45   2.0000      -0.800775       -21.7902
  46   2.0000      -0.792510       -21.5653
  47   2.0000      -0.769974       -20.9521
  48   0.0000      -0.234411        -6.3786
  49   0.0000      -0.190901        -5.1947
  50   0.0000      -0.170654        -4.6437
  51   0.0000      -0.147446        -4.0122
  52   0.0000      -0.125724        -3.4211

MULLIKEN ATOMIC CHARGES
-----------------------
   0 C :   -0.008707
   1 C :   -0.002511
   2 H :    0.124705
   3 C :    0.057954
   4 H :    0.103624
   5 C :    0.090539
   6 H :    0.114926
   7 C :    0.112876
   8 H :    0.102828
   9 C :    0.079630
  10 H :    0.104201
  11 O :   -0.330149
  12 O :   -0.490069
  13 O :   -0.523119
  14 O :   -0.526058
  15 O :   -0.535147
  16 O :   -0.555066
  17 H :    0.126200
  18 H :    0.131552
  19 H :    0.377791
  20 H :    0.361726
  21 H :    0.358810
  22 H :    0.363781
  23 H :    0.359682
Sum of atomic charges:   -0.0000000

LOEWDIN ATOMIC CHARGES
----------------------
   0 C :   -0.308303
   1 C :   -0.299977
   2 H :    0.159561
   3 C :   -0.304517
   4 H :    0.153103
   5 C :   -0.309227
   6 H :    0.153832
   7 C :   -0.308171
   8 H :    0.151885
   9 C :   -0.403869
  10 H :    0.138071
  11 O :    0.160381
  12 O :   -0.011021
  13 O :   -0.040400
  14 O :   -0.047536
  15 O :   -0.038879
  16 O :   -0.082193
  17 H :    0.137382
  18 H :    0.129740
  19 H :    0.201721
  20 H :    0.192130
  21 H :    0.190090
  22 H :    0.198160
  23 H :    0.188035

  Mayer bond orders larger than 0.100000
B(  0-C ,  1-C ) :   0.9609 B(  0-C , 16-O ) :   0.9662 B(  0-C , 17-H ) :   0.9670
B(  0-C , 18-H ) :   0.9786 B(  1-C ,  2-H ) :   0.9521 B(  1-C ,  3-C ) :   0.9749
B(  1-C , 11-O ) :   0.9569 B(  3-C ,  4-H ) :   0.9357 B(  3-C ,  5-C ) :   0.9973
B(  3-C , 15-O ) :   0.9702 B(  5-C ,  6-H ) :   0.9565 B(  5-C ,  7-C ) :   0.9518
B(  5-C , 14-O ) :   1.0386 B(  7-C ,  8-H ) :   0.9566 B(  7-C ,  9-C ) :   0.9590
B(  7-C , 13-O ) :   1.0868 B(  9-C , 10-H ) :   0.9800 B(  9-C , 11-O ) :   1.0151
B(  9-C , 12-O ) :   1.1906 B( 12-O , 19-H ) :   0.8531 B( 13-O , 20-H ) :   0.8587
B( 14-O , 21-H ) :   0.8592 B( 15-O , 22-H ) :   0.8579 B( 16-O , 23-H ) :   0.8622

FINAL SINGLE POINT ENERGY      -687.288219367387

DIPOLE MOMENT
-------------

Method             : SCF
Type of density    : Electron Density
Multiplicity       :   1
Irrep              :   0
Energy             :  -687.3070765094868193 Eh
Relativity type    :
Basis              : AO
                                X                 Y                 Z
Electronic contribution:      2.362107436      -0.329585368      -1.056150423
Nuclear contribution   :     -2.272486854      -0.947006724       3.265727682
                        -----------------------------------------
Total Dipole Moment    :      0.089620581      -1.276592092       2.209577260
                        -----------------------------------------
Magnitude (a.u.)       :      2.553419449
Magnitude (Debye)      :      6.490276449

Rotational constants in cm-1:             0.039352             0.026475             0.017500
Rotational constants in MHz :          1179.750960           793.695830           524.624011

                             ****ORCA TERMINATED NORMALLY****
TOTAL RUN TIME: 0 days 0 hours 5 minutes 25 seconds 595 msec
