                         Program Version 6.0.0  -   RELEASE  -
|  1> ! r2scan-3c def2/J RI DEFGRID2 scfconv6 printgap
|  2> %output
|  3>     printlevel normal
|  4> end
|  5> * xyz 0 1
|  6> C -3.5848262522 0.2843593024 -0.3294600629
|  7> O -2.1945081214 0.3728106369 -0.6608857339
|  8> C -1.3063091627 -0.205808272 0.1384431127
|  9> O -1.604099159 -0.8179047294 1.1430738327
| 10> C 0.1045943542 0.0330150795 -0.3411768444
| 11> C 0.9276234249 -1.254307518 -0.2490947958
| 12> C 2.3760452067 -0.9943806465 -0.6496662372
| 13> C 2.990810283 0.0882226807 0.2315714999
| 14> C 2.1771352666 1.3745919045 0.1330797297
| 15> C 0.7290605263 1.1245662319 0.5418635943
| 16> H -3.698301788 0.0313696204 0.7252169611
| 17> H -4.0430606593 -0.4872152876 -0.9472062781
| 18> H -4.0200191474 1.2558693812 -0.5486158823
| 19> H 0.0582850386 0.3850552569 -1.3749771508
| 20> H 0.8807826937 -1.6231068219 0.7777390501
| 21> H 0.4890296491 -2.015933353 -0.8971442166
| 22> H 2.948189874 -1.9188745401 -0.5606762882
| 23> H 2.4100208962 -0.6756630523 -1.6934724429
| 24> H 3.0035362121 -0.2537098767 1.268506185
| 25> H 4.0210182955 0.2759676172 -0.0746842032
| 26> H 2.6076698285 2.1403179535 0.7799266101
| 27> H 2.2041007142 1.7445049409 -0.893673725
| 28> H 0.6875750607 0.7967843213 1.5831528496
| 29> H 0.147649264 2.0443862242 0.4513332914
| 30> *
| 31>
| 32>                          ****END OF INPUT****

CARTESIAN COORDINATES (ANGSTROEM)
---------------------------------
  C     -3.584826    0.284359   -0.329460
  O     -2.194508    0.372811   -0.660886
  C     -1.306309   -0.205808    0.138443
  O     -1.604099   -0.817905    1.143074
  C      0.104594    0.033015   -0.341177
  C      0.927623   -1.254308   -0.249095
  C      2.376045   -0.994381   -0.649666
  C      2.990810    0.088223    0.231571
  C      2.177135    1.374592    0.133080
  C      0.729061    1.124566    0.541864
  H     -3.698302    0.031370    0.725217
  H     -4.043061   -0.487215   -0.947206
  H     -4.020019    1.255869   -0.548616
  H      0.058285    0.385055   -1.374977
  H      0.880783   -1.623107    0.777739
  H      0.489030   -2.015933   -0.897144
  H      2.948190   -1.918875   -0.560676
  H      2.410021   -0.675663   -1.693472
  H      3.003536   -0.253710    1.268506
  H      4.021018    0.275968   -0.074684
  H      2.607670    2.140318    0.779927
  H      2.204101    1.744505   -0.893674
  H      0.687575    0.796784    1.583153
  H      0.147649    2.044386    0.451333

 Total Charge           Charge          ....    0
 Multiplicity           Mult            ....    1
 Number of Electrons    NEL             ....   78
 Basis Dimension        Dim             ....  270

ORBITAL ENERGIES
----------------

  NO   OCC          E(Eh)            E(eV)
   0   2.0000     -18.998128      -516.9653
   1   2.0000     -18.926997      -515.0298
   2   2.0000     -10.148555      -276.1562
   3   2.0000     -10.084090      -274.4020
   4   2.0000     -10.043929      -273.3092
   5   2.0000     -10.032024      -272.9853
   6   2.0000     -10.027100      -272.8513
   7   2.0000     -10.026607      -272.8379
   8   2.0000     -10.025326      -272.8030
   9   2.0000     -10.024295      -272.7749
  10   2.0000      -1.070883       -29.1402
  11   2.0000      -0.974841       -26.5268
  12   2.0000      -0.808878       -22.0107
  13   2.0000      -0.736651       -20.0453
  14   2.0000      -0.712659       -19.3924
  15   2.0000      -0.691260       -18.8101
  16   2.0000      -0.594535       -16.1781
  17   2.0000      -0.579776       -15.7765
  18   2.0000      -0.537003       -14.6126
  19   2.0000      -0.517409       -14.0794
  20   2.0000      -0.476410       -12.9638
  21   2.0000      -0.450441       -12.2571
  22   2.0000      -0.444666       -12.1000
  23   2.0000      -0.434479       -11.8228
  24   2.0000      -0.411620       -11.2007
  25   2.0000      -0.409017       -11.1299
  26   2.0000      -0.397841       -10.8258
  27   2.0000      -0.378076       -10.2880
  28   2.0000      -0.358736        -9.7617
  29   2.0000      -0.351215        -9.5570
  30   2.0000      -0.333887        -9.0855
  31   2.0000      -0.320196        -8.7130
  32   2.0000      -0.318753        -8.6737
  33   2.0000      -0.315483        -8.5847
  34   2.0000      -0.294306        -8.0085
  35   2.0000      -0.279250        -7.5988
  36   2.0000      -0.272927        -7.4267
  37   2.0000      -0.269160        -7.3242
  38   2.0000      -0.233704        -6.3594
  39   0.0000      -0.012546        -0.3414
  40   0.0000       0.064943         1.7672
  41   0.0000       0.091175         2.4810
  42   0.0000       0.099276         2.7014
  43   0.0000       0.108576         2.9545

MULLIKEN ATOMIC CHARGES
-----------------------
   0 C :   -0.304982
   1 O :   -0.193857
   2 C :    0.380609
   3 O :   -0.445806
   4 C :   -0.097231
   5 C :   -0.351819
   6 C :   -0.267310
   7 C :   -0.294878
   8 C :   -0.273779
   9 C :   -0.341157
  10 H :    0.185321
  11 H :    0.149581
  12 H :    0.148077
  13 H :    0.182400
  14 H :    0.178854
  15 H :    0.145042
  16 H :    0.148015
  17 H :    0.144163
  18 H :    0.146103
  19 H :    0.148597
  20 H :    0.148010
  21 H :    0.146176
  22 H :    0.174300
  23 H :    0.145570
Sum of atomic charges:   -0.0000000

LOEWDIN ATOMIC CHARGES
----------------------
   0 C :   -0.046557
   1 O :   -0.600070
   2 C :    0.363173
   3 O :   -0.440523
   4 C :   -0.155268
   5 C :   -0.272857
   6 C :   -0.300290
   7 C :   -0.303297
   8 C :   -0.299361
   9 C :   -0.267617
  10 H :    0.190750
  11 H :    0.172404
  12 H :    0.174260
  13 H :    0.181885
  14 H :    0.173206
  15 H :    0.162172
  16 H :    0.156941
  17 H :    0.155052
  18 H :    0.156326
  19 H :    0.155273
  20 H :    0.157084
  21 H :    0.155678
  22 H :    0.169144
  23 H :    0.162493

  Mayer bond orders larger than 0.100000
B(  0-C ,  1-O ) :   0.8398 B(  0-C , 10-H ) :   0.9691 B(  0-C , 11-H ) :   0.9609
B(  0-C , 12-H ) :   0.9685 B(  1-O ,  2-C ) :   1.0547 B(  2-C ,  3-O ) :   1.8316
B(  2-C ,  4-C ) :   0.9552 B(  4-C ,  5-C ) :   0.9033 B(  4-C ,  9-C ) :   0.9218
B(  4-C , 13-H ) :   0.9580 B(  5-C ,  6-C ) :   0.8917 B(  5-C , 14-H ) :   0.9953
B(  5-C , 15-H ) :   0.9423 B(  6-C ,  7-C ) :   0.9168 B(  6-C , 16-H ) :   0.9448
B(  6-C , 17-H ) :   0.9907 B(  7-C ,  8-C ) :   0.9209 B(  7-C , 18-H ) :   0.9936
B(  7-C , 19-H ) :   0.9515 B(  8-C ,  9-C ) :   0.8937 B(  8-C , 20-H ) :   0.9436
B(  8-C , 21-H ) :   0.9945 B(  9-C , 22-H ) :   0.9955 B(  9-C , 23-H ) :   0.9312

Dispersion correction           -0.007523893
FINAL SINGLE POINT ENERGY      -463.635718791432

DIPOLE MOMENT
-------------

Method             : SCF
Type of density    : Electron Density
Multiplicity       :   1
Irrep              :   0
Energy             :  -463.6413368681521661 Eh
Relativity type    :
Basis              : AO
                                X                 Y                 Z
Electronic contribution:     -7.143610866      -1.150855543       0.735902964
Nuclear contribution   :      7.164261560       1.588052754      -1.310577283
                        -----------------------------------------
Total Dipole Moment    :      0.020650693       0.437197211      -0.574674319
                        -----------------------------------------
Magnitude (a.u.)       :      0.722370006
Magnitude (Debye)      :      1.836118636

Rotational constants in cm-1:             0.102923             0.024200             0.022443
Rotational constants in MHz :          3085.565274           725.489678           672.830941

                             ****ORCA TERMINATED NORMALLY****
TOTAL RUN TIME: 0 days 0 hours 0 minutes 31 seconds 785 msec
