                         Program Version 6.0.0  -   RELEASE  -
|  1> ! r2scan-3c def2/J RI DEFGRID2 scfconv6 printgap
|  2> %output
|  3>     printlevel normal
|  4> end
|  5> %cpcm
|  6>     smd true
|  7>     smdsolvent "water"
|  8> end
|  9> * xyz 0 1
| 10> C -3.5848262522 0.2843593024 -0.3294600629
| 11> O -2.1945081214 0.3728106369 -0.6608857339
| 12> C -1.3063091627 -0.205808272 0.1384431127
| 13> O -1.604099159 -0.8179047294 1.1430738327
| 14> C 0.1045943542 0.0330150795 -0.3411768444
| 15> C 0.9276234249 -1.254307518 -0.2490947958
| 16> C 2.3760452067 -0.9943806465 -0.6496662372
| 17> C 2.990810283 0.0882226807 0.2315714999
| 18> C 2.1771352666 1.3745919045 0.1330797297
| 19> C 0.7290605263 1.1245662319 0.5418635943
| 20> H -3.698301788 0.0313696204 0.7252169611
| 21> H -4.0430606593 -0.4872152876 -0.9472062781
| 22> H -4.0200191474 1.2558693812 -0.5486158823
| 23> H 0.0582850386 0.3850552569 -1.3749771508
| 24> H 0.8807826937 -1.6231068219 0.7777390501
| 25> H 0.4890296491 -2.015933353 -0.8971442166
| 26> H 2.948189874 -1.9188745401 -0.5606762882
| 27> H 2.4100208962 -0.6756630523 -1.6934724429
| 28> H 3.0035362121 -0.2537098767 1.268506185
| 29> H 4.0210182955 0.2759676172 -0.0746842032
| 30> H 2.6076698285 2.1403179535 0.7799266101
| 31> H 2.2041007142 1.7445049409 -0.893673725
| 32> H 0.6875750607 0.7967843213 1.5831528496
| 33> H 0.147649264 2.0443862242 0.4513332914
| 34> *
| 35>
| 36>                          ****END OF INPUT****

CARTESIAN COORDINATES (ANGSTROEM)
---------------------------------
  C     -3.584826    0.284359   -0.329460
  O     -2.194508    0.372811   -0.660886
  C     -1.306309   -0.205808    0.138443
  O     -1.604099   -0.817905    1.143074
  C      0.104594    0.033015   -0.341177
  C      0.927623   -1.254308   -0.249095
  C      2.376045   -0.994381   -0.649666
  C      2.990810    0.088223    0.231571
  C      2.177135    1.374592    0.133080
  C      0.729061    1.124566    0.541864
  H     -3.698302    0.031370    0.725217
  H     -4.043061   -0.487215   -0.947206
  H     -4.020019    1.255869   -0.548616
  H      0.058285    0.385055   -1.374977
  H      0.880783   -1.623107    0.777739
  H      0.489030   -2.015933   -0.897144
  H      2.948190   -1.918875   -0.560676
  H      2.410021   -0.675663   -1.693472
  H      3.003536   -0.253710    1.268506
  H      4.021018    0.275968   -0.074684
  H      2.607670    2.140318    0.779927
  H      2.204101    1.744505   -0.893674
  H      0.687575    0.796784    1.583153
  H      0.147649    2.044386    0.451333

 Total Charge           Charge          ....    0
 Multiplicity           Mult            ....    1
 Number of Electrons    NEL             ....   78
 Basis Dimension        Dim             ....  270

ORBITAL ENERGIES
----------------

  NO   OCC          E(Eh)            E(eV)
   0   2.0000     -19.004339      -517.1344
   1   2.0000     -18.942942      -515.4637
   2   2.0000     -10.159476      -276.4534
   3   2.0000     -10.074886      -274.1516
   4   2.0000     -10.040262      -273.2094
   5   2.0000     -10.025210      -272.7998
   6   2.0000     -10.021694      -272.7042
   7   2.0000     -10.017230      -272.5827
   8   2.0000     -10.016443      -272.5613
   9   2.0000     -10.014483      -272.5079
  10   2.0000      -1.078531       -29.3483
  11   2.0000      -0.988773       -26.9059
  12   2.0000      -0.802730       -21.8434
  13   2.0000      -0.732183       -19.9237
  14   2.0000      -0.705082       -19.1863
  15   2.0000      -0.685988       -18.6667
  16   2.0000      -0.588705       -16.0195
  17   2.0000      -0.572744       -15.5852
  18   2.0000      -0.532743       -14.4967
  19   2.0000      -0.513264       -13.9666
  20   2.0000      -0.476178       -12.9575
  21   2.0000      -0.454639       -12.3714
  22   2.0000      -0.450123       -12.2485
  23   2.0000      -0.429773       -11.6947
  24   2.0000      -0.404230       -10.9997
  25   2.0000      -0.402542       -10.9537
  26   2.0000      -0.396923       -10.8008
  27   2.0000      -0.377152       -10.2628
  28   2.0000      -0.352848        -9.6015
  29   2.0000      -0.343195        -9.3388
  30   2.0000      -0.331125        -9.0104
  31   2.0000      -0.321267        -8.7421
  32   2.0000      -0.313857        -8.5405
  33   2.0000      -0.308333        -8.3902
  34   2.0000      -0.285843        -7.7782
  35   2.0000      -0.279358        -7.6017
  36   2.0000      -0.275507        -7.4969
  37   2.0000      -0.263956        -7.1826
  38   2.0000      -0.246581        -6.7098
  39   0.0000      -0.021369        -0.5815
  40   0.0000       0.068639         1.8678
  41   0.0000       0.099322         2.7027
  42   0.0000       0.106606         2.9009
  43   0.0000       0.116249         3.1633

MULLIKEN ATOMIC CHARGES
-----------------------
   0 C :   -0.323549
   1 O :   -0.211254
   2 C :    0.415762
   3 O :   -0.528152
   4 C :   -0.089908
   5 C :   -0.361191
   6 C :   -0.288935
   7 C :   -0.310636
   8 C :   -0.290980
   9 C :   -0.347560
  10 H :    0.182922
  11 H :    0.177710
  12 H :    0.175221
  13 H :    0.196230
  14 H :    0.169139
  15 H :    0.161147
  16 H :    0.156622
  17 H :    0.156944
  18 H :    0.153254
  19 H :    0.156783
  20 H :    0.157553
  21 H :    0.158515
  22 H :    0.174824
  23 H :    0.159541
Sum of atomic charges:   -0.0000000

LOEWDIN ATOMIC CHARGES
----------------------
   0 C :   -0.041467
   1 O :   -0.602415
   2 C :    0.371784
   3 O :   -0.500350
   4 C :   -0.152589
   5 C :   -0.275349
   6 C :   -0.300803
   7 C :   -0.305842
   8 C :   -0.299725
   9 C :   -0.267511
  10 H :    0.190152
  11 H :    0.183109
  12 H :    0.186202
  13 H :    0.189634
  14 H :    0.169088
  15 H :    0.166204
  16 H :    0.159331
  17 H :    0.159683
  18 H :    0.158088
  19 H :    0.157548
  20 H :    0.160054
  21 H :    0.159977
  22 H :    0.168346
  23 H :    0.166850

  Mayer bond orders larger than 0.100000
B(  0-C ,  1-O ) :   0.8258 B(  0-C , 10-H ) :   0.9651 B(  0-C , 11-H ) :   0.9523
B(  0-C , 12-H ) :   0.9585 B(  1-O ,  2-C ) :   1.0777 B(  2-C ,  3-O ) :   1.7687
B(  2-C ,  4-C ) :   0.9591 B(  4-C ,  5-C ) :   0.9041 B(  4-C ,  9-C ) :   0.9208
B(  4-C , 13-H ) :   0.9474 B(  5-C ,  6-C ) :   0.8976 B(  5-C , 14-H ) :   0.9942
B(  5-C , 15-H ) :   0.9398 B(  6-C ,  7-C ) :   0.9140 B(  6-C , 16-H ) :   0.9443
B(  6-C , 17-H ) :   0.9887 B(  7-C ,  8-C ) :   0.9169 B(  7-C , 18-H ) :   0.9925
B(  7-C , 19-H ) :   0.9505 B(  8-C ,  9-C ) :   0.8915 B(  8-C , 20-H ) :   0.9428
B(  8-C , 21-H ) :   0.9922 B(  9-C , 22-H ) :   0.9953 B(  9-C , 23-H ) :   0.9276

Dispersion correction           -0.007523893
FINAL SINGLE POINT ENERGY      -463.640366104777

DIPOLE MOMENT
-------------

Method             : SCF
Type of density    : Electron Density
Multiplicity       :   1
Irrep              :   0
Energy             :  -463.6459841814970559 Eh
Relativity type    :
Basis              : AO
                                X                 Y                 Z
Electronic contribution:     -7.116795388      -0.930391229       0.413712490
Nuclear contribution   :      7.164261560       1.588052754      -1.310577283
                        -----------------------------------------
Total Dipole Moment    :      0.047466172       0.657661525      -0.896864793
                        -----------------------------------------
Magnitude (a.u.)       :      1.113165835
Magnitude (Debye)      :      2.829442693

Rotational constants in cm-1:             0.102923             0.024200             0.022443
Rotational constants in MHz :          3085.565274           725.489678           672.830941

                             ****ORCA TERMINATED NORMALLY****
TOTAL RUN TIME: 0 days 0 hours 0 minutes 42 seconds 790 msec
