                         Program Version 6.0.0  -   RELEASE  -
|  1> ! r2scan-3c def2/J RI DEFGRID2 scfconv6 printgap
|  2> %output
|  3>     printlevel normal
|  4> end
|  5> * xyz 0 1
|  6> C -3.4294887127 0.5948309219 0.0189246729
|  7> C -1.9340690469 0.5078975961 0.0457805561
|  8> C -1.1413794044 1.4900839064 -0.3613345846
|  9> C 0.3542922755 1.4433418931 -0.3494329251
| 10> C 0.8767199741 0.007787967 -0.2344139815
| 11> H 0.6647039169 -0.5059029972 -1.1781459707
| 12> C 0.1108286313 -0.706064366 0.8834602727
| 13> C -1.3816644547 -0.8074332198 0.5508756339
| 14> H -1.9318667336 -1.1034789769 1.4530902789
| 15> O -1.6565404203 -1.8623489996 -0.364690639
| 16> C 2.3716521086 -0.0262180925 -0.0059230869
| 17> C 2.9352290922 0.4640635724 1.0869888192
| 18> C 3.176268446 -0.6509983388 -1.1041982713
| 19> H -3.8416100618 -0.3009661606 -0.4433423807
| 20> H -3.7625290789 1.4707192371 -0.5305728956
| 21> H -3.8170415914 0.6493882231 1.036037151
| 22> H -1.5773295496 2.4168050713 -0.711023545
| 23> H 0.7429410755 1.9099966804 -1.2578128123
| 24> H 0.7198029537 2.0352142769 0.4951094406
| 25> H 0.5074097946 -1.7123093061 1.0329611319
| 26> H 0.222850044 -0.152680739 1.8156591381
| 27> H -1.2105438095 -1.6693839869 -1.200605376
| 28> H 4.0012038786 0.4349085469 1.2352797254
| 29> H 2.3626745548 0.911933652 1.8810304172
| 30> H 3.0010878742 -0.1257471987 -2.0423149671
| 31> H 4.2385285969 -0.6213020401 -0.8783460758
| 32> H 2.8761300971 -1.6891098516 -1.2425046519
| 33> *
| 34>
| 35>                          ****END OF INPUT****

CARTESIAN COORDINATES (ANGSTROEM)
---------------------------------
  C     -3.429489    0.594831    0.018925
  C     -1.934069    0.507898    0.045781
  C     -1.141379    1.490084   -0.361335
  C      0.354292    1.443342   -0.349433
  C      0.876720    0.007788   -0.234414
  H      0.664704   -0.505903   -1.178146
  C      0.110829   -0.706064    0.883460
  C     -1.381664   -0.807433    0.550876
  H     -1.931867   -1.103479    1.453090
  O     -1.656540   -1.862349   -0.364691
  C      2.371652   -0.026218   -0.005923
  C      2.935229    0.464064    1.086989
  C      3.176268   -0.650998   -1.104198
  H     -3.841610   -0.300966   -0.443342
  H     -3.762529    1.470719   -0.530573
  H     -3.817042    0.649388    1.036037
  H     -1.577330    2.416805   -0.711024
  H      0.742941    1.909997   -1.257813
  H      0.719803    2.035214    0.495109
  H      0.507410   -1.712309    1.032961
  H      0.222850   -0.152681    1.815659
  H     -1.210544   -1.669384   -1.200605
  H      4.001204    0.434909    1.235280
  H      2.362675    0.911934    1.881030
  H      3.001088   -0.125747   -2.042315
  H      4.238529   -0.621302   -0.878346
  H      2.876130   -1.689110   -1.242505

 Total Charge           Charge          ....    0
 Multiplicity           Mult            ....    1
 Number of Electrons    NEL             ....   84
 Basis Dimension        Dim             ....  294

ORBITAL ENERGIES
----------------

  NO   OCC          E(Eh)            E(eV)
   0   2.0000     -18.947309      -515.5825
   1   2.0000     -10.081716      -274.3374
   2   2.0000     -10.043383      -273.2943
   3   2.0000     -10.041040      -273.2306
   4   2.0000     -10.034621      -273.0559
   5   2.0000     -10.032273      -272.9920
   6   2.0000     -10.027675      -272.8669
   7   2.0000     -10.027006      -272.8487
   8   2.0000     -10.026205      -272.8269
   9   2.0000     -10.019860      -272.6543
  10   2.0000     -10.012695      -272.4593
  11   2.0000      -0.984739       -26.7961
  12   2.0000      -0.815099       -22.1800
  13   2.0000      -0.772836       -21.0299
  14   2.0000      -0.723100       -19.6765
  15   2.0000      -0.704759       -19.1775
  16   2.0000      -0.656938       -17.8762
  17   2.0000      -0.645846       -17.5744
  18   2.0000      -0.594772       -16.1846
  19   2.0000      -0.572207       -15.5705
  20   2.0000      -0.513971       -13.9859
  21   2.0000      -0.487123       -13.2553
  22   2.0000      -0.457383       -12.4460
  23   2.0000      -0.438219       -11.9245
  24   2.0000      -0.421653       -11.4738
  25   2.0000      -0.419047       -11.4028
  26   2.0000      -0.407983       -11.1018
  27   2.0000      -0.393138       -10.6978
  28   2.0000      -0.389619       -10.6021
  29   2.0000      -0.383195       -10.4273
  30   2.0000      -0.376854       -10.2547
  31   2.0000      -0.359158        -9.7732
  32   2.0000      -0.342592        -9.3224
  33   2.0000      -0.340629        -9.2690
  34   2.0000      -0.327799        -8.9199
  35   2.0000      -0.320130        -8.7112
  36   2.0000      -0.310226        -8.4417
  37   2.0000      -0.287576        -7.8253
  38   2.0000      -0.281921        -7.6715
  39   2.0000      -0.236648        -6.4395
  40   2.0000      -0.223514        -6.0821
  41   2.0000      -0.220128        -5.9900
  42   0.0000      -0.019207        -0.5226
  43   0.0000      -0.002297        -0.0625
  44   0.0000       0.053452         1.4545
  45   0.0000       0.082452         2.2436
  46   0.0000       0.092787         2.5249

MULLIKEN ATOMIC CHARGES
-----------------------
   0 C :   -0.554755
   1 C :    0.103221
   2 C :   -0.195673
   3 C :   -0.320476
   4 C :   -0.077142
   5 H :    0.158144
   6 C :   -0.350544
   7 C :   -0.017902
   8 H :    0.149470
   9 O :   -0.409360
  10 C :    0.079405
  11 C :   -0.391670
  12 C :   -0.521687
  13 H :    0.175080
  14 H :    0.148657
  15 H :    0.157798
  16 H :    0.152382
  17 H :    0.150725
  18 H :    0.175574
  19 H :    0.178931
  20 H :    0.159194
  21 H :    0.297947
  22 H :    0.145798
  23 H :    0.139530
  24 H :    0.157711
  25 H :    0.149060
  26 H :    0.160582
Sum of atomic charges:   -0.0000000

LOEWDIN ATOMIC CHARGES
----------------------
   0 C :   -0.388550
   1 C :   -0.108988
   2 C :   -0.186216
   3 C :   -0.262577
   4 C :   -0.200395
   5 H :    0.162194
   6 C :   -0.247676
   7 C :    0.075015
   8 H :    0.191100
   9 O :   -0.597338
  10 C :   -0.118486
  11 C :   -0.325038
  12 C :   -0.391722
  13 H :    0.170011
  14 H :    0.157232
  15 H :    0.161500
  16 H :    0.164155
  17 H :    0.165606
  18 H :    0.173338
  19 H :    0.174422
  20 H :    0.169149
  21 H :    0.266526
  22 H :    0.158358
  23 H :    0.157324
  24 H :    0.160863
  25 H :    0.158292
  26 H :    0.161900

  Mayer bond orders larger than 0.100000
B(  0-C ,  1-C ) :   0.8292 B(  0-C , 13-H ) :   0.9708 B(  0-C , 14-H ) :   0.9980
B(  0-C , 15-H ) :   0.9701 B(  1-C ,  2-C ) :   1.8409 B(  1-C ,  7-C ) :   0.9347
B(  2-C ,  3-C ) :   0.9320 B(  2-C , 16-H ) :   0.9276 B(  3-C ,  4-C ) :   0.9333
B(  3-C , 17-H ) :   0.9678 B(  3-C , 18-H ) :   0.9768 B(  4-C ,  5-H ) :   0.9973
B(  4-C ,  6-C ) :   0.8557 B(  4-C , 10-C ) :   0.8419 B(  6-C ,  7-C ) :   0.9226
B(  6-C , 19-H ) :   0.9856 B(  6-C , 20-H ) :   0.9862 B(  7-C ,  8-H ) :   0.9776
B(  7-C ,  9-O ) :   0.9535 B(  9-O , 21-H ) :   0.8884 B( 10-C , 11-C ) :   1.8600
B( 10-C , 12-C ) :   0.8988 B( 11-C , 22-H ) :   0.9690 B( 11-C , 23-H ) :   0.9898
B( 12-C , 24-H ) :   0.9703 B( 12-C , 25-H ) :   0.9850 B( 12-C , 26-H ) :   0.9743

Dispersion correction           -0.009584412
FINAL SINGLE POINT ENERGY      -465.757962933844

DIPOLE MOMENT
-------------

Method             : SCF
Type of density    : Electron Density
Multiplicity       :   1
Irrep              :   0
Energy             :  -465.7599790151095931 Eh
Relativity type    :
Basis              : AO
                                X                 Y                 Z
Electronic contribution:     -2.693555706      -1.387744669       0.272869428
Nuclear contribution   :      2.974202302       1.800011284      -0.507797408
                        -----------------------------------------
Total Dipole Moment    :      0.280646595       0.412266615      -0.234927980
                        -----------------------------------------
Magnitude (a.u.)       :      0.551287065
Magnitude (Debye)      :      1.401260360

Rotational constants in cm-1:             0.071280             0.022322             0.019911
Rotational constants in MHz :          2136.911381           669.208169           596.904874

                             ****ORCA TERMINATED NORMALLY****
TOTAL RUN TIME: 0 days 0 hours 0 minutes 43 seconds 602 msec
