                         Program Version 6.0.0  -   RELEASE  -
|  1> ! r2scan-3c def2/J RI DEFGRID2 scfconv6 printgap
|  2> %output
|  3>     printlevel normal
|  4> end
|  5> %cpcm
|  6>     smd true
|  7>     smdsolvent "water"
|  8> end
|  9> * xyz 0 1
| 10> C -3.4294887127 0.5948309219 0.0189246729
| 11> C -1.9340690469 0.5078975961 0.0457805561
| 12> C -1.1413794044 1.4900839064 -0.3613345846
| 13> C 0.3542922755 1.4433418931 -0.3494329251
| 14> C 0.8767199741 0.007787967 -0.2344139815
| 15> H 0.6647039169 -0.5059029972 -1.1781459707
| 16> C 0.1108286313 -0.706064366 0.8834602727
| 17> C -1.3816644547 -0.8074332198 0.5508756339
| 18> H -1.9318667336 -1.1034789769 1.4530902789
| 19> O -1.6565404203 -1.8623489996 -0.364690639
| 20> C 2.3716521086 -0.0262180925 -0.0059230869
| 21> C 2.9352290922 0.4640635724 1.0869888192
| 22> C 3.176268446 -0.6509983388 -1.1041982713
| 23> H -3.8416100618 -0.3009661606 -0.4433423807
| 24> H -3.7625290789 1.4707192371 -0.5305728956
| 25> H -3.8170415914 0.6493882231 1.036037151
| 26> H -1.5773295496 2.4168050713 -0.711023545
| 27> H 0.7429410755 1.9099966804 -1.2578128123
| 28> H 0.7198029537 2.0352142769 0.4951094406
| 29> H 0.5074097946 -1.7123093061 1.0329611319
| 30> H 0.222850044 -0.152680739 1.8156591381
| 31> H -1.2105438095 -1.6693839869 -1.200605376
| 32> H 4.0012038786 0.4349085469 1.2352797254
| 33> H 2.3626745548 0.911933652 1.8810304172
| 34> H 3.0010878742 -0.1257471987 -2.0423149671
| 35> H 4.2385285969 -0.6213020401 -0.8783460758
| 36> H 2.8761300971 -1.6891098516 -1.2425046519
| 37> *
| 38>
| 39>                          ****END OF INPUT****

CARTESIAN COORDINATES (ANGSTROEM)
---------------------------------
  C     -3.429489    0.594831    0.018925
  C     -1.934069    0.507898    0.045781
  C     -1.141379    1.490084   -0.361335
  C      0.354292    1.443342   -0.349433
  C      0.876720    0.007788   -0.234414
  H      0.664704   -0.505903   -1.178146
  C      0.110829   -0.706064    0.883460
  C     -1.381664   -0.807433    0.550876
  H     -1.931867   -1.103479    1.453090
  O     -1.656540   -1.862349   -0.364691
  C      2.371652   -0.026218   -0.005923
  C      2.935229    0.464064    1.086989
  C      3.176268   -0.650998   -1.104198
  H     -3.841610   -0.300966   -0.443342
  H     -3.762529    1.470719   -0.530573
  H     -3.817042    0.649388    1.036037
  H     -1.577330    2.416805   -0.711024
  H      0.742941    1.909997   -1.257813
  H      0.719803    2.035214    0.495109
  H      0.507410   -1.712309    1.032961
  H      0.222850   -0.152681    1.815659
  H     -1.210544   -1.669384   -1.200605
  H      4.001204    0.434909    1.235280
  H      2.362675    0.911934    1.881030
  H      3.001088   -0.125747   -2.042315
  H      4.238529   -0.621302   -0.878346
  H      2.876130   -1.689110   -1.242505

 Total Charge           Charge          ....    0
 Multiplicity           Mult            ....    1
 Number of Electrons    NEL             ....   84
 Basis Dimension        Dim             ....  294

ORBITAL ENERGIES
----------------

  NO   OCC          E(Eh)            E(eV)
   0   2.0000     -18.950851      -515.6789
   1   2.0000     -10.077950      -274.2349
   2   2.0000     -10.037028      -273.1214
   3   2.0000     -10.032253      -272.9915
   4   2.0000     -10.028016      -272.8762
   5   2.0000     -10.024714      -272.7863
   6   2.0000     -10.020731      -272.6780
   7   2.0000     -10.019742      -272.6510
   8   2.0000     -10.015581      -272.5378
   9   2.0000     -10.013962      -272.4938
  10   2.0000     -10.004596      -272.2389
  11   2.0000      -0.987638       -26.8750
  12   2.0000      -0.807858       -21.9829
  13   2.0000      -0.767230       -20.8774
  14   2.0000      -0.716234       -19.4897
  15   2.0000      -0.698467       -19.0063
  16   2.0000      -0.648265       -17.6402
  17   2.0000      -0.639725       -17.4078
  18   2.0000      -0.589294       -16.0355
  19   2.0000      -0.564766       -15.3681
  20   2.0000      -0.508878       -13.8473
  21   2.0000      -0.479488       -13.0475
  22   2.0000      -0.450687       -12.2638
  23   2.0000      -0.430880       -11.7248
  24   2.0000      -0.416142       -11.3238
  25   2.0000      -0.413293       -11.2463
  26   2.0000      -0.404073       -10.9954
  27   2.0000      -0.384990       -10.4761
  28   2.0000      -0.382587       -10.4107
  29   2.0000      -0.374155       -10.1813
  30   2.0000      -0.369882       -10.0650
  31   2.0000      -0.353442        -9.6176
  32   2.0000      -0.335223        -9.1219
  33   2.0000      -0.332869        -9.0578
  34   2.0000      -0.320446        -8.7198
  35   2.0000      -0.317770        -8.6470
  36   2.0000      -0.300375        -8.1736
  37   2.0000      -0.283196        -7.7062
  38   2.0000      -0.276590        -7.5264
  39   2.0000      -0.238433        -6.4881
  40   2.0000      -0.220587        -6.0025
  41   2.0000      -0.217084        -5.9071
  42   0.0000      -0.015215        -0.4140
  43   0.0000       0.001404         0.0382
  44   0.0000       0.069363         1.8875
  45   0.0000       0.094238         2.5643
  46   0.0000       0.100419         2.7325

MULLIKEN ATOMIC CHARGES
-----------------------
   0 C :   -0.578538
   1 C :    0.058201
   2 C :   -0.230119
   3 C :   -0.345687
   4 C :   -0.001286
   5 H :    0.187039
   6 C :   -0.396886
   7 C :    0.007969
   8 H :    0.167231
   9 O :   -0.496527
  10 C :    0.035905
  11 C :   -0.470063
  12 C :   -0.552055
  13 H :    0.171197
  14 H :    0.167237
  15 H :    0.176252
  16 H :    0.175264
  17 H :    0.169815
  18 H :    0.187736
  19 H :    0.180455
  20 H :    0.179408
  21 H :    0.355238
  22 H :    0.168914
  23 H :    0.166951
  24 H :    0.176124
  25 H :    0.163481
  26 H :    0.176743
Sum of atomic charges:   -0.0000000

LOEWDIN ATOMIC CHARGES
----------------------
   0 C :   -0.395818
   1 C :   -0.117142
   2 C :   -0.188772
   3 C :   -0.265290
   4 C :   -0.197719
   5 H :    0.173704
   6 C :   -0.250355
   7 C :    0.074197
   8 H :    0.196607
   9 O :   -0.632987
  10 C :   -0.118592
  11 C :   -0.354507
  12 C :   -0.398472
  13 H :    0.167313
  14 H :    0.162900
  15 H :    0.167259
  16 H :    0.171661
  17 H :    0.171416
  18 H :    0.176653
  19 H :    0.173443
  20 H :    0.175163
  21 H :    0.284189
  22 H :    0.163247
  23 H :    0.164343
  24 H :    0.168105
  25 H :    0.161189
  26 H :    0.168267

  Mayer bond orders larger than 0.100000
B(  0-C ,  1-C ) :   0.8300 B(  0-C , 13-H ) :   0.9700 B(  0-C , 14-H ) :   0.9916
B(  0-C , 15-H ) :   0.9653 B(  1-C ,  2-C ) :   1.8444 B(  1-C ,  7-C ) :   0.9213
B(  2-C ,  3-C ) :   0.9227 B(  2-C , 16-H ) :   0.9325 B(  3-C ,  4-C ) :   0.9135
B(  3-C , 17-H ) :   0.9637 B(  3-C , 18-H ) :   0.9737 B(  4-C ,  5-H ) :   0.9897
B(  4-C ,  6-C ) :   0.8355 B(  4-C , 10-C ) :   0.8136 B(  6-C ,  7-C ) :   0.9266
B(  6-C , 19-H ) :   0.9845 B(  6-C , 20-H ) :   0.9826 B(  7-C ,  8-H ) :   0.9746
B(  7-C ,  9-O ) :   0.9261 B(  9-O , 21-H ) :   0.8611 B( 10-C , 11-C ) :   1.8381
B( 10-C , 12-C ) :   0.9100 B( 11-C , 22-H ) :   0.9698 B( 11-C , 23-H ) :   0.9860
B( 12-C , 24-H ) :   0.9625 B( 12-C , 25-H ) :   0.9827 B( 12-C , 26-H ) :   0.9667

Dispersion correction           -0.009584412
FINAL SINGLE POINT ENERGY      -465.765051943253

DIPOLE MOMENT
-------------

Method             : SCF
Type of density    : Electron Density
Multiplicity       :   1
Irrep              :   0
Energy             :  -465.7670680245179824 Eh
Relativity type    :
Basis              : AO
                                X                 Y                 Z
Electronic contribution:     -2.616205137      -1.207017250       0.103087680
Nuclear contribution   :      2.974202302       1.800011284      -0.507797408
                        -----------------------------------------
Total Dipole Moment    :      0.357997165       0.592994033      -0.404709728
                        -----------------------------------------
Magnitude (a.u.)       :      0.802243017
Magnitude (Debye)      :      2.039139695

Rotational constants in cm-1:             0.071280             0.022322             0.019911
Rotational constants in MHz :          2136.911381           669.208169           596.904874

                             ****ORCA TERMINATED NORMALLY****
TOTAL RUN TIME: 0 days 0 hours 0 minutes 57 seconds 667 msec
