                         Program Version 6.0.0  -   RELEASE  -
|  1> ! r2scan-3c def2/J RI DEFGRID2 scfconv6 printgap
|  2> %output
|  3>     printlevel normal
|  4> end
|  5> %cpcm
|  6>     smd true
|  7>     smdsolvent "water"
|  8> end
|  9> * xyz 0 1
| 10> C -2.7470673379 -6.84177e-05 0.7341548888
| 11> C -1.9716211258 8.18089e-05 -0.5853587844
| 12> C -0.4919301593 3.21043e-05 -0.3254938886
| 13> C 0.2016006751 -1.1949204768 -0.1800889663
| 14> C 1.5566900858 -1.1969545834 0.0997907577
| 15> C 2.2383916487 -6.2518e-05 0.2406679952
| 16> C 1.5567611447 1.1969145993 0.0998521805
| 17> C 0.2016797297 1.1949618354 -0.1800355596
| 18> H -3.8176027359 -0.000126033 0.5451427162
| 19> H -2.4960489454 0.8814780955 1.3196274845
| 20> H -2.4959064112 -0.88155497 1.3196063339
| 21> H -2.245091432 0.8850949491 -1.1627763727
| 22> H -2.2451863343 -0.884734683 -1.1630226733
| 23> H -0.325380509 -2.1320481693 -0.2903923577
| 24> H 2.0826853043 -2.1342365704 0.2072075873
| 25> H 3.2961885156 -8.61881e-05 0.4577175967
| 26> H 2.0828325982 2.1342362659 0.2073233003
| 27> H -0.3252741403 2.1321637788 -0.2903213551
| 28> *
| 29>
| 30>                          ****END OF INPUT****

CARTESIAN COORDINATES (ANGSTROEM)
---------------------------------
  C     -2.747067   -0.000068    0.734155
  C     -1.971621    0.000082   -0.585359
  C     -0.491930    0.000032   -0.325494
  C      0.201601   -1.194920   -0.180089
  C      1.556690   -1.196955    0.099791
  C      2.238392   -0.000063    0.240668
  C      1.556761    1.196915    0.099852
  C      0.201680    1.194962   -0.180036
  H     -3.817603   -0.000126    0.545143
  H     -2.496049    0.881478    1.319627
  H     -2.495906   -0.881555    1.319606
  H     -2.245091    0.885095   -1.162776
  H     -2.245186   -0.884735   -1.163023
  H     -0.325381   -2.132048   -0.290392
  H      2.082685   -2.134237    0.207208
  H      3.296189   -0.000086    0.457718
  H      2.082833    2.134236    0.207323
  H     -0.325274    2.132164   -0.290321

 Total Charge           Charge          ....    0
 Multiplicity           Mult            ....    1
 Number of Electrons    NEL             ....   58
 Basis Dimension        Dim             ....  202

ORBITAL ENERGIES
----------------

  NO   OCC          E(Eh)            E(eV)
   0   2.0000     -10.038937      -273.1734
   1   2.0000     -10.030714      -272.9496
   2   2.0000     -10.030673      -272.9485
   3   2.0000     -10.028363      -272.8856
   4   2.0000     -10.028079      -272.8779
   5   2.0000     -10.028061      -272.8774
   6   2.0000     -10.025512      -272.8080
   7   2.0000     -10.013571      -272.4831
   8   2.0000      -0.828031       -22.5319
   9   2.0000      -0.752548       -20.4779
  10   2.0000      -0.713002       -19.4018
  11   2.0000      -0.686870       -18.6907
  12   2.0000      -0.595402       -16.2017
  13   2.0000      -0.571861       -15.5611
  14   2.0000      -0.541064       -14.7231
  15   2.0000      -0.476656       -12.9705
  16   2.0000      -0.433773       -11.8036
  17   2.0000      -0.420822       -11.4512
  18   2.0000      -0.394675       -10.7397
  19   2.0000      -0.387946       -10.5566
  20   2.0000      -0.379659       -10.3310
  21   2.0000      -0.363779        -9.8989
  22   2.0000      -0.338330        -9.2064
  23   2.0000      -0.325365        -8.8536
  24   2.0000      -0.314262        -8.5515
  25   2.0000      -0.295933        -8.0528
  26   2.0000      -0.293783        -7.9942
  27   2.0000      -0.237738        -6.4692
  28   2.0000      -0.226805        -6.1717
  29   0.0000      -0.031203        -0.8491
  30   0.0000      -0.028377        -0.7722
  31   0.0000       0.086638         2.3575
  32   0.0000       0.105931         2.8825
  33   0.0000       0.115189         3.1344

MULLIKEN ATOMIC CHARGES
-----------------------
   0 C :   -0.506484
   1 C :   -0.282451
   2 C :    0.162197
   3 C :   -0.243915
   4 C :   -0.195851
   5 C :   -0.186332
   6 C :   -0.195859
   7 C :   -0.243950
   8 H :    0.160974
   9 H :    0.160329
  10 H :    0.160336
  11 H :    0.160665
  12 H :    0.160668
  13 H :    0.178950
  14 H :    0.176737
  15 H :    0.178281
  16 H :    0.176748
  17 H :    0.178957
Sum of atomic charges:   -0.0000000

LOEWDIN ATOMIC CHARGES
----------------------
   0 C :   -0.411919
   1 C :   -0.288841
   2 C :   -0.101625
   3 C :   -0.173141
   4 C :   -0.174670
   5 C :   -0.188730
   6 C :   -0.174680
   7 C :   -0.173153
   8 H :    0.154159
   9 H :    0.155459
  10 H :    0.155457
  11 H :    0.166534
  12 H :    0.166533
  13 H :    0.179543
  14 H :    0.176679
  15 H :    0.176154
  16 H :    0.176692
  17 H :    0.179550

  Mayer bond orders larger than 0.100000
B(  0-C ,  1-C ) :   0.9056 B(  0-C ,  8-H ) :   0.9676 B(  0-C ,  9-H ) :   0.9785
B(  0-C , 10-H ) :   0.9785 B(  1-C ,  2-C ) :   0.8079 B(  1-C , 11-H ) :   0.9852
B(  1-C , 12-H ) :   0.9852 B(  2-C ,  3-C ) :   1.3772 B(  2-C ,  7-C ) :   1.3772
B(  3-C ,  4-C ) :   1.4109 B(  3-C , 13-H ) :   0.9526 B(  4-C ,  5-C ) :   1.3893
B(  4-C , 14-H ) :   0.9577 B(  5-C ,  6-C ) :   1.3893 B(  5-C , 15-H ) :   0.9551
B(  6-C ,  7-C ) :   1.4110 B(  6-C , 16-H ) :   0.9577 B(  7-C , 17-H ) :   0.9526

Dispersion correction           -0.005638005
FINAL SINGLE POINT ENERGY      -310.781508686900

DIPOLE MOMENT
-------------

Method             : SCF
Type of density    : Electron Density
Multiplicity       :   1
Irrep              :   0
Energy             :  -310.7812698710978907 Eh
Relativity type    :
Basis              : AO
                                X                 Y                 Z
Electronic contribution:      5.820624924      -0.000195281      -1.091046085
Nuclear contribution   :     -6.087566864       0.000174945       1.078998035
                        -----------------------------------------
Total Dipole Moment    :     -0.266941941      -0.000020336      -0.012048050
                        -----------------------------------------
Magnitude (a.u.)       :      0.267213689
Magnitude (Debye)      :      0.679203220

Rotational constants in cm-1:             0.152161             0.049947             0.041405
Rotational constants in MHz :          4561.669058          1497.375725          1241.295978

                             ****ORCA TERMINATED NORMALLY****
TOTAL RUN TIME: 0 days 0 hours 0 minutes 24 seconds 482 msec
