                         Program Version 6.0.0  -   RELEASE  -
|  1> ! r2scan-3c def2/J RI DEFGRID2 scfconv6 printgap
|  2> %output
|  3>     printlevel normal
|  4> end
|  5> * xyz 0 1
|  6> C -3.8145291916 -0.6764661445 0.0130228964
|  7> N -2.6782306484 0.2260843243 -0.0036033611
|  8> C -2.8997124338 1.6578844869 -0.0123268666
|  9> C -1.4510260507 -0.3527231843 0.001171186
| 10> O -1.3321644636 -1.5794377759 0.0131166277
| 11> N -0.3896711455 0.5177061301 -0.0096293397
| 12> C 0.9767134705 0.2368638527 -0.005203331
| 13> C 1.4988460118 -1.0534183738 0.0075951463
| 14> C 2.8688156978 -1.2445688059 0.0123869654
| 15> C 3.7358552586 -0.1655412118 0.004355996
| 16> C 3.2202028667 1.1201970322 -0.0088618829
| 17> C 1.8543339346 1.3223740934 -0.0136622092
| 18> H -3.7771443599 -1.340924711 -0.8525154466
| 19> H -4.7359103173 -0.1053799028 -0.0047423618
| 20> H -3.7857954168 -1.3005592189 0.9086050668
| 21> H -2.4792338251 2.1287968771 0.8794359019
| 22> H -3.9699179116 1.8417968882 -0.0147658633
| 23> H -2.4774522098 2.117297808 -0.9091322541
| 24> H -0.6042608643 1.5038827259 -0.0188168276
| 25> H 0.8278017203 -1.896453717 0.0140606493
| 26> H 3.2581832485 -2.2516412481 0.0225092963
| 27> H 4.8030532633 -0.3247524028 0.0083301942
| 28> H 3.8854382923 1.9703614561 -0.0153520772
| 29> H 1.4603707501 2.3281731602 -0.0237972145
| 30> *
| 31>
| 32>                          ****END OF INPUT****

CARTESIAN COORDINATES (ANGSTROEM)
---------------------------------
  C     -3.814529   -0.676466    0.013023
  N     -2.678231    0.226084   -0.003603
  C     -2.899712    1.657884   -0.012327
  C     -1.451026   -0.352723    0.001171
  O     -1.332164   -1.579438    0.013117
  N     -0.389671    0.517706   -0.009629
  C      0.976713    0.236864   -0.005203
  C      1.498846   -1.053418    0.007595
  C      2.868816   -1.244569    0.012387
  C      3.735855   -0.165541    0.004356
  C      3.220203    1.120197   -0.008862
  C      1.854334    1.322374   -0.013662
  H     -3.777144   -1.340925   -0.852515
  H     -4.735910   -0.105380   -0.004742
  H     -3.785795   -1.300559    0.908605
  H     -2.479234    2.128797    0.879436
  H     -3.969918    1.841797   -0.014766
  H     -2.477452    2.117298   -0.909132
  H     -0.604261    1.503883   -0.018817
  H      0.827802   -1.896454    0.014061
  H      3.258183   -2.251641    0.022509
  H      4.803053   -0.324752    0.008330
  H      3.885438    1.970361   -0.015352
  H      1.460371    2.328173   -0.023797

 Total Charge           Charge          ....    0
 Multiplicity           Mult            ....    1
 Number of Electrons    NEL             ....   88
 Basis Dimension        Dim             ....  303

ORBITAL ENERGIES
----------------

  NO   OCC          E(Eh)            E(eV)
   0   2.0000     -18.900203      -514.3007
   1   2.0000     -14.199352      -386.3840
   2   2.0000     -14.193543      -386.2259
   3   2.0000     -10.148533      -276.1556
   4   2.0000     -10.084470      -274.4124
   5   2.0000     -10.080006      -274.2909
   6   2.0000     -10.062208      -273.8066
   7   2.0000     -10.033306      -273.0201
   8   2.0000     -10.032259      -272.9916
   9   2.0000     -10.027746      -272.8688
  10   2.0000     -10.023043      -272.7409
  11   2.0000     -10.019589      -272.6469
  12   2.0000      -1.011355       -27.5204
  13   2.0000      -0.913094       -24.8465
  14   2.0000      -0.900826       -24.5127
  15   2.0000      -0.813734       -22.1428
  16   2.0000      -0.719721       -19.5846
  17   2.0000      -0.712567       -19.3899
  18   2.0000      -0.704167       -19.1613
  19   2.0000      -0.663166       -18.0457
  20   2.0000      -0.593138       -16.1401
  21   2.0000      -0.579978       -15.7820
  22   2.0000      -0.531246       -14.4559
  23   2.0000      -0.518899       -14.1200
  24   2.0000      -0.493264       -13.4224
  25   2.0000      -0.460333       -12.5263
  26   2.0000      -0.456650       -12.4261
  27   2.0000      -0.435570       -11.8524
  28   2.0000      -0.414652       -11.2833
  29   2.0000      -0.399647       -10.8749
  30   2.0000      -0.394311       -10.7297
  31   2.0000      -0.390407       -10.6235
  32   2.0000      -0.385084       -10.4787
  33   2.0000      -0.382774       -10.4158
  34   2.0000      -0.375023       -10.2049
  35   2.0000      -0.355191        -9.6652
  36   2.0000      -0.339464        -9.2373
  37   2.0000      -0.325344        -8.8531
  38   2.0000      -0.308763        -8.4019
  39   2.0000      -0.281117        -7.6496
  40   2.0000      -0.232714        -6.3325
  41   2.0000      -0.222494        -6.0544
  42   2.0000      -0.217356        -5.9146
  43   2.0000      -0.194050        -5.2804
  44   0.0000      -0.027573        -0.7503
  45   0.0000      -0.023485        -0.6391
  46   0.0000       0.042965         1.1691
  47   0.0000       0.045911         1.2493
  48   0.0000       0.074048         2.0150

MULLIKEN ATOMIC CHARGES
-----------------------
   0 C :   -0.372780
   1 N :    0.102207
   2 C :   -0.446447
   3 C :    0.206119
   4 O :   -0.506338
   5 N :   -0.081857
   6 C :    0.177018
   7 C :   -0.199049
   8 C :   -0.155345
   9 C :   -0.173127
  10 C :   -0.136444
  11 C :   -0.355461
  12 H :    0.167541
  13 H :    0.127632
  14 H :    0.166159
  15 H :    0.156551
  16 H :    0.154230
  17 H :    0.156005
  18 H :    0.244298
  19 H :    0.202837
  20 H :    0.146658
  21 H :    0.145187
  22 H :    0.145869
  23 H :    0.128538
Sum of atomic charges:   -0.0000000

LOEWDIN ATOMIC CHARGES
----------------------
   0 C :   -0.099000
   1 N :   -0.805035
   2 C :   -0.117257
   3 C :    0.441903
   4 O :   -0.458124
   5 N :   -0.556772
   6 C :    0.162657
   7 C :   -0.128232
   8 C :   -0.153575
   9 C :   -0.187706
  10 C :   -0.159534
  11 C :   -0.152041
  12 H :    0.183246
  13 H :    0.170709
  14 H :    0.182054
  15 H :    0.168560
  16 H :    0.185880
  17 H :    0.168672
  18 H :    0.280781
  19 H :    0.206461
  20 H :    0.168201
  21 H :    0.165367
  22 H :    0.167118
  23 H :    0.165667

  Mayer bond orders larger than 0.100000
B(  0-C ,  1-N ) :   0.9059 B(  0-C , 12-H ) :   0.9522 B(  0-C , 13-H ) :   0.9639
B(  0-C , 14-H ) :   0.9518 B(  1-N ,  2-C ) :   0.8763 B(  1-N ,  3-C ) :   1.2708
B(  2-C , 15-H ) :   0.9605 B(  2-C , 16-H ) :   0.9558 B(  2-C , 17-H ) :   0.9607
B(  3-C ,  4-O ) :   1.7323 B(  3-C ,  5-N ) :   1.0914 B(  5-N ,  6-C ) :   1.0176
B(  5-N , 18-H ) :   0.9117 B(  6-C ,  7-C ) :   1.4499 B(  6-C , 11-C ) :   1.2990
B(  7-C ,  8-C ) :   1.3557 B(  7-C , 19-H ) :   0.9258 B(  8-C ,  9-C ) :   1.4041
B(  8-C , 20-H ) :   0.9593 B(  9-C , 10-C ) :   1.4188 B(  9-C , 21-H ) :   0.9490
B( 10-C , 11-C ) :   1.4321 B( 10-C , 22-H ) :   0.9395 B( 11-C , 23-H ) :   0.9439

Dispersion correction           -0.008503738
FINAL SINGLE POINT ENERGY      -534.788678991220

DIPOLE MOMENT
-------------

Method             : SCF
Type of density    : Electron Density
Multiplicity       :   1
Irrep              :   0
Energy             :  -534.7999319971501109 Eh
Relativity type    :
Basis              : AO
                                X                 Y                 Z
Electronic contribution:      6.278260497      -2.830066359      -0.004735141
Nuclear contribution   :     -7.161842527       4.362490805      -0.005677015
                        -----------------------------------------
Total Dipole Moment    :     -0.883582030       1.532424446      -0.010412156
                        -----------------------------------------
Magnitude (a.u.)       :      1.768940445
Magnitude (Debye)      :      4.496289286

Rotational constants in cm-1:             0.087289             0.016239             0.013763
Rotational constants in MHz :          2616.861032           486.840284           412.605607

                             ****ORCA TERMINATED NORMALLY****
TOTAL RUN TIME: 0 days 0 hours 0 minutes 37 seconds 579 msec
