                         Program Version 6.0.0  -   RELEASE  -
|  1> ! r2scan-3c def2/J RI DEFGRID2 scfconv6 printgap
|  2> %output
|  3>     printlevel normal
|  4> end
|  5> %cpcm
|  6>     smd true
|  7>     smdsolvent "water"
|  8> end
|  9> * xyz 0 1
| 10> C -3.8145291916 -0.6764661445 0.0130228964
| 11> N -2.6782306484 0.2260843243 -0.0036033611
| 12> C -2.8997124338 1.6578844869 -0.0123268666
| 13> C -1.4510260507 -0.3527231843 0.001171186
| 14> O -1.3321644636 -1.5794377759 0.0131166277
| 15> N -0.3896711455 0.5177061301 -0.0096293397
| 16> C 0.9767134705 0.2368638527 -0.005203331
| 17> C 1.4988460118 -1.0534183738 0.0075951463
| 18> C 2.8688156978 -1.2445688059 0.0123869654
| 19> C 3.7358552586 -0.1655412118 0.004355996
| 20> C 3.2202028667 1.1201970322 -0.0088618829
| 21> C 1.8543339346 1.3223740934 -0.0136622092
| 22> H -3.7771443599 -1.340924711 -0.8525154466
| 23> H -4.7359103173 -0.1053799028 -0.0047423618
| 24> H -3.7857954168 -1.3005592189 0.9086050668
| 25> H -2.4792338251 2.1287968771 0.8794359019
| 26> H -3.9699179116 1.8417968882 -0.0147658633
| 27> H -2.4774522098 2.117297808 -0.9091322541
| 28> H -0.6042608643 1.5038827259 -0.0188168276
| 29> H 0.8278017203 -1.896453717 0.0140606493
| 30> H 3.2581832485 -2.2516412481 0.0225092963
| 31> H 4.8030532633 -0.3247524028 0.0083301942
| 32> H 3.8854382923 1.9703614561 -0.0153520772
| 33> H 1.4603707501 2.3281731602 -0.0237972145
| 34> *
| 35>
| 36>                          ****END OF INPUT****

CARTESIAN COORDINATES (ANGSTROEM)
---------------------------------
  C     -3.814529   -0.676466    0.013023
  N     -2.678231    0.226084   -0.003603
  C     -2.899712    1.657884   -0.012327
  C     -1.451026   -0.352723    0.001171
  O     -1.332164   -1.579438    0.013117
  N     -0.389671    0.517706   -0.009629
  C      0.976713    0.236864   -0.005203
  C      1.498846   -1.053418    0.007595
  C      2.868816   -1.244569    0.012387
  C      3.735855   -0.165541    0.004356
  C      3.220203    1.120197   -0.008862
  C      1.854334    1.322374   -0.013662
  H     -3.777144   -1.340925   -0.852515
  H     -4.735910   -0.105380   -0.004742
  H     -3.785795   -1.300559    0.908605
  H     -2.479234    2.128797    0.879436
  H     -3.969918    1.841797   -0.014766
  H     -2.477452    2.117298   -0.909132
  H     -0.604261    1.503883   -0.018817
  H      0.827802   -1.896454    0.014061
  H      3.258183   -2.251641    0.022509
  H      4.803053   -0.324752    0.008330
  H      3.885438    1.970361   -0.015352
  H      1.460371    2.328173   -0.023797

 Total Charge           Charge          ....    0
 Multiplicity           Mult            ....    1
 Number of Electrons    NEL             ....   88
 Basis Dimension        Dim             ....  303

ORBITAL ENERGIES
----------------

  NO   OCC          E(Eh)            E(eV)
   0   2.0000     -18.916972      -514.7570
   1   2.0000     -14.197094      -386.3226
   2   2.0000     -14.189075      -386.1044
   3   2.0000     -10.155681      -276.3501
   4   2.0000     -10.084746      -274.4199
   5   2.0000     -10.056772      -273.6587
   6   2.0000     -10.050773      -273.4954
   7   2.0000     -10.034315      -273.0476
   8   2.0000     -10.033424      -273.0233
   9   2.0000     -10.032822      -273.0070
  10   2.0000     -10.028076      -272.8778
  11   2.0000     -10.026549      -272.8363
  12   2.0000      -1.021928       -27.8081
  13   2.0000      -0.916846       -24.9486
  14   2.0000      -0.896124       -24.3848
  15   2.0000      -0.818635       -22.2762
  16   2.0000      -0.721066       -19.6212
  17   2.0000      -0.717486       -19.5238
  18   2.0000      -0.686391       -18.6777
  19   2.0000      -0.657293       -17.8859
  20   2.0000      -0.594145       -16.1675
  21   2.0000      -0.579640       -15.7728
  22   2.0000      -0.531496       -14.4627
  23   2.0000      -0.512232       -13.9386
  24   2.0000      -0.487234       -13.2583
  25   2.0000      -0.459647       -12.5076
  26   2.0000      -0.447589       -12.1795
  27   2.0000      -0.428524       -11.6607
  28   2.0000      -0.417046       -11.3484
  29   2.0000      -0.400383       -10.8950
  30   2.0000      -0.393672       -10.7124
  31   2.0000      -0.388449       -10.5702
  32   2.0000      -0.382360       -10.4046
  33   2.0000      -0.371361       -10.1053
  34   2.0000      -0.370721       -10.0878
  35   2.0000      -0.347739        -9.4625
  36   2.0000      -0.342833        -9.3290
  37   2.0000      -0.327359        -8.9079
  38   2.0000      -0.311333        -8.4718
  39   2.0000      -0.289704        -7.8832
  40   2.0000      -0.240953        -6.5567
  41   2.0000      -0.240573        -6.5463
  42   2.0000      -0.221545        -6.0285
  43   2.0000      -0.195366        -5.3162
  44   0.0000      -0.034219        -0.9311
  45   0.0000      -0.030750        -0.8368
  46   0.0000       0.037310         1.0153
  47   0.0000       0.063851         1.7375
  48   0.0000       0.092561         2.5187

MULLIKEN ATOMIC CHARGES
-----------------------
   0 C :   -0.418199
   1 N :    0.105275
   2 C :   -0.459799
   3 C :    0.220253
   4 O :   -0.606405
   5 N :   -0.107245
   6 C :    0.171150
   7 C :   -0.256387
   8 C :   -0.201812
   9 C :   -0.213555
  10 C :   -0.159399
  11 C :   -0.359517
  12 H :    0.169976
  13 H :    0.171420
  14 H :    0.169993
  15 H :    0.176797
  16 H :    0.182299
  17 H :    0.176525
  18 H :    0.319807
  19 H :    0.204803
  20 H :    0.177966
  21 H :    0.177588
  22 H :    0.180837
  23 H :    0.177626
Sum of atomic charges:   -0.0000000

LOEWDIN ATOMIC CHARGES
----------------------
   0 C :   -0.102204
   1 N :   -0.791929
   2 C :   -0.108448
   3 C :    0.438197
   4 O :   -0.541788
   5 N :   -0.539135
   6 C :    0.154467
   7 C :   -0.156944
   8 C :   -0.167072
   9 C :   -0.201852
  10 C :   -0.166254
  11 C :   -0.146455
  12 H :    0.181335
  13 H :    0.188074
  14 H :    0.180653
  15 H :    0.180414
  16 H :    0.196495
  17 H :    0.180583
  18 H :    0.300205
  19 H :    0.202250
  20 H :    0.178367
  21 H :    0.175770
  22 H :    0.179268
  23 H :    0.186002

  Mayer bond orders larger than 0.100000
B(  0-C ,  1-N ) :   0.8909 B(  0-C , 12-H ) :   0.9536 B(  0-C , 13-H ) :   0.9544
B(  0-C , 14-H ) :   0.9531 B(  1-N ,  2-C ) :   0.8807 B(  1-N ,  3-C ) :   1.3146
B(  2-C , 15-H ) :   0.9502 B(  2-C , 16-H ) :   0.9471 B(  2-C , 17-H ) :   0.9504
B(  3-C ,  4-O ) :   1.6616 B(  3-C ,  5-N ) :   1.1068 B(  5-N ,  6-C ) :   0.9975
B(  5-N , 18-H ) :   0.8900 B(  6-C ,  7-C ) :   1.3626 B(  6-C , 11-C ) :   1.3026
B(  7-C ,  8-C ) :   1.3406 B(  7-C , 19-H ) :   0.9433 B(  8-C ,  9-C ) :   1.3777
B(  8-C , 20-H ) :   0.9666 B(  9-C , 10-C ) :   1.3653 B(  9-C , 21-H ) :   0.9584
B( 10-C , 11-C ) :   1.3877 B( 10-C , 22-H ) :   0.9517 B( 11-C , 23-H ) :   0.9611

Dispersion correction           -0.008503738
FINAL SINGLE POINT ENERGY      -534.805346061926

DIPOLE MOMENT
-------------

Method             : SCF
Type of density    : Electron Density
Multiplicity       :   1
Irrep              :   0
Energy             :  -534.8165990678559183 Eh
Relativity type    :
Basis              : AO
                                X                 Y                 Z
Electronic contribution:      6.011141686      -1.834983927      -0.012413756
Nuclear contribution   :     -7.161842527       4.362490805      -0.005677015
                        -----------------------------------------
Total Dipole Moment    :     -1.150700841       2.527506877      -0.018090771
                        -----------------------------------------
Magnitude (a.u.)       :      2.777180353
Magnitude (Debye)      :      7.059031468

Rotational constants in cm-1:             0.087289             0.016239             0.013763
Rotational constants in MHz :          2616.861032           486.840284           412.605607

                             ****ORCA TERMINATED NORMALLY****
TOTAL RUN TIME: 0 days 0 hours 0 minutes 46 seconds 765 msec
