                         Program Version 6.0.0  -   RELEASE  -
|  1> ! pbe def2-sv(p) def2/J RI DEFGRID1 loosescf d4 GCP(DFT/SV(P)) printgap
|  2> %output
|  3>     printlevel normal
|  4> end
|  5> * xyz 0 1
|  6> C 1.5767553451 0.5053776256 -1.7221893688
|  7> C 2.9481759724 0.574152529 -1.8764953663
|  8> C 3.7729121555 0.4477620301 -0.7692117734
|  9> C 3.224668826 0.25402434 0.4962467902
| 10> C 1.8412563605 0.1940878846 0.6414672984
| 11> C 1.0058007089 0.3186653041 -0.467711781
| 12> C -0.4625385931 0.2500722253 -0.3070030199
| 13> C -1.1321766541 1.2223902983 0.4251015159
| 14> C -2.5059182488 1.1615236882 0.5867959023
| 15> C -3.2375756415 0.1205483623 0.0180464898
| 16> C -2.5736124773 -0.8591514817 -0.7169791304
| 17> C -1.1914697967 -0.7922523911 -0.8799256075
| 18> Cl -0.3878706083 -2.0321702747 -1.7606627118
| 19> Cl -3.4655001127 -2.1542024017 -1.4143295178
| 20> Cl -4.9436115209 0.0351595731 0.2215339898
| 21> Cl -3.3191097948 2.3729978107 1.4985578959
| 22> Cl 1.168039098 -0.0775562631 2.2084485949
| 23> Cl 4.2488754517 0.0841934061 1.8758367756
| 24> Cl 5.4862490915 0.5250347121 -0.9507955524
| 25> H 0.9330631404 0.6058262305 -2.5803234078
| 26> H 3.3868536272 0.7229310452 -2.848778211
| 27> H -0.5787858336 2.0346024931 0.8666990187
| 28> *
| 29>
| 30>                          ****END OF INPUT****

CARTESIAN COORDINATES (ANGSTROEM)
---------------------------------
  C      1.576755    0.505378   -1.722189
  C      2.948176    0.574153   -1.876495
  C      3.772912    0.447762   -0.769212
  C      3.224669    0.254024    0.496247
  C      1.841256    0.194088    0.641467
  C      1.005801    0.318665   -0.467712
  C     -0.462539    0.250072   -0.307003
  C     -1.132177    1.222390    0.425102
  C     -2.505918    1.161524    0.586796
  C     -3.237576    0.120548    0.018046
  C     -2.573612   -0.859151   -0.716979
  C     -1.191470   -0.792252   -0.879926
  Cl    -0.387871   -2.032170   -1.760663
  Cl    -3.465500   -2.154202   -1.414330
  Cl    -4.943612    0.035160    0.221534
  Cl    -3.319110    2.372998    1.498558
  Cl     1.168039   -0.077556    2.208449
  Cl     4.248875    0.084193    1.875837
  Cl     5.486249    0.525035   -0.950796
  H      0.933063    0.605826   -2.580323
  H      3.386854    0.722931   -2.848778
  H     -0.578786    2.034602    0.866699

 Total Charge           Charge          ....    0
 Multiplicity           Mult            ....    1
 Number of Electrons    NEL             ....  194
 Basis Dimension        Dim             ....  300

ORBITAL ENERGIES
----------------

  NO   OCC          E(Eh)            E(eV)
   0   2.0000    -100.662195     -2739.1576
   1   2.0000    -100.661943     -2739.1507
   2   2.0000    -100.661677     -2739.1435
   3   2.0000    -100.661439     -2739.1370
   4   2.0000    -100.659267     -2739.0779
   5   2.0000    -100.659168     -2739.0752
   6   2.0000    -100.658807     -2739.0654
   7   2.0000      -9.983814      -271.6734
   8   2.0000      -9.983578      -271.6670
   9   2.0000      -9.979978      -271.5690
  10   2.0000      -9.979752      -271.5629
  11   2.0000      -9.978869      -271.5388
  12   2.0000      -9.978261      -271.5223
  13   2.0000      -9.977327      -271.4969
  14   2.0000      -9.944298      -270.5981
  15   2.0000      -9.940630      -270.4983
  16   2.0000      -9.929115      -270.1850
  17   2.0000      -9.924441      -270.0578
  18   2.0000      -9.924182      -270.0507
  19   2.0000      -9.197793      -250.2847
  20   2.0000      -9.197628      -250.2802
  21   2.0000      -9.197400      -250.2740
  22   2.0000      -9.196879      -250.2598
  23   2.0000      -9.195062      -250.2104
  24   2.0000      -9.194683      -250.2000
  25   2.0000      -9.194503      -250.1951
  26   2.0000      -7.029414      -191.2801
  27   2.0000      -7.029386      -191.2793
  28   2.0000      -7.029180      -191.2737
  29   2.0000      -7.028487      -191.2549
  30   2.0000      -7.026678      -191.2056
  31   2.0000      -7.026480      -191.2002
  32   2.0000      -7.026114      -191.1903
  33   2.0000      -7.017871      -190.9660
  34   2.0000      -7.017688      -190.9610
  35   2.0000      -7.017456      -190.9547
  36   2.0000      -7.016995      -190.9421
  37   2.0000      -7.016815      -190.9372
  38   2.0000      -7.016503      -190.9287
  39   2.0000      -7.016307      -190.9234
  40   2.0000      -7.015912      -190.9127
  41   2.0000      -7.015066      -190.8897
  42   2.0000      -7.014733      -190.8806
  43   2.0000      -7.014581      -190.8765
  44   2.0000      -7.014166      -190.8652
  45   2.0000      -7.013627      -190.8505
  46   2.0000      -7.013587      -190.8494
  47   2.0000      -0.874640       -23.8002
  48   2.0000      -0.863566       -23.4988
  49   2.0000      -0.834286       -22.7021
  50   2.0000      -0.821948       -22.3664
  51   2.0000      -0.812061       -22.0973
  52   2.0000      -0.792968       -21.5777
  53   2.0000      -0.785040       -21.3620
  54   2.0000      -0.772558       -21.0224
  55   2.0000      -0.763648       -20.7799
  56   2.0000      -0.707418       -19.2498
  57   2.0000      -0.678860       -18.4727
  58   2.0000      -0.671070       -18.2608
  59   2.0000      -0.655223       -17.8295
  60   2.0000      -0.586808       -15.9679
  61   2.0000      -0.573469       -15.6049
  62   2.0000      -0.564787       -15.3686
  63   2.0000      -0.545025       -14.8309
  64   2.0000      -0.495315       -13.4782
  65   2.0000      -0.490235       -13.3400
  66   2.0000      -0.473178       -12.8758
  67   2.0000      -0.469342       -12.7715
  68   2.0000      -0.440996       -12.0001
  69   2.0000      -0.431184       -11.7331
  70   2.0000      -0.420714       -11.4482
  71   2.0000      -0.418027       -11.3751
  72   2.0000      -0.415898       -11.3172
  73   2.0000      -0.411482       -11.1970
  74   2.0000      -0.402826       -10.9615
  75   2.0000      -0.389961       -10.6114
  76   2.0000      -0.374783       -10.1984
  77   2.0000      -0.362815        -9.8727
  78   2.0000      -0.359999        -9.7961
  79   2.0000      -0.354021        -9.6334
  80   2.0000      -0.340364        -9.2618
  81   2.0000      -0.332433        -9.0460
  82   2.0000      -0.318298        -8.6613
  83   2.0000      -0.304966        -8.2985
  84   2.0000      -0.304083        -8.2745
  85   2.0000      -0.301642        -8.2081
  86   2.0000      -0.300511        -8.1773
  87   2.0000      -0.296089        -8.0570
  88   2.0000      -0.291423        -7.9300
  89   2.0000      -0.283796        -7.7225
  90   2.0000      -0.281507        -7.6602
  91   2.0000      -0.264705        -7.2030
  92   2.0000      -0.263345        -7.1660
  93   2.0000      -0.241856        -6.5812
  94   2.0000      -0.234386        -6.3780
  95   2.0000      -0.229795        -6.2530
  96   2.0000      -0.223667        -6.0863
  97   0.0000      -0.084521        -2.2999
  98   0.0000      -0.071799        -1.9537
  99   0.0000      -0.065607        -1.7853
 100   0.0000      -0.056449        -1.5361
 101   0.0000      -0.052955        -1.4410

MULLIKEN ATOMIC CHARGES
-----------------------
   0 C :   -0.092055
   1 C :   -0.096319
   2 C :    0.072882
   3 C :    0.035007
   4 C :    0.023731
   5 C :    0.034237
   6 C :    0.028467
   7 C :   -0.158906
   8 C :    0.081477
   9 C :    0.031997
  10 C :    0.003110
  11 C :    0.042822
  12 Cl:   -0.022261
  13 Cl:   -0.015101
  14 Cl:   -0.013366
  15 Cl:   -0.039791
  16 Cl:   -0.023109
  17 Cl:   -0.021074
  18 Cl:   -0.041523
  19 H :    0.060539
  20 H :    0.058313
  21 H :    0.050924
Sum of atomic charges:   -0.0000000

LOEWDIN ATOMIC CHARGES
----------------------
   0 C :   -0.102709
   1 C :   -0.134511
   2 C :   -0.150216
   3 C :   -0.175903
   4 C :   -0.141282
   5 C :   -0.056085
   6 C :   -0.050659
   7 C :   -0.123028
   8 C :   -0.157399
   9 C :   -0.176401
  10 C :   -0.174905
  11 C :   -0.151204
  12 Cl:    0.177172
  13 Cl:    0.172400
  14 Cl:    0.173104
  15 Cl:    0.161477
  16 Cl:    0.173800
  17 Cl:    0.163910
  18 Cl:    0.158057
  19 H :    0.135596
  20 H :    0.138584
  21 H :    0.140201

  Mayer bond orders larger than 0.100000
B(  0-C ,  1-C ) :   1.3082 B(  0-C ,  5-C ) :   1.3559 B(  0-C , 19-H ) :   0.9674
B(  1-C ,  2-C ) :   1.3624 B(  1-C , 20-H ) :   0.9716 B(  2-C ,  3-C ) :   1.4098
B(  2-C , 18-Cl) :   1.0451 B(  3-C ,  4-C ) :   1.3946 B(  3-C , 17-Cl) :   1.1151
B(  4-C ,  5-C ) :   1.4293 B(  4-C , 16-Cl) :   1.1062 B(  5-C ,  6-C ) :   0.9471
B(  6-C ,  7-C ) :   1.3122 B(  6-C , 11-C ) :   1.4118 B(  7-C ,  8-C ) :   1.3259
B(  7-C , 21-H ) :   0.9790 B(  8-C ,  9-C ) :   1.3933 B(  8-C , 15-Cl) :   1.0360
B(  9-C , 10-C ) :   1.4193 B(  9-C , 14-Cl) :   1.1197 B( 10-C , 11-C ) :   1.3885
B( 10-C , 13-Cl) :   1.1189 B( 11-C , 12-Cl) :   1.1076

Dispersion correction           -0.049637659
FINAL SINGLE POINT ENERGY     -3677.236826122680

DIPOLE MOMENT
-------------

Method             : SCF
Type of density    : Electron Density
Multiplicity       :   1
Irrep              :   0
Energy             : -3677.2546711945537936 Eh
Relativity type    :
Basis              : AO
                                X                 Y                 Z
Electronic contribution:     -5.014867063      -4.542270746       6.037719959
Nuclear contribution   :      5.137848566       4.828550299      -6.533361409
                        -----------------------------------------
Total Dipole Moment    :      0.122981503       0.286279552      -0.495641450
                        -----------------------------------------
Magnitude (a.u.)       :      0.585440757
Magnitude (Debye)      :      1.488072145

Rotational constants in cm-1:             0.012911             0.003689             0.003201
Rotational constants in MHz :           387.074952           110.593949            95.972827

                             ****ORCA TERMINATED NORMALLY****
TOTAL RUN TIME: 0 days 0 hours 0 minutes 23 seconds 526 msec
