                         Program Version 6.0.0  -   RELEASE  -
|  1> ! pbe def2-sv(p) def2/J RI DEFGRID1 loosescf d4 GCP(DFT/SV(P)) printgap
|  2> %output
|  3>     printlevel normal
|  4> end
|  5> * xyz 0 1
|  6> C 3.7482222217 0.2312696107 0.0716009331
|  7> C 2.2896081488 0.1698311734 -0.3729537022
|  8> H 2.2567224926 -0.0365797664 -1.4490237349
|  9> C 1.5663207314 1.4848675088 -0.1054670782
| 10> C 0.1184356443 1.3924813904 -0.5694627308
| 11> C -0.6770306739 0.2802496022 0.1292028595
| 12> H -0.7204856607 0.4776051068 1.2055580788
| 13> C 0.0686920178 -1.0561571497 -0.0463967219
| 14> H 0.0038244601 -1.3573565683 -1.1066858518
| 15> C 1.5435849257 -0.9376906889 0.3617308794
| 16> O -0.5418125028 -2.0456323651 0.7664558706
| 17> C -2.1222811562 0.2762507394 -0.4241198343
| 18> C -2.939528024 -0.9564125068 -0.0403373306
| 19> C -2.8846391658 1.5142208068 0.0563753228
| 20> H 4.2523219583 -0.7100848736 -0.133355189
| 21> H 4.2717772851 1.0244990964 -0.4562267678
| 22> H 3.8102977259 0.429838369 1.1392292538
| 23> H 1.5979816964 1.7046609818 0.9637726107
| 24> H 2.0645010321 2.3013737906 -0.6318766463
| 25> H -0.3672805996 2.3508477309 -0.3917418203
| 26> H 0.103053321 1.2051779504 -1.6465254611
| 27> H 1.5774118452 -0.7430404263 1.436980356
| 28> H 2.0343597552 -1.8977589673 0.1788627973
| 29> H -0.0019618855 -2.846938856 0.7415356698
| 30> H -2.0590114766 0.310000619 -1.5188082161
| 31> H -3.9669412026 -0.8325302173 -0.3773578543
| 32> H -2.93903612 -1.0932161649 1.0376818906
| 33> H -2.539503937 -1.8571422485 -0.4937018835
| 34> H -2.4165071237 2.4368907201 -0.2723535609
| 35> H -2.939425546 1.5202036594 1.1427048895
| 36> H -3.8988380872 1.498436075 -0.3355969445
| 37> *
| 38>
| 39>                          ****END OF INPUT****

CARTESIAN COORDINATES (ANGSTROEM)
---------------------------------
  C      3.748222    0.231270    0.071601
  C      2.289608    0.169831   -0.372954
  H      2.256722   -0.036580   -1.449024
  C      1.566321    1.484868   -0.105467
  C      0.118436    1.392481   -0.569463
  C     -0.677031    0.280250    0.129203
  H     -0.720486    0.477605    1.205558
  C      0.068692   -1.056157   -0.046397
  H      0.003824   -1.357357   -1.106686
  C      1.543585   -0.937691    0.361731
  O     -0.541813   -2.045632    0.766456
  C     -2.122281    0.276251   -0.424120
  C     -2.939528   -0.956413   -0.040337
  C     -2.884639    1.514221    0.056375
  H      4.252322   -0.710085   -0.133355
  H      4.271777    1.024499   -0.456227
  H      3.810298    0.429838    1.139229
  H      1.597982    1.704661    0.963773
  H      2.064501    2.301374   -0.631877
  H     -0.367281    2.350848   -0.391742
  H      0.103053    1.205178   -1.646525
  H      1.577412   -0.743040    1.436980
  H      2.034360   -1.897759    0.178863
  H     -0.001962   -2.846939    0.741536
  H     -2.059011    0.310001   -1.518808
  H     -3.966941   -0.832530   -0.377358
  H     -2.939036   -1.093216    1.037682
  H     -2.539504   -1.857142   -0.493702
  H     -2.416507    2.436891   -0.272354
  H     -2.939426    1.520204    1.142705
  H     -3.898838    1.498436   -0.335597

 Total Charge           Charge          ....    0
 Multiplicity           Mult            ....    1
 Number of Electrons    NEL             ....   88
 Basis Dimension        Dim             ....  194

ORBITAL ENERGIES
----------------

  NO   OCC          E(Eh)            E(eV)
   0   2.0000     -18.737036      -509.8607
   1   2.0000      -9.933591      -270.3068
   2   2.0000      -9.893795      -269.2238
   3   2.0000      -9.887382      -269.0493
   4   2.0000      -9.885282      -268.9922
   5   2.0000      -9.881821      -268.8980
   6   2.0000      -9.880181      -268.8534
   7   2.0000      -9.879950      -268.8471
   8   2.0000      -9.873280      -268.6656
   9   2.0000      -9.864588      -268.4291
  10   2.0000      -9.852415      -268.0978
  11   2.0000      -0.916953       -24.9516
  12   2.0000      -0.758421       -20.6377
  13   2.0000      -0.719171       -19.5696
  14   2.0000      -0.667767       -18.1709
  15   2.0000      -0.654606       -17.8127
  16   2.0000      -0.603937       -16.4340
  17   2.0000      -0.596685       -16.2366
  18   2.0000      -0.547289       -14.8925
  19   2.0000      -0.526291       -14.3211
  20   2.0000      -0.500779       -13.6269
  21   2.0000      -0.490525       -13.3479
  22   2.0000      -0.452646       -12.3171
  23   2.0000      -0.426718       -11.6116
  24   2.0000      -0.412032       -11.2120
  25   2.0000      -0.393082       -10.6963
  26   2.0000      -0.388531       -10.5725
  27   2.0000      -0.382917       -10.4197
  28   2.0000      -0.362068        -9.8524
  29   2.0000      -0.346157        -9.4194
  30   2.0000      -0.343300        -9.3417
  31   2.0000      -0.339108        -9.2276
  32   2.0000      -0.332070        -9.0361
  33   2.0000      -0.320352        -8.7172
  34   2.0000      -0.315590        -8.5876
  35   2.0000      -0.301312        -8.1991
  36   2.0000      -0.295802        -8.0492
  37   2.0000      -0.292395        -7.9565
  38   2.0000      -0.282839        -7.6964
  39   2.0000      -0.273837        -7.4515
  40   2.0000      -0.270116        -7.3502
  41   2.0000      -0.259835        -7.0705
  42   2.0000      -0.243664        -6.6304
  43   2.0000      -0.207670        -5.6510
  44   0.0000       0.028270         0.7693
  45   0.0000       0.039259         1.0683
  46   0.0000       0.043516         1.1841
  47   0.0000       0.048804         1.3280
  48   0.0000       0.075731         2.0607

MULLIKEN ATOMIC CHARGES
-----------------------
   0 C :   -0.195475
   1 C :   -0.205235
   2 H :    0.061918
   3 C :   -0.082823
   4 C :   -0.125679
   5 C :   -0.117673
   6 H :    0.053248
   7 C :    0.076949
   8 H :    0.043122
   9 C :   -0.122528
  10 O :   -0.410536
  11 C :   -0.159646
  12 C :   -0.187142
  13 C :   -0.249459
  14 H :    0.094386
  15 H :    0.096047
  16 H :    0.090364
  17 H :    0.065507
  18 H :    0.076268
  19 H :    0.088502
  20 H :    0.066438
  21 H :    0.071153
  22 H :    0.064354
  23 H :    0.293705
  24 H :    0.056617
  25 H :    0.081042
  26 H :    0.090517
  27 H :    0.096617
  28 H :    0.102098
  29 H :    0.091589
  30 H :    0.095754
Sum of atomic charges:    0.0000000

LOEWDIN ATOMIC CHARGES
----------------------
   0 C :   -0.326483
   1 C :   -0.154458
   2 H :    0.113162
   3 C :   -0.215465
   4 C :   -0.214824
   5 C :   -0.136836
   6 H :    0.117771
   7 C :   -0.043655
   8 H :    0.093678
   9 C :   -0.229144
  10 O :   -0.317080
  11 C :   -0.144880
  12 C :   -0.331985
  13 C :   -0.329943
  14 H :    0.116355
  15 H :    0.117568
  16 H :    0.117164
  17 H :    0.114515
  18 H :    0.115583
  19 H :    0.119029
  20 H :    0.114666
  21 H :    0.117906
  22 H :    0.108389
  23 H :    0.280657
  24 H :    0.109960
  25 H :    0.108387
  26 H :    0.118349
  27 H :    0.114836
  28 H :    0.112650
  29 H :    0.116988
  30 H :    0.117139

  Mayer bond orders larger than 0.100000
B(  0-C ,  1-C ) :   1.1096 B(  0-C , 14-H ) :   0.9490 B(  0-C , 15-H ) :   0.9478
B(  0-C , 16-H ) :   0.9461 B(  1-C ,  2-H ) :   0.8921 B(  1-C ,  3-C ) :   1.0947
B(  1-C ,  9-C ) :   1.0754 B(  3-C ,  4-C ) :   1.1421 B(  3-C , 17-H ) :   0.9026
B(  3-C , 18-H ) :   0.9108 B(  4-C ,  5-C ) :   1.0896 B(  4-C , 19-H ) :   0.9062
B(  4-C , 20-H ) :   0.8981 B(  5-C ,  6-H ) :   0.8662 B(  5-C ,  7-C ) :   1.0396
B(  5-C , 11-C ) :   1.0476 B(  7-C ,  8-H ) :   0.8869 B(  7-C ,  9-C ) :   1.0964
B(  7-C , 10-O ) :   1.0427 B(  9-C , 21-H ) :   0.8908 B(  9-C , 22-H ) :   0.9060
B( 10-O , 23-H ) :   0.8471 B( 11-C , 12-C ) :   1.1388 B( 11-C , 13-C ) :   1.1120
B( 11-C , 24-H ) :   0.8903 B( 12-C , 25-H ) :   0.9421 B( 12-C , 26-H ) :   0.9430
B( 12-C , 27-H ) :   0.9326 B( 13-C , 28-H ) :   0.9418 B( 13-C , 29-H ) :   0.9490
B( 13-C , 30-H ) :   0.9472

Dispersion correction           -0.031298570
FINAL SINGLE POINT ENERGY      -467.195255357938

DIPOLE MOMENT
-------------

Method             : SCF
Type of density    : Electron Density
Multiplicity       :   1
Irrep              :   0
Energy             :  -467.3082646682822769 Eh
Relativity type    :
Basis              : AO
                                X                 Y                 Z
Electronic contribution:      0.455303452      -3.737917157       0.648506417
Nuclear contribution   :      0.107599012       3.614309959      -0.895765602
                        -----------------------------------------
Total Dipole Moment    :      0.562902463      -0.123607197      -0.247259185
                        -----------------------------------------
Magnitude (a.u.)       :      0.627116438
Magnitude (Debye)      :      1.594003308

Rotational constants in cm-1:             0.063174             0.023330             0.018066
Rotational constants in MHz :          1893.901458           699.423543           541.609370

                             ****ORCA TERMINATED NORMALLY****
TOTAL RUN TIME: 0 days 0 hours 0 minutes 14 seconds 188 msec
