                         Program Version 6.0.0  -   RELEASE  -
|  1> ! pbe def2-sv(p) def2/J RI DEFGRID1 loosescf d4 GCP(DFT/SV(P)) printgap
|  2> %output
|  3>     printlevel normal
|  4> end
|  5> * xyz 0 1
|  6> C -1.7624936569 -1.0489968837 -0.6467773198
|  7> C -1.0841696144 -0.5032514012 0.6315320642
|  8> H -1.7595243371 -0.6323052934 1.4844587734
|  9> C -0.7373779967 0.9912265666 0.5498053675
| 10> H -1.6253998264 1.5361193088 0.2159411649
| 11> C 0.4114435679 1.2334763143 -0.4454212218
| 12> H 0.7270949215 2.2833620495 -0.323711144
| 13> C 1.6140246422 0.337132394 -0.0789813357
| 14> H 2.3101800363 0.2949183979 -0.9290939376
| 15> C 1.2177068659 -1.1237075232 0.20809712
| 16> H 2.0095823161 -1.5455547913 0.8484808074
| 17> O 0.0612792819 -1.2765701092 0.9874644307
| 18> O 1.1562204669 -1.8008015052 -1.0102669767
| 19> O 2.2587827572 0.8087846149 1.080810629
| 20> O -0.0725459379 1.0183336009 -1.7443626443
| 21> O -0.4259026127 1.5165040486 1.8155094309
| 22> O -2.7715273156 -0.203562721 -1.1429056302
| 23> H -2.2446362052 -1.9980679598 -0.3986165225
| 24> H -1.0005103891 -1.2230167382 -1.4095449254
| 25> H 1.0493113448 -2.7509887255 -0.8538992168
| 26> H 2.6970331173 1.6530911156 0.8984109599
| 27> H 0.6183099756 1.2092822452 -2.3947141086
| 28> H 0.356705425 1.0558183894 2.1617401497
| 29> H -2.3510034289 0.4821921593 -1.6820821962
| 30> *
| 31>
| 32>                          ****END OF INPUT****

CARTESIAN COORDINATES (ANGSTROEM)
---------------------------------
  C     -1.762494   -1.048997   -0.646777
  C     -1.084170   -0.503251    0.631532
  H     -1.759524   -0.632305    1.484459
  C     -0.737378    0.991227    0.549805
  H     -1.625400    1.536119    0.215941
  C      0.411444    1.233476   -0.445421
  H      0.727095    2.283362   -0.323711
  C      1.614025    0.337132   -0.078981
  H      2.310180    0.294918   -0.929094
  C      1.217707   -1.123708    0.208097
  H      2.009582   -1.545555    0.848481
  O      0.061279   -1.276570    0.987464
  O      1.156220   -1.800802   -1.010267
  O      2.258783    0.808785    1.080811
  O     -0.072546    1.018334   -1.744363
  O     -0.425903    1.516504    1.815509
  O     -2.771527   -0.203563   -1.142906
  H     -2.244636   -1.998068   -0.398617
  H     -1.000510   -1.223017   -1.409545
  H      1.049311   -2.750989   -0.853899
  H      2.697033    1.653091    0.898411
  H      0.618310    1.209282   -2.394714
  H      0.356705    1.055818    2.161740
  H     -2.351003    0.482192   -1.682082

 Total Charge           Charge          ....    0
 Multiplicity           Mult            ....    1
 Number of Electrons    NEL             ....   96
 Basis Dimension        Dim             ....  192

ORBITAL ENERGIES
----------------

  NO   OCC          E(Eh)            E(eV)
   0   2.0000     -18.779086      -511.0049
   1   2.0000     -18.775990      -510.9207
   2   2.0000     -18.767095      -510.6786
   3   2.0000     -18.766869      -510.6725
   4   2.0000     -18.737400      -509.8706
   5   2.0000     -18.731521      -509.7106
   6   2.0000      -9.991313      -271.8775
   7   2.0000      -9.957292      -270.9517
   8   2.0000      -9.952421      -270.8192
   9   2.0000      -9.935970      -270.3715
  10   2.0000      -9.929824      -270.2042
  11   2.0000      -9.911389      -269.7026
  12   2.0000      -0.983070       -26.7507
  13   2.0000      -0.955527       -26.0012
  14   2.0000      -0.947231       -25.7755
  15   2.0000      -0.923483       -25.1293
  16   2.0000      -0.908375       -24.7181
  17   2.0000      -0.904929       -24.6244
  18   2.0000      -0.700924       -19.0731
  19   2.0000      -0.690283       -18.7836
  20   2.0000      -0.619949       -16.8697
  21   2.0000      -0.583179       -15.8691
  22   2.0000      -0.570337       -15.5197
  23   2.0000      -0.531304       -14.4575
  24   2.0000      -0.507781       -13.8174
  25   2.0000      -0.482914       -13.1407
  26   2.0000      -0.471038       -12.8176
  27   2.0000      -0.466900       -12.7050
  28   2.0000      -0.448265       -12.1979
  29   2.0000      -0.426168       -11.5966
  30   2.0000      -0.410952       -11.1826
  31   2.0000      -0.391700       -10.6587
  32   2.0000      -0.382920       -10.4198
  33   2.0000      -0.369420       -10.0524
  34   2.0000      -0.362104        -9.8533
  35   2.0000      -0.354613        -9.6495
  36   2.0000      -0.338718        -9.2170
  37   2.0000      -0.325984        -8.8705
  38   2.0000      -0.300959        -8.1895
  39   2.0000      -0.291699        -7.9375
  40   2.0000      -0.276670        -7.5286
  41   2.0000      -0.264847        -7.2068
  42   2.0000      -0.256157        -6.9704
  43   2.0000      -0.248190        -6.7536
  44   2.0000      -0.239789        -6.5250
  45   2.0000      -0.224488        -6.1086
  46   2.0000      -0.209764        -5.7080
  47   2.0000      -0.192152        -5.2287
  48   0.0000       0.001112         0.0303
  49   0.0000       0.005512         0.1500
  50   0.0000       0.028771         0.7829
  51   0.0000       0.063459         1.7268
  52   0.0000       0.066707         1.8152

MULLIKEN ATOMIC CHARGES
-----------------------
   0 C :    0.018827
   1 C :    0.020767
   2 H :    0.077430
   3 C :    0.048682
   4 H :    0.074528
   5 C :    0.057911
   6 H :    0.055691
   7 C :   -0.013577
   8 H :    0.066197
   9 C :    0.219974
  10 H :    0.072691
  11 O :   -0.318334
  12 O :   -0.393648
  13 O :   -0.413029
  14 O :   -0.408690
  15 O :   -0.429452
  16 O :   -0.442887
  17 H :    0.076423
  18 H :    0.099471
  19 H :    0.306966
  20 H :    0.311360
  21 H :    0.309592
  22 H :    0.298951
  23 H :    0.304155
Sum of atomic charges:   -0.0000000

LOEWDIN ATOMIC CHARGES
----------------------
   0 C :   -0.153469
   1 C :   -0.069761
   2 H :    0.119874
   3 C :   -0.069783
   4 H :    0.118972
   5 C :   -0.080974
   6 H :    0.096388
   7 C :   -0.088361
   8 H :    0.104708
   9 C :   -0.000064
  10 H :    0.103089
  11 O :   -0.144190
  12 O :   -0.307099
  13 O :   -0.303349
  14 O :   -0.302727
  15 O :   -0.317064
  16 O :   -0.338845
  17 H :    0.108115
  18 H :    0.103979
  19 H :    0.288941
  20 H :    0.292518
  21 H :    0.291534
  22 H :    0.271385
  23 H :    0.276183

  Mayer bond orders larger than 0.100000
B(  0-C ,  1-C ) :   1.0097 B(  0-C , 16-O ) :   1.0909 B(  0-C , 17-H ) :   0.9196
B(  0-C , 18-H ) :   0.8979 B(  1-C ,  2-H ) :   0.8932 B(  1-C ,  3-C ) :   1.0343
B(  1-C , 11-O ) :   0.9603 B(  3-C ,  4-H ) :   0.8792 B(  3-C ,  5-C ) :   0.9675
B(  3-C , 15-O ) :   1.0671 B(  5-C ,  6-H ) :   0.9018 B(  5-C ,  7-C ) :   0.9648
B(  5-C , 14-O ) :   1.0534 B(  7-C ,  8-H ) :   0.8915 B(  7-C ,  9-C ) :   0.9849
B(  7-C , 13-O ) :   1.0433 B(  9-C , 10-H ) :   0.9025 B(  9-C , 11-O ) :   1.0803
B(  9-C , 12-O ) :   1.1130 B( 12-O , 19-H ) :   0.8361 B( 13-O , 20-H ) :   0.8392
B( 14-O , 21-H ) :   0.8380 B( 15-O , 22-H ) :   0.8209 B( 16-O , 23-H ) :   0.8309

Dispersion correction           -0.026192558
FINAL SINGLE POINT ENERGY      -685.693405916705

DIPOLE MOMENT
-------------

Method             : SCF
Type of density    : Electron Density
Multiplicity       :   1
Irrep              :   0
Energy             :  -685.8255035944243900 Eh
Relativity type    :
Basis              : AO
                                X                 Y                 Z
Electronic contribution:      0.937200661      -0.139322192       1.410086892
Nuclear contribution   :      0.741530322       0.343220205      -2.235516162
                        -----------------------------------------
Total Dipole Moment    :      1.678730983       0.203898014      -0.825429270
                        -----------------------------------------
Magnitude (a.u.)       :      1.881766615
Magnitude (Debye)      :      4.783070619

Rotational constants in cm-1:             0.040373             0.029722             0.025771
Rotational constants in MHz :          1210.356364           891.032739           772.605349

                             ****ORCA TERMINATED NORMALLY****
TOTAL RUN TIME: 0 days 0 hours 0 minutes 12 seconds 293 msec
