                         Program Version 6.0.0  -   RELEASE  -
|  1> ! wb97x-v def2-tzvp def2/J RIJCOSX DEFGRID2 scfconv7 GCP(DFT/TZ) printgap
|  2> %output
|  3>     printlevel normal
|  4> end
|  5> * xyz 0 1
|  6> C -1.1792370370389583e-05 -2.4662469472241022e-05 -4.6031017033712074e-05
|  7> F 0.5311534287886945 -0.334650299091461 1.1736377938919458
|  8> F 0.4169162003551515 -0.8514676772821904 -0.9343512495823899
|  9> F 0.37950163809628945 1.2342011799665615 -0.3234487981959534
| 10> F -1.3275697376102007 -0.04805340905636249 0.08420444252241517
| 11> *
| 12>
| 13>                          ****END OF INPUT****

CARTESIAN COORDINATES (ANGSTROEM)
---------------------------------
  C     -0.000012   -0.000025   -0.000046
  F      0.531153   -0.334650    1.173638
  F      0.416916   -0.851468   -0.934351
  F      0.379502    1.234201   -0.323449
  F     -1.327570   -0.048053    0.084204

 Total Charge           Charge          ....    0
 Multiplicity           Mult            ....    1
 Number of Electrons    NEL             ....   42
 Basis Dimension        Dim             ....  155

ORBITAL ENERGIES
----------------

  NO   OCC          E(Eh)            E(eV)
   0   2.0000     -27.633644      -751.9497
   1   2.0000     -27.633625      -751.9492
   2   2.0000     -27.633619      -751.9490
   3   2.0000     -27.633384      -751.9426
   4   2.0000     -12.395370      -337.2952
   5   2.0000      -2.119779       -57.6821
   6   2.0000      -2.054019       -55.8927
   7   2.0000      -2.053998       -55.8921
   8   2.0000      -2.053961       -55.8911
   9   2.0000      -1.431310       -38.9479
  10   2.0000      -1.310876       -35.6708
  11   2.0000      -1.310855       -35.6702
  12   2.0000      -1.310806       -35.6688
  13   2.0000      -1.204576       -32.7782
  14   2.0000      -1.204546       -32.7774
  15   2.0000      -1.189439       -32.3663
  16   2.0000      -1.189429       -32.3660
  17   2.0000      -1.189423       -32.3658
  18   2.0000      -1.181983       -32.1634
  19   2.0000      -1.181979       -32.1633
  20   2.0000      -1.181970       -32.1630
  21   0.0000      -0.340514        -9.2659
  22   0.0000      -0.237248        -6.4558
  23   0.0000      -0.237108        -6.4520
  24   0.0000      -0.237071        -6.4510
  25   0.0000       0.090682         2.4676

MULLIKEN ATOMIC CHARGES
-----------------------
   0 C :    0.555687
   1 F :   -0.138950
   2 F :   -0.138879
   3 F :   -0.138947
   4 F :   -0.138910
Sum of atomic charges:    0.0000000

LOEWDIN ATOMIC CHARGES
----------------------
   0 C :   -0.850625
   1 F :    0.212701
   2 F :    0.212706
   3 F :    0.212578
   4 F :    0.212639

  Mayer bond orders larger than 0.100000
B(  0-C ,  1-F ) :   1.1856 B(  0-C ,  2-F ) :   1.1857 B(  0-C ,  3-F ) :   1.1856
B(  0-C ,  4-F ) :   1.1857

FINAL SINGLE POINT ENERGY      -437.536838803779

DIPOLE MOMENT
-------------

Method             : SCF
Type of density    : Electron Density
Multiplicity       :   1
Irrep              :   0
Energy             :  -437.5476470749794657 Eh
Relativity type    :
Basis              : AO
                                X                 Y                 Z
Electronic contribution:      0.000003522      -0.000171654      -0.000103244
Nuclear contribution   :     -0.000006158      -0.000016243      -0.000028619
                        -----------------------------------------
Total Dipole Moment    :     -0.000002636      -0.000187897      -0.000131863
                        -----------------------------------------
Magnitude (a.u.)       :      0.000229565
Magnitude (Debye)      :      0.000583508

Rotational constants in cm-1:             0.187836             0.187824             0.187761
Rotational constants in MHz :          5631.176783          5630.832283          5628.918315

                             ****ORCA TERMINATED NORMALLY****
TOTAL RUN TIME: 0 days 0 hours 0 minutes 24 seconds 920 msec
