                         Program Version 6.0.0  -   RELEASE  -
|  1> ! wb97x-v def2-tzvp def2/J RIJCOSX DEFGRID2 scfconv7 GCP(DFT/TZ) printgap
|  2> %output
|  3>     printlevel normal
|  4> end
|  5> %cpcm
|  6>     smd true
|  7>     smdsolvent "water"
|  8> end
|  9> * xyz 0 1
| 10> C -1.1792370370389583e-05 -2.4662469472241022e-05 -4.6031017033712074e-05
| 11> F 0.5311534287886945 -0.334650299091461 1.1736377938919458
| 12> F 0.4169162003551515 -0.8514676772821904 -0.9343512495823899
| 13> F 0.37950163809628945 1.2342011799665615 -0.3234487981959534
| 14> F -1.3275697376102007 -0.04805340905636249 0.08420444252241517
| 15> *
| 16>
| 17>                          ****END OF INPUT****

CARTESIAN COORDINATES (ANGSTROEM)
---------------------------------
  C     -0.000012   -0.000025   -0.000046
  F      0.531153   -0.334650    1.173638
  F      0.416916   -0.851468   -0.934351
  F      0.379502    1.234201   -0.323449
  F     -1.327570   -0.048053    0.084204

 Total Charge           Charge          ....    0
 Multiplicity           Mult            ....    1
 Number of Electrons    NEL             ....   42
 Basis Dimension        Dim             ....  155

ORBITAL ENERGIES
----------------

  NO   OCC          E(Eh)            E(eV)
   0   2.0000     -27.628179      -751.8010
   1   2.0000     -27.628153      -751.8003
   2   2.0000     -27.628132      -751.7997
   3   2.0000     -27.627906      -751.7936
   4   2.0000     -12.390180      -337.1539
   5   2.0000      -2.114068       -57.5267
   6   2.0000      -2.048484       -55.7421
   7   2.0000      -2.048459       -55.7414
   8   2.0000      -2.048402       -55.7399
   9   2.0000      -1.426089       -38.8058
  10   2.0000      -1.305614       -35.5276
  11   2.0000      -1.305591       -35.5269
  12   2.0000      -1.305535       -35.5254
  13   2.0000      -1.199085       -32.6288
  14   2.0000      -1.199054       -32.6279
  15   2.0000      -1.184108       -32.2212
  16   2.0000      -1.184094       -32.2208
  17   2.0000      -1.184086       -32.2206
  18   2.0000      -1.176546       -32.0155
  19   2.0000      -1.176535       -32.0152
  20   2.0000      -1.176521       -32.0148
  21   0.0000      -0.334744        -9.1088
  22   0.0000      -0.231075        -6.2879
  23   0.0000      -0.230941        -6.2842
  24   0.0000      -0.230892        -6.2829
  25   0.0000       0.097382         2.6499

MULLIKEN ATOMIC CHARGES
-----------------------
   0 C :    0.577340
   1 F :   -0.144376
   2 F :   -0.144284
   3 F :   -0.144373
   4 F :   -0.144306
Sum of atomic charges:   -0.0000000

LOEWDIN ATOMIC CHARGES
----------------------
   0 C :   -0.842300
   1 F :    0.210609
   2 F :    0.210622
   3 F :    0.210505
   4 F :    0.210563

  Mayer bond orders larger than 0.100000
B(  0-C ,  1-F ) :   1.1800 B(  0-C ,  2-F ) :   1.1802 B(  0-C ,  3-F ) :   1.1801
B(  0-C ,  4-F ) :   1.1802

FINAL SINGLE POINT ENERGY      -437.531652547196

DIPOLE MOMENT
-------------

Method             : SCF
Type of density    : Electron Density
Multiplicity       :   1
Irrep              :   0
Energy             :  -437.5424608183956252 Eh
Relativity type    :
Basis              : AO
                                X                 Y                 Z
Electronic contribution:      0.000057112       0.000031397      -0.000242911
Nuclear contribution   :     -0.000006158      -0.000016243      -0.000028619
                        -----------------------------------------
Total Dipole Moment    :      0.000050954       0.000015154      -0.000271530
                        -----------------------------------------
Magnitude (a.u.)       :      0.000276685
Magnitude (Debye)      :      0.000703277

Rotational constants in cm-1:             0.187836             0.187824             0.187761
Rotational constants in MHz :          5631.176783          5630.832283          5628.918315

                             ****ORCA TERMINATED NORMALLY****
TOTAL RUN TIME: 0 days 0 hours 0 minutes 28 seconds 429 msec
