                         Program Version 6.0.0  -   RELEASE  -
|  1> ! pbe def2-sv(p) def2/J RI DEFGRID1 loosescf d4 GCP(DFT/SV(P)) printgap
|  2> %output
|  3>     printlevel normal
|  4> end
|  5> * xyz 0 1
|  6> C -4.3916743818 -0.0007015841 0.0005257969
|  7> C -3.6976757335 -0.567513037 1.0566716822
|  8> C -2.3144170606 -0.570635923 1.0573597456
|  9> C -1.6150833826 0.0006500969 1.48158e-05
| 10> C -2.3153192784 0.5715547206 -1.0569172098
| 11> C -3.6986124799 0.5670175096 -1.0557218989
| 12> C -0.1376687114 0.0005251648 -0.0002214184
| 13> C 0.5914447189 1.1878865651 0.0615108314
| 14> C 1.9761802507 1.2054339692 0.0639934686
| 15> C 2.6548147764 -0.0004940004 -1.30808e-05
| 16> C 1.9753111309 -1.2059451984 -0.0641104992
| 17> C 0.5906063943 -1.1874048922 -0.0619115996
| 18> Cl -0.2562339145 -2.691935714 -0.1702017252
| 19> Cl 4.3823372603 -0.0011488057 0.0003036179
| 20> Cl -0.2544263326 2.6930153176 0.1694372711
| 21> H -5.4709088269 -0.0015376329 0.0005708134
| 22> H -4.2341475737 -1.0090599012 1.8826263751
| 23> H -1.7703161856 -1.0059861127 1.8821931248
| 24> H -1.771999918 1.0075120424 -1.8819165913
| 25> H -4.2358331872 1.0079559545 -1.8815045474
| 26> H 2.5100185212 2.1392944874 0.1170624322
| 27> H 2.508421785 -2.1401942966 -0.1168910834
| 28> *
| 29>
| 30>                          ****END OF INPUT****

CARTESIAN COORDINATES (ANGSTROEM)
---------------------------------
  C     -4.391674   -0.000702    0.000526
  C     -3.697676   -0.567513    1.056672
  C     -2.314417   -0.570636    1.057360
  C     -1.615083    0.000650    0.000015
  C     -2.315319    0.571555   -1.056917
  C     -3.698612    0.567018   -1.055722
  C     -0.137669    0.000525   -0.000221
  C      0.591445    1.187887    0.061511
  C      1.976180    1.205434    0.063993
  C      2.654815   -0.000494   -0.000013
  C      1.975311   -1.205945   -0.064110
  C      0.590606   -1.187405   -0.061912
  Cl    -0.256234   -2.691936   -0.170202
  Cl     4.382337   -0.001149    0.000304
  Cl    -0.254426    2.693015    0.169437
  H     -5.470909   -0.001538    0.000571
  H     -4.234148   -1.009060    1.882626
  H     -1.770316   -1.005986    1.882193
  H     -1.772000    1.007512   -1.881917
  H     -4.235833    1.007956   -1.881505
  H      2.510019    2.139294    0.117062
  H      2.508422   -2.140194   -0.116891

 Total Charge           Charge          ....    0
 Multiplicity           Mult            ....    1
 Number of Electrons    NEL             ....  130
 Basis Dimension        Dim             ....  236

ORBITAL ENERGIES
----------------

  NO   OCC          E(Eh)            E(eV)
   0   2.0000    -100.652112     -2738.8832
   1   2.0000    -100.651883     -2738.8770
   2   2.0000    -100.651871     -2738.8767
   3   2.0000      -9.972920      -271.3769
   4   2.0000      -9.972913      -271.3768
   5   2.0000      -9.969419      -271.2817
   6   2.0000      -9.934250      -270.3247
   7   2.0000      -9.919316      -269.9183
   8   2.0000      -9.919309      -269.9181
   9   2.0000      -9.917760      -269.8760
  10   2.0000      -9.899771      -269.3865
  11   2.0000      -9.899765      -269.3863
  12   2.0000      -9.895863      -269.2801
  13   2.0000      -9.895781      -269.2779
  14   2.0000      -9.895324      -269.2655
  15   2.0000      -9.188149      -250.0223
  16   2.0000      -9.187669      -250.0092
  17   2.0000      -9.187661      -250.0090
  18   2.0000      -7.019557      -191.0119
  19   2.0000      -7.019071      -190.9986
  20   2.0000      -7.019070      -190.9986
  21   2.0000      -7.008139      -190.7011
  22   2.0000      -7.007780      -190.6914
  23   2.0000      -7.007778      -190.6913
  24   2.0000      -7.007436      -190.6820
  25   2.0000      -7.006822      -190.6653
  26   2.0000      -7.006820      -190.6653
  27   2.0000      -0.850577       -23.1454
  28   2.0000      -0.813000       -22.1229
  29   2.0000      -0.810795       -22.0629
  30   2.0000      -0.782466       -21.2920
  31   2.0000      -0.746657       -20.3176
  32   2.0000      -0.708410       -19.2768
  33   2.0000      -0.676831       -18.4175
  34   2.0000      -0.675090       -18.3701
  35   2.0000      -0.652358       -17.7516
  36   2.0000      -0.567684       -15.4475
  37   2.0000      -0.562592       -15.3089
  38   2.0000      -0.547282       -14.8923
  39   2.0000      -0.533276       -14.5112
  40   2.0000      -0.491141       -13.3646
  41   2.0000      -0.468978       -12.7615
  42   2.0000      -0.460447       -12.5294
  43   2.0000      -0.428417       -11.6578
  44   2.0000      -0.417677       -11.3656
  45   2.0000      -0.412773       -11.2321
  46   2.0000      -0.408890       -11.1265
  47   2.0000      -0.392220       -10.6728
  48   2.0000      -0.388064       -10.5598
  49   2.0000      -0.379466       -10.3258
  50   2.0000      -0.361925        -9.8485
  51   2.0000      -0.359894        -9.7932
  52   2.0000      -0.336182        -9.1480
  53   2.0000      -0.335027        -9.1166
  54   2.0000      -0.331330        -9.0159
  55   2.0000      -0.311407        -8.4738
  56   2.0000      -0.309212        -8.4141
  57   2.0000      -0.284476        -7.7410
  58   2.0000      -0.283738        -7.7209
  59   2.0000      -0.272964        -7.4277
  60   2.0000      -0.271773        -7.3953
  61   2.0000      -0.240832        -6.5534
  62   2.0000      -0.234710        -6.3868
  63   2.0000      -0.229700        -6.2505
  64   2.0000      -0.218733        -5.9520
  65   0.0000      -0.068454        -1.8627
  66   0.0000      -0.063166        -1.7188
  67   0.0000      -0.038980        -1.0607
  68   0.0000      -0.034772        -0.9462
  69   0.0000      -0.026692        -0.7263

MULLIKEN ATOMIC CHARGES
-----------------------
   0 C :   -0.040249
   1 C :   -0.055243
   2 C :   -0.066807
   3 C :    0.021861
   4 C :   -0.066768
   5 C :   -0.055255
   6 C :    0.096743
   7 C :    0.026457
   8 C :   -0.096833
   9 C :    0.120100
  10 C :   -0.096796
  11 C :    0.026415
  12 Cl:   -0.050858
  13 Cl:   -0.069606
  14 Cl:   -0.050899
  15 H :    0.056835
  16 H :    0.055956
  17 H :    0.047654
  18 H :    0.047606
  19 H :    0.055957
  20 H :    0.046879
  21 H :    0.046851
Sum of atomic charges:   -0.0000000

LOEWDIN ATOMIC CHARGES
----------------------
   0 C :   -0.118262
   1 C :   -0.120031
   2 C :   -0.109592
   3 C :   -0.048238
   4 C :   -0.109577
   5 C :   -0.120031
   6 C :   -0.067676
   7 C :   -0.114761
   8 C :   -0.161800
   9 C :   -0.125923
  10 C :   -0.161801
  11 C :   -0.114761
  12 Cl:    0.161782
  13 Cl:    0.144172
  14 Cl:    0.161717
  15 H :    0.125192
  16 H :    0.125835
  17 H :    0.124923
  18 H :    0.124924
  19 H :    0.125836
  20 H :    0.139038
  21 H :    0.139034

  Mayer bond orders larger than 0.100000
B(  0-C ,  1-C ) :   1.3773 B(  0-C ,  5-C ) :   1.3773 B(  0-C , 15-H ) :   0.9651
B(  1-C ,  2-C ) :   1.3687 B(  1-C , 16-H ) :   0.9632 B(  2-C ,  3-C ) :   1.3811
B(  2-C , 17-H ) :   0.9636 B(  3-C ,  4-C ) :   1.3812 B(  3-C ,  6-C ) :   0.9538
B(  4-C ,  5-C ) :   1.3686 B(  4-C , 18-H ) :   0.9636 B(  5-C , 19-H ) :   0.9632
B(  6-C ,  7-C ) :   1.4230 B(  6-C , 11-C ) :   1.4229 B(  7-C ,  8-C ) :   1.3367
B(  7-C , 14-Cl) :   1.0257 B(  8-C ,  9-C ) :   1.3310 B(  8-C , 20-H ) :   0.9720
B(  9-C , 10-C ) :   1.3309 B(  9-C , 13-Cl) :   0.9629 B( 10-C , 11-C ) :   1.3368
B( 10-C , 21-H ) :   0.9720 B( 11-C , 12-Cl) :   1.0257

Dispersion correction           -0.036874966
FINAL SINGLE POINT ENERGY     -1840.126361666920

DIPOLE MOMENT
-------------

Method             : SCF
Type of density    : Electron Density
Multiplicity       :   1
Irrep              :   0
Energy             : -1840.1651657440352210 Eh
Relativity type    :
Basis              : AO
                                X                 Y                 Z
Electronic contribution:     16.651266068       0.001445784      -0.002558178
Nuclear contribution   :    -16.890730344      -0.001797971       0.002626724
                        -----------------------------------------
Total Dipole Moment    :     -0.239464276      -0.000352186       0.000068546
                        -----------------------------------------
Magnitude (a.u.)       :      0.239464544
Magnitude (Debye)      :      0.608670500

Rotational constants in cm-1:             0.024721             0.009642             0.007362
Rotational constants in MHz :           741.125621           289.067304           220.704846

                             ****ORCA TERMINATED NORMALLY****
TOTAL RUN TIME: 0 days 0 hours 0 minutes 11 seconds 805 msec
