                         Program Version 6.0.0  -   RELEASE  -
|  1> ! r2scan-3c def2/J RI DEFGRID2 scfconv6 printgap
|  2> %output
|  3>     printlevel normal
|  4> end
|  5> * xyz 0 1
|  6> C -1.4465740234 -0.0983880751 3.0816e-06
|  7> C 0.0531514849 0.0734417777 -5.44106e-05
|  8> O 0.6027193371 1.1716307893 1.737e-06
|  9> N 0.7500455952 -1.0709473027 -1.1965e-06
| 10> H -1.7537685267 -0.6532602161 -0.8821613188
| 11> H -1.7542330577 -0.645484725 0.886898374
| 12> H -1.9213568629 0.8779787372 -0.0043038665
| 13> H 1.7562037705 -1.0343266555 0.0003306732
| 14> H 0.2872545966 -1.963095166 -0.000163164
| 15> *
| 16>
| 17>                          ****END OF INPUT****

CARTESIAN COORDINATES (ANGSTROEM)
---------------------------------
  C     -1.446574   -0.098388    0.000003
  C      0.053151    0.073442   -0.000054
  O      0.602719    1.171631    0.000002
  N      0.750046   -1.070947   -0.000001
  H     -1.753769   -0.653260   -0.882161
  H     -1.754233   -0.645485    0.886898
  H     -1.921357    0.877979   -0.004304
  H      1.756204   -1.034327    0.000331
  H      0.287255   -1.963095   -0.000163

 Total Charge           Charge          ....    0
 Multiplicity           Mult            ....    1
 Number of Electrons    NEL             ....   32
 Basis Dimension        Dim             ....  111

ORBITAL ENERGIES
----------------

  NO   OCC          E(Eh)            E(eV)
   0   2.0000     -18.908344      -514.5222
   1   2.0000     -14.184641      -385.9837
   2   2.0000     -10.130890      -275.6755
   3   2.0000     -10.036253      -273.1003
   4   2.0000      -0.993581       -27.0367
   5   2.0000      -0.878217       -23.8975
   6   2.0000      -0.710093       -19.3226
   7   2.0000      -0.564178       -15.3521
   8   2.0000      -0.513750       -13.9798
   9   2.0000      -0.436948       -11.8900
  10   2.0000      -0.421993       -11.4830
  11   2.0000      -0.373204       -10.1554
  12   2.0000      -0.362980        -9.8772
  13   2.0000      -0.341052        -9.2805
  14   2.0000      -0.245949        -6.6926
  15   2.0000      -0.215262        -5.8576
  16   0.0000       0.000090         0.0025
  17   0.0000       0.064531         1.7560
  18   0.0000       0.118057         3.2125
  19   0.0000       0.126014         3.4290
  20   0.0000       0.151772         4.1299

MULLIKEN ATOMIC CHARGES
-----------------------
   0 C :   -0.539831
   1 C :    0.324226
   2 O :   -0.418360
   3 N :   -0.367239
   4 H :    0.159711
   5 H :    0.160138
   6 H :    0.182257
   7 H :    0.246654
   8 H :    0.252443
Sum of atomic charges:    0.0000000

LOEWDIN ATOMIC CHARGES
----------------------
   0 C :   -0.359086
   1 C :    0.291221
   2 O :   -0.465449
   3 N :   -0.505066
   4 H :    0.169500
   5 H :    0.169680
   6 H :    0.178313
   7 H :    0.262594
   8 H :    0.258292

  Mayer bond orders larger than 0.100000
B(  0-C ,  1-C ) :   0.9357 B(  0-C ,  4-H ) :   0.9571 B(  0-C ,  5-H ) :   0.9567
B(  0-C ,  6-H ) :   0.9707 B(  1-C ,  2-O ) :   1.9458 B(  1-C ,  3-N ) :   1.1269
B(  3-N ,  7-H ) :   0.9165 B(  3-N ,  8-H ) :   0.9182

Dispersion correction           -0.001500052
FINAL SINGLE POINT ENERGY      -209.172927171234

DIPOLE MOMENT
-------------

Method             : SCF
Type of density    : Electron Density
Multiplicity       :   1
Irrep              :   0
Energy             :  -209.1784467834215775 Eh
Relativity type    :
Basis              : AO
                                X                 Y                 Z
Electronic contribution:      2.784647299       1.647156542      -0.000300685
Nuclear contribution   :     -3.163480504      -3.195353262       0.000563578
                        -----------------------------------------
Total Dipole Moment    :     -0.378833205      -1.548196721       0.000262893
                        -----------------------------------------
Magnitude (a.u.)       :      1.593871937
Magnitude (Debye)      :      4.051300502

Rotational constants in cm-1:             0.363502             0.314787             0.174197
Rotational constants in MHz :         10897.515878          9437.072083          5222.288726

                             ****ORCA TERMINATED NORMALLY****
TOTAL RUN TIME: 0 days 0 hours 0 minutes 11 seconds 447 msec
