                         Program Version 6.0.0  -   RELEASE  -
|  1> ! r2scan-3c def2/J RI DEFGRID2 scfconv6 printgap
|  2> %output
|  3>     printlevel normal
|  4> end
|  5> %cpcm
|  6>     smd true
|  7>     smdsolvent "water"
|  8> end
|  9> * xyz 0 1
| 10> C -1.4465740234 -0.0983880751 3.0816e-06
| 11> C 0.0531514849 0.0734417777 -5.44106e-05
| 12> O 0.6027193371 1.1716307893 1.737e-06
| 13> N 0.7500455952 -1.0709473027 -1.1965e-06
| 14> H -1.7537685267 -0.6532602161 -0.8821613188
| 15> H -1.7542330577 -0.645484725 0.886898374
| 16> H -1.9213568629 0.8779787372 -0.0043038665
| 17> H 1.7562037705 -1.0343266555 0.0003306732
| 18> H 0.2872545966 -1.963095166 -0.000163164
| 19> *
| 20>
| 21>                          ****END OF INPUT****

CARTESIAN COORDINATES (ANGSTROEM)
---------------------------------
  C     -1.446574   -0.098388    0.000003
  C      0.053151    0.073442   -0.000054
  O      0.602719    1.171631    0.000002
  N      0.750046   -1.070947   -0.000001
  H     -1.753769   -0.653260   -0.882161
  H     -1.754233   -0.645485    0.886898
  H     -1.921357    0.877979   -0.004304
  H      1.756204   -1.034327    0.000331
  H      0.287255   -1.963095   -0.000163

 Total Charge           Charge          ....    0
 Multiplicity           Mult            ....    1
 Number of Electrons    NEL             ....   32
 Basis Dimension        Dim             ....  111

ORBITAL ENERGIES
----------------

  NO   OCC          E(Eh)            E(eV)
   0   2.0000     -18.923937      -514.9465
   1   2.0000     -14.175732      -385.7413
   2   2.0000     -10.137241      -275.8484
   3   2.0000     -10.024205      -272.7725
   4   2.0000      -1.007996       -27.4290
   5   2.0000      -0.872985       -23.7551
   6   2.0000      -0.700497       -19.0615
   7   2.0000      -0.555406       -15.1134
   8   2.0000      -0.499698       -13.5975
   9   2.0000      -0.442673       -12.0458
  10   2.0000      -0.416927       -11.3452
  11   2.0000      -0.378532       -10.3004
  12   2.0000      -0.360261        -9.8032
  13   2.0000      -0.339754        -9.2452
  14   2.0000      -0.250749        -6.8232
  15   2.0000      -0.234699        -6.3865
  16   0.0000      -0.004311        -0.1173
  17   0.0000       0.082716         2.2508
  18   0.0000       0.134848         3.6694
  19   0.0000       0.146850         3.9960
  20   0.0000       0.165303         4.4981

MULLIKEN ATOMIC CHARGES
-----------------------
   0 C :   -0.548174
   1 C :    0.345955
   2 O :   -0.548077
   3 N :   -0.420403
   4 H :    0.189767
   5 H :    0.190058
   6 H :    0.178356
   7 H :    0.295780
   8 H :    0.316741
Sum of atomic charges:    0.0000000

LOEWDIN ATOMIC CHARGES
----------------------
   0 C :   -0.355521
   1 C :    0.295097
   2 O :   -0.566323
   3 N :   -0.468869
   4 H :    0.184052
   5 H :    0.184166
   6 H :    0.175028
   7 H :    0.274347
   8 H :    0.278025

  Mayer bond orders larger than 0.100000
B(  0-C ,  1-C ) :   0.9603 B(  0-C ,  4-H ) :   0.9411 B(  0-C ,  5-H ) :   0.9407
B(  0-C ,  6-H ) :   0.9728 B(  1-C ,  2-O ) :   1.8288 B(  1-C ,  3-N ) :   1.2013
B(  3-N ,  7-H ) :   0.8933 B(  3-N ,  8-H ) :   0.8902

Dispersion correction           -0.001500052
FINAL SINGLE POINT ENERGY      -209.189167865600

DIPOLE MOMENT
-------------

Method             : SCF
Type of density    : Electron Density
Multiplicity       :   1
Irrep              :   0
Energy             :  -209.1946874777872267 Eh
Relativity type    :
Basis              : AO
                                X                 Y                 Z
Electronic contribution:      2.614851349       0.978563404      -0.000189032
Nuclear contribution   :     -3.163480504      -3.195353262       0.000563578
                        -----------------------------------------
Total Dipole Moment    :     -0.548629155      -2.216789858       0.000374546
                        -----------------------------------------
Magnitude (a.u.)       :      2.283670590
Magnitude (Debye)      :      5.804629339

Rotational constants in cm-1:             0.363502             0.314787             0.174197
Rotational constants in MHz :         10897.515878          9437.072083          5222.288726

                             ****ORCA TERMINATED NORMALLY****
TOTAL RUN TIME: 0 days 0 hours 0 minutes 11 seconds 593 msec
