                         Program Version 6.0.0  -   RELEASE  -
|  1> ! pbe def2-sv(p) def2/J RI DEFGRID1 loosescf d4 GCP(DFT/SV(P)) printgap
|  2> %output
|  3>     printlevel normal
|  4> end
|  5> * xyz 0 1
|  6> C -2.5287480061 0.1168832739 -1.4307021426
|  7> C -2.0502455162 0.4579039427 -0.0115578085
|  8> H -2.9364872083 0.6314978752 0.6071383435
|  9> C -1.1369010179 1.7005497706 0.0024623675
| 10> C 0.2955082879 1.3682210983 0.4115432706
| 11> C 0.7952355328 0.1793090171 -0.4109475692
| 12> H 0.5802682999 0.3846908114 -1.4637688815
| 13> C 0.0164884026 -1.0709693392 0.0293743008
| 14> C -1.3680695725 -0.7733521442 0.5346288556
| 15> O -1.9333888311 -1.5205942572 1.313041318
| 16> C 2.2816843293 -0.0578647962 -0.2820020453
| 17> C 3.0246817766 -0.3106740217 -1.3485764808
| 18> C 2.8696657567 0.0022217881 1.0949024795
| 19> H -1.6853376879 -0.0583194749 -2.0921742677
| 20> H -3.1515908347 -0.7752837632 -1.4143820163
| 21> H -3.1180168197 0.9415237944 -1.8227004137
| 22> H -1.1267335006 2.1463595863 -0.9931296837
| 23> H -1.5432443748 2.441724115 0.6912381057
| 24> H 0.9307279524 2.2384084193 0.2413563721
| 25> H 0.3278908581 1.1194656812 1.4740302631
| 26> H -0.0872561358 -1.7708961402 -0.8033938342
| 27> H 0.5448609851 -1.6101810867 0.8186400317
| 28> H 4.0822836441 -0.4982877792 -1.2735771137
| 29> H 2.6087244423 -0.3404039482 -2.3414661569
| 30> H 3.8815398319 -0.3930922177 1.0963471679
| 31> H 2.9037661444 1.0337845817 1.442245779
| 32> H 2.2704669765 -0.5657814339 1.8035770851
| 33> *
| 34>
| 35>                          ****END OF INPUT****

CARTESIAN COORDINATES (ANGSTROEM)
---------------------------------
  C     -2.528748    0.116883   -1.430702
  C     -2.050246    0.457904   -0.011558
  H     -2.936487    0.631498    0.607138
  C     -1.136901    1.700550    0.002462
  C      0.295508    1.368221    0.411543
  C      0.795236    0.179309   -0.410948
  H      0.580268    0.384691   -1.463769
  C      0.016488   -1.070969    0.029374
  C     -1.368070   -0.773352    0.534629
  O     -1.933389   -1.520594    1.313041
  C      2.281684   -0.057865   -0.282002
  C      3.024682   -0.310674   -1.348576
  C      2.869666    0.002222    1.094902
  H     -1.685338   -0.058319   -2.092174
  H     -3.151591   -0.775284   -1.414382
  H     -3.118017    0.941524   -1.822700
  H     -1.126734    2.146360   -0.993130
  H     -1.543244    2.441724    0.691238
  H      0.930728    2.238408    0.241356
  H      0.327891    1.119466    1.474030
  H     -0.087256   -1.770896   -0.803394
  H      0.544861   -1.610181    0.818640
  H      4.082284   -0.498288   -1.273577
  H      2.608724   -0.340404   -2.341466
  H      3.881540   -0.393092    1.096347
  H      2.903766    1.033785    1.442246
  H      2.270467   -0.565781    1.803577

 Total Charge           Charge          ....    0
 Multiplicity           Mult            ....    1
 Number of Electrons    NEL             ....   84
 Basis Dimension        Dim             ....  186

ORBITAL ENERGIES
----------------

  NO   OCC          E(Eh)            E(eV)
   0   2.0000     -18.735772      -509.8263
   1   2.0000      -9.969361      -271.2801
   2   2.0000      -9.906268      -269.5633
   3   2.0000      -9.903780      -269.4956
   4   2.0000      -9.901435      -269.4318
   5   2.0000      -9.895313      -269.2652
   6   2.0000      -9.894999      -269.2566
   7   2.0000      -9.894819      -269.2517
   8   2.0000      -9.891657      -269.1657
   9   2.0000      -9.886077      -269.0138
  10   2.0000      -9.876282      -268.7473
  11   2.0000      -0.931320       -25.3425
  12   2.0000      -0.774452       -21.0739
  13   2.0000      -0.730619       -19.8812
  14   2.0000      -0.683980       -18.6121
  15   2.0000      -0.666463       -18.1354
  16   2.0000      -0.620389       -16.8817
  17   2.0000      -0.603377       -16.4187
  18   2.0000      -0.555595       -15.1185
  19   2.0000      -0.540551       -14.7091
  20   2.0000      -0.480981       -13.0882
  21   2.0000      -0.461200       -12.5499
  22   2.0000      -0.440430       -11.9847
  23   2.0000      -0.418732       -11.3943
  24   2.0000      -0.417864       -11.3706
  25   2.0000      -0.400352       -10.8941
  26   2.0000      -0.394773       -10.7423
  27   2.0000      -0.382527       -10.4091
  28   2.0000      -0.367103        -9.9894
  29   2.0000      -0.363881        -9.9017
  30   2.0000      -0.352507        -9.5922
  31   2.0000      -0.350468        -9.5367
  32   2.0000      -0.345787        -9.4094
  33   2.0000      -0.329837        -8.9753
  34   2.0000      -0.316286        -8.6066
  35   2.0000      -0.312109        -8.4929
  36   2.0000      -0.308095        -8.3837
  37   2.0000      -0.295227        -8.0335
  38   2.0000      -0.279915        -7.6169
  39   2.0000      -0.277026        -7.5383
  40   2.0000      -0.222946        -6.0667
  41   2.0000      -0.188380        -5.1261
  42   0.0000      -0.052030        -1.4158
  43   0.0000      -0.014545        -0.3958
  44   0.0000       0.025222         0.6863
  45   0.0000       0.040931         1.1138
  46   0.0000       0.050878         1.3845

MULLIKEN ATOMIC CHARGES
-----------------------
   0 C :   -0.278321
   1 C :   -0.134374
   2 H :    0.072999
   3 C :   -0.075551
   4 C :   -0.143499
   5 C :   -0.153692
   6 H :    0.057338
   7 C :   -0.103907
   8 C :   -0.010698
   9 O :   -0.161466
  10 C :   -0.025682
  11 C :   -0.231457
  12 C :   -0.224152
  13 H :    0.111603
  14 H :    0.118093
  15 H :    0.117257
  16 H :    0.073804
  17 H :    0.089512
  18 H :    0.095699
  19 H :    0.093502
  20 H :    0.116015
  21 H :    0.101713
  22 H :    0.080440
  23 H :    0.081956
  24 H :    0.102131
  25 H :    0.117937
  26 H :    0.112800
Sum of atomic charges:   -0.0000000

LOEWDIN ATOMIC CHARGES
----------------------
   0 C :   -0.319473
   1 C :   -0.169622
   2 H :    0.129191
   3 C :   -0.211429
   4 C :   -0.217067
   5 C :   -0.131961
   6 H :    0.118729
   7 C :   -0.233260
   8 C :    0.049059
   9 O :   -0.134725
  10 C :   -0.048402
  11 C :   -0.266674
  12 C :   -0.323038
  13 H :    0.117802
  14 H :    0.126123
  15 H :    0.125549
  16 H :    0.117573
  17 H :    0.124071
  18 H :    0.122597
  19 H :    0.120982
  20 H :    0.147811
  21 H :    0.138076
  22 H :    0.117110
  23 H :    0.115924
  24 H :    0.127361
  25 H :    0.132318
  26 H :    0.125376

  Mayer bond orders larger than 0.100000
B(  0-C ,  1-C ) :   1.0824 B(  0-C , 13-H ) :   0.9455 B(  0-C , 14-H ) :   0.9448
B(  0-C , 15-H ) :   0.9431 B(  1-C ,  2-H ) :   0.8742 B(  1-C ,  3-C ) :   1.0262
B(  1-C ,  8-C ) :   1.0158 B(  3-C ,  4-C ) :   1.1872 B(  3-C , 16-H ) :   0.9058
B(  3-C , 17-H ) :   0.9097 B(  4-C ,  5-C ) :   1.1248 B(  4-C , 18-H ) :   0.9201
B(  4-C , 19-H ) :   0.8757 B(  5-C ,  6-H ) :   0.8619 B(  5-C ,  7-C ) :   1.0333
B(  5-C , 10-C ) :   1.0116 B(  7-C ,  8-C ) :   1.0051 B(  7-C , 20-H ) :   0.8774
B(  7-C , 21-H ) :   0.8834 B(  8-C ,  9-O ) :   2.1893 B( 10-C , 11-C ) :   2.0427
B( 10-C , 12-C ) :   1.1179 B( 11-C , 22-H ) :   0.9029 B( 11-C , 23-H ) :   0.9094
B( 12-C , 24-H ) :   0.9356 B( 12-C , 25-H ) :   0.9208 B( 12-C , 26-H ) :   0.9263

Dispersion correction           -0.028686902
FINAL SINGLE POINT ENERGY      -464.822154645303

DIPOLE MOMENT
-------------

Method             : SCF
Type of density    : Electron Density
Multiplicity       :   1
Irrep              :   0
Energy             :  -464.9077033455528181 Eh
Relativity type    :
Basis              : AO
                                X                 Y                 Z
Electronic contribution:     -3.792005442      -3.881939594       3.222361602
Nuclear contribution   :      4.176063739       4.598117784      -3.761358416
                        -----------------------------------------
Total Dipole Moment    :      0.384058297       0.716178190      -0.538996814
                        -----------------------------------------
Magnitude (a.u.)       :      0.975156162
Magnitude (Debye)      :      2.478649983

Rotational constants in cm-1:             0.061603             0.023923             0.022223
Rotational constants in MHz :          1846.799157           717.201169           666.235434

                             ****ORCA TERMINATED NORMALLY****
TOTAL RUN TIME: 0 days 0 hours 0 minutes 17 seconds 420 msec
