                         Program Version 6.0.0  -   RELEASE  -
|  1> ! pbe def2-sv(p) def2/J RI DEFGRID1 loosescf d4 GCP(DFT/SV(P)) printgap
|  2> %output
|  3>     printlevel normal
|  4> end
|  5> * xyz 0 1
|  6> C -2.9066938375 1.4629808204 -0.0001838781
|  7> C -1.8047606499 0.4540506448 -0.0001731287
|  8> C -2.0996153526 -0.9103694164 0.0001655839
|  9> C -1.0971000206 -1.8672575298 0.0003277848
| 10> C 0.2301501114 -1.4834898094 0.0001266424
| 11> C 0.5304936842 -0.1232441028 -8.42395e-05
| 12> C -0.4750442448 0.841897263 -0.0002289627
| 13> N 1.8889551188 0.290716281 -3.28185e-05
| 14> O 2.7630522598 -0.5652092336 -0.0005667522
| 15> O 2.13866133 1.488083366 0.0006617432
| 16> H -3.5325496445 1.333003435 0.8801305216
| 17> H -2.5093397212 2.4731551056 -0.0027897737
| 18> H -3.5359371173 1.3296341044 -0.8775487702
| 19> H -3.1329463239 -1.2217186698 0.0001367875
| 20> H -1.3504851937 -2.914987027 0.000187118
| 21> H 1.0330803935 -2.203148117 0.0001595096
| 22> H -0.1951700289 1.8843441226 -0.0007290036
| 23> *
| 24>
| 25>                          ****END OF INPUT****

CARTESIAN COORDINATES (ANGSTROEM)
---------------------------------
  C     -2.906694    1.462981   -0.000184
  C     -1.804761    0.454051   -0.000173
  C     -2.099615   -0.910369    0.000166
  C     -1.097100   -1.867258    0.000328
  C      0.230150   -1.483490    0.000127
  C      0.530494   -0.123244   -0.000084
  C     -0.475044    0.841897   -0.000229
  N      1.888955    0.290716   -0.000033
  O      2.763052   -0.565209   -0.000567
  O      2.138661    1.488083    0.000662
  H     -3.532550    1.333003    0.880131
  H     -2.509340    2.473155   -0.002790
  H     -3.535937    1.329634   -0.877549
  H     -3.132946   -1.221719    0.000137
  H     -1.350485   -2.914987    0.000187
  H      1.033080   -2.203148    0.000160
  H     -0.195170    1.884344   -0.000729

 Total Charge           Charge          ....    0
 Multiplicity           Mult            ....    1
 Number of Electrons    NEL             ....   72
 Basis Dimension        Dim             ....  154

ORBITAL ENERGIES
----------------

  NO   OCC          E(Eh)            E(eV)
   0   2.0000     -18.771399      -510.7957
   1   2.0000     -18.770764      -510.7784
   2   2.0000     -14.206069      -386.5668
   3   2.0000      -9.951674      -270.7988
   4   2.0000      -9.930972      -270.2355
   5   2.0000      -9.921281      -269.9718
   6   2.0000      -9.919592      -269.9258
   7   2.0000      -9.919034      -269.9106
   8   2.0000      -9.918132      -269.8861
   9   2.0000      -9.902277      -269.4547
  10   2.0000      -1.124784       -30.6069
  11   2.0000      -0.951897       -25.9024
  12   2.0000      -0.814883       -22.1741
  13   2.0000      -0.746978       -20.3263
  14   2.0000      -0.714787       -19.4503
  15   2.0000      -0.645963       -17.5775
  16   2.0000      -0.632415       -17.2089
  17   2.0000      -0.560431       -15.2501
  18   2.0000      -0.519232       -14.1290
  19   2.0000      -0.492317       -13.3966
  20   2.0000      -0.486711       -13.2441
  21   2.0000      -0.457620       -12.4525
  22   2.0000      -0.454771       -12.3749
  23   2.0000      -0.427037       -11.6203
  24   2.0000      -0.410136       -11.1604
  25   2.0000      -0.400055       -10.8861
  26   2.0000      -0.389564       -10.6006
  27   2.0000      -0.363137        -9.8815
  28   2.0000      -0.344706        -9.3799
  29   2.0000      -0.340056        -9.2534
  30   2.0000      -0.324893        -8.8408
  31   2.0000      -0.266824        -7.2607
  32   2.0000      -0.257919        -7.0183
  33   2.0000      -0.254865        -6.9352
  34   2.0000      -0.246587        -6.7100
  35   2.0000      -0.227552        -6.1920
  36   0.0000      -0.117203        -3.1893
  37   0.0000      -0.056852        -1.5470
  38   0.0000      -0.033245        -0.9047
  39   0.0000       0.032395         0.8815
  40   0.0000       0.051593         1.4039

MULLIKEN ATOMIC CHARGES
-----------------------
   0 C :   -0.221037
   1 C :    0.044068
   2 C :   -0.074858
   3 C :   -0.045208
   4 C :   -0.120653
   5 C :    0.228569
   6 C :   -0.191245
   7 N :    0.201888
   8 O :   -0.218832
   9 O :   -0.218232
  10 H :    0.123985
  11 H :    0.112802
  12 H :    0.123883
  13 H :    0.051478
  14 H :    0.067925
  15 H :    0.073319
  16 H :    0.062149
Sum of atomic charges:   -0.0000000

LOEWDIN ATOMIC CHARGES
----------------------
   0 C :   -0.321322
   1 C :   -0.040411
   2 C :   -0.097575
   3 C :   -0.111803
   4 C :   -0.107207
   5 C :   -0.040293
   6 C :   -0.105234
   7 N :    0.255981
   8 O :   -0.190224
   9 O :   -0.190857
  10 H :    0.137590
  11 H :    0.130128
  12 H :    0.137528
  13 H :    0.127916
  14 H :    0.132115
  15 H :    0.142946
  16 H :    0.140723

  Mayer bond orders larger than 0.100000
B(  0-C ,  1-C ) :   1.1000 B(  0-C , 10-H ) :   0.9331 B(  0-C , 11-H ) :   0.9439
B(  0-C , 12-H ) :   0.9332 B(  1-C ,  2-C ) :   1.3709 B(  1-C ,  6-C ) :   1.3429
B(  2-C ,  3-C ) :   1.3687 B(  2-C , 13-H ) :   0.9674 B(  3-C ,  4-C ) :   1.3239
B(  3-C , 14-H ) :   0.9636 B(  4-C ,  5-C ) :   1.3799 B(  4-C , 15-H ) :   0.9502
B(  5-C ,  6-C ) :   1.3377 B(  5-C ,  7-N ) :   0.8883 B(  6-C , 16-H ) :   0.9487
B(  7-N ,  8-O ) :   1.5355 B(  7-N ,  9-O ) :   1.5340 B(  8-O ,  9-O ) :   0.3009

Dispersion correction           -0.017907544
FINAL SINGLE POINT ENERGY      -475.107944545281

DIPOLE MOMENT
-------------

Method             : SCF
Type of density    : Electron Density
Multiplicity       :   1
Irrep              :   0
Energy             :  -475.1583550155992839 Eh
Relativity type    :
Basis              : AO
                                X                 Y                 Z
Electronic contribution:     10.479607578      -1.035624358       0.000407192
Nuclear contribution   :    -12.322807399       0.653485256      -0.000424338
                        -----------------------------------------
Total Dipole Moment    :     -1.843199821      -0.382139102      -0.000017146
                        -----------------------------------------
Magnitude (a.u.)       :      1.882396312
Magnitude (Debye)      :      4.784671181

Rotational constants in cm-1:             0.090290             0.033318             0.024447
Rotational constants in MHz :          2706.833285           998.839993           732.904297

                             ****ORCA TERMINATED NORMALLY****
TOTAL RUN TIME: 0 days 0 hours 0 minutes 8 seconds 989 msec
