                         Program Version 6.0.0  -   RELEASE  -
|  1> ! pbe def2-sv(p) def2/J RI DEFGRID1 loosescf d4 GCP(DFT/SV(P)) printgap
|  2> %output
|  3>     printlevel normal
|  4> end
|  5> * xyz 0 1
|  6> C -2.3798078582 -1.1785130029 -0.3200185316
|  7> C -1.0661532354 -0.628428482 0.2453955995
|  8> H -1.1152564509 -0.6204805636 1.3459594991
|  9> C -0.7887926403 0.8059966534 -0.2342177957
| 10> H -0.8353110563 0.8282493581 -1.3359575599
| 11> C 0.6201634959 1.2311846469 0.2006362958
| 12> H 0.6305141765 1.3107577957 1.2997614066
| 13> C 1.6639517622 0.1932677699 -0.2244936549
| 14> H 1.7055076047 0.1719083852 -1.3251927666
| 15> C 1.2406221949 -1.1973723652 0.2847431581
| 16> H 1.2546343379 -1.1875333225 1.386263062
| 17> O -0.053212691 -1.5102538926 -0.1937443301
| 18> O 2.0891109816 -2.2076206876 -0.0986578002
| 19> O 2.9259053451 0.4888794231 0.3098321438
| 20> O 0.9887262156 2.4618725295 -0.3735606503
| 21> O -1.6848649928 1.7411078348 0.3122223165
| 22> O -3.4485957037 -0.3887030078 0.1469130653
| 23> H -2.4742264735 -2.2191660691 0.0076039036
| 24> H -2.3200753634 -1.1570911134 -1.4150850786
| 25> H 2.0770304866 -2.3021095753 -1.0647479208
| 26> H 3.1429367749 1.4063130844 0.0802218368
| 27> H 0.2930635193 3.1078417638 -0.1809788575
| 28> H -2.5812802402 1.3625485441 0.2905755008
| 29> H -4.286526983 -0.7699694603 -0.1520478578
| 30> *
| 31>
| 32>                          ****END OF INPUT****

CARTESIAN COORDINATES (ANGSTROEM)
---------------------------------
  C     -2.379808   -1.178513   -0.320019
  C     -1.066153   -0.628428    0.245396
  H     -1.115256   -0.620481    1.345959
  C     -0.788793    0.805997   -0.234218
  H     -0.835311    0.828249   -1.335958
  C      0.620163    1.231185    0.200636
  H      0.630514    1.310758    1.299761
  C      1.663952    0.193268   -0.224494
  H      1.705508    0.171908   -1.325193
  C      1.240622   -1.197372    0.284743
  H      1.254634   -1.187533    1.386263
  O     -0.053213   -1.510254   -0.193744
  O      2.089111   -2.207621   -0.098658
  O      2.925905    0.488879    0.309832
  O      0.988726    2.461873   -0.373561
  O     -1.684865    1.741108    0.312222
  O     -3.448596   -0.388703    0.146913
  H     -2.474226   -2.219166    0.007604
  H     -2.320075   -1.157091   -1.415085
  H      2.077030   -2.302110   -1.064748
  H      3.142937    1.406313    0.080222
  H      0.293064    3.107842   -0.180979
  H     -2.581280    1.362549    0.290576
  H     -4.286527   -0.769969   -0.152048

 Total Charge           Charge          ....    0
 Multiplicity           Mult            ....    1
 Number of Electrons    NEL             ....   96
 Basis Dimension        Dim             ....  192

ORBITAL ENERGIES
----------------

  NO   OCC          E(Eh)            E(eV)
   0   2.0000     -18.785633      -511.1831
   1   2.0000     -18.772885      -510.8362
   2   2.0000     -18.753402      -510.3060
   3   2.0000     -18.751210      -510.2464
   4   2.0000     -18.745092      -510.0799
   5   2.0000     -18.741794      -509.9901
   6   2.0000      -9.983421      -271.6627
   7   2.0000      -9.950235      -270.7597
   8   2.0000      -9.950144      -270.7572
   9   2.0000      -9.938606      -270.4432
  10   2.0000      -9.936319      -270.3810
  11   2.0000      -9.934785      -270.3392
  12   2.0000      -0.981869       -26.7180
  13   2.0000      -0.957683       -26.0599
  14   2.0000      -0.939791       -25.5730
  15   2.0000      -0.924572       -25.1589
  16   2.0000      -0.912230       -24.8230
  17   2.0000      -0.908021       -24.7085
  18   2.0000      -0.703177       -19.1344
  19   2.0000      -0.693572       -18.8730
  20   2.0000      -0.622052       -16.9269
  21   2.0000      -0.577237       -15.7074
  22   2.0000      -0.559341       -15.2204
  23   2.0000      -0.532990       -14.5034
  24   2.0000      -0.513036       -13.9604
  25   2.0000      -0.493717       -13.4347
  26   2.0000      -0.472303       -12.8520
  27   2.0000      -0.462269       -12.5790
  28   2.0000      -0.442259       -12.0345
  29   2.0000      -0.433863       -11.8060
  30   2.0000      -0.413516       -11.2524
  31   2.0000      -0.405559       -11.0358
  32   2.0000      -0.400103       -10.8874
  33   2.0000      -0.384559       -10.4644
  34   2.0000      -0.352880        -9.6024
  35   2.0000      -0.347921        -9.4674
  36   2.0000      -0.329288        -8.9604
  37   2.0000      -0.319597        -8.6967
  38   2.0000      -0.307804        -8.3758
  39   2.0000      -0.301605        -8.2071
  40   2.0000      -0.281756        -7.6670
  41   2.0000      -0.269718        -7.3394
  42   2.0000      -0.248786        -6.7698
  43   2.0000      -0.241822        -6.5803
  44   2.0000      -0.231860        -6.3092
  45   2.0000      -0.221968        -6.0401
  46   2.0000      -0.211206        -5.7472
  47   2.0000      -0.207730        -5.6526
  48   0.0000      -0.001485        -0.0404
  49   0.0000       0.030928         0.8416
  50   0.0000       0.035226         0.9585
  51   0.0000       0.051239         1.3943
  52   0.0000       0.060745         1.6530

MULLIKEN ATOMIC CHARGES
-----------------------
   0 C :    0.075374
   1 C :   -0.015246
   2 H :    0.064743
   3 C :    0.047533
   4 H :    0.043735
   5 C :    0.064917
   6 H :    0.053691
   7 C :    0.047492
   8 H :    0.037387
   9 C :    0.205327
  10 H :    0.054919
  11 O :   -0.310179
  12 O :   -0.365068
  13 O :   -0.410456
  14 O :   -0.427955
  15 O :   -0.438934
  16 O :   -0.446196
  17 H :    0.094521
  18 H :    0.075354
  19 H :    0.300731
  20 H :    0.308644
  21 H :    0.312728
  22 H :    0.308004
  23 H :    0.318934
Sum of atomic charges:   -0.0000000

LOEWDIN ATOMIC CHARGES
----------------------
   0 C :   -0.122484
   1 C :   -0.066553
   2 H :    0.107718
   3 C :   -0.079276
   4 H :    0.099039
   5 C :   -0.077307
   6 H :    0.104743
   7 C :   -0.087711
   8 H :    0.097746
   9 C :    0.009453
  10 H :    0.101911
  11 O :   -0.153857
  12 O :   -0.276994
  13 O :   -0.315915
  14 O :   -0.326367
  15 O :   -0.335843
  16 O :   -0.331026
  17 H :    0.108637
  18 H :    0.101992
  19 H :    0.287698
  20 H :    0.288727
  21 H :    0.291619
  22 H :    0.276152
  23 H :    0.297897

  Mayer bond orders larger than 0.100000
B(  0-C ,  1-C ) :   1.0594 B(  0-C , 16-O ) :   1.0467 B(  0-C , 17-H ) :   0.9186
B(  0-C , 18-H ) :   0.9073 B(  1-C ,  2-H ) :   0.8742 B(  1-C ,  3-C ) :   1.0126
B(  1-C , 11-O ) :   0.9983 B(  3-C ,  4-H ) :   0.8655 B(  3-C ,  5-C ) :   1.0085
B(  3-C , 15-O ) :   1.0801 B(  5-C ,  6-H ) :   0.8748 B(  5-C ,  7-C ) :   1.0153
B(  5-C , 14-O ) :   1.0787 B(  7-C ,  8-H ) :   0.8594 B(  7-C ,  9-C ) :   0.9882
B(  7-C , 13-O ) :   1.0884 B(  9-C , 10-H ) :   0.8780 B(  9-C , 11-O ) :   0.9887
B(  9-C , 12-O ) :   1.1692 B( 12-O , 19-H ) :   0.8429 B( 13-O , 20-H ) :   0.8377
B( 14-O , 21-H ) :   0.8358 B( 15-O , 22-H ) :   0.8033 B( 16-O , 22-H ) :   0.1039
B( 16-O , 23-H ) :   0.8405

Dispersion correction           -0.023785837
FINAL SINGLE POINT ENERGY      -685.702698817423

DIPOLE MOMENT
-------------

Method             : SCF
Type of density    : Electron Density
Multiplicity       :   1
Irrep              :   0
Energy             :  -685.8335107664614725 Eh
Relativity type    :
Basis              : AO
                                X                 Y                 Z
Electronic contribution:      2.659564651      -0.003260863       0.295565487
Nuclear contribution   :     -4.218094904      -0.055810875      -0.996335071
                        -----------------------------------------
Total Dipole Moment    :     -1.558530253      -0.059071738      -0.700769584
                        -----------------------------------------
Magnitude (a.u.)       :      1.709849125
Magnitude (Debye)      :      4.346091087

Rotational constants in cm-1:             0.043805             0.024603             0.016475
Rotational constants in MHz :          1313.234311           737.587879           493.903807

                             ****ORCA TERMINATED NORMALLY****
TOTAL RUN TIME: 0 days 0 hours 0 minutes 12 seconds 68 msec
