                         Program Version 6.0.0  -   RELEASE  -
|  1> ! pbe def2-sv(p) def2/J RI DEFGRID1 loosescf d4 GCP(DFT/SV(P)) printgap
|  2> %output
|  3>     printlevel normal
|  4> end
|  5> * xyz 0 1
|  6> C -2.529975204 -0.9488867271 0.2895357093
|  7> C -1.10919425 -0.4862849861 0.6209694336
|  8> H -1.0013482789 -0.4260300797 1.7151858645
|  9> C -0.8414107103 0.9079867209 0.0351052612
| 10> H -1.1018241586 0.8808846577 -1.0349431295
| 11> C 0.6404353557 1.2727389491 0.1904597026
| 12> H 0.8572909448 1.4296629553 1.2539181715
| 13> C 1.5427548697 0.1484969488 -0.3339862329
| 14> H 1.3898292174 0.0347707508 -1.4210110391
| 15> C 1.1453865684 -1.1772534766 0.3460892636
| 16> H 1.3394272909 -1.0887127956 1.4277999921
| 17> O -0.2161940961 -1.4489142442 0.1012833153
| 18> O 1.8781458727 -2.2581703838 -0.0876080511
| 19> O 2.8941071273 0.4063455366 -0.0563971955
| 20> O 0.9394258403 2.5011813088 -0.431706405
| 21> O -1.6616717896 1.8222882415 0.7191799652
| 22> O -2.7227954447 -0.8954384681 -1.1045813035
| 23> H -3.2262953119 -0.2783455442 0.8067288221
| 24> H -2.6444232516 -1.9725568839 0.6616188058
| 25> H 1.6308936329 -2.4724189432 -1.0016858679
| 26> H 3.0734804913 1.3437162619 -0.237488245
| 27> H 0.747537273 2.4433974163 -1.3804730468
| 28> H -1.3799359873 2.7224573351 0.4920392574
| 29> H -3.5926595083 -1.26257312 -1.3153721504
| 30> *
| 31>
| 32>                          ****END OF INPUT****

CARTESIAN COORDINATES (ANGSTROEM)
---------------------------------
  C     -2.529975   -0.948887    0.289536
  C     -1.109194   -0.486285    0.620969
  H     -1.001348   -0.426030    1.715186
  C     -0.841411    0.907987    0.035105
  H     -1.101824    0.880885   -1.034943
  C      0.640435    1.272739    0.190460
  H      0.857291    1.429663    1.253918
  C      1.542755    0.148497   -0.333986
  H      1.389829    0.034771   -1.421011
  C      1.145387   -1.177253    0.346089
  H      1.339427   -1.088713    1.427800
  O     -0.216194   -1.448914    0.101283
  O      1.878146   -2.258170   -0.087608
  O      2.894107    0.406346   -0.056397
  O      0.939426    2.501181   -0.431706
  O     -1.661672    1.822288    0.719180
  O     -2.722795   -0.895438   -1.104581
  H     -3.226295   -0.278346    0.806729
  H     -2.644423   -1.972557    0.661619
  H      1.630894   -2.472419   -1.001686
  H      3.073480    1.343716   -0.237488
  H      0.747537    2.443397   -1.380473
  H     -1.379936    2.722457    0.492039
  H     -3.592660   -1.262573   -1.315372

 Total Charge           Charge          ....    0
 Multiplicity           Mult            ....    1
 Number of Electrons    NEL             ....   96
 Basis Dimension        Dim             ....  192

ORBITAL ENERGIES
----------------

  NO   OCC          E(Eh)            E(eV)
   0   2.0000     -18.773602      -510.8557
   1   2.0000     -18.766440      -510.6608
   2   2.0000     -18.753825      -510.3175
   3   2.0000     -18.752519      -510.2820
   4   2.0000     -18.751401      -510.2516
   5   2.0000     -18.747219      -510.1378
   6   2.0000      -9.982983      -271.6508
   7   2.0000      -9.946833      -270.6671
   8   2.0000      -9.945862      -270.6407
   9   2.0000      -9.941339      -270.5176
  10   2.0000      -9.939445      -270.4661
  11   2.0000      -9.932838      -270.2863
  12   2.0000      -0.980055       -26.6687
  13   2.0000      -0.956179       -26.0190
  14   2.0000      -0.933709       -25.4075
  15   2.0000      -0.924464       -25.1559
  16   2.0000      -0.918447       -24.9922
  17   2.0000      -0.908056       -24.7095
  18   2.0000      -0.703994       -19.1566
  19   2.0000      -0.692113       -18.8334
  20   2.0000      -0.616819       -16.7845
  21   2.0000      -0.584757       -15.9120
  22   2.0000      -0.563049       -15.3213
  23   2.0000      -0.536214       -14.5911
  24   2.0000      -0.497777       -13.5452
  25   2.0000      -0.489059       -13.3080
  26   2.0000      -0.468592       -12.7510
  27   2.0000      -0.464206       -12.6317
  28   2.0000      -0.444860       -12.1052
  29   2.0000      -0.427525       -11.6335
  30   2.0000      -0.423883       -11.5344
  31   2.0000      -0.413028       -11.2391
  32   2.0000      -0.391115       -10.6428
  33   2.0000      -0.374348       -10.1865
  34   2.0000      -0.362122        -9.8538
  35   2.0000      -0.345396        -9.3987
  36   2.0000      -0.317541        -8.6407
  37   2.0000      -0.309191        -8.4135
  38   2.0000      -0.303975        -8.2716
  39   2.0000      -0.297446        -8.0939
  40   2.0000      -0.284748        -7.7484
  41   2.0000      -0.278354        -7.5744
  42   2.0000      -0.255447        -6.9511
  43   2.0000      -0.235980        -6.4213
  44   2.0000      -0.232103        -6.3158
  45   2.0000      -0.221470        -6.0265
  46   2.0000      -0.211304        -5.7499
  47   2.0000      -0.207015        -5.6332
  48   0.0000       0.004928         0.1341
  49   0.0000       0.024414         0.6643
  50   0.0000       0.035015         0.9528
  51   0.0000       0.049586         1.3493
  52   0.0000       0.054506         1.4832

MULLIKEN ATOMIC CHARGES
-----------------------
   0 C :    0.074621
   1 C :    0.019236
   2 H :    0.061681
   3 C :    0.048114
   4 H :    0.055697
   5 C :    0.022700
   6 H :    0.067960
   7 C :    0.050269
   8 H :    0.023820
   9 C :    0.206584
  10 H :    0.050620
  11 O :   -0.304218
  12 O :   -0.368710
  13 O :   -0.403166
  14 O :   -0.421080
  15 O :   -0.418475
  16 O :   -0.439059
  17 H :    0.082380
  18 H :    0.081540
  19 H :    0.301629
  20 H :    0.300753
  21 H :    0.300678
  22 H :    0.302825
  23 H :    0.303602
Sum of atomic charges:   -0.0000000

LOEWDIN ATOMIC CHARGES
----------------------
   0 C :   -0.122739
   1 C :   -0.055720
   2 H :    0.109529
   3 C :   -0.080341
   4 H :    0.102694
   5 C :   -0.094838
   6 H :    0.119140
   7 C :   -0.098779
   8 H :    0.090672
   9 C :    0.008036
  10 H :    0.099664
  11 O :   -0.146969
  12 O :   -0.281139
  13 O :   -0.316097
  14 O :   -0.313880
  15 O :   -0.319910
  16 O :   -0.339679
  17 H :    0.107005
  18 H :    0.104479
  19 H :    0.287999
  20 H :    0.281781
  21 H :    0.285286
  22 H :    0.284394
  23 H :    0.289412

  Mayer bond orders larger than 0.100000
B(  0-C ,  1-C ) :   1.0643 B(  0-C , 16-O ) :   1.0839 B(  0-C , 17-H ) :   0.9070
B(  0-C , 18-H ) :   0.9129 B(  1-C ,  2-H ) :   0.8770 B(  1-C ,  3-C ) :   1.0168
B(  1-C , 11-O ) :   0.9966 B(  3-C ,  4-H ) :   0.8576 B(  3-C ,  5-C ) :   1.0240
B(  3-C , 15-O ) :   1.0581 B(  5-C ,  6-H ) :   0.8635 B(  5-C ,  7-C ) :   1.0106
B(  5-C , 14-O ) :   1.0128 B(  7-C ,  8-H ) :   0.8534 B(  7-C ,  9-C ) :   0.9715
B(  7-C , 13-O ) :   1.0937 B(  9-C , 10-H ) :   0.8773 B(  9-C , 11-O ) :   1.0085
B(  9-C , 12-O ) :   1.1604 B( 12-O , 19-H ) :   0.8432 B( 13-O , 20-H ) :   0.8341
B( 14-O , 21-H ) :   0.8456 B( 15-O , 22-H ) :   0.8352 B( 16-O , 23-H ) :   0.8498

Dispersion correction           -0.023855765
FINAL SINGLE POINT ENERGY      -685.696140831069

DIPOLE MOMENT
-------------

Method             : SCF
Type of density    : Electron Density
Multiplicity       :   1
Irrep              :   0
Energy             :  -685.8253232995976987 Eh
Relativity type    :
Basis              : AO
                                X                 Y                 Z
Electronic contribution:      2.736538522      -0.684090341      -0.740801389
Nuclear contribution   :     -3.649935599       1.272404535      -0.044337915
                        -----------------------------------------
Total Dipole Moment    :     -0.913397076       0.588314194      -0.785139304
                        -----------------------------------------
Magnitude (a.u.)       :      1.340466910
Magnitude (Debye)      :      3.407196111

Rotational constants in cm-1:             0.039229             0.026926             0.017841
Rotational constants in MHz :          1176.048335           807.214784           534.849195

                             ****ORCA TERMINATED NORMALLY****
TOTAL RUN TIME: 0 days 0 hours 0 minutes 11 seconds 648 msec
