                         Program Version 6.0.0  -   RELEASE  -
|  1> ! pbe def2-sv(p) def2/J RI DEFGRID1 loosescf d4 GCP(DFT/SV(P)) printgap
|  2> %output
|  3>     printlevel normal
|  4> end
|  5> * xyz 0 1
|  6> C -2.4961276555 -0.2754092554 -0.494325847
|  7> C -1.1929291793 -0.1926587618 0.3085495729
|  8> H -1.3736263976 -0.5262477874 1.3423616938
|  9> C -0.6357586704 1.2442750984 0.3805784708
| 10> H -1.3746469148 1.9373713423 -0.0489442096
| 11> C 0.6498303637 1.3525219561 -0.4722114852
| 12> H 1.0702683883 2.3574039337 -0.3535997464
| 13> C 1.7065848843 0.3156788545 -0.0279895472
| 14> H 2.3756894126 0.1268622834 -0.8791197608
| 15> C 1.0104725969 -1.017356483 0.3042012477
| 16> H 0.8920218129 -1.0702529175 1.4029699382
| 17> O -0.2668592558 -1.0810564588 -0.3018622489
| 18> O 1.780434427 -2.0476973195 -0.1903409115
| 19> O 2.4256652714 0.7176224557 1.1064277496
| 20> O 0.3540119916 1.225956878 -1.8399523447
| 21> O -0.4137723114 1.5359602542 1.7366447315
| 22> O -3.0413044292 -1.5677797982 -0.4953333723
| 23> H -2.3093810895 0.0703083687 -1.5190349743
| 24> H -3.2427883644 0.3693649356 -0.0282740734
| 25> H 1.38247731 -2.9049740731 0.0275822569
| 26> H 3.0951084927 1.3717987256 0.858950924
| 27> H 0.1082028238 0.3047093455 -2.0178483016
| 28> H -0.1286925987 2.4549749158 1.8408858427
| 29> H -2.3843432267 -2.1787293825 -0.85903216
| 30> *
| 31>
| 32>                          ****END OF INPUT****

CARTESIAN COORDINATES (ANGSTROEM)
---------------------------------
  C     -2.496128   -0.275409   -0.494326
  C     -1.192929   -0.192659    0.308550
  H     -1.373626   -0.526248    1.342362
  C     -0.635759    1.244275    0.380578
  H     -1.374647    1.937371   -0.048944
  C      0.649830    1.352522   -0.472211
  H      1.070268    2.357404   -0.353600
  C      1.706585    0.315679   -0.027990
  H      2.375689    0.126862   -0.879120
  C      1.010473   -1.017356    0.304201
  H      0.892022   -1.070253    1.402970
  O     -0.266859   -1.081056   -0.301862
  O      1.780434   -2.047697   -0.190341
  O      2.425665    0.717622    1.106428
  O      0.354012    1.225957   -1.839952
  O     -0.413772    1.535960    1.736645
  O     -3.041304   -1.567780   -0.495333
  H     -2.309381    0.070308   -1.519035
  H     -3.242788    0.369365   -0.028274
  H      1.382477   -2.904974    0.027582
  H      3.095108    1.371799    0.858951
  H      0.108203    0.304709   -2.017848
  H     -0.128693    2.454975    1.840886
  H     -2.384343   -2.178729   -0.859032

 Total Charge           Charge          ....    0
 Multiplicity           Mult            ....    1
 Number of Electrons    NEL             ....   96
 Basis Dimension        Dim             ....  192

ORBITAL ENERGIES
----------------

  NO   OCC          E(Eh)            E(eV)
   0   2.0000     -18.783609      -511.1280
   1   2.0000     -18.766537      -510.6634
   2   2.0000     -18.756540      -510.3914
   3   2.0000     -18.755775      -510.3706
   4   2.0000     -18.751120      -510.2439
   5   2.0000     -18.745065      -510.0791
   6   2.0000      -9.989827      -271.8370
   7   2.0000      -9.945384      -270.6277
   8   2.0000      -9.944721      -270.6096
   9   2.0000      -9.943184      -270.5678
  10   2.0000      -9.941361      -270.5182
  11   2.0000      -9.935753      -270.3656
  12   2.0000      -0.991766       -26.9873
  13   2.0000      -0.942129       -25.6366
  14   2.0000      -0.935275       -25.4501
  15   2.0000      -0.927193       -25.2302
  16   2.0000      -0.924687       -25.1620
  17   2.0000      -0.914122       -24.8745
  18   2.0000      -0.701244       -19.0818
  19   2.0000      -0.689942       -18.7743
  20   2.0000      -0.622308       -16.9339
  21   2.0000      -0.587991       -16.0001
  22   2.0000      -0.568357       -15.4658
  23   2.0000      -0.519394       -14.1334
  24   2.0000      -0.511165       -13.9095
  25   2.0000      -0.497970       -13.5505
  26   2.0000      -0.474525       -12.9125
  27   2.0000      -0.465264       -12.6605
  28   2.0000      -0.446265       -12.1435
  29   2.0000      -0.440437       -11.9849
  30   2.0000      -0.425146       -11.5688
  31   2.0000      -0.391127       -10.6431
  32   2.0000      -0.382375       -10.4049
  33   2.0000      -0.373782       -10.1711
  34   2.0000      -0.363592        -9.8938
  35   2.0000      -0.350122        -9.5273
  36   2.0000      -0.325798        -8.8654
  37   2.0000      -0.314683        -8.5630
  38   2.0000      -0.304173        -8.2770
  39   2.0000      -0.297076        -8.0839
  40   2.0000      -0.292096        -7.9483
  41   2.0000      -0.280457        -7.6316
  42   2.0000      -0.253778        -6.9056
  43   2.0000      -0.243807        -6.6343
  44   2.0000      -0.240171        -6.5354
  45   2.0000      -0.221563        -6.0290
  46   2.0000      -0.217611        -5.9215
  47   2.0000      -0.198500        -5.4015
  48   0.0000       0.010163         0.2765
  49   0.0000       0.023814         0.6480
  50   0.0000       0.033144         0.9019
  51   0.0000       0.034852         0.9484
  52   0.0000       0.056740         1.5440

MULLIKEN ATOMIC CHARGES
-----------------------
   0 C :    0.071303
   1 C :   -0.008755
   2 H :    0.083432
   3 C :    0.042577
   4 H :    0.070246
   5 C :    0.015905
   6 H :    0.045781
   7 C :    0.063952
   8 H :    0.074226
   9 C :    0.170484
  10 H :    0.067890
  11 O :   -0.333738
  12 O :   -0.372195
  13 O :   -0.406109
  14 O :   -0.422903
  15 O :   -0.402608
  16 O :   -0.432176
  17 H :    0.067156
  18 H :    0.096372
  19 H :    0.305335
  20 H :    0.302360
  21 H :    0.305882
  22 H :    0.298589
  23 H :    0.296996
Sum of atomic charges:   -0.0000000

LOEWDIN ATOMIC CHARGES
----------------------
   0 C :   -0.127896
   1 C :   -0.073456
   2 H :    0.116622
   3 C :   -0.076267
   4 H :    0.103155
   5 C :   -0.082830
   6 H :    0.104898
   7 C :   -0.085596
   8 H :    0.110778
   9 C :    0.005355
  10 H :    0.096302
  11 O :   -0.168956
  12 O :   -0.287257
  13 O :   -0.310207
  14 O :   -0.315804
  15 O :   -0.311328
  16 O :   -0.334175
  17 H :    0.097218
  18 H :    0.122146
  19 H :    0.289102
  20 H :    0.288022
  21 H :    0.274457
  22 H :    0.285187
  23 H :    0.280532

  Mayer bond orders larger than 0.100000
B(  0-C ,  1-C ) :   1.0551 B(  0-C , 16-O ) :   1.0798 B(  0-C , 17-H ) :   0.8998
B(  0-C , 18-H ) :   0.9184 B(  1-C ,  2-H ) :   0.8804 B(  1-C ,  3-C ) :   0.9536
B(  1-C , 11-O ) :   0.9745 B(  3-C ,  4-H ) :   0.9007 B(  3-C ,  5-C ) :   0.9757
B(  3-C , 15-O ) :   1.0773 B(  5-C ,  6-H ) :   0.8913 B(  5-C ,  7-C ) :   0.9558
B(  5-C , 14-O ) :   1.0433 B(  7-C ,  8-H ) :   0.8891 B(  7-C ,  9-C ) :   1.0101
B(  7-C , 13-O ) :   1.0910 B(  9-C , 10-H ) :   0.8778 B(  9-C , 11-O ) :   1.0113
B(  9-C , 12-O ) :   1.1886 B( 12-O , 19-H ) :   0.8414 B( 13-O , 20-H ) :   0.8479
B( 14-O , 21-H ) :   0.8228 B( 15-O , 22-H ) :   0.8457 B( 16-O , 23-H ) :   0.8456

Dispersion correction           -0.024671336
FINAL SINGLE POINT ENERGY      -685.690870389897

DIPOLE MOMENT
-------------

Method             : SCF
Type of density    : Electron Density
Multiplicity       :   1
Irrep              :   0
Energy             :  -685.8205860160462635 Eh
Relativity type    :
Basis              : AO
                                X                 Y                 Z
Electronic contribution:      2.277065310      -1.830877396       0.263937909
Nuclear contribution   :     -1.760452637       2.151573396      -0.218459003
                        -----------------------------------------
Total Dipole Moment    :      0.516612673       0.320696000       0.045478906
                        -----------------------------------------
Magnitude (a.u.)       :      0.609756434
Magnitude (Debye)      :      1.549877685

Rotational constants in cm-1:             0.040957             0.025727             0.021295
Rotational constants in MHz :          1227.865098           771.273629           638.402760

                             ****ORCA TERMINATED NORMALLY****
TOTAL RUN TIME: 0 days 0 hours 0 minutes 11 seconds 940 msec
