                         Program Version 6.0.0  -   RELEASE  -
|  1> ! r2scan-3c def2/J RI DEFGRID2 scfconv6 printgap
|  2> %output
|  3>     printlevel normal
|  4> end
|  5> * xyz 0 1
|  6> C -1.9487207221 -0.1417851978 0.0001307816
|  7> C -0.5810138328 0.5289849978 2.6395e-06
|  8> C 0.5571823938 -0.5007180646 -0.0002551126
|  9> N 1.8979745492 0.0658264137 -4.35158e-05
| 10> H -2.0640986293 -0.767720664 -0.8817453002
| 11> H -2.0637435935 -0.7680855138 0.881804651
| 12> H -2.7397631173 0.6040190381 0.0004032068
| 13> H -0.4862744998 1.1669527627 0.883184877
| 14> H -0.4865149057 1.1666496619 -0.8834185431
| 15> H 0.4694515222 -1.1390935155 0.8835058673
| 16> H 0.4696840334 -1.1383609048 -0.8845933214
| 17> H 2.0165554097 0.654557373 0.8181368857
| 18> H 2.014928791 0.6590309724 -0.8152235236
| 19> *
| 20>
| 21>                          ****END OF INPUT****

CARTESIAN COORDINATES (ANGSTROEM)
---------------------------------
  C     -1.948721   -0.141785    0.000131
  C     -0.581014    0.528985    0.000003
  C      0.557182   -0.500718   -0.000255
  N      1.897975    0.065826   -0.000044
  H     -2.064099   -0.767721   -0.881745
  H     -2.063744   -0.768086    0.881805
  H     -2.739763    0.604019    0.000403
  H     -0.486274    1.166953    0.883185
  H     -0.486515    1.166650   -0.883419
  H      0.469452   -1.139094    0.883506
  H      0.469684   -1.138361   -0.884593
  H      2.016555    0.654557    0.818137
  H      2.014929    0.659031   -0.815224

 Total Charge           Charge          ....    0
 Multiplicity           Mult            ....    1
 Number of Electrons    NEL             ....   34
 Basis Dimension        Dim             ....  126

ORBITAL ENERGIES
----------------

  NO   OCC          E(Eh)            E(eV)
   0   2.0000     -14.133316      -384.5871
   1   2.0000     -10.047163      -273.3972
   2   2.0000     -10.023825      -272.7622
   3   2.0000     -10.017840      -272.5993
   4   2.0000      -0.845624       -23.0106
   5   2.0000      -0.733436       -19.9578
   6   2.0000      -0.623377       -16.9630
   7   2.0000      -0.555127       -15.1058
   8   2.0000      -0.468084       -12.7372
   9   2.0000      -0.414890       -11.2897
  10   2.0000      -0.409367       -11.1394
  11   2.0000      -0.372655       -10.1404
  12   2.0000      -0.339041        -9.2258
  13   2.0000      -0.335826        -9.1383
  14   2.0000      -0.313757        -8.5378
  15   2.0000      -0.298790        -8.1305
  16   2.0000      -0.202396        -5.5075
  17   0.0000       0.075411         2.0520
  18   0.0000       0.102076         2.7776
  19   0.0000       0.132326         3.6008
  20   0.0000       0.138799         3.7769
  21   0.0000       0.144199         3.9239

MULLIKEN ATOMIC CHARGES
-----------------------
   0 C :   -0.474714
   1 C :   -0.184682
   2 C :   -0.257408
   3 N :   -0.531366
   4 H :    0.141532
   5 H :    0.141514
   6 H :    0.145988
   7 H :    0.128081
   8 H :    0.128036
   9 H :    0.141621
  10 H :    0.141767
  11 H :    0.239831
  12 H :    0.239799
Sum of atomic charges:    0.0000000

LOEWDIN ATOMIC CHARGES
----------------------
   0 C :   -0.426632
   1 C :   -0.313508
   2 C :   -0.086386
   3 N :   -0.732564
   4 H :    0.150185
   5 H :    0.150176
   6 H :    0.151111
   7 H :    0.149065
   8 H :    0.149051
   9 H :    0.170870
  10 H :    0.170864
  11 H :    0.233881
  12 H :    0.233887

  Mayer bond orders larger than 0.100000
B(  0-C ,  1-C ) :   0.9040 B(  0-C ,  4-H ) :   0.9821 B(  0-C ,  5-H ) :   0.9821
B(  0-C ,  6-H ) :   0.9702 B(  1-C ,  2-C ) :   0.8839 B(  1-C ,  7-H ) :   0.9592
B(  1-C ,  8-H ) :   0.9592 B(  2-C ,  3-N ) :   0.9458 B(  2-C ,  9-H ) :   0.9975
B(  2-C , 10-H ) :   0.9976 B(  3-N , 11-H ) :   0.9178 B(  3-N , 12-H ) :   0.9178

Dispersion correction           -0.002388823
FINAL SINGLE POINT ENERGY      -174.424631627814

DIPOLE MOMENT
-------------

Method             : SCF
Type of density    : Electron Density
Multiplicity       :   1
Irrep              :   0
Energy             :  -174.4314465972769312 Eh
Relativity type    :
Basis              : AO
                                X                 Y                 Z
Electronic contribution:      2.335469005      -0.007329462      -0.000427640
Nuclear contribution   :     -2.681885476       0.411233888       0.001927514
                        -----------------------------------------
Total Dipole Moment    :     -0.346416472       0.403904426       0.001499874
                        -----------------------------------------
Magnitude (a.u.)       :      0.532114092
Magnitude (Debye)      :      1.352526534

Rotational constants in cm-1:             0.821517             0.124705             0.117410
Rotational constants in MHz :         24628.475018          3738.553073          3519.861115

                             ****ORCA TERMINATED NORMALLY****
TOTAL RUN TIME: 0 days 0 hours 0 minutes 11 seconds 115 msec
