                         Program Version 6.0.0  -   RELEASE  -
|  1> ! r2scan-3c def2/J RI DEFGRID2 scfconv6 printgap
|  2> %output
|  3>     printlevel normal
|  4> end
|  5> %cpcm
|  6>     smd true
|  7>     smdsolvent "water"
|  8> end
|  9> * xyz 0 1
| 10> C -1.9487207221 -0.1417851978 0.0001307816
| 11> C -0.5810138328 0.5289849978 2.6395e-06
| 12> C 0.5571823938 -0.5007180646 -0.0002551126
| 13> N 1.8979745492 0.0658264137 -4.35158e-05
| 14> H -2.0640986293 -0.767720664 -0.8817453002
| 15> H -2.0637435935 -0.7680855138 0.881804651
| 16> H -2.7397631173 0.6040190381 0.0004032068
| 17> H -0.4862744998 1.1669527627 0.883184877
| 18> H -0.4865149057 1.1666496619 -0.8834185431
| 19> H 0.4694515222 -1.1390935155 0.8835058673
| 20> H 0.4696840334 -1.1383609048 -0.8845933214
| 21> H 2.0165554097 0.654557373 0.8181368857
| 22> H 2.014928791 0.6590309724 -0.8152235236
| 23> *
| 24>
| 25>                          ****END OF INPUT****

CARTESIAN COORDINATES (ANGSTROEM)
---------------------------------
  C     -1.948721   -0.141785    0.000131
  C     -0.581014    0.528985    0.000003
  C      0.557182   -0.500718   -0.000255
  N      1.897975    0.065826   -0.000044
  H     -2.064099   -0.767721   -0.881745
  H     -2.063744   -0.768086    0.881805
  H     -2.739763    0.604019    0.000403
  H     -0.486274    1.166953    0.883185
  H     -0.486515    1.166650   -0.883419
  H      0.469452   -1.139094    0.883506
  H      0.469684   -1.138361   -0.884593
  H      2.016555    0.654557    0.818137
  H      2.014929    0.659031   -0.815224

 Total Charge           Charge          ....    0
 Multiplicity           Mult            ....    1
 Number of Electrons    NEL             ....   34
 Basis Dimension        Dim             ....  126

ORBITAL ENERGIES
----------------

  NO   OCC          E(Eh)            E(eV)
   0   2.0000     -14.127242      -384.4218
   1   2.0000     -10.039950      -273.2009
   2   2.0000     -10.014114      -272.4979
   3   2.0000     -10.008018      -272.3320
   4   2.0000      -0.839401       -22.8413
   5   2.0000      -0.724329       -19.7100
   6   2.0000      -0.615432       -16.7468
   7   2.0000      -0.546580       -14.8732
   8   2.0000      -0.459740       -12.5102
   9   2.0000      -0.407159       -11.0794
  10   2.0000      -0.399779       -10.8785
  11   2.0000      -0.365414        -9.9434
  12   2.0000      -0.331150        -9.0110
  13   2.0000      -0.326834        -8.8936
  14   2.0000      -0.305128        -8.3030
  15   2.0000      -0.288539        -7.8515
  16   2.0000      -0.202992        -5.5237
  17   0.0000       0.086648         2.3578
  18   0.0000       0.111897         3.0449
  19   0.0000       0.146322         3.9816
  20   0.0000       0.146645         3.9904
  21   0.0000       0.149776         4.0756

MULLIKEN ATOMIC CHARGES
-----------------------
   0 C :   -0.514355
   1 C :   -0.208862
   2 C :   -0.251776
   3 N :   -0.631177
   4 H :    0.152743
   5 H :    0.152741
   6 H :    0.155902
   7 H :    0.141770
   8 H :    0.141767
   9 H :    0.148252
  10 H :    0.148284
  11 H :    0.282370
  12 H :    0.282340
Sum of atomic charges:    0.0000000

LOEWDIN ATOMIC CHARGES
----------------------
   0 C :   -0.434623
   1 C :   -0.312402
   2 C :   -0.090973
   3 N :   -0.758364
   4 H :    0.152589
   5 H :    0.152585
   6 H :    0.153457
   7 H :    0.152976
   8 H :    0.152973
   9 H :    0.172607
  10 H :    0.172563
  11 H :    0.243304
  12 H :    0.243308

  Mayer bond orders larger than 0.100000
B(  0-C ,  1-C ) :   0.8966 B(  0-C ,  4-H ) :   0.9797 B(  0-C ,  5-H ) :   0.9797
B(  0-C ,  6-H ) :   0.9680 B(  1-C ,  2-C ) :   0.8952 B(  1-C ,  7-H ) :   0.9612
B(  1-C ,  8-H ) :   0.9612 B(  2-C ,  3-N ) :   0.9559 B(  2-C ,  9-H ) :   0.9890
B(  2-C , 10-H ) :   0.9890 B(  3-N , 11-H ) :   0.9016 B(  3-N , 12-H ) :   0.9016

Dispersion correction           -0.002388823
FINAL SINGLE POINT ENERGY      -174.430601443308

DIPOLE MOMENT
-------------

Method             : SCF
Type of density    : Electron Density
Multiplicity       :   1
Irrep              :   0
Energy             :  -174.4374164127713129 Eh
Relativity type    :
Basis              : AO
                                X                 Y                 Z
Electronic contribution:      2.227415431       0.145403848       0.000092693
Nuclear contribution   :     -2.681885476       0.411233888       0.001927514
                        -----------------------------------------
Total Dipole Moment    :     -0.454470045       0.556637736       0.002020207
                        -----------------------------------------
Magnitude (a.u.)       :      0.718604670
Magnitude (Debye)      :      1.826547914

Rotational constants in cm-1:             0.821517             0.124705             0.117410
Rotational constants in MHz :         24628.475018          3738.553073          3519.861115

                             ****ORCA TERMINATED NORMALLY****
TOTAL RUN TIME: 0 days 0 hours 0 minutes 14 seconds 575 msec
