                         Program Version 6.0.0  -   RELEASE  -
|  1> ! pbe def2-sv(p) def2/J RI DEFGRID1 loosescf d4 GCP(DFT/SV(P)) printgap
|  2> %output
|  3>     printlevel normal
|  4> end
|  5> * xyz 0 1
|  6> C -2.3214438685 -0.8228775621 -0.6386590094
|  7> C -1.0568373966 -0.5340092007 0.1728665892
|  8> H -1.2074222847 -0.8983435705 1.2015793736
|  9> C -0.7363417875 0.9809088195 0.2502532633
| 10> H -1.5409111733 1.5407883892 -0.2370388522
| 11> C 0.5954732695 1.2643588987 -0.4774319247
| 12> H 0.8469699787 2.3202671836 -0.3284906803
| 13> C 1.7079704645 0.3843506939 0.1361455575
| 14> H 2.5858596061 0.413809672 -0.5207713084
| 15> C 1.2370346827 -1.0856410334 0.1962514093
| 16> H 1.1343237472 -1.3650523603 1.264938804
| 17> O -0.0094464013 -1.2647258042 -0.4451391234
| 18> O 2.1658438466 -1.8727054687 -0.4504505604
| 19> O 2.0277341326 0.783824204 1.4487961623
| 20> O 0.5028375698 1.0859664985 -1.865741443
| 21> O -0.7025363097 1.4521096888 1.5730311821
| 22> O -3.4231726819 -0.2847788585 0.0486828541
| 23> H -2.4115417307 -1.9109727875 -0.7488598079
| 24> H -2.2135687523 -0.371475533 -1.6326993644
| 25> H 1.8426126665 -2.7855670782 -0.5132443728
| 26> H 2.6224985676 1.547390635 1.4283766548
| 27> H 0.3672775915 0.1424913808 -2.048248484
| 28> H 0.1346495813 1.1753754478 1.9874282095
| 29> H -4.2281895286 -0.4459271031 -0.4639672413
| 30> *
| 31>
| 32>                          ****END OF INPUT****

CARTESIAN COORDINATES (ANGSTROEM)
---------------------------------
  C     -2.321444   -0.822878   -0.638659
  C     -1.056837   -0.534009    0.172867
  H     -1.207422   -0.898344    1.201579
  C     -0.736342    0.980909    0.250253
  H     -1.540911    1.540788   -0.237039
  C      0.595473    1.264359   -0.477432
  H      0.846970    2.320267   -0.328491
  C      1.707970    0.384351    0.136146
  H      2.585860    0.413810   -0.520771
  C      1.237035   -1.085641    0.196251
  H      1.134324   -1.365052    1.264939
  O     -0.009446   -1.264726   -0.445139
  O      2.165844   -1.872705   -0.450451
  O      2.027734    0.783824    1.448796
  O      0.502838    1.085966   -1.865741
  O     -0.702536    1.452110    1.573031
  O     -3.423173   -0.284779    0.048683
  H     -2.411542   -1.910973   -0.748860
  H     -2.213569   -0.371476   -1.632699
  H      1.842613   -2.785567   -0.513244
  H      2.622499    1.547391    1.428377
  H      0.367278    0.142491   -2.048248
  H      0.134650    1.175375    1.987428
  H     -4.228190   -0.445927   -0.463967

 Total Charge           Charge          ....    0
 Multiplicity           Mult            ....    1
 Number of Electrons    NEL             ....   96
 Basis Dimension        Dim             ....  192

ORBITAL ENERGIES
----------------

  NO   OCC          E(Eh)            E(eV)
   0   2.0000     -18.783963      -511.1376
   1   2.0000     -18.780006      -511.0299
   2   2.0000     -18.770047      -510.7589
   3   2.0000     -18.753619      -510.3119
   4   2.0000     -18.745708      -510.0967
   5   2.0000     -18.729742      -509.6622
   6   2.0000      -9.995883      -272.0018
   7   2.0000      -9.948205      -270.7044
   8   2.0000      -9.942240      -270.5421
   9   2.0000      -9.938693      -270.4456
  10   2.0000      -9.937187      -270.4046
  11   2.0000      -9.929540      -270.1965
  12   2.0000      -0.994840       -27.0710
  13   2.0000      -0.953490       -25.9458
  14   2.0000      -0.935821       -25.4650
  15   2.0000      -0.927567       -25.2404
  16   2.0000      -0.918301       -24.9882
  17   2.0000      -0.907256       -24.6877
  18   2.0000      -0.699320       -19.0295
  19   2.0000      -0.689978       -18.7753
  20   2.0000      -0.622746       -16.9458
  21   2.0000      -0.582833       -15.8597
  22   2.0000      -0.563298       -15.3281
  23   2.0000      -0.519633       -14.1399
  24   2.0000      -0.516861       -14.0645
  25   2.0000      -0.496507       -13.5106
  26   2.0000      -0.485745       -13.2178
  27   2.0000      -0.460395       -12.5280
  28   2.0000      -0.447133       -12.1671
  29   2.0000      -0.434821       -11.8321
  30   2.0000      -0.419447       -11.4137
  31   2.0000      -0.396136       -10.7794
  32   2.0000      -0.389246       -10.5919
  33   2.0000      -0.374645       -10.1946
  34   2.0000      -0.345214        -9.3938
  35   2.0000      -0.343561        -9.3488
  36   2.0000      -0.335577        -9.1315
  37   2.0000      -0.316823        -8.6212
  38   2.0000      -0.312517        -8.5040
  39   2.0000      -0.304703        -8.2914
  40   2.0000      -0.284638        -7.7454
  41   2.0000      -0.267580        -7.2812
  42   2.0000      -0.259560        -7.0630
  43   2.0000      -0.255757        -6.9595
  44   2.0000      -0.235607        -6.4112
  45   2.0000      -0.221965        -6.0400
  46   2.0000      -0.212589        -5.7848
  47   2.0000      -0.191751        -5.2178
  48   0.0000       0.006609         0.1799
  49   0.0000       0.020286         0.5520
  50   0.0000       0.028595         0.7781
  51   0.0000       0.039858         1.0846
  52   0.0000       0.060649         1.6504

MULLIKEN ATOMIC CHARGES
-----------------------
   0 C :    0.050341
   1 C :    0.021112
   2 H :    0.069079
   3 C :    0.063682
   4 H :    0.081801
   5 C :    0.027334
   6 H :    0.068450
   7 C :    0.000027
   8 H :    0.087318
   9 C :    0.197880
  10 H :    0.053864
  11 O :   -0.321698
  12 O :   -0.378546
  13 O :   -0.415136
  14 O :   -0.423076
  15 O :   -0.428544
  16 O :   -0.426413
  17 H :    0.075324
  18 H :    0.065947
  19 H :    0.306899
  20 H :    0.317525
  21 H :    0.306694
  22 H :    0.293992
  23 H :    0.306142
Sum of atomic charges:    0.0000000

LOEWDIN ATOMIC CHARGES
----------------------
   0 C :   -0.124655
   1 C :   -0.067792
   2 H :    0.110763
   3 C :   -0.072783
   4 H :    0.120068
   5 C :   -0.082630
   6 H :    0.113470
   7 C :   -0.091905
   8 H :    0.117362
   9 C :    0.006485
  10 H :    0.087602
  11 O :   -0.160043
  12 O :   -0.289644
  13 O :   -0.303979
  14 O :   -0.316369
  15 O :   -0.322940
  16 O :   -0.334264
  17 H :    0.097703
  18 H :    0.095503
  19 H :    0.290101
  20 H :    0.297657
  21 H :    0.273927
  22 H :    0.265662
  23 H :    0.290701

  Mayer bond orders larger than 0.100000
B(  0-C ,  1-C ) :   1.0620 B(  0-C , 16-O ) :   1.1001 B(  0-C , 17-H ) :   0.9102
B(  0-C , 18-H ) :   0.9052 B(  1-C ,  2-H ) :   0.8752 B(  1-C ,  3-C ) :   0.9540
B(  1-C , 11-O ) :   0.9756 B(  3-C ,  4-H ) :   0.8945 B(  3-C ,  5-C ) :   0.9774
B(  3-C , 15-O ) :   1.0662 B(  5-C ,  6-H ) :   0.8962 B(  5-C ,  7-C ) :   0.9818
B(  5-C , 14-O ) :   1.0480 B(  7-C ,  8-H ) :   0.8880 B(  7-C ,  9-C ) :   0.9840
B(  7-C , 13-O ) :   1.0288 B(  9-C , 10-H ) :   0.8838 B(  9-C , 11-O ) :   1.0204
B(  9-C , 12-O ) :   1.1765 B( 12-O , 19-H ) :   0.8389 B( 13-O , 20-H ) :   0.8398
B( 13-O , 22-H ) :   0.1055 B( 14-O , 21-H ) :   0.8240 B( 15-O , 22-H ) :   0.8107
B( 16-O , 23-H ) :   0.8494

Dispersion correction           -0.024840379
FINAL SINGLE POINT ENERGY      -685.691196942176

DIPOLE MOMENT
-------------

Method             : SCF
Type of density    : Electron Density
Multiplicity       :   1
Irrep              :   0
Energy             :  -685.8228512059997684 Eh
Relativity type    :
Basis              : AO
                                X                 Y                 Z
Electronic contribution:      2.137611448      -0.208718922       0.309360627
Nuclear contribution   :     -1.931297269      -0.599302789      -0.568638862
                        -----------------------------------------
Total Dipole Moment    :      0.206314179      -0.808021711      -0.259278235
                        -----------------------------------------
Magnitude (a.u.)       :      0.873321149
Magnitude (Debye)      :      2.219805950

Rotational constants in cm-1:             0.043094             0.025063             0.021343
Rotational constants in MHz :          1291.913818           751.362043           639.838373

                             ****ORCA TERMINATED NORMALLY****
TOTAL RUN TIME: 0 days 0 hours 0 minutes 12 seconds 301 msec
