                         Program Version 6.0.0  -   RELEASE  -
|  1> ! pbe def2-sv(p) def2/J RI DEFGRID1 loosescf d4 GCP(DFT/SV(P)) printgap
|  2> %output
|  3>     printlevel normal
|  4> end
|  5> * xyz 0 1
|  6> C -1.9851314318 -0.5974076111 -0.7675918523
|  7> C -1.2020070668 -0.1105161842 0.4673503566
|  8> H -1.8982793507 -0.1111453215 1.3158672392
|  9> C -0.6335113305 1.3076918864 0.2873974843
| 10> H -1.371454826 1.9003710602 -0.2729418875
| 11> C 0.6922868204 1.3052071029 -0.5039096646
| 12> H 1.1412342793 2.3005497873 -0.3926559288
| 13> C 1.6758941252 0.2918354155 0.1095874696
| 14> H 2.5439576203 0.1950671144 -0.5525748909
| 15> C 1.0101851181 -1.0952658404 0.1981587263
| 16> H 1.6249219384 -1.7529535688 0.826228096
| 17> O -0.219110032 -1.0559199886 0.8858587661
| 18> O 0.9133921085 -1.7051035115 -1.050828152
| 19> O 2.1727534926 0.7189714847 1.3467491238
| 20> O 0.4980506264 0.9706623646 -1.85772953
| 21> O -0.350518316 1.9193239132 1.5257385985
| 22> O -2.5144506754 -1.8831284101 -0.5586989046
| 23> H -1.3510586401 -0.5840309962 -1.6601733617
| 24> H -2.8431392871 0.0589375482 -0.9283938279
| 25> H 0.751176911 -1.0296287101 -1.7326914726
| 26> H 1.4298169756 1.0212859706 1.8982152943
| 27> H 0.2546805962 1.7542808857 -2.3698940435
| 28> H -1.1630346276 2.0232594831 2.0415958847
| 29> H -1.7870474921 -2.4702773834 -0.3026286575
| 30> *
| 31>
| 32>                          ****END OF INPUT****

CARTESIAN COORDINATES (ANGSTROEM)
---------------------------------
  C     -1.985131   -0.597408   -0.767592
  C     -1.202007   -0.110516    0.467350
  H     -1.898279   -0.111145    1.315867
  C     -0.633511    1.307692    0.287397
  H     -1.371455    1.900371   -0.272942
  C      0.692287    1.305207   -0.503910
  H      1.141234    2.300550   -0.392656
  C      1.675894    0.291835    0.109587
  H      2.543958    0.195067   -0.552575
  C      1.010185   -1.095266    0.198159
  H      1.624922   -1.752954    0.826228
  O     -0.219110   -1.055920    0.885859
  O      0.913392   -1.705104   -1.050828
  O      2.172753    0.718971    1.346749
  O      0.498051    0.970662   -1.857730
  O     -0.350518    1.919324    1.525739
  O     -2.514451   -1.883128   -0.558699
  H     -1.351059   -0.584031   -1.660173
  H     -2.843139    0.058938   -0.928394
  H      0.751177   -1.029629   -1.732691
  H      1.429817    1.021286    1.898215
  H      0.254681    1.754281   -2.369894
  H     -1.163035    2.023259    2.041596
  H     -1.787047   -2.470277   -0.302629

 Total Charge           Charge          ....    0
 Multiplicity           Mult            ....    1
 Number of Electrons    NEL             ....   96
 Basis Dimension        Dim             ....  192

ORBITAL ENERGIES
----------------

  NO   OCC          E(Eh)            E(eV)
   0   2.0000     -18.794051      -511.4121
   1   2.0000     -18.784705      -511.1578
   2   2.0000     -18.764883      -510.6184
   3   2.0000     -18.751270      -510.2480
   4   2.0000     -18.742840      -510.0186
   5   2.0000     -18.734522      -509.7923
   6   2.0000      -9.976246      -271.4675
   7   2.0000      -9.964573      -271.1498
   8   2.0000      -9.963940      -271.1326
   9   2.0000      -9.949512      -270.7400
  10   2.0000      -9.943517      -270.5768
  11   2.0000      -9.929917      -270.2068
  12   2.0000      -0.982532       -26.7360
  13   2.0000      -0.961617       -26.1669
  14   2.0000      -0.956960       -26.0402
  15   2.0000      -0.921122       -25.0650
  16   2.0000      -0.915305       -24.9067
  17   2.0000      -0.901450       -24.5297
  18   2.0000      -0.717296       -19.5186
  19   2.0000      -0.690057       -18.7774
  20   2.0000      -0.621153       -16.9024
  21   2.0000      -0.600723       -16.3465
  22   2.0000      -0.572652       -15.5827
  23   2.0000      -0.532104       -14.4793
  24   2.0000      -0.513210       -13.9652
  25   2.0000      -0.498915       -13.5762
  26   2.0000      -0.476717       -12.9721
  27   2.0000      -0.460894       -12.5416
  28   2.0000      -0.447422       -12.1750
  29   2.0000      -0.434727       -11.8295
  30   2.0000      -0.428039       -11.6475
  31   2.0000      -0.406349       -11.0573
  32   2.0000      -0.390684       -10.6311
  33   2.0000      -0.380432       -10.3521
  34   2.0000      -0.375433       -10.2160
  35   2.0000      -0.347516        -9.4564
  36   2.0000      -0.342557        -9.3215
  37   2.0000      -0.331554        -9.0220
  38   2.0000      -0.302225        -8.2240
  39   2.0000      -0.289210        -7.8698
  40   2.0000      -0.285064        -7.7570
  41   2.0000      -0.272821        -7.4238
  42   2.0000      -0.265297        -7.2191
  43   2.0000      -0.251612        -6.8467
  44   2.0000      -0.241061        -6.5596
  45   2.0000      -0.232218        -6.3190
  46   2.0000      -0.207164        -5.6372
  47   2.0000      -0.201541        -5.4842
  48   0.0000      -0.010598        -0.2884
  49   0.0000       0.000128         0.0035
  50   0.0000       0.057666         1.5692
  51   0.0000       0.059437         1.6174
  52   0.0000       0.060765         1.6535

MULLIKEN ATOMIC CHARGES
-----------------------
   0 C :    0.047460
   1 C :    0.025950
   2 H :    0.060420
   3 C :    0.055402
   4 H :    0.057579
   5 C :    0.002794
   6 H :    0.088584
   7 C :    0.030550
   8 H :    0.086566
   9 C :    0.204077
  10 H :    0.074903
  11 O :   -0.318536
  12 O :   -0.413779
  13 O :   -0.423884
  14 O :   -0.415305
  15 O :   -0.421426
  16 O :   -0.439092
  17 H :    0.067430
  18 H :    0.072367
  19 H :    0.318213
  20 H :    0.303761
  21 H :    0.320283
  22 H :    0.314080
  23 H :    0.301602
Sum of atomic charges:   -0.0000000

LOEWDIN ATOMIC CHARGES
----------------------
   0 C :   -0.143618
   1 C :   -0.076762
   2 H :    0.113491
   3 C :   -0.077277
   4 H :    0.101772
   5 C :   -0.072670
   6 H :    0.114468
   7 C :   -0.083209
   8 H :    0.121731
   9 C :   -0.009065
  10 H :    0.111886
  11 O :   -0.147308
  12 O :   -0.312993
  13 O :   -0.314606
  14 O :   -0.305652
  15 O :   -0.307566
  16 O :   -0.339473
  17 H :    0.093982
  18 H :    0.110626
  19 H :    0.274690
  20 H :    0.273411
  21 H :    0.299955
  22 H :    0.293948
  23 H :    0.280238

  Mayer bond orders larger than 0.100000
B(  0-C ,  1-C ) :   1.0414 B(  0-C , 16-O ) :   1.0793 B(  0-C , 17-H ) :   0.8961
B(  0-C , 18-H ) :   0.9107 B(  1-C ,  2-H ) :   0.8914 B(  1-C ,  3-C ) :   0.9706
B(  1-C , 11-O ) :   1.0250 B(  3-C ,  4-H ) :   0.8943 B(  3-C ,  5-C ) :   0.9702
B(  3-C , 15-O ) :   1.0127 B(  5-C ,  6-H ) :   0.9023 B(  5-C ,  7-C ) :   0.9935
B(  5-C , 14-O ) :   1.0458 B(  7-C ,  8-H ) :   0.8940 B(  7-C ,  9-C ) :   0.9919
B(  7-C , 13-O ) :   1.0746 B(  9-C , 10-H ) :   0.9050 B(  9-C , 11-O ) :   1.0237
B(  9-C , 12-O ) :   1.1180 B( 12-O , 19-H ) :   0.8040 B( 13-O , 20-H ) :   0.8113
B( 14-O , 21-H ) :   0.8359 B( 15-O , 22-H ) :   0.8388 B( 16-O , 23-H ) :   0.8347

Dispersion correction           -0.026108376
FINAL SINGLE POINT ENERGY      -685.697964210921

DIPOLE MOMENT
-------------

Method             : SCF
Type of density    : Electron Density
Multiplicity       :   1
Irrep              :   0
Energy             :  -685.8309390937837406 Eh
Relativity type    :
Basis              : AO
                                X                 Y                 Z
Electronic contribution:      1.906409080      -1.363579687       1.640951125
Nuclear contribution   :     -2.495840828       3.085987973      -1.994034618
                        -----------------------------------------
Total Dipole Moment    :     -0.589431748       1.722408285      -0.353083493
                        -----------------------------------------
Magnitude (a.u.)       :      1.854396948
Magnitude (Debye)      :      4.713502453

Rotational constants in cm-1:             0.041815             0.028291             0.024918
Rotational constants in MHz :          1253.594495           848.135069           747.029917

                             ****ORCA TERMINATED NORMALLY****
TOTAL RUN TIME: 0 days 0 hours 0 minutes 12 seconds 710 msec
