                         Program Version 6.0.0  -   RELEASE  -
|  1> ! pbe def2-sv(p) def2/J RI DEFGRID1 loosescf d4 GCP(DFT/SV(P)) printgap
|  2> %output
|  3>     printlevel normal
|  4> end
|  5> * xyz 0 1
|  6> C -1.85338296 -0.9787294887 -0.822103877
|  7> C -1.2740838828 -0.1819300105 0.3573726561
|  8> H -2.0765840789 -0.0501950081 1.0924806499
|  9> C -0.7719552973 1.223105345 -0.063426852
| 10> H -0.9308511208 1.3730081986 -1.1364621442
| 11> C 0.7340954438 1.3503957654 0.1975516948
| 12> H 0.9202898189 1.4101555528 1.2830989715
| 13> C 1.4318152809 0.095479295 -0.3391651144
| 14> H 1.1490452939 -0.0474365665 -1.3910804344
| 15> C 0.9611528265 -1.1235833599 0.4711788858
| 16> H 1.6465048565 -1.2609950391 1.3217321361
| 17> O -0.2944090385 -0.9314191835 1.0765198229
| 18> O 0.9866788957 -2.2324721929 -0.3749339553
| 19> O 2.8175477171 0.2916785516 -0.2170047101
| 20> O 1.2061814373 2.5069629371 -0.4377681994
| 21> O -1.5154918551 2.2406529909 0.5500751778
| 22> O -2.6281603852 -2.0693856385 -0.3872997556
| 23> H -1.0417705493 -1.3206253662 -1.4768149885
| 24> H -2.530230887 -0.3379982964 -1.389090638
| 25> H 0.903945614 -3.0540853853 0.1317993378
| 26> H 3.2936763419 -0.4039402609 -0.6919155093
| 27> H 2.1764370128 2.4799257993 -0.4288635974
| 28> H -1.2872520707 2.3003820339 1.4895345582
| 29> H -2.1045535415 -2.5937800373 0.2351763273
| 30> *
| 31>
| 32>                          ****END OF INPUT****

CARTESIAN COORDINATES (ANGSTROEM)
---------------------------------
  C     -1.853383   -0.978729   -0.822104
  C     -1.274084   -0.181930    0.357373
  H     -2.076584   -0.050195    1.092481
  C     -0.771955    1.223105   -0.063427
  H     -0.930851    1.373008   -1.136462
  C      0.734095    1.350396    0.197552
  H      0.920290    1.410156    1.283099
  C      1.431815    0.095479   -0.339165
  H      1.149045   -0.047437   -1.391080
  C      0.961153   -1.123583    0.471179
  H      1.646505   -1.260995    1.321732
  O     -0.294409   -0.931419    1.076520
  O      0.986679   -2.232472   -0.374934
  O      2.817548    0.291679   -0.217005
  O      1.206181    2.506963   -0.437768
  O     -1.515492    2.240653    0.550075
  O     -2.628160   -2.069386   -0.387300
  H     -1.041771   -1.320625   -1.476815
  H     -2.530231   -0.337998   -1.389091
  H      0.903946   -3.054085    0.131799
  H      3.293676   -0.403940   -0.691916
  H      2.176437    2.479926   -0.428864
  H     -1.287252    2.300382    1.489535
  H     -2.104554   -2.593780    0.235176

 Total Charge           Charge          ....    0
 Multiplicity           Mult            ....    1
 Number of Electrons    NEL             ....   96
 Basis Dimension        Dim             ....  192

ORBITAL ENERGIES
----------------

  NO   OCC          E(Eh)            E(eV)
   0   2.0000     -18.778379      -510.9857
   1   2.0000     -18.775881      -510.9177
   2   2.0000     -18.773875      -510.8631
   3   2.0000     -18.746187      -510.1097
   4   2.0000     -18.746066      -510.1064
   5   2.0000     -18.741201      -509.9740
   6   2.0000      -9.994222      -271.9566
   7   2.0000      -9.952043      -270.8088
   8   2.0000      -9.945952      -270.6431
   9   2.0000      -9.943246      -270.5695
  10   2.0000      -9.940901      -270.5057
  11   2.0000      -9.926726      -270.1199
  12   2.0000      -0.988761       -26.9055
  13   2.0000      -0.952808       -25.9272
  14   2.0000      -0.936830       -25.4924
  15   2.0000      -0.924930       -25.1686
  16   2.0000      -0.914510       -24.8851
  17   2.0000      -0.913037       -24.8450
  18   2.0000      -0.708109       -19.2686
  19   2.0000      -0.695374       -18.9221
  20   2.0000      -0.621946       -16.9240
  21   2.0000      -0.590714       -16.0741
  22   2.0000      -0.568566       -15.4715
  23   2.0000      -0.531117       -14.4524
  24   2.0000      -0.515273       -14.0213
  25   2.0000      -0.492936       -13.4135
  26   2.0000      -0.471678       -12.8350
  27   2.0000      -0.464393       -12.6368
  28   2.0000      -0.445067       -12.1109
  29   2.0000      -0.432338       -11.7645
  30   2.0000      -0.410280       -11.1643
  31   2.0000      -0.404102       -10.9962
  32   2.0000      -0.392646       -10.6844
  33   2.0000      -0.381559       -10.3827
  34   2.0000      -0.360408        -9.8072
  35   2.0000      -0.353926        -9.6308
  36   2.0000      -0.331276        -9.0145
  37   2.0000      -0.316018        -8.5993
  38   2.0000      -0.304896        -8.2966
  39   2.0000      -0.294225        -8.0063
  40   2.0000      -0.287172        -7.8143
  41   2.0000      -0.266003        -7.2383
  42   2.0000      -0.261651        -7.1199
  43   2.0000      -0.248368        -6.7584
  44   2.0000      -0.237413        -6.4603
  45   2.0000      -0.227774        -6.1980
  46   2.0000      -0.218806        -5.9540
  47   2.0000      -0.197383        -5.3711
  48   0.0000       0.006042         0.1644
  49   0.0000       0.015774         0.4292
  50   0.0000       0.031009         0.8438
  51   0.0000       0.052636         1.4323
  52   0.0000       0.053732         1.4621

MULLIKEN ATOMIC CHARGES
-----------------------
   0 C :    0.026326
   1 C :    0.011346
   2 H :    0.069662
   3 C :    0.081637
   4 H :    0.073759
   5 C :    0.062157
   6 H :    0.044701
   7 C :   -0.023552
   8 H :    0.073587
   9 C :    0.202099
  10 H :    0.062206
  11 O :   -0.320270
  12 O :   -0.393077
  13 O :   -0.418033
  14 O :   -0.406293
  15 O :   -0.408749
  16 O :   -0.435748
  17 H :    0.094585
  18 H :    0.095637
  19 H :    0.304054
  20 H :    0.312829
  21 H :    0.304016
  22 H :    0.299073
  23 H :    0.288050
Sum of atomic charges:   -0.0000000

LOEWDIN ATOMIC CHARGES
----------------------
   0 C :   -0.140747
   1 C :   -0.078590
   2 H :    0.119080
   3 C :   -0.063388
   4 H :    0.122074
   5 C :   -0.071532
   6 H :    0.099443
   7 C :   -0.090335
   8 H :    0.111105
   9 C :   -0.014268
  10 H :    0.100323
  11 O :   -0.155547
  12 O :   -0.310443
  13 O :   -0.315554
  14 O :   -0.313798
  15 O :   -0.305408
  16 O :   -0.337822
  17 H :    0.102148
  18 H :    0.119075
  19 H :    0.286549
  20 H :    0.295180
  21 H :    0.283515
  22 H :    0.284222
  23 H :    0.274719

  Mayer bond orders larger than 0.100000
B(  0-C ,  1-C ) :   1.0487 B(  0-C , 16-O ) :   1.0614 B(  0-C , 17-H ) :   0.8968
B(  0-C , 18-H ) :   0.9150 B(  1-C ,  2-H ) :   0.8864 B(  1-C ,  3-C ) :   0.9391
B(  1-C , 11-O ) :   0.9995 B(  3-C ,  4-H ) :   0.8795 B(  3-C ,  5-C ) :   1.0149
B(  3-C , 15-O ) :   1.0531 B(  5-C ,  6-H ) :   0.8624 B(  5-C ,  7-C ) :   1.0047
B(  5-C , 14-O ) :   1.1144 B(  7-C ,  8-H ) :   0.8823 B(  7-C ,  9-C ) :   0.9844
B(  7-C , 13-O ) :   1.0679 B(  9-C , 10-H ) :   0.8873 B(  9-C , 11-O ) :   1.0578
B(  9-C , 12-O ) :   1.1230 B( 12-O , 19-H ) :   0.8397 B( 13-O , 20-H ) :   0.8425
B( 14-O , 21-H ) :   0.8322 B( 15-O , 22-H ) :   0.8488 B( 16-O , 23-H ) :   0.8471

Dispersion correction           -0.024459154
FINAL SINGLE POINT ENERGY      -685.690791752764

DIPOLE MOMENT
-------------

Method             : SCF
Type of density    : Electron Density
Multiplicity       :   1
Irrep              :   0
Energy             :  -685.8203505984256481 Eh
Relativity type    :
Basis              : AO
                                X                 Y                 Z
Electronic contribution:      1.222873191       0.399142059       1.410190179
Nuclear contribution   :      0.119799187      -1.415368024      -0.897918637
                        -----------------------------------------
Total Dipole Moment    :      1.342672378      -1.016225964       0.512271542
                        -----------------------------------------
Magnitude (a.u.)       :      1.760087060
Magnitude (Debye)      :      4.473785769

Rotational constants in cm-1:             0.038743             0.028229             0.018462
Rotational constants in MHz :          1161.482594           846.275772           553.467314

                             ****ORCA TERMINATED NORMALLY****
TOTAL RUN TIME: 0 days 0 hours 0 minutes 11 seconds 927 msec
