                         Program Version 6.0.0  -   RELEASE  -
|  1> ! pbe def2-sv(p) def2/J RI DEFGRID1 loosescf d4 GCP(DFT/SV(P)) printgap
|  2> %output
|  3>     printlevel normal
|  4> end
|  5> * xyz 0 1
|  6> C -1.0849743217 -1.8946133264 2.48151e-05
|  7> C -0.0104488593 -0.8617767317 2.39761e-05
|  8> C 1.3253191617 -1.2462261012 -7.0268e-06
|  9> C 2.3467714031 -0.3137772431 1.80766e-05
| 10> C 2.0534649033 1.0433740283 -1.83125e-05
| 11> C 0.7372463736 1.4497421525 1.55317e-05
| 12> C -0.307021638 0.5155731991 -1.13838e-05
| 13> C -1.6665869883 1.0313980278 -3.25833e-05
| 14> O -2.702517994 0.3946524576 3.7266e-06
| 15> H -1.7265906233 -1.7735379902 0.8716704894
| 16> H -1.7254942622 -1.7745372641 -0.8725656908
| 17> H -0.6601915926 -2.8943891512 0.0007991963
| 18> H 1.5655327693 -2.2988419329 -0.0002187206
| 19> H 3.3742669117 -0.6434540389 -9.25443e-05
| 20> H 2.8483069385 1.7723323862 4.28493e-05
| 21> H 0.4937736427 2.5020427098 0.0001989102
| 22> H -1.7129171001 2.1383729527 -4.9675e-05
| 23> *
| 24>
| 25>                          ****END OF INPUT****

CARTESIAN COORDINATES (ANGSTROEM)
---------------------------------
  C     -1.084974   -1.894613    0.000025
  C     -0.010449   -0.861777    0.000024
  C      1.325319   -1.246226   -0.000007
  C      2.346771   -0.313777    0.000018
  C      2.053465    1.043374   -0.000018
  C      0.737246    1.449742    0.000016
  C     -0.307022    0.515573   -0.000011
  C     -1.666587    1.031398   -0.000033
  O     -2.702518    0.394652    0.000004
  H     -1.726591   -1.773538    0.871670
  H     -1.725494   -1.774537   -0.872566
  H     -0.660192   -2.894389    0.000799
  H      1.565533   -2.298842   -0.000219
  H      3.374267   -0.643454   -0.000093
  H      2.848307    1.772332    0.000043
  H      0.493774    2.502043    0.000199
  H     -1.712917    2.138373   -0.000050

 Total Charge           Charge          ....    0
 Multiplicity           Mult            ....    1
 Number of Electrons    NEL             ....   64
 Basis Dimension        Dim             ....  142

ORBITAL ENERGIES
----------------

  NO   OCC          E(Eh)            E(eV)
   0   2.0000     -18.744127      -510.0536
   1   2.0000      -9.966301      -271.1968
   2   2.0000      -9.923981      -270.0453
   3   2.0000      -9.911191      -269.6972
   4   2.0000      -9.910159      -269.6691
   5   2.0000      -9.909107      -269.6405
   6   2.0000      -9.904663      -269.5196
   7   2.0000      -9.904596      -269.5178
   8   2.0000      -9.882677      -268.9213
   9   2.0000      -0.937168       -25.5016
  10   2.0000      -0.794819       -21.6281
  11   2.0000      -0.709553       -19.3079
  12   2.0000      -0.698732       -19.0135
  13   2.0000      -0.628373       -17.0989
  14   2.0000      -0.580475       -15.7955
  15   2.0000      -0.551768       -15.0144
  16   2.0000      -0.505477       -13.7547
  17   2.0000      -0.464536       -12.6407
  18   2.0000      -0.434402       -11.8207
  19   2.0000      -0.416465       -11.3326
  20   2.0000      -0.390231       -10.6187
  21   2.0000      -0.390039       -10.6135
  22   2.0000      -0.382356       -10.4044
  23   2.0000      -0.369033       -10.0419
  24   2.0000      -0.348559        -9.4848
  25   2.0000      -0.342719        -9.3258
  26   2.0000      -0.328033        -8.9262
  27   2.0000      -0.321690        -8.7536
  28   2.0000      -0.311498        -8.4763
  29   2.0000      -0.245707        -6.6860
  30   2.0000      -0.234915        -6.3924
  31   2.0000      -0.201551        -5.4845
  32   0.0000      -0.094769        -2.5788
  33   0.0000      -0.045886        -1.2486
  34   0.0000       0.000594         0.0162
  35   0.0000       0.039219         1.0672
  36   0.0000       0.057491         1.5644

MULLIKEN ATOMIC CHARGES
-----------------------
   0 C :   -0.185007
   1 C :   -0.031035
   2 C :   -0.124752
   3 C :   -0.028670
   4 C :   -0.036885
   5 C :   -0.117759
   6 C :    0.083764
   7 C :    0.004643
   8 O :   -0.168476
   9 H :    0.125506
  10 H :    0.125471
  11 H :    0.092891
  12 H :    0.045203
  13 H :    0.061683
  14 H :    0.058529
  15 H :    0.055495
  16 H :    0.039398
Sum of atomic charges:    0.0000000

LOEWDIN ATOMIC CHARGES
----------------------
   0 C :   -0.323620
   1 C :   -0.004751
   2 C :   -0.122007
   3 C :   -0.098336
   4 C :   -0.128545
   5 C :   -0.093122
   6 C :   -0.092468
   7 C :    0.000104
   8 O :   -0.126669
   9 H :    0.141080
  10 H :    0.141085
  11 H :    0.119072
  12 H :    0.125584
  13 H :    0.128392
  14 H :    0.127222
  15 H :    0.127011
  16 H :    0.079968

  Mayer bond orders larger than 0.100000
B(  0-C ,  1-C ) :   1.1708 B(  0-C ,  9-H ) :   0.9128 B(  0-C , 10-H ) :   0.9128
B(  0-C , 11-H ) :   0.9274 B(  1-C ,  2-C ) :   1.4029 B(  1-C ,  6-C ) :   1.3480
B(  2-C ,  3-C ) :   1.3578 B(  2-C , 12-H ) :   0.9567 B(  3-C ,  4-C ) :   1.3521
B(  3-C , 13-H ) :   0.9632 B(  4-C ,  5-C ) :   1.3844 B(  4-C , 14-H ) :   0.9667
B(  5-C ,  6-C ) :   1.3047 B(  5-C , 15-H ) :   0.9572 B(  6-C ,  7-C ) :   1.0025
B(  7-C ,  8-O ) :   2.0916 B(  7-C , 16-H ) :   0.9204

Dispersion correction           -0.018026994
FINAL SINGLE POINT ENERGY      -384.060547590123

DIPOLE MOMENT
-------------

Method             : SCF
Type of density    : Electron Density
Multiplicity       :   1
Irrep              :   0
Energy             :  -384.1075060368562504 Eh
Relativity type    :
Basis              : AO
                                X                 Y                 Z
Electronic contribution:     -1.158956685       2.805312283       0.000114989
Nuclear contribution   :      2.264754130      -2.782406761      -0.000201825
                        -----------------------------------------
Total Dipole Moment    :      1.105797445       0.022905522      -0.000086837
                        -----------------------------------------
Magnitude (a.u.)       :      1.106034656
Magnitude (Debye)      :      2.811316676

Rotational constants in cm-1:             0.102288             0.049117             0.033385
Rotational constants in MHz :          3066.531120          1472.501074          1000.850816

                             ****ORCA TERMINATED NORMALLY****
TOTAL RUN TIME: 0 days 0 hours 0 minutes 8 seconds 194 msec
