                         Program Version 6.0.0  -   RELEASE  -
|  1> ! pbe def2-sv(p) def2/J RI DEFGRID1 loosescf d4 GCP(DFT/SV(P)) printgap
|  2> %output
|  3>     printlevel normal
|  4> end
|  5> * xyz 0 1
|  6> C -2.7817511656 0.8120298578 0.8008198568
|  7> C -1.5124374885 0.5163537251 0.0619048351
|  8> C -0.9009544223 1.4104100897 -0.7030790407
|  9> C 0.3955342333 1.1925384328 -1.4191315301
| 10> C 1.1493751864 -0.0453116848 -0.924219714
| 11> H 1.8657368665 -0.3450210407 -1.6980380363
| 12> C 0.1389736558 -1.1873262223 -0.7584917576
| 13> C -0.9136722052 -0.8547969185 0.3009058471
| 14> H -0.4494890566 -0.8599253254 1.2973092443
| 15> O -1.8974315725 -1.8751302338 0.3744846657
| 16> C 1.936217419 0.1755454392 0.3481177164
| 17> C 1.6624504194 1.1194128435 1.234511613
| 18> C 3.0857385842 -0.7697277725 0.5394552316
| 19> H -3.2099945385 1.7561670169 0.4762508522
| 20> H -2.5751330421 0.8663087832 1.8698370356
| 21> H -3.5076632607 0.0151455097 0.6536302561
| 22> H -1.3499033857 2.3857345832 -0.8433911651
| 23> H 0.1861532478 1.0788914592 -2.4881607667
| 24> H 1.024399984 2.0791199197 -1.3105809367
| 25> H -0.3670046981 -1.3435586065 -1.7147816332
| 26> H 0.6387401589 -2.1178032624 -0.4846886885
| 27> H -2.2907007623 -1.985352943 -0.5025250572
| 28> H 2.2524611272 1.2348717591 2.1287258237
| 29> H 0.8427990372 1.8057692094 1.1182834681
| 30> H 3.5714395034 -0.6030848282 1.4967112798
| 31> H 2.74214448 -1.801734294 0.4976211403
| 32> H 3.8200037102 -0.6322758523 -0.2534558921
| 33> *
| 34>
| 35>                          ****END OF INPUT****

CARTESIAN COORDINATES (ANGSTROEM)
---------------------------------
  C     -2.781751    0.812030    0.800820
  C     -1.512437    0.516354    0.061905
  C     -0.900954    1.410410   -0.703079
  C      0.395534    1.192538   -1.419132
  C      1.149375   -0.045312   -0.924220
  H      1.865737   -0.345021   -1.698038
  C      0.138974   -1.187326   -0.758492
  C     -0.913672   -0.854797    0.300906
  H     -0.449489   -0.859925    1.297309
  O     -1.897432   -1.875130    0.374485
  C      1.936217    0.175545    0.348118
  C      1.662450    1.119413    1.234512
  C      3.085739   -0.769728    0.539455
  H     -3.209995    1.756167    0.476251
  H     -2.575133    0.866309    1.869837
  H     -3.507663    0.015146    0.653630
  H     -1.349903    2.385735   -0.843391
  H      0.186153    1.078891   -2.488161
  H      1.024400    2.079120   -1.310581
  H     -0.367005   -1.343559   -1.714782
  H      0.638740   -2.117803   -0.484689
  H     -2.290701   -1.985353   -0.502525
  H      2.252461    1.234872    2.128726
  H      0.842799    1.805769    1.118283
  H      3.571440   -0.603085    1.496711
  H      2.742144   -1.801734    0.497621
  H      3.820004   -0.632276   -0.253456

 Total Charge           Charge          ....    0
 Multiplicity           Mult            ....    1
 Number of Electrons    NEL             ....   84
 Basis Dimension        Dim             ....  186

ORBITAL ENERGIES
----------------

  NO   OCC          E(Eh)            E(eV)
   0   2.0000     -18.741454      -509.9809
   1   2.0000      -9.933929      -270.3159
   2   2.0000      -9.901365      -269.4298
   3   2.0000      -9.898246      -269.3450
   4   2.0000      -9.888866      -269.0897
   5   2.0000      -9.888379      -269.0765
   6   2.0000      -9.887635      -269.0562
   7   2.0000      -9.881185      -268.8807
   8   2.0000      -9.880356      -268.8582
   9   2.0000      -9.872724      -268.6505
  10   2.0000      -9.867471      -268.5075
  11   2.0000      -0.918981       -25.0067
  12   2.0000      -0.767312       -20.8796
  13   2.0000      -0.717440       -19.5225
  14   2.0000      -0.677339       -18.4313
  15   2.0000      -0.658799       -17.9268
  16   2.0000      -0.611532       -16.6406
  17   2.0000      -0.606665       -16.5082
  18   2.0000      -0.556694       -15.1484
  19   2.0000      -0.539162       -14.6713
  20   2.0000      -0.488629       -13.2963
  21   2.0000      -0.458552       -12.4778
  22   2.0000      -0.436894       -11.8885
  23   2.0000      -0.415922       -11.3178
  24   2.0000      -0.408292       -11.1102
  25   2.0000      -0.397128       -10.8064
  26   2.0000      -0.388781       -10.5793
  27   2.0000      -0.376108       -10.2344
  28   2.0000      -0.368603       -10.0302
  29   2.0000      -0.359978        -9.7955
  30   2.0000      -0.357184        -9.7195
  31   2.0000      -0.340359        -9.2616
  32   2.0000      -0.333250        -9.0682
  33   2.0000      -0.323740        -8.8094
  34   2.0000      -0.317135        -8.6297
  35   2.0000      -0.304175        -8.2770
  36   2.0000      -0.285254        -7.7622
  37   2.0000      -0.277708        -7.5568
  38   2.0000      -0.265953        -7.2369
  39   2.0000      -0.220034        -5.9874
  40   2.0000      -0.212121        -5.7721
  41   2.0000      -0.204159        -5.5554
  42   0.0000      -0.020117        -0.5474
  43   0.0000      -0.006332        -0.1723
  44   0.0000       0.032015         0.8712
  45   0.0000       0.041404         1.1267
  46   0.0000       0.059785         1.6268

MULLIKEN ATOMIC CHARGES
-----------------------
   0 C :   -0.191438
   1 C :   -0.085700
   2 C :   -0.211603
   3 C :   -0.039566
   4 C :   -0.125680
   5 H :    0.058868
   6 C :   -0.113977
   7 C :    0.093610
   8 H :    0.084431
   9 O :   -0.422121
  10 C :   -0.071374
  11 C :   -0.226797
  12 C :   -0.212956
  13 H :    0.093973
  14 H :    0.105678
  15 H :    0.096710
  16 H :    0.041298
  17 H :    0.090635
  18 H :    0.091884
  19 H :    0.067464
  20 H :    0.089178
  21 H :    0.291654
  22 H :    0.078615
  23 H :    0.103472
  24 H :    0.098124
  25 H :    0.108380
  26 H :    0.107239
Sum of atomic charges:   -0.0000000

LOEWDIN ATOMIC CHARGES
----------------------
   0 C :   -0.322862
   1 C :   -0.085678
   2 C :   -0.151544
   3 C :   -0.211575
   4 C :   -0.129333
   5 H :    0.120579
   6 C :   -0.214444
   7 C :   -0.043618
   8 H :    0.121813
   9 O :   -0.319103
  10 C :   -0.050438
  11 C :   -0.266446
  12 C :   -0.321798
  13 H :    0.120345
  14 H :    0.130655
  15 H :    0.122953
  16 H :    0.115649
  17 H :    0.127366
  18 H :    0.125422
  19 H :    0.113713
  20 H :    0.118278
  21 H :    0.280277
  22 H :    0.117108
  23 H :    0.123931
  24 H :    0.123961
  25 H :    0.126461
  26 H :    0.128329

  Mayer bond orders larger than 0.100000
B(  0-C ,  1-C ) :   1.1265 B(  0-C , 13-H ) :   0.9424 B(  0-C , 14-H ) :   0.9281
B(  0-C , 15-H ) :   0.9224 B(  1-C ,  2-C ) :   1.8970 B(  1-C ,  7-C ) :   0.9827
B(  2-C ,  3-C ) :   1.0507 B(  2-C , 16-H ) :   0.9191 B(  3-C ,  4-C ) :   1.0889
B(  3-C , 17-H ) :   0.8874 B(  3-C , 18-H ) :   0.9018 B(  4-C ,  5-H ) :   0.8724
B(  4-C ,  6-C ) :   1.0398 B(  4-C , 10-C ) :   1.0095 B(  6-C ,  7-C ) :   1.1030
B(  6-C , 19-H ) :   0.9042 B(  6-C , 20-H ) :   0.9024 B(  7-C ,  8-H ) :   0.8559
B(  7-C ,  9-O ) :   1.0281 B(  9-O , 21-H ) :   0.8507 B( 10-C , 11-C ) :   2.0586
B( 10-C , 12-C ) :   1.1200 B( 11-C , 22-H ) :   0.8992 B( 11-C , 23-H ) :   0.8906
B( 12-C , 24-H ) :   0.9401 B( 12-C , 25-H ) :   0.9296 B( 12-C , 26-H ) :   0.9276

Dispersion correction           -0.029763418
FINAL SINGLE POINT ENERGY      -464.793293298748

DIPOLE MOMENT
-------------

Method             : SCF
Type of density    : Electron Density
Multiplicity       :   1
Irrep              :   0
Energy             :  -464.8823857592628883 Eh
Relativity type    :
Basis              : AO
                                X                 Y                 Z
Electronic contribution:     -2.784403065      -1.308782411      -0.811934019
Nuclear contribution   :      2.968357387       1.410639927       0.233290193
                        -----------------------------------------
Total Dipole Moment    :      0.183954322       0.101857516      -0.578643825
                        -----------------------------------------
Magnitude (a.u.)       :      0.615664538
Magnitude (Debye)      :      1.564894890

Rotational constants in cm-1:             0.055699             0.028079             0.024606
Rotational constants in MHz :          1669.807390           841.798928           737.680530

                             ****ORCA TERMINATED NORMALLY****
TOTAL RUN TIME: 0 days 0 hours 0 minutes 12 seconds 708 msec
