                         Program Version 6.0.0  -   RELEASE  -
|  1> ! pbe def2-sv(p) def2/J RI DEFGRID1 loosescf d4 GCP(DFT/SV(P)) printgap
|  2> %output
|  3>     printlevel normal
|  4> end
|  5> * xyz 0 1
|  6> C 2.1061848461 -2.1032084584 0.3917734335
|  7> C 1.1627093359 -0.9762917564 0.1274720653
|  8> C 1.4749199625 0.2845401664 0.4727346982
|  9> C 0.6205894779 1.4190124228 0.1894237209
| 10> O 0.8941796063 2.5577044189 0.5644952016
| 11> C -0.6059830301 1.1344718989 -0.6421574178
| 12> C -1.2121616131 -0.2421340731 -0.3512148769
| 13> C -0.1228760339 -1.3039043693 -0.5557260645
| 14> C -2.3738306818 -0.5063825975 -1.3111089517
| 15> C -1.727506289 -0.2896930711 1.0891693639
| 16> H 3.0233480494 -1.9583691478 -0.1764470719
| 17> H 1.6711056156 -3.0588652442 0.1168732648
| 18> H 2.3805160155 -2.1262861523 1.444250082
| 19> H 2.3998295199 0.5080048282 0.9865651823
| 20> H -1.3330695669 1.9328550752 -0.48228023
| 21> H -0.2885469836 1.1807002431 -1.6885967909
| 22> H -0.4846918458 -2.2732195096 -0.2074268889
| 23> H 0.0869441588 -1.4050334131 -1.6258949409
| 24> H -3.1564775017 0.234940217 -1.1707948859
| 25> H -2.7982408842 -1.490472517 -1.1289170676
| 26> H -2.0405534062 -0.4596239935 -2.3450959793
| 27> H -0.9195348743 -0.1132013879 1.7957717065
| 28> H -2.1707785771 -1.2591573831 1.3029877767
| 29> H -2.4849716502 0.4750103165 1.2447958968
| 30> *
| 31>
| 32>                          ****END OF INPUT****

CARTESIAN COORDINATES (ANGSTROEM)
---------------------------------
  C      2.106185   -2.103208    0.391773
  C      1.162709   -0.976292    0.127472
  C      1.474920    0.284540    0.472735
  C      0.620589    1.419012    0.189424
  O      0.894180    2.557704    0.564495
  C     -0.605983    1.134472   -0.642157
  C     -1.212162   -0.242134   -0.351215
  C     -0.122876   -1.303904   -0.555726
  C     -2.373831   -0.506383   -1.311109
  C     -1.727506   -0.289693    1.089169
  H      3.023348   -1.958369   -0.176447
  H      1.671106   -3.058865    0.116873
  H      2.380516   -2.126286    1.444250
  H      2.399830    0.508005    0.986565
  H     -1.333070    1.932855   -0.482280
  H     -0.288547    1.180700   -1.688597
  H     -0.484692   -2.273220   -0.207427
  H      0.086944   -1.405033   -1.625895
  H     -3.156478    0.234940   -1.170795
  H     -2.798241   -1.490473   -1.128917
  H     -2.040553   -0.459624   -2.345096
  H     -0.919535   -0.113201    1.795772
  H     -2.170779   -1.259157    1.302988
  H     -2.484972    0.475010    1.244796

 Total Charge           Charge          ....    0
 Multiplicity           Mult            ....    1
 Number of Electrons    NEL             ....   76
 Basis Dimension        Dim             ....  168

ORBITAL ENERGIES
----------------

  NO   OCC          E(Eh)            E(eV)
   0   2.0000     -18.720237      -509.4036
   1   2.0000      -9.958528      -270.9853
   2   2.0000      -9.922226      -269.9975
   3   2.0000      -9.919744      -269.9300
   4   2.0000      -9.901850      -269.4430
   5   2.0000      -9.893857      -269.2255
   6   2.0000      -9.886297      -269.0198
   7   2.0000      -9.886020      -269.0123
   8   2.0000      -9.881105      -268.8785
   9   2.0000      -9.878893      -268.8183
  10   2.0000      -0.913346       -24.8534
  11   2.0000      -0.782026       -21.2800
  12   2.0000      -0.726008       -19.7557
  13   2.0000      -0.666733       -18.1427
  14   2.0000      -0.632293       -17.2056
  15   2.0000      -0.623088       -16.9551
  16   2.0000      -0.617783       -16.8107
  17   2.0000      -0.515370       -14.0239
  18   2.0000      -0.503214       -13.6931
  19   2.0000      -0.456059       -12.4100
  20   2.0000      -0.432317       -11.7639
  21   2.0000      -0.430514       -11.7149
  22   2.0000      -0.403509       -10.9800
  23   2.0000      -0.398750       -10.8505
  24   2.0000      -0.378912       -10.3107
  25   2.0000      -0.376815       -10.2537
  26   2.0000      -0.359532        -9.7834
  27   2.0000      -0.352996        -9.6055
  28   2.0000      -0.346419        -9.4265
  29   2.0000      -0.342911        -9.3311
  30   2.0000      -0.335722        -9.1355
  31   2.0000      -0.323840        -8.8121
  32   2.0000      -0.318089        -8.6556
  33   2.0000      -0.293188        -7.9780
  34   2.0000      -0.287871        -7.8334
  35   2.0000      -0.281426        -7.6580
  36   2.0000      -0.228280        -6.2118
  37   2.0000      -0.181786        -4.9466
  38   0.0000      -0.078898        -2.1469
  39   0.0000       0.013610         0.3703
  40   0.0000       0.029139         0.7929
  41   0.0000       0.051501         1.4014
  42   0.0000       0.068041         1.8515

MULLIKEN ATOMIC CHARGES
-----------------------
   0 C :   -0.222849
   1 C :   -0.075091
   2 C :   -0.143259
   3 C :    0.047491
   4 O :   -0.184509
   5 C :   -0.057161
   6 C :   -0.328508
   7 C :   -0.023825
   8 C :   -0.170363
   9 C :   -0.208659
  10 H :    0.129733
  11 H :    0.104618
  12 H :    0.127425
  13 H :    0.042097
  14 H :    0.084802
  15 H :    0.098609
  16 H :    0.086256
  17 H :    0.097008
  18 H :    0.098385
  19 H :    0.093236
  20 H :    0.089456
  21 H :    0.118921
  22 H :    0.093650
  23 H :    0.102538
Sum of atomic charges:   -0.0000000

LOEWDIN ATOMIC CHARGES
----------------------
   0 C :   -0.326493
   1 C :   -0.012632
   2 C :   -0.173330
   3 C :    0.028613
   4 O :   -0.151174
   5 C :   -0.221906
   6 C :   -0.097952
   7 C :   -0.196061
   8 C :   -0.314691
   9 C :   -0.317839
  10 H :    0.143161
  11 H :    0.124652
  12 H :    0.142620
  13 H :    0.127834
  14 H :    0.129324
  15 H :    0.136772
  16 H :    0.125686
  17 H :    0.137171
  18 H :    0.120634
  19 H :    0.117334
  20 H :    0.115389
  21 H :    0.123580
  22 H :    0.117174
  23 H :    0.122133

  Mayer bond orders larger than 0.100000
B(  0-C ,  1-C ) :   1.1075 B(  0-C , 10-H ) :   0.9323 B(  0-C , 11-H ) :   0.9423
B(  0-C , 12-H ) :   0.9315 B(  1-C ,  2-C ) :   1.6940 B(  1-C ,  7-C ) :   1.0953
B(  2-C ,  3-C ) :   1.0545 B(  2-C , 13-H ) :   0.9495 B(  3-C ,  4-O ) :   2.0959
B(  3-C ,  5-C ) :   1.0350 B(  5-C ,  6-C ) :   1.0201 B(  5-C , 14-H ) :   0.8895
B(  5-C , 15-H ) :   0.8814 B(  6-C ,  7-C ) :   1.0316 B(  6-C ,  8-C ) :   1.0858
B(  6-C ,  9-C ) :   1.0731 B(  7-C , 16-H ) :   0.8888 B(  7-C , 17-H ) :   0.8686
B(  8-C , 18-H ) :   0.9436 B(  8-C , 19-H ) :   0.9440 B(  8-C , 20-H ) :   0.9413
B(  9-C , 21-H ) :   0.9391 B(  9-C , 22-H ) :   0.9457 B(  9-C , 23-H ) :   0.9470

Dispersion correction           -0.025284865
FINAL SINGLE POINT ENERGY      -425.630528692738

DIPOLE MOMENT
-------------

Method             : SCF
Type of density    : Electron Density
Multiplicity       :   1
Irrep              :   0
Energy             :  -425.7048477276489393 Eh
Relativity type    :
Basis              : AO
                                X                 Y                 Z
Electronic contribution:      5.526379395       7.639177145       1.410535431
Nuclear contribution   :     -5.723746682      -9.168043326      -1.806241784
                        -----------------------------------------
Total Dipole Moment    :     -0.197367287      -1.528866180      -0.395706353
                        -----------------------------------------
Magnitude (a.u.)       :      1.591530446
Magnitude (Debye)      :      4.045348905

Rotational constants in cm-1:             0.050987             0.044913             0.028636
Rotational constants in MHz :          1528.556603          1346.460956           858.472696

                             ****ORCA TERMINATED NORMALLY****
TOTAL RUN TIME: 0 days 0 hours 0 minutes 11 seconds 890 msec
