                         Program Version 6.0.0  -   RELEASE  -
|  1> ! pbe def2-sv(p) def2/J RI DEFGRID1 loosescf d4 GCP(DFT/SV(P)) printgap
|  2> %output
|  3>     printlevel normal
|  4> end
|  5> * xyz 0 1
|  6> C 1.2255234733 0.440024717 -1.5548384929
|  7> C 2.5977946806 0.5348804326 -1.6961565868
|  8> C 3.4236413106 0.3007629837 -0.6076896947
|  9> C 2.8704314653 -0.0296529761 0.6245180228
| 10> C 1.4962291654 -0.1259052655 0.7671761257
| 11> C 0.6710869742 0.109533931 -0.3242554465
| 12> C -0.8001715835 0.0068674538 -0.1699634098
| 13> C -1.5546041306 1.1297494236 0.1616879455
| 14> C -2.9373128926 1.0327818996 0.2998055626
| 15> C -3.5742768512 -0.1831821825 0.1074715113
| 16> C -2.8292262699 -1.3049096662 -0.2210219746
| 17> C -1.4462028155 -1.2124787429 -0.359207726
| 18> Cl -0.5115298601 -2.6027165281 -0.7655960967
| 19> Cl -3.6199557213 -2.8146858698 -0.4581128247
| 20> Cl -3.8619671392 2.4244955389 0.7109083089
| 21> Cl -0.7537347022 2.6370067315 0.4026470747
| 22> Cl 3.8941304435 -0.3231884715 1.9906391268
| 23> Cl 5.1419889982 0.4204768057 -0.7850888346
| 24> H 0.5827194854 0.6218396777 -2.4004863017
| 25> H 3.0362927818 0.7898762104 -2.646576713
| 26> H 1.0754491295 -0.382377063 1.7255707833
| 27> H -4.6438901317 -0.2562297661 0.2133327297
| 28> *
| 29>
| 30>                          ****END OF INPUT****

CARTESIAN COORDINATES (ANGSTROEM)
---------------------------------
  C      1.225523    0.440025   -1.554838
  C      2.597795    0.534880   -1.696157
  C      3.423641    0.300763   -0.607690
  C      2.870431   -0.029653    0.624518
  C      1.496229   -0.125905    0.767176
  C      0.671087    0.109534   -0.324255
  C     -0.800172    0.006867   -0.169963
  C     -1.554604    1.129749    0.161688
  C     -2.937313    1.032782    0.299806
  C     -3.574277   -0.183182    0.107472
  C     -2.829226   -1.304910   -0.221022
  C     -1.446203   -1.212479   -0.359208
  Cl    -0.511530   -2.602717   -0.765596
  Cl    -3.619956   -2.814686   -0.458113
  Cl    -3.861967    2.424496    0.710908
  Cl    -0.753735    2.637007    0.402647
  Cl     3.894130   -0.323188    1.990639
  Cl     5.141989    0.420477   -0.785089
  H      0.582719    0.621840   -2.400486
  H      3.036293    0.789876   -2.646577
  H      1.075449   -0.382377    1.725571
  H     -4.643890   -0.256230    0.213333

 Total Charge           Charge          ....    0
 Multiplicity           Mult            ....    1
 Number of Electrons    NEL             ....  178
 Basis Dimension        Dim             ....  284

ORBITAL ENERGIES
----------------

  NO   OCC          E(Eh)            E(eV)
   0   2.0000    -100.661221     -2739.1311
   1   2.0000    -100.661191     -2739.1303
   2   2.0000    -100.661135     -2739.1287
   3   2.0000    -100.661128     -2739.1285
   4   2.0000    -100.651717     -2738.8725
   5   2.0000    -100.651480     -2738.8660
   6   2.0000      -9.980710      -271.5889
   7   2.0000      -9.980680      -271.5881
   8   2.0000      -9.980411      -271.5808
   9   2.0000      -9.980349      -271.5791
  10   2.0000      -9.968441      -271.2551
  11   2.0000      -9.968188      -271.2482
  12   2.0000      -9.947226      -270.6778
  13   2.0000      -9.935124      -270.3485
  14   2.0000      -9.932667      -270.2816
  15   2.0000      -9.920706      -269.9561
  16   2.0000      -9.919701      -269.9288
  17   2.0000      -9.915989      -269.8278
  18   2.0000      -9.196988      -250.2628
  19   2.0000      -9.196968      -250.2622
  20   2.0000      -9.196693      -250.2547
  21   2.0000      -9.196680      -250.2544
  22   2.0000      -9.187302      -249.9992
  23   2.0000      -9.187067      -249.9928
  24   2.0000      -7.028590      -191.2577
  25   2.0000      -7.028584      -191.2575
  26   2.0000      -7.028352      -191.2512
  27   2.0000      -7.028342      -191.2509
  28   2.0000      -7.018902      -190.9940
  29   2.0000      -7.018686      -190.9882
  30   2.0000      -7.016978      -190.9417
  31   2.0000      -7.016966      -190.9414
  32   2.0000      -7.016768      -190.9360
  33   2.0000      -7.016764      -190.9359
  34   2.0000      -7.016083      -190.9173
  35   2.0000      -7.016076      -190.9171
  36   2.0000      -7.015708      -190.9071
  37   2.0000      -7.015699      -190.9069
  38   2.0000      -7.007350      -190.6797
  39   2.0000      -7.007113      -190.6732
  40   2.0000      -7.006455      -190.6553
  41   2.0000      -7.006228      -190.6491
  42   2.0000      -0.870741       -23.6941
  43   2.0000      -0.844890       -22.9906
  44   2.0000      -0.838319       -22.8118
  45   2.0000      -0.811156       -22.0727
  46   2.0000      -0.795805       -21.6550
  47   2.0000      -0.788484       -21.4557
  48   2.0000      -0.776591       -21.1321
  49   2.0000      -0.758250       -20.6330
  50   2.0000      -0.709192       -19.2981
  51   2.0000      -0.683708       -18.6046
  52   2.0000      -0.662031       -18.0148
  53   2.0000      -0.657869       -17.9015
  54   2.0000      -0.595258       -16.1978
  55   2.0000      -0.572985       -15.5917
  56   2.0000      -0.553071       -15.0498
  57   2.0000      -0.540123       -14.6975
  58   2.0000      -0.492305       -13.3963
  59   2.0000      -0.490406       -13.3446
  60   2.0000      -0.473360       -12.8808
  61   2.0000      -0.458749       -12.4832
  62   2.0000      -0.438058       -11.9202
  63   2.0000      -0.427613       -11.6359
  64   2.0000      -0.421766       -11.4768
  65   2.0000      -0.410306       -11.1650
  66   2.0000      -0.409223       -11.1355
  67   2.0000      -0.403404       -10.9772
  68   2.0000      -0.389073       -10.5872
  69   2.0000      -0.383674       -10.4403
  70   2.0000      -0.376929       -10.2567
  71   2.0000      -0.362238        -9.8570
  72   2.0000      -0.348305        -9.4778
  73   2.0000      -0.346148        -9.4192
  74   2.0000      -0.327310        -8.9065
  75   2.0000      -0.314059        -8.5460
  76   2.0000      -0.311517        -8.4768
  77   2.0000      -0.309336        -8.4174
  78   2.0000      -0.302598        -8.2341
  79   2.0000      -0.293038        -7.9740
  80   2.0000      -0.289062        -7.8658
  81   2.0000      -0.280046        -7.6204
  82   2.0000      -0.279062        -7.5937
  83   2.0000      -0.272014        -7.4019
  84   2.0000      -0.265863        -7.2345
  85   2.0000      -0.243214        -6.6182
  86   2.0000      -0.241330        -6.5669
  87   2.0000      -0.224758        -6.1160
  88   2.0000      -0.223682        -6.0867
  89   0.0000      -0.075112        -2.0439
  90   0.0000      -0.072083        -1.9615
  91   0.0000      -0.061820        -1.6822
  92   0.0000      -0.057571        -1.5666
  93   0.0000      -0.044454        -1.2097

MULLIKEN ATOMIC CHARGES
-----------------------
   0 C :   -0.050587
   1 C :   -0.091372
   2 C :    0.077591
   3 C :    0.098881
   4 C :   -0.116477
   5 C :    0.022468
   6 C :   -0.031093
   7 C :    0.050902
   8 C :    0.077717
   9 C :   -0.158073
  10 C :    0.077588
  11 C :    0.050817
  12 Cl:   -0.021619
  13 Cl:   -0.039950
  14 Cl:   -0.040011
  15 Cl:   -0.021684
  16 Cl:   -0.051607
  17 Cl:   -0.051628
  18 H :    0.056606
  19 H :    0.057402
  20 H :    0.049771
  21 H :    0.054357
Sum of atomic charges:    0.0000000

LOEWDIN ATOMIC CHARGES
----------------------
   0 C :   -0.105015
   1 C :   -0.126653
   2 C :   -0.151342
   3 C :   -0.148932
   4 C :   -0.116698
   5 C :   -0.046805
   6 C :   -0.057009
   7 C :   -0.150895
   8 C :   -0.157580
   9 C :   -0.146677
  10 C :   -0.157579
  11 C :   -0.150882
  12 Cl:    0.173264
  13 Cl:    0.161700
  14 Cl:    0.161682
  15 Cl:    0.173289
  16 Cl:    0.146436
  17 Cl:    0.145964
  18 H :    0.134063
  19 H :    0.137014
  20 H :    0.138181
  21 H :    0.144473

  Mayer bond orders larger than 0.100000
B(  0-C ,  1-C ) :   1.3335 B(  0-C ,  5-C ) :   1.3612 B(  0-C , 18-H ) :   0.9653
B(  1-C ,  2-C ) :   1.3812 B(  1-C , 19-H ) :   0.9653 B(  2-C ,  3-C ) :   1.4078
B(  2-C , 17-Cl) :   1.0398 B(  3-C ,  4-C ) :   1.3544 B(  3-C , 16-Cl) :   1.0361
B(  4-C ,  5-C ) :   1.3342 B(  4-C , 20-H ) :   0.9695 B(  5-C ,  6-C ) :   0.9669
B(  6-C ,  7-C ) :   1.4273 B(  6-C ,  9-C ) :   0.1052 B(  6-C , 11-C ) :   1.4275
B(  7-C ,  8-C ) :   1.3733 B(  7-C , 15-Cl) :   1.1222 B(  8-C ,  9-C ) :   1.3316
B(  8-C , 14-Cl) :   1.0330 B(  9-C , 10-C ) :   1.3318 B(  9-C , 21-H ) :   0.9801
B( 10-C , 11-C ) :   1.3733 B( 10-C , 13-Cl) :   1.0331 B( 11-C , 12-Cl) :   1.1222

Dispersion correction           -0.045811351
FINAL SINGLE POINT ENERGY     -3217.961438421240

DIPOLE MOMENT
-------------

Method             : SCF
Type of density    : Electron Density
Multiplicity       :   1
Irrep              :   0
Energy             : -3217.9850492306322849 Eh
Relativity type    :
Basis              : AO
                                X                 Y                 Z
Electronic contribution:     -0.209363853      -1.015970037       4.060546991
Nuclear contribution   :     -0.340361879       1.072424283      -4.386255328
                        -----------------------------------------
Total Dipole Moment    :     -0.549725733       0.056454246      -0.325708337
                        -----------------------------------------
Magnitude (a.u.)       :      0.641460353
Magnitude (Debye)      :      1.630462641

Rotational constants in cm-1:             0.012283             0.004683             0.003820
Rotational constants in MHz :           368.239078           140.398206           114.509637

                             ****ORCA TERMINATED NORMALLY****
TOTAL RUN TIME: 0 days 0 hours 0 minutes 21 seconds 898 msec
