                         Program Version 6.0.0  -   RELEASE  -
|  1> ! pbe def2-sv(p) def2/J RI DEFGRID1 loosescf d4 GCP(DFT/SV(P)) printgap
|  2> %output
|  3>     printlevel normal
|  4> end
|  5> * xyz 0 1
|  6> C -2.1066392535 -1.1991376949 -0.2006573864
|  7> C -1.2622593922 -0.3359515761 0.7465156682
|  8> H -1.8632508293 -0.1422869829 1.6412159653
|  9> C -0.9136171363 1.0297694669 0.1214809294
| 10> H -1.1622944849 1.0197851817 -0.9517484207
| 11> C 0.5954090151 1.285875255 0.2625799289
| 12> H 0.8416863563 1.3504379449 1.3296062971
| 13> C 1.3314245871 0.102056052 -0.3764823494
| 14> H 0.9804632554 -0.0226157367 -1.4088604996
| 15> C 0.9900550919 -1.1877128263 0.4145989428
| 16> H 1.8121774839 -1.4274287079 1.1003697612
| 17> O -0.1209434671 -1.0077391263 1.2662189687
| 18> O 0.8630638229 -2.2964270443 -0.4079351127
| 19> O 2.7124364276 0.3145446658 -0.4915814245
| 20> O 0.9544282518 2.5268182796 -0.2897930897
| 21> O -1.6706297847 2.0225149099 0.7695037184
| 22> O -1.4749326516 -1.3194221402 -1.4639061334
| 23> H -3.0791060688 -0.7093187384 -0.3072146392
| 24> H -2.2370172288 -2.1852739831 0.2588675402
| 25> H 0.1127475824 -2.1440329263 -1.0215105541
| 26> H 3.0941538887 0.5193736773 0.3740499371
| 27> H 1.0689589684 2.4411879549 -1.2474733473
| 28> H -1.2713057102 2.8855862919 0.5754086951
| 29> H -2.0787952888 -1.7639203169 -2.0765717507
| 30> *
| 31>
| 32>                          ****END OF INPUT****

CARTESIAN COORDINATES (ANGSTROEM)
---------------------------------
  C     -2.106639   -1.199138   -0.200657
  C     -1.262259   -0.335952    0.746516
  H     -1.863251   -0.142287    1.641216
  C     -0.913617    1.029769    0.121481
  H     -1.162294    1.019785   -0.951748
  C      0.595409    1.285875    0.262580
  H      0.841686    1.350438    1.329606
  C      1.331425    0.102056   -0.376482
  H      0.980463   -0.022616   -1.408860
  C      0.990055   -1.187713    0.414599
  H      1.812177   -1.427429    1.100370
  O     -0.120943   -1.007739    1.266219
  O      0.863064   -2.296427   -0.407935
  O      2.712436    0.314545   -0.491581
  O      0.954428    2.526818   -0.289793
  O     -1.670630    2.022515    0.769504
  O     -1.474933   -1.319422   -1.463906
  H     -3.079106   -0.709319   -0.307215
  H     -2.237017   -2.185274    0.258868
  H      0.112748   -2.144033   -1.021511
  H      3.094154    0.519374    0.374050
  H      1.068959    2.441188   -1.247473
  H     -1.271306    2.885586    0.575409
  H     -2.078795   -1.763920   -2.076572

 Total Charge           Charge          ....    0
 Multiplicity           Mult            ....    1
 Number of Electrons    NEL             ....   96
 Basis Dimension        Dim             ....  192

ORBITAL ENERGIES
----------------

  NO   OCC          E(Eh)            E(eV)
   0   2.0000     -18.795622      -511.4549
   1   2.0000     -18.761018      -510.5133
   2   2.0000     -18.759680      -510.4768
   3   2.0000     -18.750816      -510.2357
   4   2.0000     -18.746756      -510.1252
   5   2.0000     -18.731971      -509.7228
   6   2.0000      -9.974608      -271.4229
   7   2.0000      -9.951672      -270.7988
   8   2.0000      -9.949864      -270.7496
   9   2.0000      -9.940520      -270.4953
  10   2.0000      -9.940211      -270.4869
  11   2.0000      -9.939139      -270.4577
  12   2.0000      -0.974534       -26.5184
  13   2.0000      -0.956860       -26.0375
  14   2.0000      -0.944789       -25.7090
  15   2.0000      -0.927685       -25.2436
  16   2.0000      -0.914209       -24.8769
  17   2.0000      -0.894625       -24.3440
  18   2.0000      -0.708372       -19.2758
  19   2.0000      -0.690304       -18.7841
  20   2.0000      -0.625733       -17.0271
  21   2.0000      -0.580857       -15.8059
  22   2.0000      -0.577030       -15.7018
  23   2.0000      -0.532140       -14.4803
  24   2.0000      -0.497339       -13.5333
  25   2.0000      -0.488197       -13.2845
  26   2.0000      -0.477632       -12.9970
  27   2.0000      -0.455917       -12.4061
  28   2.0000      -0.442740       -12.0476
  29   2.0000      -0.432747       -11.7757
  30   2.0000      -0.423440       -11.5224
  31   2.0000      -0.415670       -11.3109
  32   2.0000      -0.398900       -10.8546
  33   2.0000      -0.378700       -10.3049
  34   2.0000      -0.353955        -9.6316
  35   2.0000      -0.344339        -9.3699
  36   2.0000      -0.329002        -8.9526
  37   2.0000      -0.314883        -8.5684
  38   2.0000      -0.303123        -8.2484
  39   2.0000      -0.293481        -7.9860
  40   2.0000      -0.284600        -7.7444
  41   2.0000      -0.268239        -7.2992
  42   2.0000      -0.261962        -7.1283
  43   2.0000      -0.252736        -6.8773
  44   2.0000      -0.236979        -6.4485
  45   2.0000      -0.216731        -5.8976
  46   2.0000      -0.212881        -5.7928
  47   2.0000      -0.197582        -5.3765
  48   0.0000      -0.001655        -0.0450
  49   0.0000       0.022157         0.6029
  50   0.0000       0.034234         0.9315
  51   0.0000       0.053905         1.4668
  52   0.0000       0.058166         1.5828

MULLIKEN ATOMIC CHARGES
-----------------------
   0 C :   -0.007424
   1 C :    0.069099
   2 H :    0.090819
   3 C :    0.053501
   4 H :    0.047850
   5 C :    0.037312
   6 H :    0.058580
   7 C :   -0.010068
   8 H :    0.052845
   9 C :    0.230314
  10 H :    0.051936
  11 O :   -0.307839
  12 O :   -0.412813
  13 O :   -0.404917
  14 O :   -0.412720
  15 O :   -0.419033
  16 O :   -0.440533
  17 H :    0.099204
  18 H :    0.100909
  19 H :    0.293758
  20 H :    0.301701
  21 H :    0.302897
  22 H :    0.301719
  23 H :    0.322905
Sum of atomic charges:   -0.0000000

LOEWDIN ATOMIC CHARGES
----------------------
   0 C :   -0.138277
   1 C :   -0.056655
   2 H :    0.134178
   3 C :   -0.076946
   4 H :    0.095564
   5 C :   -0.092825
   6 H :    0.114680
   7 C :   -0.099621
   8 H :    0.111876
   9 C :   -0.006607
  10 H :    0.107167
  11 O :   -0.147717
  12 O :   -0.319575
  13 O :   -0.307283
  14 O :   -0.311871
  15 O :   -0.325998
  16 O :   -0.325753
  17 H :    0.116214
  18 H :    0.111741
  19 H :    0.262563
  20 H :    0.286079
  21 H :    0.287906
  22 H :    0.281869
  23 H :    0.299293

  Mayer bond orders larger than 0.100000
B(  0-C ,  1-C ) :   1.0687 B(  0-C , 16-O ) :   1.0082 B(  0-C , 17-H ) :   0.9141
B(  0-C , 18-H ) :   0.9114 B(  1-C ,  2-H ) :   0.8813 B(  1-C ,  3-C ) :   0.9731
B(  1-C , 11-O ) :   1.0532 B(  3-C ,  4-H ) :   0.8746 B(  3-C ,  5-C ) :   1.0141
B(  3-C , 15-O ) :   1.0798 B(  5-C ,  6-H ) :   0.8592 B(  5-C ,  7-C ) :   0.9987
B(  5-C , 14-O ) :   1.0607 B(  7-C ,  8-H ) :   0.8661 B(  7-C ,  9-C ) :   0.9686
B(  7-C , 13-O ) :   1.0563 B(  9-C , 10-H ) :   0.8923 B(  9-C , 11-O ) :   1.0262
B(  9-C , 12-O ) :   1.1473 B( 12-O , 19-H ) :   0.7896 B( 13-O , 20-H ) :   0.8481
B( 14-O , 21-H ) :   0.8453 B( 15-O , 22-H ) :   0.8320 B( 16-O , 19-H ) :   0.1261
B( 16-O , 23-H ) :   0.8379

Dispersion correction           -0.025203843
FINAL SINGLE POINT ENERGY      -685.693997349222

DIPOLE MOMENT
-------------

Method             : SCF
Type of density    : Electron Density
Multiplicity       :   1
Irrep              :   0
Energy             :  -685.8261750033664157 Eh
Relativity type    :
Basis              : AO
                                X                 Y                 Z
Electronic contribution:      2.523643778       0.311309626       0.879357586
Nuclear contribution   :     -3.529050339      -0.163909548      -1.635804439
                        -----------------------------------------
Total Dipole Moment    :     -1.005406561       0.147400078      -0.756446853
                        -----------------------------------------
Magnitude (a.u.)       :      1.266799502
Magnitude (Debye)      :      3.219948440

Rotational constants in cm-1:             0.036138             0.032385             0.021309
Rotational constants in MHz :          1083.386311           970.864727           638.814899

                             ****ORCA TERMINATED NORMALLY****
TOTAL RUN TIME: 0 days 0 hours 0 minutes 12 seconds 334 msec
