                         Program Version 6.0.0  -   RELEASE  -
|  1> ! pbe def2-sv(p) def2/J RI DEFGRID1 loosescf d4 GCP(DFT/SV(P)) printgap
|  2> %output
|  3>     printlevel normal
|  4> end
|  5> * xyz 0 1
|  6> C 0.8665959612 -1.8248258491 -0.0014480718
|  7> C 1.8808421964 -0.891779319 0.0068512282
|  8> C 1.5911764761 0.4784429251 0.0109448485
|  9> C 0.248724239 0.8759394122 0.0091627883
| 10> C -0.7448167397 -0.0798549173 0.0001247072
| 11> C -0.4646834184 -1.4344175586 -0.0044019877
| 12> Cl -2.4122332388 0.4428069163 -0.0006579653
| 13> N 2.5887607174 1.4077568344 -0.0437793577
| 14> H 1.1064741559 -2.8767812879 -0.002893575
| 15> H 2.910991824 -1.2128307353 0.0079051001
| 16> H -0.0063440065 1.9238280936 0.0119069011
| 17> H -1.2609022651 -2.1599998433 -0.0084750345
| 18> H 2.3532627609 2.3587541759 0.1801198676
| 19> H 3.5184753978 1.1058552783 0.1899323618
| 20> *
| 21>
| 22>                          ****END OF INPUT****

CARTESIAN COORDINATES (ANGSTROEM)
---------------------------------
  C      0.866596   -1.824826   -0.001448
  C      1.880842   -0.891779    0.006851
  C      1.591176    0.478443    0.010945
  C      0.248724    0.875939    0.009163
  C     -0.744817   -0.079855    0.000125
  C     -0.464683   -1.434418   -0.004402
  Cl    -2.412233    0.442807   -0.000658
  N      2.588761    1.407757   -0.043779
  H      1.106474   -2.876781   -0.002894
  H      2.910992   -1.212831    0.007905
  H     -0.006344    1.923828    0.011907
  H     -1.260902   -2.160000   -0.008475
  H      2.353263    2.358754    0.180120
  H      3.518475    1.105855    0.189932

 Total Charge           Charge          ....    0
 Multiplicity           Mult            ....    1
 Number of Electrons    NEL             ....   66
 Basis Dimension        Dim             ....  128

ORBITAL ENERGIES
----------------

  NO   OCC          E(Eh)            E(eV)
   0   2.0000    -100.627935     -2738.2253
   1   2.0000     -14.001426      -380.9982
   2   2.0000      -9.942022      -270.5362
   3   2.0000      -9.940093      -270.4837
   4   2.0000      -9.894889      -269.2536
   5   2.0000      -9.889738      -269.1135
   6   2.0000      -9.887273      -269.0464
   7   2.0000      -9.884065      -268.9591
   8   2.0000      -9.163779      -249.3591
   9   2.0000      -6.995063      -190.3453
  10   2.0000      -6.983796      -190.0387
  11   2.0000      -6.983261      -190.0242
  12   2.0000      -0.847174       -23.0528
  13   2.0000      -0.795968       -21.6594
  14   2.0000      -0.741110       -20.1666
  15   2.0000      -0.665198       -18.1010
  16   2.0000      -0.647346       -17.6152
  17   2.0000      -0.554156       -15.0793
  18   2.0000      -0.542699       -14.7676
  19   2.0000      -0.480563       -13.0768
  20   2.0000      -0.471854       -12.8398
  21   2.0000      -0.433540       -11.7972
  22   2.0000      -0.398112       -10.8332
  23   2.0000      -0.390483       -10.6256
  24   2.0000      -0.379169       -10.3177
  25   2.0000      -0.358558        -9.7569
  26   2.0000      -0.326771        -8.8919
  27   2.0000      -0.311145        -8.4667
  28   2.0000      -0.308548        -8.3960
  29   2.0000      -0.264585        -7.1997
  30   2.0000      -0.257312        -7.0018
  31   2.0000      -0.213453        -5.8083
  32   2.0000      -0.178880        -4.8676
  33   0.0000      -0.033443        -0.9100
  34   0.0000      -0.016560        -0.4506
  35   0.0000       0.015846         0.4312
  36   0.0000       0.029271         0.7965
  37   0.0000       0.056976         1.5504

MULLIKEN ATOMIC CHARGES
-----------------------
   0 C :   -0.072244
   1 C :   -0.113869
   2 C :    0.151314
   3 C :   -0.148078
   4 C :    0.102972
   5 C :   -0.081513
   6 Cl:   -0.103527
   7 N :   -0.326694
   8 H :    0.054858
   9 H :    0.023013
  10 H :    0.019796
  11 H :    0.041131
  12 H :    0.226442
  13 H :    0.226399
Sum of atomic charges:    0.0000000

LOEWDIN ATOMIC CHARGES
----------------------
   0 C :   -0.109305
   1 C :   -0.170081
   2 C :    0.000111
   3 C :   -0.184210
   4 C :   -0.116911
   5 C :   -0.179738
   6 Cl:    0.107760
   7 N :   -0.303678
   8 H :    0.126175
   9 H :    0.119388
  10 H :    0.124154
  11 H :    0.127076
  12 H :    0.229659
  13 H :    0.229601

  Mayer bond orders larger than 0.100000
B(  0-C ,  1-C ) :   1.3959 B(  0-C ,  5-C ) :   1.3424 B(  0-C ,  8-H ) :   0.9565
B(  1-C ,  2-C ) :   1.3151 B(  1-C ,  9-H ) :   0.9622 B(  2-C ,  3-C ) :   1.2882
B(  2-C ,  7-N ) :   1.2586 B(  3-C ,  4-C ) :   1.3989 B(  3-C , 10-H ) :   0.9602
B(  4-C ,  5-C ) :   1.3935 B(  4-C ,  6-Cl) :   0.9480 B(  5-C , 11-H ) :   0.9668
B(  7-N , 12-H ) :   0.8802 B(  7-N , 13-H ) :   0.8799

Dispersion correction           -0.015509051
FINAL SINGLE POINT ENERGY      -746.244906848756

DIPOLE MOMENT
-------------

Method             : SCF
Type of density    : Electron Density
Multiplicity       :   1
Irrep              :   0
Energy             :  -746.2838762092109164 Eh
Relativity type    :
Basis              : AO
                                X                 Y                 Z
Electronic contribution:    -10.142143800       1.784668223      -0.090067026
Nuclear contribution   :     11.340822371      -1.394507858       0.355737209
                        -----------------------------------------
Total Dipole Moment    :      1.198678571       0.390160365       0.265670183
                        -----------------------------------------
Magnitude (a.u.)       :      1.288268634
Magnitude (Debye)      :      3.274518637

Rotational constants in cm-1:             0.115295             0.039983             0.029698
Rotational constants in MHz :          3456.468880          1198.646663           890.318847

                             ****ORCA TERMINATED NORMALLY****
TOTAL RUN TIME: 0 days 0 hours 0 minutes 7 seconds 290 msec
