                         Program Version 6.0.0  -   RELEASE  -
|  1> ! pbe def2-sv(p) def2/J RI DEFGRID1 loosescf d4 GCP(DFT/SV(P)) printgap
|  2> %output
|  3>     printlevel normal
|  4> end
|  5> * xyz 0 1
|  6> C 1.8652443592 -1.06645949 0.0476700821
|  7> C 1.1048002484 0.1772506064 0.4959143749
|  8> C -0.3600872875 0.2106443015 0.013265685
|  9> C -1.0279401844 1.4958978586 0.5198888224
| 10> C -1.1423930036 -1.0074541701 0.507296614
| 11> O -0.4122425997 0.1634946422 -1.4104164684
| 12> H 1.7118193967 -1.2337018947 -1.0162019804
| 13> H 1.5261804482 -1.9461646443 0.5873723891
| 14> H 2.9294856284 -0.9417116494 0.2313062956
| 15> H 1.6113003493 1.063271783 0.1034178213
| 16> H 1.1142086748 0.2456352221 1.5843989651
| 17> H -0.454694403 2.3711758076 0.2205639156
| 18> H -2.0303530321 1.5770936399 0.1060871644
| 19> H -1.0963826119 1.4806728621 1.6035030106
| 20> H -2.1921657786 -0.8943164169 0.249967813
| 21> H -0.7711698518 -1.9053533794 0.0230030391
| 22> H -1.0453388131 -1.1076905189 1.5836982412
| 23> H 0.0021092978 0.9614194545 -1.7648972957
| 24> *
| 25>
| 26>                          ****END OF INPUT****

CARTESIAN COORDINATES (ANGSTROEM)
---------------------------------
  C      1.865244   -1.066459    0.047670
  C      1.104800    0.177251    0.495914
  C     -0.360087    0.210644    0.013266
  C     -1.027940    1.495898    0.519889
  C     -1.142393   -1.007454    0.507297
  O     -0.412243    0.163495   -1.410416
  H      1.711819   -1.233702   -1.016202
  H      1.526180   -1.946165    0.587372
  H      2.929486   -0.941712    0.231306
  H      1.611300    1.063272    0.103418
  H      1.114209    0.245635    1.584399
  H     -0.454694    2.371176    0.220564
  H     -2.030353    1.577094    0.106087
  H     -1.096383    1.480673    1.603503
  H     -2.192166   -0.894316    0.249968
  H     -0.771170   -1.905353    0.023003
  H     -1.045339   -1.107691    1.583698
  H      0.002109    0.961419   -1.764897

 Total Charge           Charge          ....    0
 Multiplicity           Mult            ....    1
 Number of Electrons    NEL             ....   50
 Basis Dimension        Dim             ....  108

ORBITAL ENERGIES
----------------

  NO   OCC          E(Eh)            E(eV)
   0   2.0000     -18.737999      -509.8869
   1   2.0000      -9.944824      -270.6124
   2   2.0000      -9.882095      -268.9055
   3   2.0000      -9.872507      -268.6446
   4   2.0000      -9.869323      -268.5579
   5   2.0000      -9.868161      -268.5263
   6   2.0000      -0.916576       -24.9413
   7   2.0000      -0.714942       -19.4545
   8   2.0000      -0.657758       -17.8985
   9   2.0000      -0.616872       -16.7860
  10   2.0000      -0.556096       -15.1321
  11   2.0000      -0.508141       -13.8272
  12   2.0000      -0.429845       -11.6967
  13   2.0000      -0.409940       -11.1550
  14   2.0000      -0.405385       -11.0311
  15   2.0000      -0.375782       -10.2255
  16   2.0000      -0.359218        -9.7748
  17   2.0000      -0.340015        -9.2523
  18   2.0000      -0.330461        -8.9923
  19   2.0000      -0.318009        -8.6535
  20   2.0000      -0.314984        -8.5711
  21   2.0000      -0.292340        -7.9550
  22   2.0000      -0.290803        -7.9131
  23   2.0000      -0.262358        -7.1391
  24   2.0000      -0.211878        -5.7655
  25   0.0000       0.019658         0.5349
  26   0.0000       0.062892         1.7114
  27   0.0000       0.072682         1.9778
  28   0.0000       0.075535         2.0554
  29   0.0000       0.090348         2.4585

MULLIKEN ATOMIC CHARGES
-----------------------
   0 C :   -0.259498
   1 C :   -0.147918
   2 C :   -0.059694
   3 C :   -0.212174
   4 C :   -0.221019
   5 O :   -0.420513
   6 H :    0.102693
   7 H :    0.101418
   8 H :    0.098277
   9 H :    0.063809
  10 H :    0.078031
  11 H :    0.082979
  12 H :    0.104014
  13 H :    0.092884
  14 H :    0.100088
  15 H :    0.111361
  16 H :    0.094167
  17 H :    0.291097
Sum of atomic charges:   -0.0000000

LOEWDIN ATOMIC CHARGES
----------------------
   0 C :   -0.345903
   1 C :   -0.235069
   2 C :   -0.016956
   3 C :   -0.338315
   4 C :   -0.326330
   5 O :   -0.319495
   6 H :    0.119484
   7 H :    0.117553
   8 H :    0.118521
   9 H :    0.107850
  10 H :    0.116869
  11 H :    0.111449
  12 H :    0.120586
  13 H :    0.121824
  14 H :    0.122457
  15 H :    0.124861
  16 H :    0.120982
  17 H :    0.279632

  Mayer bond orders larger than 0.100000
B(  0-C ,  1-C ) :   1.1596 B(  0-C ,  6-H ) :   0.9416 B(  0-C ,  7-H ) :   0.9490
B(  0-C ,  8-H ) :   0.9506 B(  1-C ,  2-C ) :   1.0397 B(  1-C ,  9-H ) :   0.9144
B(  1-C , 10-H ) :   0.9146 B(  2-C ,  3-C ) :   1.0898 B(  2-C ,  4-C ) :   1.0779
B(  2-C ,  5-O ) :   1.0151 B(  3-C , 11-H ) :   0.9396 B(  3-C , 12-H ) :   0.9422
B(  3-C , 13-H ) :   0.9392 B(  4-C , 14-H ) :   0.9434 B(  4-C , 15-H ) :   0.9368
B(  4-C , 16-H ) :   0.9473 B(  5-O , 17-H ) :   0.8538

Dispersion correction           -0.013646287
FINAL SINGLE POINT ENERGY      -272.309121999342

DIPOLE MOMENT
-------------

Method             : SCF
Type of density    : Electron Density
Multiplicity       :   1
Irrep              :   0
Energy             :  -272.3782423297446940 Eh
Relativity type    :
Basis              : AO
                                X                 Y                 Z
Electronic contribution:     -1.003447161       0.740120724      -3.025193104
Nuclear contribution   :      1.218185016      -0.306857820       3.274105258
                        -----------------------------------------
Total Dipole Moment    :      0.214737855       0.433262904       0.248912154
                        -----------------------------------------
Magnitude (a.u.)       :      0.543862438
Magnitude (Debye)      :      1.382388457

Rotational constants in cm-1:             0.151186             0.087315             0.085317
Rotational constants in MHz :          4532.456609          2617.650996          2557.742526

                             ****ORCA TERMINATED NORMALLY****
TOTAL RUN TIME: 0 days 0 hours 0 minutes 6 seconds 946 msec
