                         Program Version 6.0.0  -   RELEASE  -
|  1> ! r2scan-3c def2/J RI DEFGRID2 scfconv6 printgap
|  2> %output
|  3>     printlevel normal
|  4> end
|  5> * xyz 0 1
|  6> C -2.1654633862 -0.074449499 -0.2363111131
|  7> C -0.7907987954 0.0103196921 0.4144026737
|  8> C 0.0930714413 -1.2225516825 0.123135669
|  9> C 1.4635958239 -0.683241677 -0.3161860684
| 10> C 1.4737833527 0.7738746329 0.1429064085
| 11> C 0.0298122032 1.2074693448 -0.0818250187
| 12> H -2.7160773243 -0.931513026 0.1446810919
| 13> H -2.740132162 0.8249087959 -0.0258758051
| 14> H -2.0695993599 -0.176639109 -1.3151951535
| 15> H -0.9252164842 0.1055604978 1.4965730708
| 16> H 0.1879670058 -1.8416331122 1.0149281865
| 17> H -0.3496727043 -1.8386558776 -0.6590095047
| 18> H 2.2868822334 -1.2566759339 0.1072204025
| 19> H 1.5501695399 -0.7209878024 -1.4028704468
| 20> H 1.7176064546 0.8319043667 1.2050783944
| 21> H 2.1891516527 1.3812021765 -0.4097904088
| 22> H -0.2233359483 2.1275973867 0.4429382919
| 23> H -0.1471036353 1.358831464 -1.1483139553
| 24> *
| 25>
| 26>                          ****END OF INPUT****

CARTESIAN COORDINATES (ANGSTROEM)
---------------------------------
  C     -2.165463   -0.074449   -0.236311
  C     -0.790799    0.010320    0.414403
  C      0.093071   -1.222552    0.123136
  C      1.463596   -0.683242   -0.316186
  C      1.473783    0.773875    0.142906
  C      0.029812    1.207469   -0.081825
  H     -2.716077   -0.931513    0.144681
  H     -2.740132    0.824909   -0.025876
  H     -2.069599   -0.176639   -1.315195
  H     -0.925216    0.105560    1.496573
  H      0.187967   -1.841633    1.014928
  H     -0.349673   -1.838656   -0.659010
  H      2.286882   -1.256676    0.107220
  H      1.550170   -0.720988   -1.402870
  H      1.717606    0.831904    1.205078
  H      2.189152    1.381202   -0.409790
  H     -0.223336    2.127597    0.442938
  H     -0.147104    1.358831   -1.148314

 Total Charge           Charge          ....    0
 Multiplicity           Mult            ....    1
 Number of Electrons    NEL             ....   48
 Basis Dimension        Dim             ....  174

ORBITAL ENERGIES
----------------

  NO   OCC          E(Eh)            E(eV)
   0   2.0000     -10.026034      -272.8222
   1   2.0000     -10.018076      -272.6057
   2   2.0000     -10.017846      -272.5994
   3   2.0000     -10.016381      -272.5596
   4   2.0000     -10.015910      -272.5468
   5   2.0000     -10.012272      -272.4478
   6   2.0000      -0.802861       -21.8470
   7   2.0000      -0.708508       -19.2795
   8   2.0000      -0.670937       -18.2571
   9   2.0000      -0.614492       -16.7212
  10   2.0000      -0.533429       -14.5153
  11   2.0000      -0.512136       -13.9359
  12   2.0000      -0.451172       -12.2770
  13   2.0000      -0.430112       -11.7040
  14   2.0000      -0.393464       -10.7067
  15   2.0000      -0.380869       -10.3640
  16   2.0000      -0.371832       -10.1181
  17   2.0000      -0.341326        -9.2880
  18   2.0000      -0.301546        -8.2055
  19   2.0000      -0.300342        -8.1727
  20   2.0000      -0.289964        -7.8903
  21   2.0000      -0.289234        -7.8704
  22   2.0000      -0.282305        -7.6819
  23   2.0000      -0.274860        -7.4793
  24   0.0000       0.085482         2.3261
  25   0.0000       0.099334         2.7030
  26   0.0000       0.106398         2.8952
  27   0.0000       0.129135         3.5139
  28   0.0000       0.139867         3.8060

MULLIKEN ATOMIC CHARGES
-----------------------
   0 C :   -0.521970
   1 C :    0.031730
   2 C :   -0.396266
   3 C :   -0.294999
   4 C :   -0.250232
   5 C :   -0.361838
   6 H :    0.147674
   7 H :    0.142827
   8 H :    0.146983
   9 H :    0.152710
  10 H :    0.152850
  11 H :    0.157877
  12 H :    0.147956
  13 H :    0.147913
  14 H :    0.143903
  15 H :    0.149525
  16 H :    0.151584
  17 H :    0.151773
Sum of atomic charges:   -0.0000000

LOEWDIN ATOMIC CHARGES
----------------------
   0 C :   -0.414688
   1 C :   -0.235846
   2 C :   -0.303072
   3 C :   -0.304529
   4 C :   -0.303701
   5 C :   -0.300389
   6 H :    0.152360
   7 H :    0.152630
   8 H :    0.151019
   9 H :    0.156703
  10 H :    0.157674
  11 H :    0.158414
  12 H :    0.155015
  13 H :    0.154061
  14 H :    0.154789
  15 H :    0.155016
  16 H :    0.157592
  17 H :    0.156954

  Mayer bond orders larger than 0.100000
B(  0-C ,  1-C ) :   0.8955 B(  0-C ,  6-H ) :   0.9794 B(  0-C ,  7-H ) :   0.9737
B(  0-C ,  8-H ) :   0.9941 B(  1-C ,  2-C ) :   0.9303 B(  1-C ,  5-C ) :   0.9251
B(  1-C ,  9-H ) :   0.9373 B(  2-C ,  3-C ) :   0.9222 B(  2-C , 10-H ) :   0.9738
B(  2-C , 11-H ) :   0.9955 B(  3-C ,  4-C ) :   0.9164 B(  3-C , 12-H ) :   0.9569
B(  3-C , 13-H ) :   0.9883 B(  4-C ,  5-C ) :   0.8853 B(  4-C , 14-H ) :   0.9797
B(  4-C , 15-H ) :   0.9577 B(  5-C , 16-H ) :   0.9502 B(  5-C , 17-H ) :   1.0100

Dispersion correction           -0.004659508
FINAL SINGLE POINT ENERGY      -235.784306187000

DIPOLE MOMENT
-------------

Method             : SCF
Type of density    : Electron Density
Multiplicity       :   1
Irrep              :   0
Energy             :  -235.7871576683905630 Eh
Relativity type    :
Basis              : AO
                                X                 Y                 Z
Electronic contribution:      1.173346272       0.137133004       0.554124962
Nuclear contribution   :     -1.162722431      -0.127684152      -0.515648027
                        -----------------------------------------
Total Dipole Moment    :      0.010623841       0.009448852       0.038476935
                        -----------------------------------------
Magnitude (a.u.)       :      0.041019768
Magnitude (Debye)      :      0.104263964

Rotational constants in cm-1:             0.203361             0.101029             0.076750
Rotational constants in MHz :          6096.616565          3028.778882          2300.918638

                             ****ORCA TERMINATED NORMALLY****
TOTAL RUN TIME: 0 days 0 hours 0 minutes 11 seconds 394 msec
