                         Program Version 6.0.0  -   RELEASE  -
|  1> ! r2scan-3c def2/J RI DEFGRID2 scfconv6 printgap
|  2> %output
|  3>     printlevel normal
|  4> end
|  5> %cpcm
|  6>     smd true
|  7>     smdsolvent "water"
|  8> end
|  9> * xyz 0 1
| 10> C -2.1654633862 -0.074449499 -0.2363111131
| 11> C -0.7907987954 0.0103196921 0.4144026737
| 12> C 0.0930714413 -1.2225516825 0.123135669
| 13> C 1.4635958239 -0.683241677 -0.3161860684
| 14> C 1.4737833527 0.7738746329 0.1429064085
| 15> C 0.0298122032 1.2074693448 -0.0818250187
| 16> H -2.7160773243 -0.931513026 0.1446810919
| 17> H -2.740132162 0.8249087959 -0.0258758051
| 18> H -2.0695993599 -0.176639109 -1.3151951535
| 19> H -0.9252164842 0.1055604978 1.4965730708
| 20> H 0.1879670058 -1.8416331122 1.0149281865
| 21> H -0.3496727043 -1.8386558776 -0.6590095047
| 22> H 2.2868822334 -1.2566759339 0.1072204025
| 23> H 1.5501695399 -0.7209878024 -1.4028704468
| 24> H 1.7176064546 0.8319043667 1.2050783944
| 25> H 2.1891516527 1.3812021765 -0.4097904088
| 26> H -0.2233359483 2.1275973867 0.4429382919
| 27> H -0.1471036353 1.358831464 -1.1483139553
| 28> *
| 29>
| 30>                          ****END OF INPUT****

CARTESIAN COORDINATES (ANGSTROEM)
---------------------------------
  C     -2.165463   -0.074449   -0.236311
  C     -0.790799    0.010320    0.414403
  C      0.093071   -1.222552    0.123136
  C      1.463596   -0.683242   -0.316186
  C      1.473783    0.773875    0.142906
  C      0.029812    1.207469   -0.081825
  H     -2.716077   -0.931513    0.144681
  H     -2.740132    0.824909   -0.025876
  H     -2.069599   -0.176639   -1.315195
  H     -0.925216    0.105560    1.496573
  H      0.187967   -1.841633    1.014928
  H     -0.349673   -1.838656   -0.659010
  H      2.286882   -1.256676    0.107220
  H      1.550170   -0.720988   -1.402870
  H      1.717606    0.831904    1.205078
  H      2.189152    1.381202   -0.409790
  H     -0.223336    2.127597    0.442938
  H     -0.147104    1.358831   -1.148314

 Total Charge           Charge          ....    0
 Multiplicity           Mult            ....    1
 Number of Electrons    NEL             ....   48
 Basis Dimension        Dim             ....  174

ORBITAL ENERGIES
----------------

  NO   OCC          E(Eh)            E(eV)
   0   2.0000     -10.019311      -272.6393
   1   2.0000     -10.011622      -272.4301
   2   2.0000     -10.011403      -272.4241
   3   2.0000     -10.009527      -272.3731
   4   2.0000     -10.009228      -272.3650
   5   2.0000     -10.005653      -272.2677
   6   2.0000      -0.796355       -21.6699
   7   2.0000      -0.702298       -19.1105
   8   2.0000      -0.664702       -18.0874
   9   2.0000      -0.608439       -16.5565
  10   2.0000      -0.527168       -14.3450
  11   2.0000      -0.505770       -13.7627
  12   2.0000      -0.444592       -12.0980
  13   2.0000      -0.423886       -11.5345
  14   2.0000      -0.386980       -10.5303
  15   2.0000      -0.374023       -10.1777
  16   2.0000      -0.365658        -9.9500
  17   2.0000      -0.334664        -9.1067
  18   2.0000      -0.295230        -8.0336
  19   2.0000      -0.294326        -8.0090
  20   2.0000      -0.283081        -7.7030
  21   2.0000      -0.282824        -7.6960
  22   2.0000      -0.275909        -7.5079
  23   2.0000      -0.267837        -7.2882
  24   0.0000       0.093042         2.5318
  25   0.0000       0.105818         2.8795
  26   0.0000       0.112596         3.0639
  27   0.0000       0.133409         3.6302
  28   0.0000       0.145147         3.9496

MULLIKEN ATOMIC CHARGES
-----------------------
   0 C :   -0.560168
   1 C :    0.039768
   2 C :   -0.412761
   3 C :   -0.311059
   4 C :   -0.272048
   5 C :   -0.380373
   6 H :    0.156334
   7 H :    0.151931
   8 H :    0.159024
   9 H :    0.160862
  10 H :    0.161321
  11 H :    0.164325
  12 H :    0.155487
  13 H :    0.156705
  14 H :    0.153490
  15 H :    0.156946
  16 H :    0.160030
  17 H :    0.160184
Sum of atomic charges:   -0.0000000

LOEWDIN ATOMIC CHARGES
----------------------
   0 C :   -0.423049
   1 C :   -0.234802
   2 C :   -0.306761
   3 C :   -0.308830
   4 C :   -0.308127
   5 C :   -0.304232
   6 H :    0.154207
   7 H :    0.154329
   8 H :    0.154007
   9 H :    0.159034
  10 H :    0.159514
  11 H :    0.159914
  12 H :    0.156511
  13 H :    0.156240
  14 H :    0.157018
  15 H :    0.156587
  16 H :    0.159311
  17 H :    0.159131

  Mayer bond orders larger than 0.100000
B(  0-C ,  1-C ) :   0.8876 B(  0-C ,  6-H ) :   0.9767 B(  0-C ,  7-H ) :   0.9722
B(  0-C ,  8-H ) :   0.9908 B(  1-C ,  2-C ) :   0.9292 B(  1-C ,  5-C ) :   0.9223
B(  1-C ,  9-H ) :   0.9382 B(  2-C ,  3-C ) :   0.9184 B(  2-C , 10-H ) :   0.9734
B(  2-C , 11-H ) :   0.9939 B(  3-C ,  4-C ) :   0.9133 B(  3-C , 12-H ) :   0.9558
B(  3-C , 13-H ) :   0.9863 B(  4-C ,  5-C ) :   0.8855 B(  4-C , 14-H ) :   0.9788
B(  4-C , 15-H ) :   0.9563 B(  5-C , 16-H ) :   0.9491 B(  5-C , 17-H ) :   1.0080

Dispersion correction           -0.004659508
FINAL SINGLE POINT ENERGY      -235.782078493605

DIPOLE MOMENT
-------------

Method             : SCF
Type of density    : Electron Density
Multiplicity       :   1
Irrep              :   0
Energy             :  -235.7849299749956344 Eh
Relativity type    :
Basis              : AO
                                X                 Y                 Z
Electronic contribution:      1.171031804       0.138266999       0.559480294
Nuclear contribution   :     -1.162722431      -0.127684152      -0.515648027
                        -----------------------------------------
Total Dipole Moment    :      0.008309372       0.010582847       0.043832267
                        -----------------------------------------
Magnitude (a.u.)       :      0.045850953
Magnitude (Debye)      :      0.116543861

Rotational constants in cm-1:             0.203361             0.101029             0.076750
Rotational constants in MHz :          6096.616565          3028.778882          2300.918638

                             ****ORCA TERMINATED NORMALLY****
TOTAL RUN TIME: 0 days 0 hours 0 minutes 12 seconds 955 msec
