                         Program Version 6.0.0  -   RELEASE  -
|  1> ! r2scan-3c def2/J RI DEFGRID2 scfconv6 printgap
|  2> %output
|  3>     printlevel normal
|  4> end
|  5> * xyz 0 1
|  6> C 4.4557115458 -0.274247275 -0.0027895838
|  7> C 4.2484679379 1.0930272397 -0.0003811004
|  8> C 2.9591296932 1.6017722035 0.001479519
|  9> C 1.877230697 0.7386659152 0.0011000221
| 10> C 2.0857267378 -0.6392915871 -0.0003423879
| 11> C 3.3754072483 -1.14244604 -0.0026239663
| 12> O 1.0372966882 -1.5383822822 0.0006369093
| 13> C -0.2222949859 -0.9910494604 0.0013009035
| 14> C -1.3081835485 -1.85017163 0.0018653343
| 15> C -2.600764965 -1.3504018034 0.0012994031
| 16> C -2.7918369212 0.0184285803 -7.4463e-06
| 17> C -1.7191043004 0.8970986921 0.0002192753
| 18> C -0.4303964044 0.3909291031 0.0011970463
| 19> O 0.6077398025 1.287322776 0.0020010809
| 20> Cl -4.4016113984 0.6644162432 -0.0019295025
| 21> H 5.4566937022 -0.6734417787 -0.0047985681
| 22> H 5.0858729048 1.7712391101 -0.0001500811
| 23> H 2.7685040081 2.6623015696 0.0033364388
| 24> H 3.5078130426 -2.2117226808 -0.0041519748
| 25> H -1.1233087712 -2.9112274366 0.0027738324
| 26> H -3.443475861 -2.020391134 0.0017128437
| 27> H -1.8617832793 1.9645199424 -0.0003390407
| 28> *
| 29>
| 30>                          ****END OF INPUT****

CARTESIAN COORDINATES (ANGSTROEM)
---------------------------------
  C      4.455712   -0.274247   -0.002790
  C      4.248468    1.093027   -0.000381
  C      2.959130    1.601772    0.001480
  C      1.877231    0.738666    0.001100
  C      2.085727   -0.639292   -0.000342
  C      3.375407   -1.142446   -0.002624
  O      1.037297   -1.538382    0.000637
  C     -0.222295   -0.991049    0.001301
  C     -1.308184   -1.850172    0.001865
  C     -2.600765   -1.350402    0.001299
  C     -2.791837    0.018429   -0.000007
  C     -1.719104    0.897099    0.000219
  C     -0.430396    0.390929    0.001197
  O      0.607740    1.287323    0.002001
  Cl    -4.401611    0.664416   -0.001930
  H      5.456694   -0.673442   -0.004799
  H      5.085873    1.771239   -0.000150
  H      2.768504    2.662302    0.003336
  H      3.507813   -2.211723   -0.004152
  H     -1.123309   -2.911227    0.002774
  H     -3.443476   -2.020391    0.001713
  H     -1.861783    1.964520   -0.000339

 Total Charge           Charge          ....    0
 Multiplicity           Mult            ....    1
 Number of Electrons    NEL             ....  112
 Basis Dimension        Dim             ....  338

ORBITAL ENERGIES
----------------

  NO   OCC          E(Eh)            E(eV)
   0   2.0000    -101.222150     -2754.3947
   1   2.0000     -19.022857      -517.6383
   2   2.0000     -19.021213      -517.5935
   3   2.0000     -10.122349      -275.4431
   4   2.0000     -10.117999      -275.3248
   5   2.0000     -10.116613      -275.2870
   6   2.0000     -10.116179      -275.2752
   7   2.0000     -10.106497      -275.0118
   8   2.0000     -10.057125      -273.6683
   9   2.0000     -10.056695      -273.6566
  10   2.0000     -10.053793      -273.5776
  11   2.0000     -10.050697      -273.4934
  12   2.0000     -10.050485      -273.4876
  13   2.0000     -10.046898      -273.3900
  14   2.0000     -10.046404      -273.3766
  15   2.0000      -9.378090      -255.1908
  16   2.0000      -7.124331      -193.8629
  17   2.0000      -7.114297      -193.5899
  18   2.0000      -7.113914      -193.5794
  19   2.0000      -1.090244       -29.6670
  20   2.0000      -1.056792       -28.7568
  21   2.0000      -0.872830       -23.7509
  22   2.0000      -0.845595       -23.0098
  23   2.0000      -0.810583       -22.0571
  24   2.0000      -0.759254       -20.6603
  25   2.0000      -0.741097       -20.1663
  26   2.0000      -0.723547       -19.6887
  27   2.0000      -0.697344       -18.9757
  28   2.0000      -0.639475       -17.4010
  29   2.0000      -0.622131       -16.9290
  30   2.0000      -0.590994       -16.0818
  31   2.0000      -0.570603       -15.5269
  32   2.0000      -0.550072       -14.9682
  33   2.0000      -0.501576       -13.6486
  34   2.0000      -0.488898       -13.3036
  35   2.0000      -0.463272       -12.6063
  36   2.0000      -0.457544       -12.4504
  37   2.0000      -0.456592       -12.4245
  38   2.0000      -0.430411       -11.7121
  39   2.0000      -0.427653       -11.6370
  40   2.0000      -0.419548       -11.4165
  41   2.0000      -0.395530       -10.7629
  42   2.0000      -0.392496       -10.6804
  43   2.0000      -0.382964       -10.4210
  44   2.0000      -0.380278       -10.3479
  45   2.0000      -0.376990       -10.2584
  46   2.0000      -0.350965        -9.5503
  47   2.0000      -0.349104        -9.4996
  48   2.0000      -0.345534        -9.4025
  49   2.0000      -0.312883        -8.5140
  50   2.0000      -0.300815        -8.1856
  51   2.0000      -0.289879        -7.8880
  52   2.0000      -0.261043        -7.1033
  53   2.0000      -0.248312        -6.7569
  54   2.0000      -0.231766        -6.3067
  55   2.0000      -0.190053        -5.1716
  56   0.0000      -0.054266        -1.4766
  57   0.0000      -0.049856        -1.3566
  58   0.0000      -0.043979        -1.1967
  59   0.0000      -0.011273        -0.3068
  60   0.0000       0.003183         0.0866

MULLIKEN ATOMIC CHARGES
-----------------------
   0 C :   -0.129558
   1 C :   -0.130309
   2 C :   -0.329344
   3 C :    0.205957
   4 C :    0.214651
   5 C :   -0.330403
   6 O :   -0.099028
   7 C :    0.198059
   8 C :   -0.312555
   9 C :   -0.216836
  10 C :    0.265127
  11 C :   -0.461784
  12 C :    0.260690
  13 O :   -0.101351
  14 Cl:   -0.144955
  15 H :    0.150963
  16 H :    0.151050
  17 H :    0.157943
  18 H :    0.157855
  19 H :    0.159253
  20 H :    0.164312
  21 H :    0.170266
Sum of atomic charges:   -0.0000000

LOEWDIN ATOMIC CHARGES
----------------------
   0 C :   -0.163547
   1 C :   -0.164298
   2 C :   -0.119940
   3 C :    0.218757
   4 C :    0.219265
   5 C :   -0.120731
   6 O :   -0.562276
   7 C :    0.215644
   8 C :   -0.111829
   9 C :   -0.176625
  10 C :   -0.168159
  11 C :   -0.131413
  12 C :    0.225719
  13 O :   -0.558961
  14 Cl:    0.128425
  15 H :    0.170559
  16 H :    0.170587
  17 H :    0.184293
  18 H :    0.184095
  19 H :    0.186537
  20 H :    0.180362
  21 H :    0.193536

  Mayer bond orders larger than 0.100000
B(  0-C ,  1-C ) :   1.4147 B(  0-C ,  5-C ) :   1.3395 B(  0-C , 15-H ) :   0.9508
B(  1-C ,  2-C ) :   1.3385 B(  1-C , 16-H ) :   0.9509 B(  2-C ,  3-C ) :   1.3573
B(  2-C , 17-H ) :   0.9631 B(  3-C ,  4-C ) :   1.4359 B(  3-C , 13-O ) :   0.9271
B(  4-C ,  5-C ) :   1.3550 B(  4-C ,  6-O ) :   0.9268 B(  5-C , 18-H ) :   0.9630
B(  6-O ,  7-C ) :   0.9536 B(  7-C ,  8-C ) :   1.3636 B(  7-C , 12-C ) :   1.4138
B(  8-C ,  9-C ) :   1.3113 B(  8-C , 19-H ) :   0.9710 B(  9-C , 10-C ) :   1.3897
B(  9-C , 20-H ) :   0.9393 B( 10-C , 11-C ) :   1.3196 B( 10-C , 14-Cl) :   0.9003
B( 11-C , 12-C ) :   1.3141 B( 11-C , 21-H ) :   0.9463 B( 12-C , 13-O ) :   0.9437

Dispersion correction           -0.009967815
FINAL SINGLE POINT ENERGY     -1071.975495029378

DIPOLE MOMENT
-------------

Method             : SCF
Type of density    : Electron Density
Multiplicity       :   1
Irrep              :   0
Energy             : -1071.9732338049757345 Eh
Relativity type    :
Basis              : AO
                                X                 Y                 Z
Electronic contribution:    -14.902018572       1.999575000      -0.001027932
Nuclear contribution   :     15.680144568      -2.226508332       0.001112227
                        -----------------------------------------
Total Dipole Moment    :      0.778125995      -0.226933332       0.000084295
                        -----------------------------------------
Magnitude (a.u.)       :      0.810542293
Magnitude (Debye)      :      2.060234780

Rotational constants in cm-1:             0.062022             0.009219             0.008026
Rotational constants in MHz :          1859.375231           276.388749           240.621476

                             ****ORCA TERMINATED NORMALLY****
TOTAL RUN TIME: 0 days 0 hours 1 minutes 2 seconds 124 msec
