                         Program Version 6.0.0  -   RELEASE  -
|  1> ! r2scan-3c def2/J RI DEFGRID2 scfconv6 printgap
|  2> %output
|  3>     printlevel normal
|  4> end
|  5> %cpcm
|  6>     smd true
|  7>     smdsolvent "water"
|  8> end
|  9> * xyz 0 1
| 10> C 4.4557115458 -0.274247275 -0.0027895838
| 11> C 4.2484679379 1.0930272397 -0.0003811004
| 12> C 2.9591296932 1.6017722035 0.001479519
| 13> C 1.877230697 0.7386659152 0.0011000221
| 14> C 2.0857267378 -0.6392915871 -0.0003423879
| 15> C 3.3754072483 -1.14244604 -0.0026239663
| 16> O 1.0372966882 -1.5383822822 0.0006369093
| 17> C -0.2222949859 -0.9910494604 0.0013009035
| 18> C -1.3081835485 -1.85017163 0.0018653343
| 19> C -2.600764965 -1.3504018034 0.0012994031
| 20> C -2.7918369212 0.0184285803 -7.4463e-06
| 21> C -1.7191043004 0.8970986921 0.0002192753
| 22> C -0.4303964044 0.3909291031 0.0011970463
| 23> O 0.6077398025 1.287322776 0.0020010809
| 24> Cl -4.4016113984 0.6644162432 -0.0019295025
| 25> H 5.4566937022 -0.6734417787 -0.0047985681
| 26> H 5.0858729048 1.7712391101 -0.0001500811
| 27> H 2.7685040081 2.6623015696 0.0033364388
| 28> H 3.5078130426 -2.2117226808 -0.0041519748
| 29> H -1.1233087712 -2.9112274366 0.0027738324
| 30> H -3.443475861 -2.020391134 0.0017128437
| 31> H -1.8617832793 1.9645199424 -0.0003390407
| 32> *
| 33>
| 34>                          ****END OF INPUT****

CARTESIAN COORDINATES (ANGSTROEM)
---------------------------------
  C      4.455712   -0.274247   -0.002790
  C      4.248468    1.093027   -0.000381
  C      2.959130    1.601772    0.001480
  C      1.877231    0.738666    0.001100
  C      2.085727   -0.639292   -0.000342
  C      3.375407   -1.142446   -0.002624
  O      1.037297   -1.538382    0.000637
  C     -0.222295   -0.991049    0.001301
  C     -1.308184   -1.850172    0.001865
  C     -2.600765   -1.350402    0.001299
  C     -2.791837    0.018429   -0.000007
  C     -1.719104    0.897099    0.000219
  C     -0.430396    0.390929    0.001197
  O      0.607740    1.287323    0.002001
  Cl    -4.401611    0.664416   -0.001930
  H      5.456694   -0.673442   -0.004799
  H      5.085873    1.771239   -0.000150
  H      2.768504    2.662302    0.003336
  H      3.507813   -2.211723   -0.004152
  H     -1.123309   -2.911227    0.002774
  H     -3.443476   -2.020391    0.001713
  H     -1.861783    1.964520   -0.000339

 Total Charge           Charge          ....    0
 Multiplicity           Mult            ....    1
 Number of Electrons    NEL             ....  112
 Basis Dimension        Dim             ....  338

ORBITAL ENERGIES
----------------

  NO   OCC          E(Eh)            E(eV)
   0   2.0000    -101.225371     -2754.4824
   1   2.0000     -19.021520      -517.6019
   2   2.0000     -19.020010      -517.5608
   3   2.0000     -10.119800      -275.3738
   4   2.0000     -10.115263      -275.2503
   5   2.0000     -10.112757      -275.1821
   6   2.0000     -10.112317      -275.1701
   7   2.0000     -10.104612      -274.9605
   8   2.0000     -10.053229      -273.5623
   9   2.0000     -10.050672      -273.4927
  10   2.0000     -10.048734      -273.4399
  11   2.0000     -10.043797      -273.3056
  12   2.0000     -10.043576      -273.2996
  13   2.0000     -10.038968      -273.1742
  14   2.0000     -10.038484      -273.1610
  15   2.0000      -9.381432      -255.2818
  16   2.0000      -7.127543      -193.9503
  17   2.0000      -7.117717      -193.6829
  18   2.0000      -7.117289      -193.6713
  19   2.0000      -1.088450       -29.6182
  20   2.0000      -1.055351       -28.7176
  21   2.0000      -0.871585       -23.7170
  22   2.0000      -0.842358       -22.9217
  23   2.0000      -0.809292       -22.0220
  24   2.0000      -0.755060       -20.5462
  25   2.0000      -0.736969       -20.0540
  26   2.0000      -0.718620       -19.5546
  27   2.0000      -0.694272       -18.8921
  28   2.0000      -0.635523       -17.2935
  29   2.0000      -0.617496       -16.8029
  30   2.0000      -0.584912       -15.9163
  31   2.0000      -0.566947       -15.4274
  32   2.0000      -0.544936       -14.8285
  33   2.0000      -0.496063       -13.4986
  34   2.0000      -0.483405       -13.1541
  35   2.0000      -0.456843       -12.4313
  36   2.0000      -0.454761       -12.3747
  37   2.0000      -0.453554       -12.3418
  38   2.0000      -0.423647       -11.5280
  39   2.0000      -0.422105       -11.4861
  40   2.0000      -0.411128       -11.1874
  41   2.0000      -0.393967       -10.7204
  42   2.0000      -0.391662       -10.6577
  43   2.0000      -0.379448       -10.3253
  44   2.0000      -0.379228       -10.3193
  45   2.0000      -0.371135       -10.0991
  46   2.0000      -0.344831        -9.3833
  47   2.0000      -0.342820        -9.3286
  48   2.0000      -0.340481        -9.2650
  49   2.0000      -0.309244        -8.4150
  50   2.0000      -0.300719        -8.1830
  51   2.0000      -0.293053        -7.9744
  52   2.0000      -0.257845        -7.0163
  53   2.0000      -0.246486        -6.7072
  54   2.0000      -0.229440        -6.2434
  55   2.0000      -0.188505        -5.1295
  56   0.0000      -0.051476        -1.4007
  57   0.0000      -0.046906        -1.2764
  58   0.0000      -0.039492        -1.0746
  59   0.0000      -0.008310        -0.2261
  60   0.0000       0.004036         0.1098

MULLIKEN ATOMIC CHARGES
-----------------------
   0 C :   -0.168451
   1 C :   -0.168984
   2 C :   -0.353690
   3 C :    0.207934
   4 C :    0.217611
   5 C :   -0.354549
   6 O :   -0.110831
   7 C :    0.203482
   8 C :   -0.344185
   9 C :   -0.237344
  10 C :    0.245129
  11 C :   -0.454239
  12 C :    0.243612
  13 O :   -0.112241
  14 Cl:   -0.161169
  15 H :    0.185754
  16 H :    0.185798
  17 H :    0.190520
  18 H :    0.190522
  19 H :    0.194911
  20 H :    0.198211
  21 H :    0.202200
Sum of atomic charges:   -0.0000000

LOEWDIN ATOMIC CHARGES
----------------------
   0 C :   -0.169873
   1 C :   -0.170621
   2 C :   -0.124891
   3 C :    0.214248
   4 C :    0.214512
   5 C :   -0.125540
   6 O :   -0.571770
   7 C :    0.214910
   8 C :   -0.111115
   9 C :   -0.177990
  10 C :   -0.178739
  11 C :   -0.133501
  12 C :    0.224494
  13 O :   -0.568481
  14 Cl:    0.114087
  15 H :    0.181982
  16 H :    0.181965
  17 H :    0.195432
  18 H :    0.195339
  19 H :    0.199534
  20 H :    0.191740
  21 H :    0.204279

  Mayer bond orders larger than 0.100000
B(  0-C ,  1-C ) :   1.3786 B(  0-C ,  5-C ) :   1.3194 B(  0-C , 15-H ) :   0.9571
B(  1-C ,  2-C ) :   1.3183 B(  1-C , 16-H ) :   0.9571 B(  2-C ,  3-C ) :   1.3058
B(  2-C , 17-H ) :   0.9741 B(  3-C ,  4-C ) :   1.4152 B(  3-C , 13-O ) :   0.9201
B(  4-C ,  5-C ) :   1.3032 B(  4-C ,  6-O ) :   0.9193 B(  5-C , 18-H ) :   0.9742
B(  6-O ,  7-C ) :   0.9478 B(  7-C ,  8-C ) :   1.3161 B(  7-C , 12-C ) :   1.3968
B(  8-C ,  9-C ) :   1.3227 B(  8-C , 19-H ) :   0.9801 B(  9-C , 10-C ) :   1.3484
B(  9-C , 20-H ) :   0.9410 B( 10-C , 11-C ) :   1.3013 B( 10-C , 14-Cl) :   0.9022
B( 11-C , 12-C ) :   1.3337 B( 11-C , 21-H ) :   0.9340 B( 12-C , 13-O ) :   0.9409

Dispersion correction           -0.009967815
FINAL SINGLE POINT ENERGY     -1071.978620754301

DIPOLE MOMENT
-------------

Method             : SCF
Type of density    : Electron Density
Multiplicity       :   1
Irrep              :   0
Energy             : -1071.9763595298986729 Eh
Relativity type    :
Basis              : AO
                                X                 Y                 Z
Electronic contribution:    -14.680550446       1.901378709      -0.000979855
Nuclear contribution   :     15.680144568      -2.226508332       0.001112227
                        -----------------------------------------
Total Dipole Moment    :      0.999594122      -0.325129623       0.000132372
                        -----------------------------------------
Magnitude (a.u.)       :      1.051141141
Magnitude (Debye)      :      2.671788449

Rotational constants in cm-1:             0.062022             0.009219             0.008026
Rotational constants in MHz :          1859.375231           276.388749           240.621476

                             ****ORCA TERMINATED NORMALLY****
TOTAL RUN TIME: 0 days 0 hours 1 minutes 9 seconds 698 msec
