                         Program Version 6.0.0  -   RELEASE  -
|  1> ! r2scan-3c def2/J RI DEFGRID2 scfconv6 printgap
|  2> %output
|  3>     printlevel normal
|  4> end
|  5> %cpcm
|  6>     smd true
|  7>     smdsolvent "water"
|  8> end
|  9> * xyz 0 1
| 10> C 0.0052347936 1.2492446106 0.1110357259
| 11> C 1.2271191019 0.334138643 -0.0870181518
| 12> C 0.6561857364 -1.047211294 0.0366986683
| 13> C -0.6649390985 -1.0417241619 0.0367517024
| 14> C -1.2242847092 0.3443402243 -0.0870485237
| 15> H 0.0088839486 2.0896856565 -0.5800304295
| 16> H 0.0068711126 1.6479699305 1.125670284
| 17> H 1.6713646396 0.464064316 -1.0776897537
| 18> H 2.0083516112 0.5217718687 0.6505094764
| 19> H 1.2910046238 -1.9148327135 0.0923037801
| 20> H -1.3069477554 -1.9040095909 0.09234571
| 21> H -1.6674217759 0.4779036531 -1.0777641657
| 22> H -2.0039536889 0.5384670299 0.6504960992
| 23> *
| 24>
| 25>                          ****END OF INPUT****

CARTESIAN COORDINATES (ANGSTROEM)
---------------------------------
  C      0.005235    1.249245    0.111036
  C      1.227119    0.334139   -0.087018
  C      0.656186   -1.047211    0.036699
  C     -0.664939   -1.041724    0.036752
  C     -1.224285    0.344340   -0.087049
  H      0.008884    2.089686   -0.580030
  H      0.006871    1.647970    1.125670
  H      1.671365    0.464064   -1.077690
  H      2.008352    0.521772    0.650509
  H      1.291005   -1.914833    0.092304
  H     -1.306948   -1.904010    0.092346
  H     -1.667422    0.477904   -1.077764
  H     -2.003954    0.538467    0.650496

 Total Charge           Charge          ....    0
 Multiplicity           Mult            ....    1
 Number of Electrons    NEL             ....   38
 Basis Dimension        Dim             ....  135

ORBITAL ENERGIES
----------------

  NO   OCC          E(Eh)            E(eV)
   0   2.0000     -10.019630      -272.6480
   1   2.0000     -10.019620      -272.6477
   2   2.0000     -10.018702      -272.6227
   3   2.0000     -10.017891      -272.6007
   4   2.0000     -10.017304      -272.5847
   5   2.0000      -0.804374       -21.8881
   6   2.0000      -0.670231       -18.2379
   7   2.0000      -0.667066       -18.1518
   8   2.0000      -0.532789       -14.4979
   9   2.0000      -0.491462       -13.3734
  10   2.0000      -0.460389       -12.5278
  11   2.0000      -0.431416       -11.7394
  12   2.0000      -0.361382        -9.8337
  13   2.0000      -0.342806        -9.3282
  14   2.0000      -0.312459        -8.5024
  15   2.0000      -0.307270        -8.3612
  16   2.0000      -0.305020        -8.3000
  17   2.0000      -0.304669        -8.2905
  18   2.0000      -0.214502        -5.8369
  19   0.0000      -0.000595        -0.0162
  20   0.0000       0.103368         2.8128
  21   0.0000       0.129420         3.5217
  22   0.0000       0.138687         3.7739
  23   0.0000       0.140483         3.8227

MULLIKEN ATOMIC CHARGES
-----------------------
   0 C :   -0.364627
   1 C :   -0.255111
   2 C :   -0.227803
   3 C :   -0.227803
   4 C :   -0.255067
   5 H :    0.162732
   6 H :    0.169141
   7 H :    0.160434
   8 H :    0.161080
   9 H :    0.177763
  10 H :    0.177761
  11 H :    0.160428
  12 H :    0.161073
Sum of atomic charges:   -0.0000000

LOEWDIN ATOMIC CHARGES
----------------------
   0 C :   -0.301273
   1 C :   -0.298571
   2 C :   -0.207083
   3 C :   -0.207088
   4 C :   -0.298562
   5 H :    0.159838
   6 H :    0.160880
   7 H :    0.164436
   8 H :    0.162321
   9 H :    0.169169
  10 H :    0.169170
  11 H :    0.164441
  12 H :    0.162322

  Mayer bond orders larger than 0.100000
B(  0-C ,  1-C ) :   0.9129 B(  0-C ,  4-C ) :   0.9129 B(  0-C ,  5-H ) :   0.9750
B(  0-C ,  6-H ) :   0.9935 B(  1-C ,  2-C ) :   0.9321 B(  1-C ,  7-H ) :   0.9485
B(  1-C ,  8-H ) :   0.9740 B(  2-C ,  3-C ) :   1.9249 B(  2-C ,  9-H ) :   0.9354
B(  3-C ,  4-C ) :   0.9321 B(  3-C , 10-H ) :   0.9354 B(  4-C , 11-H ) :   0.9485
B(  4-C , 12-H ) :   0.9740

Dispersion correction           -0.002992938
FINAL SINGLE POINT ENERGY      -195.257913077895

DIPOLE MOMENT
-------------

Method             : SCF
Type of density    : Electron Density
Multiplicity       :   1
Irrep              :   0
Energy             :  -195.2591682499669616 Eh
Relativity type    :
Basis              : AO
                                X                 Y                 Z
Electronic contribution:     -0.006959775      -1.643664439       0.060031996
Nuclear contribution   :      0.007648652       1.802247951      -0.116482538
                        -----------------------------------------
Total Dipole Moment    :      0.000688877       0.158583512      -0.056450541
                        -----------------------------------------
Magnitude (a.u.)       :      0.168332613
Magnitude (Debye)      :      0.427867498

Rotational constants in cm-1:             0.246421             0.244680             0.132816
Rotational constants in MHz :          7387.525171          7335.326978          3981.712846

                             ****ORCA TERMINATED NORMALLY****
TOTAL RUN TIME: 0 days 0 hours 0 minutes 14 seconds 412 msec
