                         Program Version 6.0.0  -   RELEASE  -
|  1> ! r2scan-3c def2/J RI DEFGRID2 scfconv6 printgap
|  2> %output
|  3>     printlevel normal
|  4> end
|  5> * xyz 0 1
|  6> C 3.279699929 1.0664807799 -0.0006673541
|  7> N 2.2764131313 0.0343686395 -0.0002808234
|  8> C 2.473428274 -1.2925208293 -0.0017551516
|  9> N 1.3559233895 -1.9961242507 -0.0012879334
| 10> C 0.3749621901 -1.0701311162 0.0004098799
| 11> C 0.9139175083 0.213608334 0.0009453171
| 12> C 0.0944360043 1.3792743662 0.0013685333
| 13> O 0.4768435695 2.5464855036 0.0028647718
| 14> N -1.2601225941 1.0550933314 -0.000434476
| 15> C -1.8184126439 -0.2151951126 -0.0003234196
| 16> O -3.0333858467 -0.3548014973 -0.0016533575
| 17> N -0.9678011988 -1.2870779591 0.0001051527
| 18> C -1.4849423656 -2.6421712582 0.0028262095
| 19> C -2.2200270866 2.1502003131 -0.0020563829
| 20> H 3.9070588636 0.977858604 0.8854068286
| 21> H 3.9019413386 0.9822599755 -0.890812773
| 22> H 2.7787329035 2.0323772611 0.003044759
| 23> H 3.4463815458 -1.7403258305 -0.0031107879
| 24> H -1.1811340799 -3.1452794214 0.9187598743
| 25> H -1.0816403195 -3.1814345486 -0.8514360887
| 26> H -2.5691119896 -2.5855185904 -0.0561787711
| 27> H -1.656936494 3.0798681523 -0.0010771805
| 28> H -2.8527597442 2.0835106171 0.8815093813
| 29> H -2.8496216579 2.0834499205 -0.8878671893
| 30> *
| 31>
| 32>                          ****END OF INPUT****

CARTESIAN COORDINATES (ANGSTROEM)
---------------------------------
  C      3.279700    1.066481   -0.000667
  N      2.276413    0.034369   -0.000281
  C      2.473428   -1.292521   -0.001755
  N      1.355923   -1.996124   -0.001288
  C      0.374962   -1.070131    0.000410
  C      0.913918    0.213608    0.000945
  C      0.094436    1.379274    0.001369
  O      0.476844    2.546486    0.002865
  N     -1.260123    1.055093   -0.000434
  C     -1.818413   -0.215195   -0.000323
  O     -3.033386   -0.354801   -0.001653
  N     -0.967801   -1.287078    0.000105
  C     -1.484942   -2.642171    0.002826
  C     -2.220027    2.150200   -0.002056
  H      3.907059    0.977859    0.885407
  H      3.901941    0.982260   -0.890813
  H      2.778733    2.032377    0.003045
  H      3.446382   -1.740326   -0.003111
  H     -1.181134   -3.145279    0.918760
  H     -1.081640   -3.181435   -0.851436
  H     -2.569112   -2.585519   -0.056179
  H     -1.656936    3.079868   -0.001077
  H     -2.852760    2.083511    0.881509
  H     -2.849622    2.083450   -0.887867

 Total Charge           Charge          ....    0
 Multiplicity           Mult            ....    1
 Number of Electrons    NEL             ....  102
 Basis Dimension        Dim             ....  346

ORBITAL ENERGIES
----------------

  NO   OCC          E(Eh)            E(eV)
   0   2.0000     -18.924995      -514.9753
   1   2.0000     -18.918941      -514.8106
   2   2.0000     -14.249688      -387.7537
   3   2.0000     -14.228883      -387.1876
   4   2.0000     -14.220983      -386.9726
   5   2.0000     -14.166196      -385.4818
   6   2.0000     -10.168095      -276.6879
   7   2.0000     -10.148649      -276.1588
   8   2.0000     -10.113902      -275.2133
   9   2.0000     -10.110414      -275.1183
  10   2.0000     -10.088682      -274.5270
  11   2.0000     -10.079229      -274.2698
  12   2.0000     -10.070618      -274.0355
  13   2.0000     -10.058899      -273.7166
  14   2.0000      -1.045547       -28.4508
  15   2.0000      -1.020221       -27.7616
  16   2.0000      -1.006163       -27.3791
  17   2.0000      -0.946766       -25.7628
  18   2.0000      -0.909940       -24.7607
  19   2.0000      -0.880434       -23.9578
  20   2.0000      -0.766486       -20.8571
  21   2.0000      -0.712210       -19.3802
  22   2.0000      -0.707180       -19.2433
  23   2.0000      -0.683855       -18.6086
  24   2.0000      -0.631284       -17.1781
  25   2.0000      -0.616133       -16.7658
  26   2.0000      -0.576618       -15.6906
  27   2.0000      -0.553732       -15.0678
  28   2.0000      -0.508571       -13.8389
  29   2.0000      -0.483650       -13.1608
  30   2.0000      -0.482656       -13.1337
  31   2.0000      -0.457388       -12.4462
  32   2.0000      -0.452872       -12.3233
  33   2.0000      -0.429361       -11.6835
  34   2.0000      -0.426049       -11.5934
  35   2.0000      -0.423855       -11.5337
  36   2.0000      -0.405246       -11.0273
  37   2.0000      -0.395693       -10.7673
  38   2.0000      -0.395087       -10.7509
  39   2.0000      -0.388765       -10.5788
  40   2.0000      -0.369654       -10.0588
  41   2.0000      -0.363401        -9.8886
  42   2.0000      -0.362839        -9.8733
  43   2.0000      -0.359056        -9.7704
  44   2.0000      -0.299755        -8.1567
  45   2.0000      -0.274446        -7.4680
  46   2.0000      -0.264876        -7.2076
  47   2.0000      -0.255500        -6.9525
  48   2.0000      -0.247509        -6.7351
  49   2.0000      -0.229164        -6.2359
  50   2.0000      -0.203975        -5.5504
  51   0.0000      -0.062965        -1.7134
  52   0.0000      -0.007558        -0.2057
  53   0.0000       0.001568         0.0427
  54   0.0000       0.045310         1.2329
  55   0.0000       0.074110         2.0166

MULLIKEN ATOMIC CHARGES
-----------------------
   0 C :   -0.399993
   1 N :    0.286734
   2 C :   -0.039285
   3 N :   -0.239308
   4 C :   -0.136374
   5 C :   -0.010665
   6 C :   -0.032045
   7 O :   -0.464263
   8 N :    0.135812
   9 C :    0.249566
  10 O :   -0.476775
  11 N :    0.197756
  12 C :   -0.399566
  13 C :   -0.395750
  14 H :    0.159253
  15 H :    0.159380
  16 H :    0.215461
  17 H :    0.142256
  18 H :    0.161246
  19 H :    0.162369
  20 H :    0.202068
  21 H :    0.193444
  22 H :    0.164344
  23 H :    0.164335
Sum of atomic charges:   -0.0000000

LOEWDIN ATOMIC CHARGES
----------------------
   0 C :   -0.080056
   1 N :   -0.718007
   2 C :    0.266957
   3 N :   -0.495747
   4 C :    0.353397
   5 C :    0.215033
   6 C :    0.390373
   7 O :   -0.487665
   8 N :   -0.645663
   9 C :    0.475673
  10 O :   -0.428754
  11 N :   -0.647378
  12 C :   -0.076814
  13 C :   -0.077532
  14 H :    0.181669
  15 H :    0.181647
  16 H :    0.218011
  17 H :    0.206757
  18 H :    0.184978
  19 H :    0.186843
  20 H :    0.211303
  21 H :    0.208385
  22 H :    0.188310
  23 H :    0.188282

  Mayer bond orders larger than 0.100000
B(  0-C ,  1-N ) :   0.8848 B(  0-C , 14-H ) :   0.9526 B(  0-C , 15-H ) :   0.9525
B(  0-C , 16-H ) :   0.9432 B(  1-N ,  2-C ) :   1.2551 B(  1-N ,  5-C ) :   1.2344
B(  2-C ,  3-N ) :   1.4472 B(  2-C , 17-H ) :   0.9606 B(  3-N ,  4-C ) :   1.3609
B(  4-C ,  5-C ) :   1.3850 B(  4-C , 11-N ) :   1.2970 B(  5-C ,  6-C ) :   1.0229
B(  6-C ,  7-O ) :   1.8813 B(  6-C ,  8-N ) :   1.0635 B(  8-N ,  9-C ) :   1.1567
B(  8-N , 13-C ) :   0.9022 B(  9-C , 10-O ) :   1.8132 B(  9-C , 11-N ) :   1.0875
B( 11-N , 12-C ) :   0.8800 B( 12-C , 18-H ) :   0.9491 B( 12-C , 19-H ) :   0.9504
B( 12-C , 20-H ) :   0.9510 B( 13-C , 21-H ) :   0.9551 B( 13-C , 22-H ) :   0.9456
B( 13-C , 23-H ) :   0.9456

Dispersion correction           -0.009844573
FINAL SINGLE POINT ENERGY      -680.225647600102

DIPOLE MOMENT
-------------

Method             : SCF
Type of density    : Electron Density
Multiplicity       :   1
Irrep              :   0
Energy             :  -680.2452440602424986 Eh
Relativity type    :
Basis              : AO
                                X                 Y                 Z
Electronic contribution:     -0.255674293      -0.888149612      -0.001003315
Nuclear contribution   :      1.698820097       0.570895160      -0.001645494
                        -----------------------------------------
Total Dipole Moment    :      1.443145804      -0.317254452      -0.002648809
                        -----------------------------------------
Magnitude (a.u.)       :      1.477608614
Magnitude (Debye)      :      3.755782620

Rotational constants in cm-1:             0.035842             0.023807             0.014422
Rotational constants in MHz :          1074.513986           713.721896           432.348550

                             ****ORCA TERMINATED NORMALLY****
TOTAL RUN TIME: 0 days 0 hours 1 minutes 10 seconds 139 msec
