                         Program Version 6.0.0  -   RELEASE  -
|  1> ! r2scan-3c def2/J RI DEFGRID2 scfconv6 printgap
|  2> %output
|  3>     printlevel normal
|  4> end
|  5> %cpcm
|  6>     smd true
|  7>     smdsolvent "water"
|  8> end
|  9> * xyz 0 1
| 10> C 3.279699929 1.0664807799 -0.0006673541
| 11> N 2.2764131313 0.0343686395 -0.0002808234
| 12> C 2.473428274 -1.2925208293 -0.0017551516
| 13> N 1.3559233895 -1.9961242507 -0.0012879334
| 14> C 0.3749621901 -1.0701311162 0.0004098799
| 15> C 0.9139175083 0.213608334 0.0009453171
| 16> C 0.0944360043 1.3792743662 0.0013685333
| 17> O 0.4768435695 2.5464855036 0.0028647718
| 18> N -1.2601225941 1.0550933314 -0.000434476
| 19> C -1.8184126439 -0.2151951126 -0.0003234196
| 20> O -3.0333858467 -0.3548014973 -0.0016533575
| 21> N -0.9678011988 -1.2870779591 0.0001051527
| 22> C -1.4849423656 -2.6421712582 0.0028262095
| 23> C -2.2200270866 2.1502003131 -0.0020563829
| 24> H 3.9070588636 0.977858604 0.8854068286
| 25> H 3.9019413386 0.9822599755 -0.890812773
| 26> H 2.7787329035 2.0323772611 0.003044759
| 27> H 3.4463815458 -1.7403258305 -0.0031107879
| 28> H -1.1811340799 -3.1452794214 0.9187598743
| 29> H -1.0816403195 -3.1814345486 -0.8514360887
| 30> H -2.5691119896 -2.5855185904 -0.0561787711
| 31> H -1.656936494 3.0798681523 -0.0010771805
| 32> H -2.8527597442 2.0835106171 0.8815093813
| 33> H -2.8496216579 2.0834499205 -0.8878671893
| 34> *
| 35>
| 36>                          ****END OF INPUT****

CARTESIAN COORDINATES (ANGSTROEM)
---------------------------------
  C      3.279700    1.066481   -0.000667
  N      2.276413    0.034369   -0.000281
  C      2.473428   -1.292521   -0.001755
  N      1.355923   -1.996124   -0.001288
  C      0.374962   -1.070131    0.000410
  C      0.913918    0.213608    0.000945
  C      0.094436    1.379274    0.001369
  O      0.476844    2.546486    0.002865
  N     -1.260123    1.055093   -0.000434
  C     -1.818413   -0.215195   -0.000323
  O     -3.033386   -0.354801   -0.001653
  N     -0.967801   -1.287078    0.000105
  C     -1.484942   -2.642171    0.002826
  C     -2.220027    2.150200   -0.002056
  H      3.907059    0.977859    0.885407
  H      3.901941    0.982260   -0.890813
  H      2.778733    2.032377    0.003045
  H      3.446382   -1.740326   -0.003111
  H     -1.181134   -3.145279    0.918760
  H     -1.081640   -3.181435   -0.851436
  H     -2.569112   -2.585519   -0.056179
  H     -1.656936    3.079868   -0.001077
  H     -2.852760    2.083511    0.881509
  H     -2.849622    2.083450   -0.887867

 Total Charge           Charge          ....    0
 Multiplicity           Mult            ....    1
 Number of Electrons    NEL             ....  102
 Basis Dimension        Dim             ....  346

ORBITAL ENERGIES
----------------

  NO   OCC          E(Eh)            E(eV)
   0   2.0000     -18.934890      -515.2446
   1   2.0000     -18.933374      -515.2033
   2   2.0000     -14.239739      -387.4830
   3   2.0000     -14.231310      -387.2536
   4   2.0000     -14.226308      -387.1175
   5   2.0000     -14.163909      -385.4196
   6   2.0000     -10.177549      -276.9452
   7   2.0000     -10.155441      -276.3436
   8   2.0000     -10.112285      -275.1693
   9   2.0000     -10.101207      -274.8678
  10   2.0000     -10.076683      -274.2005
  11   2.0000     -10.065057      -273.8841
  12   2.0000     -10.062914      -273.8258
  13   2.0000     -10.057900      -273.6894
  14   2.0000      -1.052705       -28.6456
  15   2.0000      -1.021185       -27.7878
  16   2.0000      -1.011706       -27.5299
  17   2.0000      -0.949837       -25.8464
  18   2.0000      -0.915285       -24.9062
  19   2.0000      -0.874461       -23.7953
  20   2.0000      -0.762519       -20.7492
  21   2.0000      -0.705603       -19.2004
  22   2.0000      -0.697355       -18.9760
  23   2.0000      -0.682228       -18.5644
  24   2.0000      -0.629775       -17.1371
  25   2.0000      -0.615348       -16.7445
  26   2.0000      -0.573897       -15.6165
  27   2.0000      -0.546295       -14.8654
  28   2.0000      -0.502248       -13.6669
  29   2.0000      -0.481154       -13.0929
  30   2.0000      -0.476994       -12.9797
  31   2.0000      -0.448728       -12.2105
  32   2.0000      -0.446810       -12.1583
  33   2.0000      -0.433637       -11.7999
  34   2.0000      -0.426690       -11.6108
  35   2.0000      -0.422603       -11.4996
  36   2.0000      -0.409400       -11.1403
  37   2.0000      -0.398150       -10.8342
  38   2.0000      -0.383392       -10.4326
  39   2.0000      -0.376489       -10.2448
  40   2.0000      -0.367008        -9.9868
  41   2.0000      -0.365927        -9.9574
  42   2.0000      -0.363689        -9.8965
  43   2.0000      -0.360947        -9.8219
  44   2.0000      -0.295959        -8.0535
  45   2.0000      -0.278008        -7.5650
  46   2.0000      -0.269301        -7.3281
  47   2.0000      -0.265282        -7.2187
  48   2.0000      -0.252609        -6.8738
  49   2.0000      -0.242340        -6.5944
  50   2.0000      -0.203824        -5.5463
  51   0.0000      -0.061053        -1.6613
  52   0.0000      -0.014028        -0.3817
  53   0.0000       0.005792         0.1576
  54   0.0000       0.050127         1.3640
  55   0.0000       0.084734         2.3057

MULLIKEN ATOMIC CHARGES
-----------------------
   0 C :   -0.412286
   1 N :    0.296724
   2 C :   -0.022794
   3 N :   -0.293862
   4 C :   -0.137878
   5 C :    0.003940
   6 C :   -0.032219
   7 O :   -0.534895
   8 N :    0.164069
   9 C :    0.268089
  10 O :   -0.559002
  11 N :    0.222385
  12 C :   -0.435314
  13 C :   -0.431841
  14 H :    0.187781
  15 H :    0.187860
  16 H :    0.200639
  17 H :    0.187301
  18 H :    0.188529
  19 H :    0.186364
  20 H :    0.200627
  21 H :    0.195777
  22 H :    0.184966
  23 H :    0.185038
Sum of atomic charges:   -0.0000000

LOEWDIN ATOMIC CHARGES
----------------------
   0 C :   -0.073121
   1 N :   -0.701408
   2 C :    0.286474
   3 N :   -0.527993
   4 C :    0.355436
   5 C :    0.217996
   6 C :    0.394498
   7 O :   -0.541824
   8 N :   -0.634974
   9 C :    0.479562
  10 O :   -0.490246
  11 N :   -0.634983
  12 C :   -0.075037
  13 C :   -0.077955
  14 H :    0.194478
  15 H :    0.194433
  16 H :    0.211484
  17 H :    0.225079
  18 H :    0.194063
  19 H :    0.195286
  20 H :    0.211142
  21 H :    0.209475
  22 H :    0.194069
  23 H :    0.194067

  Mayer bond orders larger than 0.100000
B(  0-C ,  1-N ) :   0.8837 B(  0-C , 14-H ) :   0.9419 B(  0-C , 15-H ) :   0.9418
B(  0-C , 16-H ) :   0.9463 B(  1-N ,  2-C ) :   1.2769 B(  1-N ,  5-C ) :   1.2231
B(  2-C ,  3-N ) :   1.4193 B(  2-C , 17-H ) :   0.9471 B(  3-N ,  4-C ) :   1.3884
B(  4-C ,  5-C ) :   1.3821 B(  4-C , 11-N ) :   1.2975 B(  5-C ,  6-C ) :   1.0395
B(  6-C ,  7-O ) :   1.8267 B(  6-C ,  8-N ) :   1.0699 B(  8-N ,  9-C ) :   1.1689
B(  8-N , 13-C ) :   0.8793 B(  9-C , 10-O ) :   1.7502 B(  9-C , 11-N ) :   1.1145
B( 11-N , 12-C ) :   0.8593 B( 12-C , 18-H ) :   0.9427 B( 12-C , 19-H ) :   0.9439
B( 12-C , 20-H ) :   0.9470 B( 13-C , 21-H ) :   0.9494 B( 13-C , 22-H ) :   0.9421
B( 13-C , 23-H ) :   0.9421

Dispersion correction           -0.009844573
FINAL SINGLE POINT ENERGY      -680.243040464695

DIPOLE MOMENT
-------------

Method             : SCF
Type of density    : Electron Density
Multiplicity       :   1
Irrep              :   0
Energy             :  -680.2626369248356468 Eh
Relativity type    :
Basis              : AO
                                X                 Y                 Z
Electronic contribution:      0.442112538      -1.164887686      -0.001519007
Nuclear contribution   :      1.698820097       0.570895160      -0.001645494
                        -----------------------------------------
Total Dipole Moment    :      2.140932635      -0.593992527      -0.003164501
                        -----------------------------------------
Magnitude (a.u.)       :      2.221807751
Magnitude (Debye)      :      5.647386498

Rotational constants in cm-1:             0.035842             0.023807             0.014422
Rotational constants in MHz :          1074.513986           713.721896           432.348550

                             ****ORCA TERMINATED NORMALLY****
TOTAL RUN TIME: 0 days 0 hours 1 minutes 22 seconds 138 msec
