                         Program Version 6.0.0  -   RELEASE  -
|  1> ! r2scan-3c def2/J RI DEFGRID2 scfconv6 printgap
|  2> %output
|  3>     printlevel normal
|  4> end
|  5> * xyz 0 1
|  6> C -2.1131212082 -0.5447111584 -0.707677066
|  7> C -1.3560477944 -0.3260952739 0.6059634594
|  8> C -0.0078654095 0.2739838185 0.3072380021
|  9> O 0.2561762359 1.4575282202 0.351935266
| 10> O 0.8719089714 -0.6529627626 -0.0533940499
| 11> C 2.1844405804 -0.2174433834 -0.415776514
| 12> H -2.2398696462 0.3996175927 -1.231818822
| 13> H -1.5650948643 -1.2309997043 -1.3479977436
| 14> H -3.0930595717 -0.9633081251 -0.4997171993
| 15> H -1.2123179099 -1.2799356772 1.111416213
| 16> H -1.9061870196 0.3615479814 1.2470425556
| 17> H 2.1244057858 0.5433673359 -1.1948534569
| 18> H 2.6999487881 -1.1037493556 -0.7716739632
| 19> H 2.6883676652 0.2051896233 0.4541386614
| 20> *
| 21>
| 22>                          ****END OF INPUT****

CARTESIAN COORDINATES (ANGSTROEM)
---------------------------------
  C     -2.113121   -0.544711   -0.707677
  C     -1.356048   -0.326095    0.605963
  C     -0.007865    0.273984    0.307238
  O      0.256176    1.457528    0.351935
  O      0.871909   -0.652963   -0.053394
  C      2.184441   -0.217443   -0.415777
  H     -2.239870    0.399618   -1.231819
  H     -1.565095   -1.231000   -1.347998
  H     -3.093060   -0.963308   -0.499717
  H     -1.212318   -1.279936    1.111416
  H     -1.906187    0.361548    1.247043
  H      2.124406    0.543367   -1.194853
  H      2.699949   -1.103749   -0.771674
  H      2.688368    0.205190    0.454139

 Total Charge           Charge          ....    0
 Multiplicity           Mult            ....    1
 Number of Electrons    NEL             ....   48
 Basis Dimension        Dim             ....  164

ORBITAL ENERGIES
----------------

  NO   OCC          E(Eh)            E(eV)
   0   2.0000     -18.999829      -517.0116
   1   2.0000     -18.929129      -515.0878
   2   2.0000     -10.152196      -276.2553
   3   2.0000     -10.087432      -274.4930
   4   2.0000     -10.044837      -273.3339
   5   2.0000     -10.032795      -273.0062
   6   2.0000      -1.074067       -29.2268
   7   2.0000      -0.975959       -26.5572
   8   2.0000      -0.762586       -20.7510
   9   2.0000      -0.695782       -18.9332
  10   2.0000      -0.613839       -16.7034
  11   2.0000      -0.534936       -14.5563
  12   2.0000      -0.470959       -12.8154
  13   2.0000      -0.452085       -12.3019
  14   2.0000      -0.448344       -12.2000
  15   2.0000      -0.409782       -11.1507
  16   2.0000      -0.401211       -10.9175
  17   2.0000      -0.378960       -10.3120
  18   2.0000      -0.351654        -9.5690
  19   2.0000      -0.331923        -9.0321
  20   2.0000      -0.328720        -8.9449
  21   2.0000      -0.319188        -8.6855
  22   2.0000      -0.274454        -7.4683
  23   2.0000      -0.234703        -6.3866
  24   0.0000      -0.016051        -0.4368
  25   0.0000       0.063258         1.7213
  26   0.0000       0.095034         2.5860
  27   0.0000       0.121997         3.3197
  28   0.0000       0.125397         3.4122

MULLIKEN ATOMIC CHARGES
-----------------------
   0 C :   -0.470045
   1 C :   -0.286268
   2 C :    0.403078
   3 O :   -0.421101
   4 O :   -0.190276
   5 C :   -0.291995
   6 H :    0.158515
   7 H :    0.156957
   8 H :    0.153540
   9 H :    0.152417
  10 H :    0.162248
  11 H :    0.163772
  12 H :    0.150063
  13 H :    0.159096
Sum of atomic charges:    0.0000000

LOEWDIN ATOMIC CHARGES
----------------------
   0 C :   -0.392002
   1 C :   -0.236648
   2 C :    0.350040
   3 O :   -0.421994
   4 O :   -0.604366
   5 C :   -0.044233
   6 H :    0.159213
   7 H :    0.158133
   8 H :    0.153237
   9 H :    0.174212
  10 H :    0.174685
  11 H :    0.178209
  12 H :    0.175931
  13 H :    0.175583

  Mayer bond orders larger than 0.100000
B(  0-C ,  1-C ) :   0.8969 B(  0-C ,  6-H ) :   0.9741 B(  0-C ,  7-H ) :   0.9770
B(  0-C ,  8-H ) :   0.9705 B(  1-C ,  2-C ) :   0.9556 B(  1-C ,  9-H ) :   0.9704
B(  1-C , 10-H ) :   0.9735 B(  2-C ,  3-O ) :   1.8262 B(  2-C ,  4-O ) :   1.0464
B(  4-O ,  5-C ) :   0.8527 B(  5-C , 11-H ) :   0.9621 B(  5-C , 12-H ) :   0.9690
B(  5-C , 13-H ) :   0.9624

Dispersion correction           -0.003006535
FINAL SINGLE POINT ENERGY      -307.631739886113

DIPOLE MOMENT
-------------

Method             : SCF
Type of density    : Electron Density
Multiplicity       :   1
Irrep              :   0
Energy             :  -307.6380454896903984 Eh
Relativity type    :
Basis              : AO
                                X                 Y                 Z
Electronic contribution:      2.388079972       2.067521723       1.899680098
Nuclear contribution   :     -2.332247930      -2.866618103      -2.090941402
                        -----------------------------------------
Total Dipole Moment    :      0.055832042      -0.799096380      -0.191261304
                        -----------------------------------------
Magnitude (a.u.)       :      0.823561247
Magnitude (Debye)      :      2.093326330

Rotational constants in cm-1:             0.221815             0.081290             0.068257
Rotational constants in MHz :          6649.851650          2437.023512          2046.297999

                             ****ORCA TERMINATED NORMALLY****
TOTAL RUN TIME: 0 days 0 hours 0 minutes 16 seconds 756 msec
