                         Program Version 6.0.0  -   RELEASE  -
|  1> ! r2scan-3c def2/J RI DEFGRID2 scfconv6 printgap
|  2> %output
|  3>     printlevel normal
|  4> end
|  5> %cpcm
|  6>     smd true
|  7>     smdsolvent "water"
|  8> end
|  9> * xyz 0 1
| 10> C -2.1131212082 -0.5447111584 -0.707677066
| 11> C -1.3560477944 -0.3260952739 0.6059634594
| 12> C -0.0078654095 0.2739838185 0.3072380021
| 13> O 0.2561762359 1.4575282202 0.351935266
| 14> O 0.8719089714 -0.6529627626 -0.0533940499
| 15> C 2.1844405804 -0.2174433834 -0.415776514
| 16> H -2.2398696462 0.3996175927 -1.231818822
| 17> H -1.5650948643 -1.2309997043 -1.3479977436
| 18> H -3.0930595717 -0.9633081251 -0.4997171993
| 19> H -1.2123179099 -1.2799356772 1.111416213
| 20> H -1.9061870196 0.3615479814 1.2470425556
| 21> H 2.1244057858 0.5433673359 -1.1948534569
| 22> H 2.6999487881 -1.1037493556 -0.7716739632
| 23> H 2.6883676652 0.2051896233 0.4541386614
| 24> *
| 25>
| 26>                          ****END OF INPUT****

CARTESIAN COORDINATES (ANGSTROEM)
---------------------------------
  C     -2.113121   -0.544711   -0.707677
  C     -1.356048   -0.326095    0.605963
  C     -0.007865    0.273984    0.307238
  O      0.256176    1.457528    0.351935
  O      0.871909   -0.652963   -0.053394
  C      2.184441   -0.217443   -0.415777
  H     -2.239870    0.399618   -1.231819
  H     -1.565095   -1.231000   -1.347998
  H     -3.093060   -0.963308   -0.499717
  H     -1.212318   -1.279936    1.111416
  H     -1.906187    0.361548    1.247043
  H      2.124406    0.543367   -1.194853
  H      2.699949   -1.103749   -0.771674
  H      2.688368    0.205190    0.454139

 Total Charge           Charge          ....    0
 Multiplicity           Mult            ....    1
 Number of Electrons    NEL             ....   48
 Basis Dimension        Dim             ....  164

ORBITAL ENERGIES
----------------

  NO   OCC          E(Eh)            E(eV)
   0   2.0000     -19.004613      -517.1418
   1   2.0000     -18.944661      -515.5104
   2   2.0000     -10.162109      -276.5251
   3   2.0000     -10.076693      -274.2008
   4   2.0000     -10.038130      -273.1514
   5   2.0000     -10.022545      -272.7273
   6   2.0000      -1.080460       -29.4008
   7   2.0000      -0.989306       -26.9204
   8   2.0000      -0.757462       -20.6116
   9   2.0000      -0.689357       -18.7584
  10   2.0000      -0.606393       -16.5008
  11   2.0000      -0.532666       -14.4946
  12   2.0000      -0.470278       -12.7969
  13   2.0000      -0.458011       -12.4631
  14   2.0000      -0.450405       -12.2561
  15   2.0000      -0.409388       -11.1400
  16   2.0000      -0.394422       -10.7328
  17   2.0000      -0.376071       -10.2334
  18   2.0000      -0.345852        -9.4111
  19   2.0000      -0.328764        -8.9461
  20   2.0000      -0.321541        -8.7496
  21   2.0000      -0.319491        -8.6938
  22   2.0000      -0.281001        -7.6464
  23   2.0000      -0.250716        -6.8223
  24   0.0000      -0.023615        -0.6426
  25   0.0000       0.068938         1.8759
  26   0.0000       0.103306         2.8111
  27   0.0000       0.132358         3.6016
  28   0.0000       0.136652         3.7185

MULLIKEN ATOMIC CHARGES
-----------------------
   0 C :   -0.491475
   1 C :   -0.303511
   2 C :    0.445737
   3 O :   -0.508206
   4 O :   -0.203363
   5 C :   -0.327032
   6 H :    0.164710
   7 H :    0.166269
   8 H :    0.172810
   9 H :    0.175402
  10 H :    0.174323
  11 H :    0.177030
  12 H :    0.178420
  13 H :    0.178888
Sum of atomic charges:    0.0000000

LOEWDIN ATOMIC CHARGES
----------------------
   0 C :   -0.393547
   1 C :   -0.234004
   2 C :    0.360135
   3 O :   -0.484612
   4 O :   -0.604858
   5 C :   -0.041920
   6 H :    0.160745
   7 H :    0.161090
   8 H :    0.160584
   9 H :    0.183941
  10 H :    0.179496
  11 H :    0.182746
  12 H :    0.188299
  13 H :    0.181904

  Mayer bond orders larger than 0.100000
B(  0-C ,  1-C ) :   0.8882 B(  0-C ,  6-H ) :   0.9710 B(  0-C ,  7-H ) :   0.9731
B(  0-C ,  8-H ) :   0.9655 B(  1-C ,  2-C ) :   0.9553 B(  1-C ,  9-H ) :   0.9613
B(  1-C , 10-H ) :   0.9698 B(  2-C ,  3-O ) :   1.7570 B(  2-C ,  4-O ) :   1.0741
B(  4-O ,  5-C ) :   0.8330 B(  5-C , 11-H ) :   0.9572 B(  5-C , 12-H ) :   0.9591
B(  5-C , 13-H ) :   0.9566

Dispersion correction           -0.003006535
FINAL SINGLE POINT ENERGY      -307.637055890378

DIPOLE MOMENT
-------------

Method             : SCF
Type of density    : Electron Density
Multiplicity       :   1
Irrep              :   0
Energy             :  -307.6433614939550125 Eh
Relativity type    :
Basis              : AO
                                X                 Y                 Z
Electronic contribution:      2.386844997       1.735221005       1.851444264
Nuclear contribution   :     -2.332247930      -2.866618103      -2.090941402
                        -----------------------------------------
Total Dipole Moment    :      0.054597067      -1.131397098      -0.239497139
                        -----------------------------------------
Magnitude (a.u.)       :      1.157756068
Magnitude (Debye)      :      2.942782058

Rotational constants in cm-1:             0.221815             0.081290             0.068257
Rotational constants in MHz :          6649.851650          2437.023512          2046.297999

                             ****ORCA TERMINATED NORMALLY****
TOTAL RUN TIME: 0 days 0 hours 0 minutes 21 seconds 371 msec
