                         Program Version 6.0.0  -   RELEASE  -
|  1> ! pbe def2-sv(p) def2/J RI DEFGRID1 loosescf d4 GCP(DFT/SV(P)) printgap
|  2> %output
|  3>     printlevel normal
|  4> end
|  5> * xyz 0 1
|  6> C -2.4071730346 -0.707361084 -0.004793915
|  7> C -0.9701370753 -0.3013830438 0.3463947223
|  8> H -0.9083629991 -0.0428503524 1.4152044758
|  9> C -0.5233936708 0.9111420707 -0.4937825541
| 10> H -0.5368324757 0.619887131 -1.5500031721
| 11> C 0.9156182956 1.3286196351 -0.1107106993
| 12> H 0.8595682643 2.1415330448 0.6230668085
| 13> C 1.6908627492 0.1502496136 0.5273049542
| 14> H 2.7525260888 0.2731251222 0.2776734752
| 15> C 1.2250548034 -1.1613247072 -0.1153953153
| 16> H 1.7651238771 -2.0069056571 0.3376669843
| 17> O -0.130536337 -1.4286768004 0.1109621763
| 18> O 1.5085953661 -1.0614486079 -1.4812150523
| 19> O 1.4976482361 0.053939265 1.9148534297
| 20> O 1.6215707585 1.8679164853 -1.1970127642
| 21> O -1.4308788742 1.9774459923 -0.3984619349
| 22> O -2.9645515229 -1.6419651099 0.8815346983
| 23> H -2.4088929689 -1.1918215219 -0.9827754663
| 24> H -3.0193042451 0.2018650666 -0.0564689691
| 25> H 1.2770761108 -1.8914665541 -1.9249825701
| 26> H 2.0428269157 0.7131138959 2.3689410062
| 27> H 1.7434503015 1.175578487 -1.8651863413
| 28> H -1.3971589452 2.362831108 0.4897703597
| 29> H -2.9624843338 -1.280624907 1.7793704675
| 30> *
| 31>
| 32>                          ****END OF INPUT****

CARTESIAN COORDINATES (ANGSTROEM)
---------------------------------
  C     -2.407173   -0.707361   -0.004794
  C     -0.970137   -0.301383    0.346395
  H     -0.908363   -0.042850    1.415204
  C     -0.523394    0.911142   -0.493783
  H     -0.536832    0.619887   -1.550003
  C      0.915618    1.328620   -0.110711
  H      0.859568    2.141533    0.623067
  C      1.690863    0.150250    0.527305
  H      2.752526    0.273125    0.277673
  C      1.225055   -1.161325   -0.115395
  H      1.765124   -2.006906    0.337667
  O     -0.130536   -1.428677    0.110962
  O      1.508595   -1.061449   -1.481215
  O      1.497648    0.053939    1.914853
  O      1.621571    1.867916   -1.197013
  O     -1.430879    1.977446   -0.398462
  O     -2.964552   -1.641965    0.881535
  H     -2.408893   -1.191822   -0.982775
  H     -3.019304    0.201865   -0.056469
  H      1.277076   -1.891467   -1.924983
  H      2.042827    0.713114    2.368941
  H      1.743450    1.175578   -1.865186
  H     -1.397159    2.362831    0.489770
  H     -2.962484   -1.280625    1.779370

 Total Charge           Charge          ....    0
 Multiplicity           Mult            ....    1
 Number of Electrons    NEL             ....   96
 Basis Dimension        Dim             ....  192

ORBITAL ENERGIES
----------------

  NO   OCC          E(Eh)            E(eV)
   0   2.0000     -18.777876      -510.9720
   1   2.0000     -18.768934      -510.7287
   2   2.0000     -18.764611      -510.6110
   3   2.0000     -18.755052      -510.3509
   4   2.0000     -18.741756      -509.9891
   5   2.0000     -18.736733      -509.8524
   6   2.0000      -9.991132      -271.8725
   7   2.0000      -9.949186      -270.7311
   8   2.0000      -9.943356      -270.5725
   9   2.0000      -9.941200      -270.5138
  10   2.0000      -9.937582      -270.4154
  11   2.0000      -9.921635      -269.9814
  12   2.0000      -0.986286       -26.8382
  13   2.0000      -0.945023       -25.7154
  14   2.0000      -0.937296       -25.5051
  15   2.0000      -0.924395       -25.1541
  16   2.0000      -0.916281       -24.9333
  17   2.0000      -0.908673       -24.7263
  18   2.0000      -0.699156       -19.0250
  19   2.0000      -0.693016       -18.8579
  20   2.0000      -0.619688       -16.8626
  21   2.0000      -0.587371       -15.9832
  22   2.0000      -0.567067       -15.4307
  23   2.0000      -0.531099       -14.4519
  24   2.0000      -0.513054       -13.9609
  25   2.0000      -0.493339       -13.4244
  26   2.0000      -0.472513       -12.8577
  27   2.0000      -0.452112       -12.3026
  28   2.0000      -0.442568       -12.0429
  29   2.0000      -0.426880       -11.6160
  30   2.0000      -0.415363       -11.3026
  31   2.0000      -0.395175       -10.7533
  32   2.0000      -0.391677       -10.6581
  33   2.0000      -0.367498       -10.0001
  34   2.0000      -0.357085        -9.7168
  35   2.0000      -0.352382        -9.5888
  36   2.0000      -0.343334        -9.3426
  37   2.0000      -0.318512        -8.6672
  38   2.0000      -0.300080        -8.1656
  39   2.0000      -0.289368        -7.8741
  40   2.0000      -0.280454        -7.6315
  41   2.0000      -0.263245        -7.1632
  42   2.0000      -0.259382        -7.0581
  43   2.0000      -0.252137        -6.8610
  44   2.0000      -0.239954        -6.5295
  45   2.0000      -0.215291        -5.8584
  46   2.0000      -0.210773        -5.7354
  47   2.0000      -0.192924        -5.2497
  48   0.0000       0.006612         0.1799
  49   0.0000       0.020413         0.5555
  50   0.0000       0.023528         0.6402
  51   0.0000       0.038514         1.0480
  52   0.0000       0.056849         1.5469

MULLIKEN ATOMIC CHARGES
-----------------------
   0 C :    0.102592
   1 C :    0.006992
   2 H :    0.036393
   3 C :    0.047587
   4 H :    0.053949
   5 C :    0.129729
   6 H :    0.028252
   7 C :   -0.024632
   8 H :    0.078092
   9 C :    0.187154
  10 H :    0.068751
  11 O :   -0.300231
  12 O :   -0.407177
  13 O :   -0.407700
  14 O :   -0.427182
  15 O :   -0.407314
  16 O :   -0.429282
  17 H :    0.073575
  18 H :    0.075742
  19 H :    0.311727
  20 H :    0.310568
  21 H :    0.305316
  22 H :    0.296454
  23 H :    0.290644
Sum of atomic charges:    0.0000000

LOEWDIN ATOMIC CHARGES
----------------------
   0 C :   -0.130276
   1 C :   -0.081065
   2 H :    0.097055
   3 C :   -0.077952
   4 H :    0.118455
   5 C :   -0.072794
   6 H :    0.106361
   7 C :   -0.093397
   8 H :    0.112496
   9 C :    0.001635
  10 H :    0.100565
  11 O :   -0.138290
  12 O :   -0.316556
  13 O :   -0.310877
  14 O :   -0.316193
  15 O :   -0.303212
  16 O :   -0.334146
  17 H :    0.115101
  18 H :    0.099439
  19 H :    0.291874
  20 H :    0.293122
  21 H :    0.278240
  22 H :    0.280725
  23 H :    0.279689

  Mayer bond orders larger than 0.100000
B(  0-C ,  1-C ) :   1.0288 B(  0-C , 16-O ) :   1.0812 B(  0-C , 17-H ) :   0.9056
B(  0-C , 18-H ) :   0.9093 B(  1-C ,  2-H ) :   0.8583 B(  1-C ,  3-C ) :   1.0247
B(  1-C , 11-O ) :   0.9778 B(  3-C ,  4-H ) :   0.8458 B(  3-C ,  5-C ) :   1.0034
B(  3-C , 15-O ) :   1.0198 B(  5-C ,  6-H ) :   0.8609 B(  5-C ,  7-C ) :   0.9677
B(  5-C , 14-O ) :   1.0539 B(  7-C ,  8-H ) :   0.8866 B(  7-C ,  9-C ) :   1.0349
B(  7-C , 13-O ) :   1.0460 B(  9-C , 10-H ) :   0.8930 B(  9-C , 11-O ) :   1.0938
B(  9-C , 12-O ) :   1.1021 B( 12-O , 19-H ) :   0.8373 B( 13-O , 20-H ) :   0.8463
B( 14-O , 21-H ) :   0.8325 B( 15-O , 22-H ) :   0.8471 B( 16-O , 23-H ) :   0.8540

Dispersion correction           -0.024586070
FINAL SINGLE POINT ENERGY      -685.686327027719

DIPOLE MOMENT
-------------

Method             : SCF
Type of density    : Electron Density
Multiplicity       :   1
Irrep              :   0
Energy             :  -685.8162107621679979 Eh
Relativity type    :
Basis              : AO
                                X                 Y                 Z
Electronic contribution:      1.505182176      -0.836063018      -0.197294784
Nuclear contribution   :     -0.741957608       1.004394546       0.853362398
                        -----------------------------------------
Total Dipole Moment    :      0.763224568       0.168331528       0.656067614
                        -----------------------------------------
Magnitude (a.u.)       :      1.020427342
Magnitude (Debye)      :      2.593720176

Rotational constants in cm-1:             0.040974             0.025287             0.021306
Rotational constants in MHz :          1228.366865           758.078901           638.731632

                             ****ORCA TERMINATED NORMALLY****
TOTAL RUN TIME: 0 days 0 hours 0 minutes 11 seconds 727 msec
