                         Program Version 6.0.0  -   RELEASE  -
|  1> ! pbe def2-sv(p) def2/J RI DEFGRID1 loosescf d4 GCP(DFT/SV(P)) printgap
|  2> %output
|  3>     printlevel normal
|  4> end
|  5> * xyz 0 1
|  6> C -2.0818454845 -1.3480070026 -0.1612617279
|  7> C -1.0302918209 -0.4980855398 0.5702943141
|  8> H -1.4780601286 -0.1345627273 1.5038377428
|  9> C -0.6262951955 0.7195357142 -0.2687434537
| 10> H -0.4998276386 0.4270243756 -1.3245086472
| 11> C 0.7259026271 1.2294123792 0.2359550744
| 12> H 0.6929106123 1.3435758507 1.329393013
| 13> C 1.7853143735 0.1765182354 -0.1097048678
| 14> H 2.0119386799 0.2601169147 -1.1821883053
| 15> C 1.2175868272 -1.2465082273 0.1240268118
| 16> H 1.9587662693 -1.835463453 0.684587514
| 17> O 0.0960891107 -1.2715943169 0.970068126
| 18> O 0.9582063733 -1.806403561 -1.1259066551
| 19> O 2.9197766883 0.4443584175 0.673084667
| 20> O 0.9823465501 2.4633901846 -0.3845326147
| 21> O -1.6404598993 1.6841080582 -0.1609706177
| 22> O -3.3394264103 -0.7209537606 -0.1761250359
| 23> H -2.2135032951 -2.2932234445 0.370841328
| 24> H -1.7407855961 -1.5547242575 -1.1856848961
| 25> H 0.7495870398 -2.7489384548 -1.035546483
| 26> H 3.6739727554 -0.0790965623 0.3667009418
| 27> H 1.830998365 2.805736973 -0.0701882582
| 28> H -1.2795177409 2.5339601978 -0.4603848126
| 29> H -3.21921143 0.2142265571 -0.4068190362
| 30> *
| 31>
| 32>                          ****END OF INPUT****

CARTESIAN COORDINATES (ANGSTROEM)
---------------------------------
  C     -2.081845   -1.348007   -0.161262
  C     -1.030292   -0.498086    0.570294
  H     -1.478060   -0.134563    1.503838
  C     -0.626295    0.719536   -0.268743
  H     -0.499828    0.427024   -1.324509
  C      0.725903    1.229412    0.235955
  H      0.692911    1.343576    1.329393
  C      1.785314    0.176518   -0.109705
  H      2.011939    0.260117   -1.182188
  C      1.217587   -1.246508    0.124027
  H      1.958766   -1.835463    0.684588
  O      0.096089   -1.271594    0.970068
  O      0.958206   -1.806404   -1.125907
  O      2.919777    0.444358    0.673085
  O      0.982347    2.463390   -0.384533
  O     -1.640460    1.684108   -0.160971
  O     -3.339426   -0.720954   -0.176125
  H     -2.213503   -2.293223    0.370841
  H     -1.740786   -1.554724   -1.185685
  H      0.749587   -2.748938   -1.035546
  H      3.673973   -0.079097    0.366701
  H      1.830998    2.805737   -0.070188
  H     -1.279518    2.533960   -0.460385
  H     -3.219211    0.214227   -0.406819

 Total Charge           Charge          ....    0
 Multiplicity           Mult            ....    1
 Number of Electrons    NEL             ....   96
 Basis Dimension        Dim             ....  192

ORBITAL ENERGIES
----------------

  NO   OCC          E(Eh)            E(eV)
   0   2.0000     -18.772000      -510.8121
   1   2.0000     -18.769744      -510.7507
   2   2.0000     -18.768195      -510.7085
   3   2.0000     -18.765434      -510.6334
   4   2.0000     -18.760797      -510.5073
   5   2.0000     -18.728611      -509.6314
   6   2.0000      -9.991277      -271.8765
   7   2.0000      -9.947986      -270.6985
   8   2.0000      -9.947305      -270.6799
   9   2.0000      -9.945620      -270.6341
  10   2.0000      -9.939377      -270.4642
  11   2.0000      -9.918573      -269.8981
  12   2.0000      -0.985350       -26.8127
  13   2.0000      -0.955209       -25.9926
  14   2.0000      -0.942323       -25.6419
  15   2.0000      -0.926716       -25.2172
  16   2.0000      -0.917544       -24.9677
  17   2.0000      -0.904166       -24.6036
  18   2.0000      -0.710899       -19.3446
  19   2.0000      -0.693107       -18.8604
  20   2.0000      -0.613217       -16.6865
  21   2.0000      -0.590855       -16.0780
  22   2.0000      -0.566956       -15.4277
  23   2.0000      -0.533134       -14.5073
  24   2.0000      -0.508942       -13.8490
  25   2.0000      -0.485600       -13.2138
  26   2.0000      -0.473647       -12.8886
  27   2.0000      -0.464867       -12.6497
  28   2.0000      -0.449236       -12.2243
  29   2.0000      -0.427239       -11.6258
  30   2.0000      -0.417674       -11.3655
  31   2.0000      -0.396766       -10.7965
  32   2.0000      -0.388540       -10.5727
  33   2.0000      -0.375928       -10.2295
  34   2.0000      -0.366430        -9.9711
  35   2.0000      -0.348247        -9.4763
  36   2.0000      -0.328619        -8.9422
  37   2.0000      -0.322557        -8.7772
  38   2.0000      -0.312935        -8.5154
  39   2.0000      -0.291826        -7.9410
  40   2.0000      -0.288250        -7.8437
  41   2.0000      -0.271953        -7.4002
  42   2.0000      -0.250493        -6.8163
  43   2.0000      -0.244816        -6.6618
  44   2.0000      -0.235845        -6.4177
  45   2.0000      -0.227132        -6.1806
  46   2.0000      -0.220667        -6.0047
  47   2.0000      -0.196809        -5.3555
  48   0.0000       0.008108         0.2206
  49   0.0000       0.018030         0.4906
  50   0.0000       0.029377         0.7994
  51   0.0000       0.046412         1.2629
  52   0.0000       0.064460         1.7540

MULLIKEN ATOMIC CHARGES
-----------------------
   0 C :    0.082332
   1 C :    0.037155
   2 H :    0.081657
   3 C :    0.003910
   4 H :    0.072712
   5 C :    0.057140
   6 H :    0.069406
   7 C :    0.047862
   8 H :    0.070526
   9 C :    0.169595
  10 H :    0.048675
  11 O :   -0.313915
  12 O :   -0.395198
  13 O :   -0.415463
  14 O :   -0.427632
  15 O :   -0.425846
  16 O :   -0.449006
  17 H :    0.079350
  18 H :    0.060141
  19 H :    0.308168
  20 H :    0.307492
  21 H :    0.313060
  22 H :    0.314437
  23 H :    0.303442
Sum of atomic charges:    0.0000000

LOEWDIN ATOMIC CHARGES
----------------------
   0 C :   -0.130221
   1 C :   -0.066450
   2 H :    0.121380
   3 C :   -0.073960
   4 H :    0.107099
   5 C :   -0.070599
   6 H :    0.112634
   7 C :   -0.088198
   8 H :    0.110832
   9 C :   -0.009789
  10 H :    0.095208
  11 O :   -0.141675
  12 O :   -0.309462
  13 O :   -0.317592
  14 O :   -0.321194
  15 O :   -0.312939
  16 O :   -0.342509
  17 H :    0.108781
  18 H :    0.091327
  19 H :    0.288262
  20 H :    0.289904
  21 H :    0.294526
  22 H :    0.289468
  23 H :    0.275166

  Mayer bond orders larger than 0.100000
B(  0-C ,  1-C ) :   1.0671 B(  0-C , 16-O ) :   1.0823 B(  0-C , 17-H ) :   0.9202
B(  0-C , 18-H ) :   0.9025 B(  1-C ,  2-H ) :   0.8816 B(  1-C ,  3-C ) :   0.9868
B(  1-C , 11-O ) :   0.9608 B(  3-C ,  4-H ) :   0.8794 B(  3-C ,  5-C ) :   1.0302
B(  3-C , 15-O ) :   1.0520 B(  5-C ,  6-H ) :   0.8670 B(  5-C ,  7-C ) :   1.0404
B(  5-C , 14-O ) :   1.0766 B(  7-C ,  8-H ) :   0.8759 B(  7-C ,  9-C ) :   0.9764
B(  7-C , 13-O ) :   1.0879 B(  9-C , 10-H ) :   0.8950 B(  9-C , 11-O ) :   1.0957
B(  9-C , 12-O ) :   1.1025 B( 12-O , 19-H ) :   0.8343 B( 13-O , 20-H ) :   0.8459
B( 14-O , 21-H ) :   0.8394 B( 15-O , 22-H ) :   0.8228 B( 16-O , 23-H ) :   0.8245

Dispersion correction           -0.024555035
FINAL SINGLE POINT ENERGY      -685.696092789176

DIPOLE MOMENT
-------------

Method             : SCF
Type of density    : Electron Density
Multiplicity       :   1
Irrep              :   0
Energy             :  -685.8271271741119790 Eh
Relativity type    :
Basis              : AO
                                X                 Y                 Z
Electronic contribution:      1.219236853       0.986689008       0.978009749
Nuclear contribution   :      0.456792516      -0.983997286      -1.325810062
                        -----------------------------------------
Total Dipole Moment    :      1.676029368       0.002691722      -0.347800313
                        -----------------------------------------
Magnitude (a.u.)       :      1.711737932
Magnitude (Debye)      :      4.350892051

Rotational constants in cm-1:             0.044029             0.026113             0.018618
Rotational constants in MHz :          1319.951869           782.861716           558.142994

                             ****ORCA TERMINATED NORMALLY****
TOTAL RUN TIME: 0 days 0 hours 0 minutes 12 seconds 305 msec
