                         Program Version 6.0.0  -   RELEASE  -
|  1> ! pbe def2-sv(p) def2/J RI DEFGRID1 loosescf d4 GCP(DFT/SV(P)) printgap
|  2> %output
|  3>     printlevel normal
|  4> end
|  5> * xyz 0 1
|  6> C 1.1046449702 -1.8564936505 -0.0034408776
|  7> C 2.1016959338 -0.9011321958 -0.0065542317
|  8> C 1.7998097434 0.4734812806 -0.0057466359
|  9> C 0.452355667 0.8483914547 -0.0040145862
| 10> C -0.5368476629 -0.1277617609 -0.0003246382
| 11> C -0.2290192408 -1.4885085599 -0.0001615188
| 12> N -1.8949158998 0.2740784897 0.0005765308
| 13> O -2.7667217037 -0.5867688293 0.0119605059
| 14> O -2.1579627717 1.4707153159 -0.0106482455
| 15> N 2.7818374309 1.4015494622 0.028942749
| 16> H 1.3669609739 -2.9022055995 -0.0046512337
| 17> H 3.1361719693 -1.2071200708 -0.0080890663
| 18> H 0.1647719985 1.8879953167 -0.0033108265
| 19> H -1.0245336561 -2.2148154307 0.0012451425
| 20> H 3.7361441555 1.1167983831 -0.0940719043
| 21> H 2.5487682745 2.3712819714 -0.0809507225
| 22> *
| 23>
| 24>                          ****END OF INPUT****

CARTESIAN COORDINATES (ANGSTROEM)
---------------------------------
  C      1.104645   -1.856494   -0.003441
  C      2.101696   -0.901132   -0.006554
  C      1.799810    0.473481   -0.005747
  C      0.452356    0.848391   -0.004015
  C     -0.536848   -0.127762   -0.000325
  C     -0.229019   -1.488509   -0.000162
  N     -1.894916    0.274078    0.000577
  O     -2.766722   -0.586769    0.011961
  O     -2.157963    1.470715   -0.010648
  N      2.781837    1.401549    0.028943
  H      1.366961   -2.902206   -0.004651
  H      3.136172   -1.207120   -0.008089
  H      0.164772    1.887995   -0.003311
  H     -1.024534   -2.214815    0.001245
  H      3.736144    1.116798   -0.094072
  H      2.548768    2.371282   -0.080951

 Total Charge           Charge          ....    0
 Multiplicity           Mult            ....    1
 Number of Electrons    NEL             ....   72
 Basis Dimension        Dim             ....  152

ORBITAL ENERGIES
----------------

  NO   OCC          E(Eh)            E(eV)
   0   2.0000     -18.764044      -510.5956
   1   2.0000     -18.762421      -510.5514
   2   2.0000     -14.198747      -386.3675
   3   2.0000     -14.020596      -381.5198
   4   2.0000      -9.957907      -270.9684
   5   2.0000      -9.943836      -270.5855
   6   2.0000      -9.911265      -269.6992
   7   2.0000      -9.910598      -269.6811
   8   2.0000      -9.906575      -269.5716
   9   2.0000      -9.901889      -269.4441
  10   2.0000      -1.116221       -30.3739
  11   2.0000      -0.942760       -25.6538
  12   2.0000      -0.865038       -23.5389
  13   2.0000      -0.793341       -21.5879
  14   2.0000      -0.726694       -19.7744
  15   2.0000      -0.677632       -18.4393
  16   2.0000      -0.631698       -17.1894
  17   2.0000      -0.567447       -15.4410
  18   2.0000      -0.543789       -14.7972
  19   2.0000      -0.498239       -13.5578
  20   2.0000      -0.487253       -13.2588
  21   2.0000      -0.478656       -13.0249
  22   2.0000      -0.448594       -12.2069
  23   2.0000      -0.445014       -12.1095
  24   2.0000      -0.436569       -11.8796
  25   2.0000      -0.403227       -10.9724
  26   2.0000      -0.397881       -10.8269
  27   2.0000      -0.367743       -10.0068
  28   2.0000      -0.344217        -9.3666
  29   2.0000      -0.327913        -8.9230
  30   2.0000      -0.299163        -8.1406
  31   2.0000      -0.258310        -7.0290
  32   2.0000      -0.249060        -6.7773
  33   2.0000      -0.248169        -6.7530
  34   2.0000      -0.219494        -5.9727
  35   2.0000      -0.194781        -5.3003
  36   0.0000      -0.108993        -2.9658
  37   0.0000      -0.038443        -1.0461
  38   0.0000      -0.013646        -0.3713
  39   0.0000       0.016235         0.4418
  40   0.0000       0.044161         1.2017

MULLIKEN ATOMIC CHARGES
-----------------------
   0 C :   -0.057635
   1 C :   -0.102708
   2 C :    0.180122
   3 C :   -0.220984
   4 C :    0.215871
   5 C :   -0.126619
   6 N :    0.200939
   7 O :   -0.220550
   8 O :   -0.225748
   9 N :   -0.313732
  10 H :    0.062822
  11 H :    0.033892
  12 H :    0.045624
  13 H :    0.064772
  14 H :    0.230719
  15 H :    0.233214
Sum of atomic charges:    0.0000000

LOEWDIN ATOMIC CHARGES
----------------------
   0 C :   -0.108568
   1 C :   -0.142125
   2 C :   -0.000618
   3 C :   -0.147936
   4 C :   -0.035868
   5 C :   -0.141144
   6 N :    0.258444
   7 O :   -0.191979
   8 O :   -0.198210
   9 N :   -0.294010
  10 H :    0.130620
  11 H :    0.123401
  12 H :    0.137057
  13 H :    0.139835
  14 H :    0.234762
  15 H :    0.236340

  Mayer bond orders larger than 0.100000
B(  0-C ,  1-C ) :   1.3912 B(  0-C ,  5-C ) :   1.3098 B(  0-C , 10-H ) :   0.9599
B(  1-C ,  2-C ) :   1.2971 B(  1-C , 11-H ) :   0.9613 B(  2-C ,  3-C ) :   1.2359
B(  2-C ,  9-N ) :   1.2932 B(  3-C ,  4-C ) :   1.3684 B(  3-C , 12-H ) :   0.9484
B(  4-C ,  5-C ) :   1.3645 B(  4-C ,  6-N ) :   0.8942 B(  5-C , 13-H ) :   0.9517
B(  6-N ,  7-O ) :   1.5350 B(  6-N ,  8-O ) :   1.5279 B(  7-O ,  8-O ) :   0.2993
B(  9-N , 14-H ) :   0.8756 B(  9-N , 15-H ) :   0.8755

Dispersion correction           -0.017127439
FINAL SINGLE POINT ENERGY      -491.130478525267

DIPOLE MOMENT
-------------

Method             : SCF
Type of density    : Electron Density
Multiplicity       :   1
Irrep              :   0
Energy             :  -491.1824384947127555 Eh
Relativity type    :
Basis              : AO
                                X                 Y                 Z
Electronic contribution:     -6.832528295       1.016835108       0.041029249
Nuclear contribution   :      9.246365307      -0.867122907      -0.177910423
                        -----------------------------------------
Total Dipole Moment    :      2.413837012       0.149712201      -0.136881174
                        -----------------------------------------
Magnitude (a.u.)       :      2.422345830
Magnitude (Debye)      :      6.157113786

Rotational constants in cm-1:             0.091901             0.033557             0.024583
Rotational constants in MHz :          2755.134583          1006.002271           736.994221

                             ****ORCA TERMINATED NORMALLY****
TOTAL RUN TIME: 0 days 0 hours 0 minutes 8 seconds 241 msec
