                         Program Version 6.0.0  -   RELEASE  -
|  1> ! pbe def2-sv(p) def2/J RI DEFGRID1 loosescf d4 GCP(DFT/SV(P)) printgap
|  2> %output
|  3>     printlevel normal
|  4> end
|  5> * xyz 0 1
|  6> C -1.4751016376 0.7739305637 0.0006499365
|  7> C -1.3315302334 -0.6574447873 -0.5070492518
|  8> C -0.1811954203 -1.201805248 0.3372997574
|  9> C 0.7953537688 -0.0166543355 0.4888246822
| 10> C -0.0272207092 1.241778909 0.150440951
| 11> O 1.8864272287 -0.0771066127 -0.4125321207
| 12> H -1.9706802763 0.7728213494 0.9726876678
| 13> H -2.0429181029 1.4081599904 -0.6772241048
| 14> H -2.243602074 -1.2408886977 -0.3951042507
| 15> H -1.0458006453 -0.6484803136 -1.5595916525
| 16> H -0.5478794465 -1.4978562685 1.3203635972
| 17> H 0.3036219947 -2.0595728284 -0.1262932962
| 18> H 1.1865490889 0.0306867767 1.5154282541
| 19> H 0.0867016509 2.0176843449 0.9043170954
| 20> H 0.3508208913 1.6257008152 -0.7977884194
| 21> H 2.4298280679 -0.8503025342 -0.2111636948
| 22> *
| 23>
| 24>                          ****END OF INPUT****

CARTESIAN COORDINATES (ANGSTROEM)
---------------------------------
  C     -1.475102    0.773931    0.000650
  C     -1.331530   -0.657445   -0.507049
  C     -0.181195   -1.201805    0.337300
  C      0.795354   -0.016654    0.488825
  C     -0.027221    1.241779    0.150441
  O      1.886427   -0.077107   -0.412532
  H     -1.970680    0.772821    0.972688
  H     -2.042918    1.408160   -0.677224
  H     -2.243602   -1.240889   -0.395104
  H     -1.045801   -0.648480   -1.559592
  H     -0.547879   -1.497856    1.320364
  H      0.303622   -2.059573   -0.126293
  H      1.186549    0.030687    1.515428
  H      0.086702    2.017684    0.904317
  H      0.350821    1.625701   -0.797788
  H      2.429828   -0.850303   -0.211164

 Total Charge           Charge          ....    0
 Multiplicity           Mult            ....    1
 Number of Electrons    NEL             ....   48
 Basis Dimension        Dim             ....  104

ORBITAL ENERGIES
----------------

  NO   OCC          E(Eh)            E(eV)
   0   2.0000     -18.737395      -509.8704
   1   2.0000      -9.930918      -270.2340
   2   2.0000      -9.879599      -268.8376
   3   2.0000      -9.879286      -268.8290
   4   2.0000      -9.878449      -268.8063
   5   2.0000      -9.874647      -268.7028
   6   2.0000      -0.914268       -24.8785
   7   2.0000      -0.748928       -20.3794
   8   2.0000      -0.635804       -17.3011
   9   2.0000      -0.622477       -16.9385
  10   2.0000      -0.515703       -14.0330
  11   2.0000      -0.497859       -13.5474
  12   2.0000      -0.452268       -12.3068
  13   2.0000      -0.434903       -11.8343
  14   2.0000      -0.415321       -11.3015
  15   2.0000      -0.372199       -10.1280
  16   2.0000      -0.332020        -9.0347
  17   2.0000      -0.320887        -8.7318
  18   2.0000      -0.308420        -8.3925
  19   2.0000      -0.294685        -8.0188
  20   2.0000      -0.293141        -7.9768
  21   2.0000      -0.282608        -7.6901
  22   2.0000      -0.258921        -7.0456
  23   2.0000      -0.207445        -5.6449
  24   0.0000       0.027171         0.7394
  25   0.0000       0.046925         1.2769
  26   0.0000       0.053310         1.4506
  27   0.0000       0.087448         2.3796
  28   0.0000       0.103381         2.8131

MULLIKEN ATOMIC CHARGES
-----------------------
   0 C :   -0.179370
   1 C :   -0.171948
   2 C :   -0.120519
   3 C :   -0.000038
   4 C :   -0.114112
   5 O :   -0.428582
   6 H :    0.080146
   7 H :    0.090705
   8 H :    0.090029
   9 H :    0.090248
  10 H :    0.073064
  11 H :    0.070187
  12 H :    0.051358
  13 H :    0.085742
  14 H :    0.090335
  15 H :    0.292754
Sum of atomic charges:    0.0000000

LOEWDIN ATOMIC CHARGES
----------------------
   0 C :   -0.229117
   1 C :   -0.227862
   2 C :   -0.245064
   3 C :   -0.049607
   4 C :   -0.232280
   5 O :   -0.334773
   6 H :    0.114042
   7 H :    0.117990
   8 H :    0.115424
   9 H :    0.119053
  10 H :    0.116986
  11 H :    0.114603
  12 H :    0.092992
  13 H :    0.119453
  14 H :    0.129075
  15 H :    0.279085

  Mayer bond orders larger than 0.100000
B(  0-C ,  1-C ) :   1.1211 B(  0-C ,  4-C ) :   1.1513 B(  0-C ,  6-H ) :   0.9200
B(  0-C ,  7-H ) :   0.9257 B(  1-C ,  2-C ) :   1.1239 B(  1-C ,  8-H ) :   0.9292
B(  1-C ,  9-H ) :   0.9236 B(  2-C ,  3-C ) :   1.1052 B(  2-C , 10-H ) :   0.9057
B(  2-C , 11-H ) :   0.9137 B(  3-C ,  4-C ) :   1.1133 B(  3-C ,  5-O ) :   1.0712
B(  3-C , 12-H ) :   0.9089 B(  4-C , 13-H ) :   0.9198 B(  4-C , 14-H ) :   0.8991
B(  5-O , 15-H ) :   0.8534

Dispersion correction           -0.012327843
FINAL SINGLE POINT ENERGY      -271.121663215665

DIPOLE MOMENT
-------------

Method             : SCF
Type of density    : Electron Density
Multiplicity       :   1
Irrep              :   0
Energy             :  -271.1841757261925636 Eh
Relativity type    :
Basis              : AO
                                X                 Y                 Z
Electronic contribution:      3.193547923       0.007377734      -0.524798208
Nuclear contribution   :     -3.249367526      -0.415857308       0.881039508
                        -----------------------------------------
Total Dipole Moment    :     -0.055819603      -0.408479574       0.356241300
                        -----------------------------------------
Magnitude (a.u.)       :      0.544866272
Magnitude (Debye)      :      1.384940001

Rotational constants in cm-1:             0.195030             0.108871             0.083594
Rotational constants in MHz :          5846.839718          3263.862387          2506.076817

                             ****ORCA TERMINATED NORMALLY****
TOTAL RUN TIME: 0 days 0 hours 0 minutes 6 seconds 686 msec
