                         Program Version 6.0.0  -   RELEASE  -
|  1> ! r2scan-3c def2/J RI DEFGRID2 scfconv6 printgap
|  2> %output
|  3>     printlevel normal
|  4> end
|  5> * xyz 0 1
|  6> C -1.8262218476 -1.3428079302 4.71467e-05
|  7> C -0.4960590249 -1.7049666295 0.0001459815
|  8> C 0.4924309916 -0.7315281716 0.000155034
|  9> C 0.1350698532 0.6093226997 3.71242e-05
| 10> C -1.1980598677 0.9816006789 5.00918e-05
| 11> C -2.1904448261 0.0044663743 3.86832e-05
| 12> O -3.5005267305 0.3090395629 -0.0001505382
| 13> Cl 1.3593333751 1.8379853427 1.7828e-05
| 14> Cl 2.1673506865 -1.1939647614 -0.0001003774
| 15> H -2.6027429267 -2.089245782 -9.38091e-05
| 16> H -0.2125759909 -2.7440744923 4.56191e-05
| 17> H -1.4496665583 2.0301455224 -0.0001258616
| 18> H -3.6431926686 1.268889565 -0.0001818091
| 19> *
| 20>
| 21>                          ****END OF INPUT****

CARTESIAN COORDINATES (ANGSTROEM)
---------------------------------
  C     -1.826222   -1.342808    0.000047
  C     -0.496059   -1.704967    0.000146
  C      0.492431   -0.731528    0.000155
  C      0.135070    0.609323    0.000037
  C     -1.198060    0.981601    0.000050
  C     -2.190445    0.004466    0.000039
  O     -3.500527    0.309040   -0.000151
  Cl     1.359333    1.837985    0.000018
  Cl     2.167351   -1.193965   -0.000100
  H     -2.602743   -2.089246   -0.000094
  H     -0.212576   -2.744074    0.000046
  H     -1.449667    2.030146   -0.000126
  H     -3.643193    1.268890   -0.000182

 Total Charge           Charge          ....    0
 Multiplicity           Mult            ....    1
 Number of Electrons    NEL             ....   82
 Basis Dimension        Dim             ....  212

ORBITAL ENERGIES
----------------

  NO   OCC          E(Eh)            E(eV)
   0   2.0000    -101.228926     -2754.5791
   1   2.0000    -101.223279     -2754.4255
   2   2.0000     -19.006456      -517.1920
   3   2.0000     -10.121109      -275.4094
   4   2.0000     -10.118086      -275.3271
   5   2.0000     -10.107847      -275.0485
   6   2.0000     -10.062658      -273.8188
   7   2.0000     -10.061235      -273.7801
   8   2.0000     -10.052319      -273.5375
   9   2.0000      -9.384634      -255.3689
  10   2.0000      -9.378936      -255.2138
  11   2.0000      -7.131093      -194.0469
  12   2.0000      -7.125423      -193.8926
  13   2.0000      -7.120920      -193.7701
  14   2.0000      -7.120198      -193.7504
  15   2.0000      -7.115118      -193.6122
  16   2.0000      -7.114578      -193.5975
  17   2.0000      -1.054719       -28.7004
  18   2.0000      -0.888638       -24.1811
  19   2.0000      -0.826029       -22.4774
  20   2.0000      -0.810583       -22.0571
  21   2.0000      -0.730490       -19.8777
  22   2.0000      -0.706113       -19.2143
  23   2.0000      -0.619805       -16.8658
  24   2.0000      -0.584727       -15.9112
  25   2.0000      -0.540804       -14.7160
  26   2.0000      -0.490548       -13.3485
  27   2.0000      -0.467456       -12.7201
  28   2.0000      -0.436739       -11.8843
  29   2.0000      -0.421157       -11.4603
  30   2.0000      -0.414345       -11.2749
  31   2.0000      -0.389501       -10.5989
  32   2.0000      -0.375651       -10.2220
  33   2.0000      -0.374822       -10.1994
  34   2.0000      -0.341542        -9.2938
  35   2.0000      -0.325341        -8.8530
  36   2.0000      -0.302936        -8.2433
  37   2.0000      -0.294158        -8.0045
  38   2.0000      -0.280227        -7.6254
  39   2.0000      -0.248068        -6.7503
  40   2.0000      -0.215242        -5.8570
  41   0.0000      -0.057348        -1.5605
  42   0.0000      -0.038526        -1.0484
  43   0.0000      -0.022029        -0.5994
  44   0.0000       0.035660         0.9704
  45   0.0000       0.045252         1.2314

MULLIKEN ATOMIC CHARGES
-----------------------
   0 C :   -0.283145
   1 C :   -0.160300
   2 C :    0.084940
   3 C :    0.145748
   4 C :   -0.400094
   5 C :    0.452249
   6 O :   -0.403833
   7 Cl:   -0.116516
   8 Cl:   -0.125137
   9 H :    0.163167
  10 H :    0.166630
  11 H :    0.155848
  12 H :    0.320443
Sum of atomic charges:   -0.0000000

LOEWDIN ATOMIC CHARGES
----------------------
   0 C :   -0.135506
   1 C :   -0.149082
   2 C :   -0.201126
   3 C :   -0.169601
   4 C :   -0.173772
   5 C :    0.187151
   6 O :   -0.481558
   7 Cl:    0.148571
   8 Cl:    0.136531
   9 H :    0.184641
  10 H :    0.182432
  11 H :    0.181689
  12 H :    0.289630

  Mayer bond orders larger than 0.100000
B(  0-C ,  1-C ) :   1.3804 B(  0-C ,  5-C ) :   1.3988 B(  0-C ,  9-H ) :   0.9433
B(  1-C ,  2-C ) :   1.3392 B(  1-C , 10-H ) :   0.9426 B(  2-C ,  3-C ) :   1.3158
B(  2-C ,  8-Cl) :   1.0281 B(  3-C ,  4-C ) :   1.3699 B(  3-C ,  7-Cl) :   1.0076
B(  4-C ,  5-C ) :   1.3072 B(  4-C , 11-H ) :   0.9087 B(  5-C ,  6-O ) :   0.9282
B(  6-O , 12-H ) :   0.8787

Dispersion correction           -0.005281847
FINAL SINGLE POINT ENERGY     -1226.558336156135

DIPOLE MOMENT
-------------

Method             : SCF
Type of density    : Electron Density
Multiplicity       :   1
Irrep              :   0
Energy             : -1226.5593218516719389 Eh
Relativity type    :
Basis              : AO
                                X                 Y                 Z
Electronic contribution:     11.218762414       2.568740968       0.000097077
Nuclear contribution   :    -12.204577023      -2.299263920      -0.000225289
                        -----------------------------------------
Total Dipole Moment    :     -0.985814609       0.269477048      -0.000128212
                        -----------------------------------------
Magnitude (a.u.)       :      1.021982553
Magnitude (Debye)      :      2.597673209

Rotational constants in cm-1:             0.062753             0.029498             0.020066
Rotational constants in MHz :          1881.286415           884.335615           601.560360

                             ****ORCA TERMINATED NORMALLY****
TOTAL RUN TIME: 0 days 0 hours 0 minutes 20 seconds 228 msec
