                         Program Version 6.0.0  -   RELEASE  -
|  1> ! r2scan-3c def2/J RI DEFGRID2 scfconv6 printgap
|  2> %output
|  3>     printlevel normal
|  4> end
|  5> %cpcm
|  6>     smd true
|  7>     smdsolvent "water"
|  8> end
|  9> * xyz 0 1
| 10> C -1.8262218476 -1.3428079302 4.71467e-05
| 11> C -0.4960590249 -1.7049666295 0.0001459815
| 12> C 0.4924309916 -0.7315281716 0.000155034
| 13> C 0.1350698532 0.6093226997 3.71242e-05
| 14> C -1.1980598677 0.9816006789 5.00918e-05
| 15> C -2.1904448261 0.0044663743 3.86832e-05
| 16> O -3.5005267305 0.3090395629 -0.0001505382
| 17> Cl 1.3593333751 1.8379853427 1.7828e-05
| 18> Cl 2.1673506865 -1.1939647614 -0.0001003774
| 19> H -2.6027429267 -2.089245782 -9.38091e-05
| 20> H -0.2125759909 -2.7440744923 4.56191e-05
| 21> H -1.4496665583 2.0301455224 -0.0001258616
| 22> H -3.6431926686 1.268889565 -0.0001818091
| 23> *
| 24>
| 25>                          ****END OF INPUT****

CARTESIAN COORDINATES (ANGSTROEM)
---------------------------------
  C     -1.826222   -1.342808    0.000047
  C     -0.496059   -1.704967    0.000146
  C      0.492431   -0.731528    0.000155
  C      0.135070    0.609323    0.000037
  C     -1.198060    0.981601    0.000050
  C     -2.190445    0.004466    0.000039
  O     -3.500527    0.309040   -0.000151
  Cl     1.359333    1.837985    0.000018
  Cl     2.167351   -1.193965   -0.000100
  H     -2.602743   -2.089246   -0.000094
  H     -0.212576   -2.744074    0.000046
  H     -1.449667    2.030146   -0.000126
  H     -3.643193    1.268890   -0.000182

 Total Charge           Charge          ....    0
 Multiplicity           Mult            ....    1
 Number of Electrons    NEL             ....   82
 Basis Dimension        Dim             ....  212

ORBITAL ENERGIES
----------------

  NO   OCC          E(Eh)            E(eV)
   0   2.0000    -101.230531     -2754.6228
   1   2.0000    -101.226832     -2754.5221
   2   2.0000     -18.991870      -516.7951
   3   2.0000     -10.114161      -275.2203
   4   2.0000     -10.112328      -275.1704
   5   2.0000     -10.104787      -274.9652
   6   2.0000     -10.055085      -273.6128
   7   2.0000     -10.050466      -273.4871
   8   2.0000     -10.043548      -273.2988
   9   2.0000      -9.386402      -255.4170
  10   2.0000      -9.382654      -255.3150
  11   2.0000      -7.132708      -194.0908
  12   2.0000      -7.128959      -193.9888
  13   2.0000      -7.122751      -193.8199
  14   2.0000      -7.122024      -193.8001
  15   2.0000      -7.118912      -193.7155
  16   2.0000      -7.118374      -193.7008
  17   2.0000      -1.039954       -28.2986
  18   2.0000      -0.887018       -24.1370
  19   2.0000      -0.827174       -22.5085
  20   2.0000      -0.806626       -21.9494
  21   2.0000      -0.723279       -19.6814
  22   2.0000      -0.700807       -19.0699
  23   2.0000      -0.610199       -16.6044
  24   2.0000      -0.576547       -15.6887
  25   2.0000      -0.529352       -14.4044
  26   2.0000      -0.483439       -13.1551
  27   2.0000      -0.461429       -12.5561
  28   2.0000      -0.430628       -11.7180
  29   2.0000      -0.411631       -11.2010
  30   2.0000      -0.408886       -11.1263
  31   2.0000      -0.382238       -10.4012
  32   2.0000      -0.370685       -10.0868
  33   2.0000      -0.368433       -10.0256
  34   2.0000      -0.331736        -9.0270
  35   2.0000      -0.327713        -8.9175
  36   2.0000      -0.305068        -8.3013
  37   2.0000      -0.292223        -7.9518
  38   2.0000      -0.283388        -7.7114
  39   2.0000      -0.243778        -6.6335
  40   2.0000      -0.211350        -5.7511
  41   0.0000      -0.051038        -1.3888
  42   0.0000      -0.034169        -0.9298
  43   0.0000      -0.020807        -0.5662
  44   0.0000       0.039374         1.0714
  45   0.0000       0.079347         2.1592

MULLIKEN ATOMIC CHARGES
-----------------------
   0 C :   -0.316425
   1 C :   -0.185876
   2 C :    0.078660
   3 C :    0.150411
   4 C :   -0.372548
   5 C :    0.390403
   6 O :   -0.437928
   7 Cl:   -0.136354
   8 Cl:   -0.149148
   9 H :    0.195777
  10 H :    0.201194
  11 H :    0.203483
  12 H :    0.378351
Sum of atomic charges:   -0.0000000

LOEWDIN ATOMIC CHARGES
----------------------
   0 C :   -0.139550
   1 C :   -0.152615
   2 C :   -0.212866
   3 C :   -0.179894
   4 C :   -0.160445
   5 C :    0.184372
   6 O :   -0.488788
   7 Cl:    0.131569
   8 Cl:    0.116824
   9 H :    0.194978
  10 H :    0.194053
  11 H :    0.200216
  12 H :    0.312146

  Mayer bond orders larger than 0.100000
B(  0-C ,  1-C ) :   1.3960 B(  0-C ,  5-C ) :   1.3497 B(  0-C ,  9-H ) :   0.9462
B(  1-C ,  2-C ) :   1.3109 B(  1-C , 10-H ) :   0.9402 B(  2-C ,  3-C ) :   1.2790
B(  2-C ,  8-Cl) :   1.0114 B(  3-C ,  4-C ) :   1.3171 B(  3-C ,  7-Cl) :   1.0073
B(  4-C ,  5-C ) :   1.3541 B(  4-C , 11-H ) :   0.9176 B(  5-C ,  6-O ) :   0.9500
B(  6-O , 12-H ) :   0.8460

Dispersion correction           -0.005281847
FINAL SINGLE POINT ENERGY     -1226.567604624538

DIPOLE MOMENT
-------------

Method             : SCF
Type of density    : Electron Density
Multiplicity       :   1
Irrep              :   0
Energy             : -1226.5685903200744633 Eh
Relativity type    :
Basis              : AO
                                X                 Y                 Z
Electronic contribution:     10.788563477       2.723084987       0.000047617
Nuclear contribution   :    -12.204577023      -2.299263920      -0.000225289
                        -----------------------------------------
Total Dipole Moment    :     -1.416013545       0.423821068      -0.000177672
                        -----------------------------------------
Magnitude (a.u.)       :      1.478079392
Magnitude (Debye)      :      3.756979242

Rotational constants in cm-1:             0.062753             0.029498             0.020066
Rotational constants in MHz :          1881.286415           884.335615           601.560360

                             ****ORCA TERMINATED NORMALLY****
TOTAL RUN TIME: 0 days 0 hours 0 minutes 24 seconds 105 msec
