                         Program Version 6.0.0  -   RELEASE  -
|  1> ! wb97x-v def2-tzvp def2/J RIJCOSX DEFGRID2 scfconv7 GCP(DFT/TZ) printgap
|  2> %output
|  3>     printlevel normal
|  4> end
|  5> * xyz 0 1
|  6> C 1.4384642732400499 2.251394539772692 1.209382132050104
|  7> C 1.791574924088154 1.6518385775889781 -0.1403161596305387
|  8> C 2.8481761279950844 0.5286607399761456 -0.009502009580869669
|  9> C 2.0046355033815293 -0.7112357114457822 0.09009261674407082
| 10> C 2.3045313921731707 -2.021339542807762 0.4308347994477092
| 11> C 1.2894387179909885 -2.9831964197012355 0.38733563024374595
| 12> C -0.007610610236959944 -2.632364682158945 0.012943223037552189
| 13> C -0.30028956608994806 -1.3173243825815668 -0.32784688799606476
| 14> C 0.7110465083529355 -0.3680034420946303 -0.2937926866555456
| 15> O 0.5560661020651219 0.9427210839428204 -0.6192955665557299
| 16> O -1.5845687026903592 -0.9721799048230382 -0.7584202624647072
| 17> C -2.2656379262161215 -0.0676509501068402 0.04825081048322778
| 18> O -1.8960483449917356 0.23322614349245582 1.1766511626640956
| 19> N -3.3522463070624675 0.395912237820425 -0.578828118754979
| 20> C -4.317093339953891 1.234793301483487 0.12135367407845456
| 21> C 2.1260250631006046 2.6984752547550097 -1.177167116982187
| 22> H 0.598657687469478 2.945711382055217 1.1127134616201002
| 23> H 1.168753355121675 1.464181098321439 1.9214983276595408
| 24> H 2.299642035537144 2.7972874217969936 1.6068180952123596
| 25> H 3.491896637335678 0.48864136763584526 -0.896752140227723
| 26> H 3.4847993770487404 0.6881172145475687 0.8647850448842882
| 27> H 3.311802659715774 -2.298009428411324 0.7262302518289635
| 28> H 1.5057030234983269 -4.012124208483288 0.6539274707864154
| 29> H -0.8028696048132126 -3.3703313001737474 -0.012018799341490532
| 30> H -3.5855008344585735 0.01319165935660676 -1.4826097765709354
| 31> H -4.834071760026139 0.680255949031704 0.9116620626235854
| 32> H -5.05202981356229 1.5871602219498941 -0.6024250808140851
| 33> H -3.8184298463322275 2.1002526955744 0.5641553179410237
| 34> H 3.0319278896680477 3.2319210491920334 -0.8735650964036005
| 35> H 1.3140379225886643 3.425817500928085 -1.2702273066102339
| 36> H 2.3070186243701434 2.2347734488018034 -2.150995627711552
| 37> *
| 38>
| 39>                          ****END OF INPUT****

CARTESIAN COORDINATES (ANGSTROEM)
---------------------------------
  C      1.438464    2.251395    1.209382
  C      1.791575    1.651839   -0.140316
  C      2.848176    0.528661   -0.009502
  C      2.004636   -0.711236    0.090093
  C      2.304531   -2.021340    0.430835
  C      1.289439   -2.983196    0.387336
  C     -0.007611   -2.632365    0.012943
  C     -0.300290   -1.317324   -0.327847
  C      0.711047   -0.368003   -0.293793
  O      0.556066    0.942721   -0.619296
  O     -1.584569   -0.972180   -0.758420
  C     -2.265638   -0.067651    0.048251
  O     -1.896048    0.233226    1.176651
  N     -3.352246    0.395912   -0.578828
  C     -4.317093    1.234793    0.121354
  C      2.126025    2.698475   -1.177167
  H      0.598658    2.945711    1.112713
  H      1.168753    1.464181    1.921498
  H      2.299642    2.797287    1.606818
  H      3.491897    0.488641   -0.896752
  H      3.484799    0.688117    0.864785
  H      3.311803   -2.298009    0.726230
  H      1.505703   -4.012124    0.653927
  H     -0.802870   -3.370331   -0.012019
  H     -3.585501    0.013192   -1.482610
  H     -4.834072    0.680256    0.911662
  H     -5.052030    1.587160   -0.602425
  H     -3.818430    2.100253    0.564155
  H      3.031928    3.231921   -0.873565
  H      1.314038    3.425818   -1.270227
  H      2.307019    2.234773   -2.150996

 Total Charge           Charge          ....    0
 Multiplicity           Mult            ....    1
 Number of Electrons    NEL             ....  118
 Basis Dimension        Dim             ....  586

ORBITAL ENERGIES
----------------

  NO   OCC          E(Eh)            E(eV)
   0   2.0000     -21.713673      -590.8591
   1   2.0000     -21.690310      -590.2233
   2   2.0000     -21.634715      -588.7105
   3   2.0000     -16.556882      -450.5357
   4   2.0000     -12.190486      -331.7200
   5   2.0000     -12.116658      -329.7110
   6   2.0000     -12.102985      -329.3390
   7   2.0000     -12.097510      -329.1900
   8   2.0000     -12.084217      -328.8283
   9   2.0000     -12.057087      -328.0900
  10   2.0000     -12.051671      -327.9426
  11   2.0000     -12.048940      -327.8683
  12   2.0000     -12.048783      -327.8640
  13   2.0000     -12.043345      -327.7161
  14   2.0000     -12.041790      -327.6738
  15   2.0000     -12.034492      -327.4752
  16   2.0000      -1.749413       -47.6040
  17   2.0000      -1.705736       -46.4154
  18   2.0000      -1.680863       -45.7386
  19   2.0000      -1.527149       -41.5558
  20   2.0000      -1.388668       -37.7876
  21   2.0000      -1.342200       -36.5231
  22   2.0000      -1.300636       -35.3921
  23   2.0000      -1.285349       -34.9761
  24   2.0000      -1.242612       -33.8132
  25   2.0000      -1.199851       -32.6496
  26   2.0000      -1.192106       -32.4389
  27   2.0000      -1.172737       -31.9118
  28   2.0000      -1.127590       -30.6833
  29   2.0000      -1.114573       -30.3291
  30   2.0000      -1.091412       -29.6988
  31   2.0000      -1.079379       -29.3714
  32   2.0000      -1.052697       -28.6454
  33   2.0000      -1.020283       -27.7633
  34   2.0000      -0.997296       -27.1378
  35   2.0000      -0.982785       -26.7429
  36   2.0000      -0.966990       -26.3131
  37   2.0000      -0.960476       -26.1359
  38   2.0000      -0.953287       -25.9403
  39   2.0000      -0.927646       -25.2425
  40   2.0000      -0.917273       -24.9603
  41   2.0000      -0.900781       -24.5115
  42   2.0000      -0.881966       -23.9995
  43   2.0000      -0.880066       -23.9478
  44   2.0000      -0.868028       -23.6202
  45   2.0000      -0.866350       -23.5746
  46   2.0000      -0.864929       -23.5359
  47   2.0000      -0.840988       -22.8845
  48   2.0000      -0.838261       -22.8102
  49   2.0000      -0.830814       -22.6076
  50   2.0000      -0.827079       -22.5060
  51   2.0000      -0.815254       -22.1842
  52   2.0000      -0.811874       -22.0922
  53   2.0000      -0.793286       -21.5864
  54   2.0000      -0.787674       -21.4337
  55   2.0000      -0.760799       -20.7024
  56   2.0000      -0.757366       -20.6090
  57   2.0000      -0.643721       -17.5165
  58   2.0000      -0.629819       -17.1382
  59   0.0000      -0.271110        -7.3773
  60   0.0000      -0.249355        -6.7853
  61   0.0000      -0.240819        -6.5530
  62   0.0000      -0.209785        -5.7086
  63   0.0000      -0.191712        -5.2168

MULLIKEN ATOMIC CHARGES
-----------------------
   0 C :   -0.380386
   1 C :    0.279297
   2 C :   -0.159094
   3 C :   -0.014973
   4 C :   -0.254312
   5 C :   -0.091170
   6 C :   -0.227876
   7 C :    0.154185
   8 C :    0.233585
   9 O :   -0.282041
  10 O :   -0.300892
  11 C :    0.417208
  12 O :   -0.394490
  13 N :   -0.310467
  14 C :   -0.225237
  15 C :   -0.363093
  16 H :    0.117902
  17 H :    0.146637
  18 H :    0.109230
  19 H :    0.101481
  20 H :    0.118269
  21 H :    0.114772
  22 H :    0.112841
  23 H :    0.118531
  24 H :    0.236874
  25 H :    0.127207
  26 H :    0.118205
  27 H :    0.140023
  28 H :    0.112851
  29 H :    0.123465
  30 H :    0.121468
Sum of atomic charges:    0.0000000

LOEWDIN ATOMIC CHARGES
----------------------
   0 C :   -0.249517
   1 C :   -0.316805
   2 C :   -0.153037
   3 C :   -0.124410
   4 C :   -0.117834
   5 C :   -0.151549
   6 C :   -0.109733
   7 C :   -0.197882
   8 C :   -0.195548
   9 O :    0.264482
  10 O :    0.271838
  11 C :   -0.545494
  12 O :    0.055991
  13 N :    0.093763
  14 C :   -0.291601
  15 C :   -0.254447
  16 H :    0.127074
  17 H :    0.135076
  18 H :    0.123214
  19 H :    0.144722
  20 H :    0.145296
  21 H :    0.142689
  22 H :    0.140502
  23 H :    0.147962
  24 H :    0.186256
  25 H :    0.113899
  26 H :    0.114034
  27 H :    0.121420
  28 H :    0.127674
  29 H :    0.126775
  30 H :    0.125191

  Mayer bond orders larger than 0.100000
B(  0-C ,  1-C ) :   0.9999 B(  0-C , 16-H ) :   0.9749 B(  0-C , 17-H ) :   0.9658
B(  0-C , 18-H ) :   0.9691 B(  1-C ,  2-C ) :   0.9860 B(  1-C ,  9-O ) :   0.8404
B(  1-C , 15-C ) :   0.9534 B(  2-C ,  3-C ) :   0.9932 B(  2-C , 19-H ) :   0.9253
B(  2-C , 20-H ) :   0.9594 B(  3-C ,  4-C ) :   1.3704 B(  3-C ,  8-C ) :   1.2928
B(  4-C ,  5-C ) :   1.4362 B(  4-C , 21-H ) :   0.9742 B(  5-C ,  6-C ) :   1.4269
B(  5-C , 22-H ) :   0.9816 B(  6-C ,  7-C ) :   1.4650 B(  6-C , 23-H ) :   0.9704
B(  7-C ,  8-C ) :   1.3451 B(  7-C , 10-O ) :   0.9571 B(  8-C ,  9-O ) :   1.1757
B( 10-O , 11-C ) :   1.0715 B( 11-C , 12-O ) :   2.0036 B( 11-C , 13-N ) :   1.2741
B( 13-N , 14-C ) :   0.9315 B( 13-N , 24-H ) :   0.9153 B( 14-C , 25-H ) :   0.9799
B( 14-C , 26-H ) :   0.9705 B( 14-C , 27-H ) :   0.9750 B( 15-C , 28-H ) :   0.9706
B( 15-C , 29-H ) :   0.9838 B( 15-C , 30-H ) :   0.9825

FINAL SINGLE POINT ENERGY      -746.813360712810

DIPOLE MOMENT
-------------

Method             : SCF
Type of density    : Electron Density
Multiplicity       :   1
Irrep              :   0
Energy             :  -746.8336255010103741 Eh
Relativity type    :
Basis              : AO
                                X                 Y                 Z
Electronic contribution:     -4.004060712     -10.790215338      -1.992201740
Nuclear contribution   :      3.941078922      11.239817075       1.384937041
                        -----------------------------------------
Total Dipole Moment    :     -0.062981790       0.449601738      -0.607264699
                        -----------------------------------------
Magnitude (a.u.)       :      0.758207652
Magnitude (Debye)      :      1.927210692

Rotational constants in cm-1:             0.024284             0.014769             0.010339
Rotational constants in MHz :           728.008877           442.750973           309.940516

                             ****ORCA TERMINATED NORMALLY****
TOTAL RUN TIME: 0 days 0 hours 11 minutes 30 seconds 87 msec
