                         Program Version 6.0.0  -   RELEASE  -
|  1> ! wb97x-v def2-tzvp def2/J RIJCOSX DEFGRID2 scfconv7 GCP(DFT/TZ) printgap
|  2> %output
|  3>     printlevel normal
|  4> end
|  5> %cpcm
|  6>     smd true
|  7>     smdsolvent "water"
|  8> end
|  9> * xyz 0 1
| 10> C 1.4384642732400499 2.251394539772692 1.209382132050104
| 11> C 1.791574924088154 1.6518385775889781 -0.1403161596305387
| 12> C 2.8481761279950844 0.5286607399761456 -0.009502009580869669
| 13> C 2.0046355033815293 -0.7112357114457822 0.09009261674407082
| 14> C 2.3045313921731707 -2.021339542807762 0.4308347994477092
| 15> C 1.2894387179909885 -2.9831964197012355 0.38733563024374595
| 16> C -0.007610610236959944 -2.632364682158945 0.012943223037552189
| 17> C -0.30028956608994806 -1.3173243825815668 -0.32784688799606476
| 18> C 0.7110465083529355 -0.3680034420946303 -0.2937926866555456
| 19> O 0.5560661020651219 0.9427210839428204 -0.6192955665557299
| 20> O -1.5845687026903592 -0.9721799048230382 -0.7584202624647072
| 21> C -2.2656379262161215 -0.0676509501068402 0.04825081048322778
| 22> O -1.8960483449917356 0.23322614349245582 1.1766511626640956
| 23> N -3.3522463070624675 0.395912237820425 -0.578828118754979
| 24> C -4.317093339953891 1.234793301483487 0.12135367407845456
| 25> C 2.1260250631006046 2.6984752547550097 -1.177167116982187
| 26> H 0.598657687469478 2.945711382055217 1.1127134616201002
| 27> H 1.168753355121675 1.464181098321439 1.9214983276595408
| 28> H 2.299642035537144 2.7972874217969936 1.6068180952123596
| 29> H 3.491896637335678 0.48864136763584526 -0.896752140227723
| 30> H 3.4847993770487404 0.6881172145475687 0.8647850448842882
| 31> H 3.311802659715774 -2.298009428411324 0.7262302518289635
| 32> H 1.5057030234983269 -4.012124208483288 0.6539274707864154
| 33> H -0.8028696048132126 -3.3703313001737474 -0.012018799341490532
| 34> H -3.5855008344585735 0.01319165935660676 -1.4826097765709354
| 35> H -4.834071760026139 0.680255949031704 0.9116620626235854
| 36> H -5.05202981356229 1.5871602219498941 -0.6024250808140851
| 37> H -3.8184298463322275 2.1002526955744 0.5641553179410237
| 38> H 3.0319278896680477 3.2319210491920334 -0.8735650964036005
| 39> H 1.3140379225886643 3.425817500928085 -1.2702273066102339
| 40> H 2.3070186243701434 2.2347734488018034 -2.150995627711552
| 41> *
| 42>
| 43>                          ****END OF INPUT****

CARTESIAN COORDINATES (ANGSTROEM)
---------------------------------
  C      1.438464    2.251395    1.209382
  C      1.791575    1.651839   -0.140316
  C      2.848176    0.528661   -0.009502
  C      2.004636   -0.711236    0.090093
  C      2.304531   -2.021340    0.430835
  C      1.289439   -2.983196    0.387336
  C     -0.007611   -2.632365    0.012943
  C     -0.300290   -1.317324   -0.327847
  C      0.711047   -0.368003   -0.293793
  O      0.556066    0.942721   -0.619296
  O     -1.584569   -0.972180   -0.758420
  C     -2.265638   -0.067651    0.048251
  O     -1.896048    0.233226    1.176651
  N     -3.352246    0.395912   -0.578828
  C     -4.317093    1.234793    0.121354
  C      2.126025    2.698475   -1.177167
  H      0.598658    2.945711    1.112713
  H      1.168753    1.464181    1.921498
  H      2.299642    2.797287    1.606818
  H      3.491897    0.488641   -0.896752
  H      3.484799    0.688117    0.864785
  H      3.311803   -2.298009    0.726230
  H      1.505703   -4.012124    0.653927
  H     -0.802870   -3.370331   -0.012019
  H     -3.585501    0.013192   -1.482610
  H     -4.834072    0.680256    0.911662
  H     -5.052030    1.587160   -0.602425
  H     -3.818430    2.100253    0.564155
  H      3.031928    3.231921   -0.873565
  H      1.314038    3.425818   -1.270227
  H      2.307019    2.234773   -2.150996

 Total Charge           Charge          ....    0
 Multiplicity           Mult            ....    1
 Number of Electrons    NEL             ....  118
 Basis Dimension        Dim             ....  586

ORBITAL ENERGIES
----------------

  NO   OCC          E(Eh)            E(eV)
   0   2.0000     -21.729985      -591.3030
   1   2.0000     -21.701915      -590.5391
   2   2.0000     -21.660322      -589.4073
   3   2.0000     -16.559109      -450.5963
   4   2.0000     -12.209447      -332.2359
   5   2.0000     -12.115204      -329.6715
   6   2.0000     -12.113790      -329.6330
   7   2.0000     -12.107465      -329.4609
   8   2.0000     -12.073264      -328.5302
   9   2.0000     -12.058067      -328.1167
  10   2.0000     -12.055673      -328.0516
  11   2.0000     -12.053319      -327.9875
  12   2.0000     -12.049794      -327.8916
  13   2.0000     -12.049006      -327.8701
  14   2.0000     -12.031876      -327.4040
  15   2.0000     -12.030679      -327.3714
  16   2.0000      -1.768062       -48.1114
  17   2.0000      -1.718069       -46.7510
  18   2.0000      -1.705928       -46.4207
  19   2.0000      -1.530188       -41.6385
  20   2.0000      -1.397598       -38.0306
  21   2.0000      -1.342245       -36.5243
  22   2.0000      -1.306078       -35.5402
  23   2.0000      -1.292709       -35.1764
  24   2.0000      -1.244756       -33.8715
  25   2.0000      -1.199102       -32.6292
  26   2.0000      -1.187429       -32.3116
  27   2.0000      -1.177950       -32.0536
  28   2.0000      -1.135237       -30.8914
  29   2.0000      -1.124478       -30.5986
  30   2.0000      -1.099877       -29.9292
  31   2.0000      -1.084404       -29.5081
  32   2.0000      -1.071127       -29.1469
  33   2.0000      -1.029770       -28.0215
  34   2.0000      -1.014933       -27.6177
  35   2.0000      -0.994605       -27.0646
  36   2.0000      -0.972822       -26.4718
  37   2.0000      -0.963419       -26.2160
  38   2.0000      -0.956430       -26.0258
  39   2.0000      -0.937114       -25.5002
  40   2.0000      -0.922332       -25.0979
  41   2.0000      -0.914433       -24.8830
  42   2.0000      -0.895556       -24.3693
  43   2.0000      -0.880220       -23.9520
  44   2.0000      -0.877860       -23.8878
  45   2.0000      -0.873651       -23.7732
  46   2.0000      -0.861779       -23.4502
  47   2.0000      -0.843976       -22.9658
  48   2.0000      -0.829792       -22.5798
  49   2.0000      -0.827875       -22.5276
  50   2.0000      -0.821730       -22.3604
  51   2.0000      -0.814256       -22.1570
  52   2.0000      -0.805812       -21.9273
  53   2.0000      -0.788932       -21.4679
  54   2.0000      -0.783588       -21.3225
  55   2.0000      -0.765200       -20.8221
  56   2.0000      -0.759909       -20.6782
  57   2.0000      -0.653372       -17.7792
  58   2.0000      -0.638797       -17.3826
  59   0.0000      -0.286467        -7.7952
  60   0.0000      -0.259753        -7.0682
  61   0.0000      -0.248901        -6.7729
  62   0.0000      -0.220098        -5.9892
  63   0.0000      -0.193706        -5.2710

MULLIKEN ATOMIC CHARGES
-----------------------
   0 C :   -0.449129
   1 C :    0.335702
   2 C :   -0.162116
   3 C :   -0.029149
   4 C :   -0.287812
   5 C :   -0.142790
   6 C :   -0.269858
   7 C :    0.130002
   8 C :    0.216092
   9 O :   -0.342004
  10 O :   -0.306855
  11 C :    0.458222
  12 O :   -0.517931
  13 N :   -0.296751
  14 C :   -0.281625
  15 C :   -0.417894
  16 H :    0.137766
  17 H :    0.144923
  18 H :    0.143311
  19 H :    0.129248
  20 H :    0.148887
  21 H :    0.162949
  22 H :    0.162327
  23 H :    0.165095
  24 H :    0.292276
  25 H :    0.147216
  26 H :    0.159776
  27 H :    0.149025
  28 H :    0.141490
  29 H :    0.140583
  30 H :    0.139024
Sum of atomic charges:    0.0000000

LOEWDIN ATOMIC CHARGES
----------------------
   0 C :   -0.255636
   1 C :   -0.313075
   2 C :   -0.143198
   3 C :   -0.122450
   4 C :   -0.117256
   5 C :   -0.157967
   6 C :   -0.119657
   7 C :   -0.217666
   8 C :   -0.210820
   9 O :    0.237935
  10 O :    0.269126
  11 C :   -0.542801
  12 O :   -0.014566
  13 N :    0.114470
  14 C :   -0.288213
  15 C :   -0.256325
  16 H :    0.127934
  17 H :    0.131103
  18 H :    0.133990
  19 H :    0.154114
  20 H :    0.155369
  21 H :    0.155079
  22 H :    0.151420
  23 H :    0.159009
  24 H :    0.206969
  25 H :    0.118903
  26 H :    0.127736
  27 H :    0.121985
  28 H :    0.136679
  29 H :    0.129265
  30 H :    0.128540

  Mayer bond orders larger than 0.100000
B(  0-C ,  1-C ) :   0.9801 B(  0-C , 16-H ) :   0.9759 B(  0-C , 17-H ) :   0.9657
B(  0-C , 18-H ) :   0.9675 B(  1-C ,  2-C ) :   0.9812 B(  1-C ,  9-O ) :   0.7745
B(  1-C , 15-C ) :   0.9594 B(  2-C ,  3-C ) :   0.9995 B(  2-C , 19-H ) :   0.9254
B(  2-C , 20-H ) :   0.9517 B(  3-C ,  4-C ) :   1.3482 B(  3-C ,  8-C ) :   1.2884
B(  4-C ,  5-C ) :   1.4108 B(  4-C , 21-H ) :   0.9794 B(  5-C ,  6-C ) :   1.4106
B(  5-C , 22-H ) :   0.9837 B(  6-C ,  7-C ) :   1.4348 B(  6-C , 23-H ) :   0.9757
B(  7-C ,  8-C ) :   1.3338 B(  7-C , 10-O ) :   0.9488 B(  8-C ,  9-O ) :   1.1614
B( 10-O , 11-C ) :   1.0874 B( 11-C , 12-O ) :   1.8594 B( 11-C , 13-N ) :   1.3493
B( 13-N , 14-C ) :   0.9154 B( 13-N , 24-H ) :   0.8885 B( 14-C , 25-H ) :   0.9748
B( 14-C , 26-H ) :   0.9649 B( 14-C , 27-H ) :   0.9701 B( 15-C , 28-H ) :   0.9678
B( 15-C , 29-H ) :   0.9785 B( 15-C , 30-H ) :   0.9748

FINAL SINGLE POINT ENERGY      -746.830950804271

DIPOLE MOMENT
-------------

Method             : SCF
Type of density    : Electron Density
Multiplicity       :   1
Irrep              :   0
Energy             :  -746.8512155924711351 Eh
Relativity type    :
Basis              : AO
                                X                 Y                 Z
Electronic contribution:     -3.782882815     -10.751648857      -2.316293628
Nuclear contribution   :      3.941078922      11.239817075       1.384937041
                        -----------------------------------------
Total Dipole Moment    :      0.158196107       0.488168218      -0.931356587
                        -----------------------------------------
Magnitude (a.u.)       :      1.063371671
Magnitude (Debye)      :      2.702875985

Rotational constants in cm-1:             0.024284             0.014769             0.010339
Rotational constants in MHz :           728.008877           442.750973           309.940516

                             ****ORCA TERMINATED NORMALLY****
TOTAL RUN TIME: 0 days 0 hours 11 minutes 35 seconds 887 msec
