                         Program Version 6.0.0  -   RELEASE  -
|  1> ! pbe def2-sv(p) def2/J RI DEFGRID1 loosescf d4 GCP(DFT/SV(P)) printgap
|  2> %output
|  3>     printlevel normal
|  4> end
|  5> * xyz 0 1
|  6> C -3.9190573187 1.4584563247 0.0234160242
|  7> C -3.3009623219 1.1104215865 1.2128368609
|  8> C -2.0019845927 0.633342962 1.2070041162
|  9> C -1.3136743517 0.4998774446 0.0075318872
| 10> C -1.9369871618 0.8494433431 -1.183991011
| 11> C -3.2353719758 1.3279337456 -1.1738999369
| 12> C 0.0726986458 -0.0209587009 -0.0009696408
| 13> C 1.150416144 0.8423015842 0.1528867834
| 14> C 2.4412740729 0.3432612984 0.1436142181
| 15> C 2.6875551024 -1.0108030832 -0.0149291818
| 16> C 1.6193713072 -1.877079371 -0.1677346632
| 17> C 0.3269872859 -1.3800618618 -0.1608275262
| 18> Cl -1.0110730332 -2.4730382161 -0.3524273843
| 19> Cl 3.7754693265 1.4382264384 0.335553907
| 20> H -4.9325728709 1.8297149369 0.0293627095
| 21> H -3.831503816 1.2090084342 2.1477574878
| 22> H -1.5162872114 0.3573979103 2.1311805078
| 23> H -1.4004920577 0.7425417732 -2.1150783351
| 24> H -3.7142203388 1.5980274032 -2.1028458534
| 25> H 0.9714027209 1.898199986 0.2776041301
| 26> H 3.6980268883 -1.3841142763 -0.0185019536
| 27> H 1.7884379085 -2.9339578352 -0.2914710407
| 28> *
| 29>
| 30>                          ****END OF INPUT****

CARTESIAN COORDINATES (ANGSTROEM)
---------------------------------
  C     -3.919057    1.458456    0.023416
  C     -3.300962    1.110422    1.212837
  C     -2.001985    0.633343    1.207004
  C     -1.313674    0.499877    0.007532
  C     -1.936987    0.849443   -1.183991
  C     -3.235372    1.327934   -1.173900
  C      0.072699   -0.020959   -0.000970
  C      1.150416    0.842302    0.152887
  C      2.441274    0.343261    0.143614
  C      2.687555   -1.010803   -0.014929
  C      1.619371   -1.877079   -0.167735
  C      0.326987   -1.380062   -0.160828
  Cl    -1.011073   -2.473038   -0.352427
  Cl     3.775469    1.438226    0.335554
  H     -4.932573    1.829715    0.029363
  H     -3.831504    1.209008    2.147757
  H     -1.516287    0.357398    2.131181
  H     -1.400492    0.742542   -2.115078
  H     -3.714220    1.598027   -2.102846
  H      0.971403    1.898200    0.277604
  H      3.698027   -1.384114   -0.018502
  H      1.788438   -2.933958   -0.291471

 Total Charge           Charge          ....    0
 Multiplicity           Mult            ....    1
 Number of Electrons    NEL             ....  114
 Basis Dimension        Dim             ....  220

ORBITAL ENERGIES
----------------

  NO   OCC          E(Eh)            E(eV)
   0   2.0000    -100.644171     -2738.6671
   1   2.0000    -100.643846     -2738.6583
   2   2.0000      -9.957744      -270.9640
   3   2.0000      -9.957661      -270.9617
   4   2.0000      -9.924689      -270.0645
   5   2.0000      -9.914723      -269.7933
   6   2.0000      -9.913576      -269.7621
   7   2.0000      -9.913556      -269.7616
   8   2.0000      -9.912504      -269.7329
   9   2.0000      -9.899319      -269.3742
  10   2.0000      -9.899301      -269.3737
  11   2.0000      -9.898285      -269.3460
  12   2.0000      -9.898219      -269.3442
  13   2.0000      -9.897317      -269.3197
  14   2.0000      -9.179941      -249.7989
  15   2.0000      -9.179250      -249.7801
  16   2.0000      -7.011300      -190.7872
  17   2.0000      -7.010668      -190.7700
  18   2.0000      -6.999948      -190.4783
  19   2.0000      -6.999356      -190.4622
  20   2.0000      -6.999353      -190.4621
  21   2.0000      -6.998554      -190.4403
  22   2.0000      -0.832260       -22.6470
  23   2.0000      -0.803581       -21.8666
  24   2.0000      -0.783613       -21.3232
  25   2.0000      -0.750447       -20.4207
  26   2.0000      -0.714589       -19.4450
  27   2.0000      -0.676733       -18.4149
  28   2.0000      -0.668834       -18.1999
  29   2.0000      -0.645967       -17.5777
  30   2.0000      -0.579815       -15.7776
  31   2.0000      -0.553933       -15.0733
  32   2.0000      -0.549523       -14.9533
  33   2.0000      -0.523276       -14.2391
  34   2.0000      -0.483736       -13.1631
  35   2.0000      -0.462346       -12.5811
  36   2.0000      -0.449879       -12.2418
  37   2.0000      -0.421719       -11.4755
  38   2.0000      -0.416897       -11.3443
  39   2.0000      -0.407426       -11.0866
  40   2.0000      -0.398622       -10.8471
  41   2.0000      -0.386398       -10.5144
  42   2.0000      -0.381715       -10.3870
  43   2.0000      -0.370870       -10.0919
  44   2.0000      -0.349662        -9.5148
  45   2.0000      -0.346458        -9.4276
  46   2.0000      -0.331272        -9.0144
  47   2.0000      -0.328592        -8.9415
  48   2.0000      -0.309188        -8.4134
  49   2.0000      -0.307753        -8.3744
  50   2.0000      -0.276018        -7.5108
  51   2.0000      -0.273416        -7.4400
  52   2.0000      -0.269600        -7.3362
  53   2.0000      -0.248013        -6.7488
  54   2.0000      -0.235692        -6.4135
  55   2.0000      -0.231395        -6.2966
  56   2.0000      -0.214242        -5.8298
  57   0.0000      -0.058096        -1.5809
  58   0.0000      -0.052353        -1.4246
  59   0.0000      -0.042183        -1.1479
  60   0.0000      -0.036896        -1.0040
  61   0.0000      -0.001471        -0.0400

MULLIKEN ATOMIC CHARGES
-----------------------
   0 C :   -0.042894
   1 C :   -0.048805
   2 C :   -0.069205
   3 C :    0.035899
   4 C :   -0.068412
   5 C :   -0.049023
   6 C :    0.038541
   7 C :   -0.134827
   8 C :    0.135286
   9 C :   -0.067401
  10 C :   -0.103758
  11 C :    0.100225
  12 Cl:   -0.067130
  13 Cl:   -0.083421
  14 H :    0.056599
  15 H :    0.056184
  16 H :    0.047866
  17 H :    0.047768
  18 H :    0.056097
  19 H :    0.049053
  20 H :    0.057448
  21 H :    0.053911
Sum of atomic charges:   -0.0000000

LOEWDIN ATOMIC CHARGES
----------------------
   0 C :   -0.121134
   1 C :   -0.117825
   2 C :   -0.109250
   3 C :   -0.039222
   4 C :   -0.109057
   5 C :   -0.117733
   6 C :   -0.039098
   7 C :   -0.123270
   8 C :   -0.133308
   9 C :   -0.134991
  10 C :   -0.130474
  11 C :   -0.126818
  12 Cl:    0.138445
  13 Cl:    0.126294
  14 H :    0.125016
  15 H :    0.125731
  16 H :    0.127102
  17 H :    0.127102
  18 H :    0.125731
  19 H :    0.137045
  20 H :    0.134641
  21 H :    0.135073

  Mayer bond orders larger than 0.100000
B(  0-C ,  1-C ) :   1.3813 B(  0-C ,  5-C ) :   1.3805 B(  0-C , 14-H ) :   0.9646
B(  1-C ,  2-C ) :   1.3618 B(  1-C , 15-H ) :   0.9631 B(  2-C ,  3-C ) :   1.3971
B(  2-C , 16-H ) :   0.9653 B(  3-C ,  4-C ) :   1.3965 B(  3-C ,  6-C ) :   0.9477
B(  4-C ,  5-C ) :   1.3626 B(  4-C , 17-H ) :   0.9652 B(  5-C , 18-H ) :   0.9630
B(  6-C ,  7-C ) :   1.3793 B(  6-C , 11-C ) :   1.4276 B(  7-C ,  8-C ) :   1.3323
B(  7-C , 19-H ) :   0.9716 B(  8-C ,  9-C ) :   1.3792 B(  8-C , 13-Cl) :   0.9627
B(  9-C , 10-C ) :   1.3466 B(  9-C , 20-H ) :   0.9641 B( 10-C , 11-C ) :   1.3625
B( 10-C , 21-H ) :   0.9639 B( 11-C , 12-Cl) :   1.0324

Dispersion correction           -0.033003597
FINAL SINGLE POINT ENERGY     -1380.847589269680

DIPOLE MOMENT
-------------

Method             : SCF
Type of density    : Electron Density
Multiplicity       :   1
Irrep              :   0
Energy             : -1380.8909259748197655 Eh
Relativity type    :
Basis              : AO
                                X                 Y                 Z
Electronic contribution:     11.897311473      -4.498359697      -0.084266679
Nuclear contribution   :    -12.095052482       4.500685644       0.077068993
                        -----------------------------------------
Total Dipole Moment    :     -0.197741009       0.002325947      -0.007197686
                        -----------------------------------------
Magnitude (a.u.)       :      0.197885632
Magnitude (Debye)      :      0.502985303

Rotational constants in cm-1:             0.029462             0.011477             0.009033
Rotational constants in MHz :           883.236172           344.078058           270.801671

                             ****ORCA TERMINATED NORMALLY****
TOTAL RUN TIME: 0 days 0 hours 0 minutes 16 seconds 869 msec
