                         Program Version 6.0.0  -   RELEASE  -
|  1> ! r2scan-3c def2/J RI DEFGRID2 scfconv6 printgap
|  2> %output
|  3>     printlevel normal
|  4> end
|  5> * xyz 0 1
|  6> C -2.1863589331 -0.0402762805 -0.1820869217
|  7> C -0.7805022053 -0.0598990648 0.4022867952
|  8> C 0.089414182 -1.1916476962 -0.1533168679
|  9> C 1.5089683188 -0.710697511 0.123739509
| 10> C 1.4524520418 0.7730387895 -0.2457862877
| 11> C 0.0205438891 1.2221248328 0.0967921233
| 12> H -2.1472361519 0.0763579396 -1.2632150799
| 13> H -2.7044389802 -0.9694324141 0.0448005111
| 14> H -2.7605065702 0.7845780077 0.2338068339
| 15> H -0.85533019 -0.1832880241 1.4877227081
| 16> H -0.1312073436 -2.1513686174 0.3119927364
| 17> H -0.0680376888 -1.284001867 -1.2295534329
| 18> H 1.7360765783 -0.8260683939 1.1849307971
| 19> H 2.2594141428 -1.2530623242 -0.4495595309
| 20> H 2.2033111752 1.354191564 0.2876126707
| 21> H 1.6363044339 0.8901777209 -1.314375409
| 22> H 0.0108622606 1.8952587691 0.9534839897
| 23> H -0.424729288 1.7543291227 -0.7437258841
| 24> *
| 25>
| 26>                          ****END OF INPUT****

CARTESIAN COORDINATES (ANGSTROEM)
---------------------------------
  C     -2.186359   -0.040276   -0.182087
  C     -0.780502   -0.059899    0.402287
  C      0.089414   -1.191648   -0.153317
  C      1.508968   -0.710698    0.123740
  C      1.452452    0.773039   -0.245786
  C      0.020544    1.222125    0.096792
  H     -2.147236    0.076358   -1.263215
  H     -2.704439   -0.969432    0.044801
  H     -2.760507    0.784578    0.233807
  H     -0.855330   -0.183288    1.487723
  H     -0.131207   -2.151369    0.311993
  H     -0.068038   -1.284002   -1.229553
  H      1.736077   -0.826068    1.184931
  H      2.259414   -1.253062   -0.449560
  H      2.203311    1.354192    0.287613
  H      1.636304    0.890178   -1.314375
  H      0.010862    1.895259    0.953484
  H     -0.424729    1.754329   -0.743726

 Total Charge           Charge          ....    0
 Multiplicity           Mult            ....    1
 Number of Electrons    NEL             ....   48
 Basis Dimension        Dim             ....  174

ORBITAL ENERGIES
----------------

  NO   OCC          E(Eh)            E(eV)
   0   2.0000     -10.026010      -272.8216
   1   2.0000     -10.017968      -272.6028
   2   2.0000     -10.017722      -272.5961
   3   2.0000     -10.016380      -272.5596
   4   2.0000     -10.015945      -272.5477
   5   2.0000     -10.012337      -272.4495
   6   2.0000      -0.802826       -21.8460
   7   2.0000      -0.708347       -19.2751
   8   2.0000      -0.670845       -18.2546
   9   2.0000      -0.614826       -16.7303
  10   2.0000      -0.532490       -14.4898
  11   2.0000      -0.513452       -13.9717
  12   2.0000      -0.450704       -12.2643
  13   2.0000      -0.428845       -11.6695
  14   2.0000      -0.394387       -10.7318
  15   2.0000      -0.381403       -10.3785
  16   2.0000      -0.371872       -10.1192
  17   2.0000      -0.340274        -9.2593
  18   2.0000      -0.301481        -8.2037
  19   2.0000      -0.300825        -8.1859
  20   2.0000      -0.290760        -7.9120
  21   2.0000      -0.288729        -7.8567
  22   2.0000      -0.281494        -7.6598
  23   2.0000      -0.275275        -7.4906
  24   0.0000       0.085401         2.3239
  25   0.0000       0.099989         2.7209
  26   0.0000       0.106288         2.8923
  27   0.0000       0.128493         3.4965
  28   0.0000       0.140713         3.8290

MULLIKEN ATOMIC CHARGES
-----------------------
   0 C :   -0.512776
   1 C :    0.019111
   2 C :   -0.348230
   3 C :   -0.262131
   4 C :   -0.294938
   5 C :   -0.395215
   6 H :    0.146780
   7 H :    0.143264
   8 H :    0.147436
   9 H :    0.152682
  10 H :    0.151566
  11 H :    0.152071
  12 H :    0.143972
  13 H :    0.149579
  14 H :    0.147549
  15 H :    0.147961
  16 H :    0.152920
  17 H :    0.158400
Sum of atomic charges:    0.0000000

LOEWDIN ATOMIC CHARGES
----------------------
   0 C :   -0.414346
   1 C :   -0.235665
   2 C :   -0.300266
   3 C :   -0.304024
   4 C :   -0.305402
   5 C :   -0.303197
   6 H :    0.151224
   7 H :    0.152589
   8 H :    0.152834
   9 H :    0.156805
  10 H :    0.157700
  11 H :    0.157061
  12 H :    0.154516
  13 H :    0.154855
  14 H :    0.155028
  15 H :    0.154365
  16 H :    0.157781
  17 H :    0.158140

  Mayer bond orders larger than 0.100000
B(  0-C ,  1-C ) :   0.8974 B(  0-C ,  6-H ) :   0.9945 B(  0-C ,  7-H ) :   0.9742
B(  0-C ,  8-H ) :   0.9791 B(  1-C ,  2-C ) :   0.9181 B(  1-C ,  5-C ) :   0.9304
B(  1-C ,  9-H ) :   0.9363 B(  2-C ,  3-C ) :   0.8877 B(  2-C , 10-H ) :   0.9508
B(  2-C , 11-H ) :   1.0108 B(  3-C ,  4-C ) :   0.9256 B(  3-C , 12-H ) :   0.9804
B(  3-C , 13-H ) :   0.9569 B(  4-C ,  5-C ) :   0.9175 B(  4-C , 14-H ) :   0.9614
B(  4-C , 15-H ) :   0.9864 B(  5-C , 16-H ) :   0.9709 B(  5-C , 17-H ) :   1.0029

Dispersion correction           -0.004651777
FINAL SINGLE POINT ENERGY      -235.784444905358

DIPOLE MOMENT
-------------

Method             : SCF
Type of density    : Electron Density
Multiplicity       :   1
Irrep              :   0
Energy             :  -235.7873023924669269 Eh
Relativity type    :
Basis              : AO
                                X                 Y                 Z
Electronic contribution:      1.176831646      -0.092771694       0.502086688
Nuclear contribution   :     -1.168498598       0.082250145      -0.465403067
                        -----------------------------------------
Total Dipole Moment    :      0.008333048      -0.010521548       0.036683621
                        -----------------------------------------
Magnitude (a.u.)       :      0.039061883
Magnitude (Debye)      :      0.099287417

Rotational constants in cm-1:             0.205753             0.100314             0.075997
Rotational constants in MHz :          6168.324044          3007.343609          2278.334718

                             ****ORCA TERMINATED NORMALLY****
TOTAL RUN TIME: 0 days 0 hours 0 minutes 11 seconds 6 msec
