                         Program Version 6.0.0  -   RELEASE  -
|  1> ! r2scan-3c def2/J RI DEFGRID2 scfconv6 printgap
|  2> %output
|  3>     printlevel normal
|  4> end
|  5> %cpcm
|  6>     smd true
|  7>     smdsolvent "water"
|  8> end
|  9> * xyz 0 1
| 10> C -2.1863589331 -0.0402762805 -0.1820869217
| 11> C -0.7805022053 -0.0598990648 0.4022867952
| 12> C 0.089414182 -1.1916476962 -0.1533168679
| 13> C 1.5089683188 -0.710697511 0.123739509
| 14> C 1.4524520418 0.7730387895 -0.2457862877
| 15> C 0.0205438891 1.2221248328 0.0967921233
| 16> H -2.1472361519 0.0763579396 -1.2632150799
| 17> H -2.7044389802 -0.9694324141 0.0448005111
| 18> H -2.7605065702 0.7845780077 0.2338068339
| 19> H -0.85533019 -0.1832880241 1.4877227081
| 20> H -0.1312073436 -2.1513686174 0.3119927364
| 21> H -0.0680376888 -1.284001867 -1.2295534329
| 22> H 1.7360765783 -0.8260683939 1.1849307971
| 23> H 2.2594141428 -1.2530623242 -0.4495595309
| 24> H 2.2033111752 1.354191564 0.2876126707
| 25> H 1.6363044339 0.8901777209 -1.314375409
| 26> H 0.0108622606 1.8952587691 0.9534839897
| 27> H -0.424729288 1.7543291227 -0.7437258841
| 28> *
| 29>
| 30>                          ****END OF INPUT****

CARTESIAN COORDINATES (ANGSTROEM)
---------------------------------
  C     -2.186359   -0.040276   -0.182087
  C     -0.780502   -0.059899    0.402287
  C      0.089414   -1.191648   -0.153317
  C      1.508968   -0.710698    0.123740
  C      1.452452    0.773039   -0.245786
  C      0.020544    1.222125    0.096792
  H     -2.147236    0.076358   -1.263215
  H     -2.704439   -0.969432    0.044801
  H     -2.760507    0.784578    0.233807
  H     -0.855330   -0.183288    1.487723
  H     -0.131207   -2.151369    0.311993
  H     -0.068038   -1.284002   -1.229553
  H      1.736077   -0.826068    1.184931
  H      2.259414   -1.253062   -0.449560
  H      2.203311    1.354192    0.287613
  H      1.636304    0.890178   -1.314375
  H      0.010862    1.895259    0.953484
  H     -0.424729    1.754329   -0.743726

 Total Charge           Charge          ....    0
 Multiplicity           Mult            ....    1
 Number of Electrons    NEL             ....   48
 Basis Dimension        Dim             ....  174

ORBITAL ENERGIES
----------------

  NO   OCC          E(Eh)            E(eV)
   0   2.0000     -10.019293      -272.6388
   1   2.0000     -10.011571      -272.4287
   2   2.0000     -10.011354      -272.4228
   3   2.0000     -10.009532      -272.3732
   4   2.0000     -10.009284      -272.3665
   5   2.0000     -10.005757      -272.2705
   6   2.0000      -0.796353       -21.6699
   7   2.0000      -0.702188       -19.1075
   8   2.0000      -0.664646       -18.0859
   9   2.0000      -0.608819       -16.5668
  10   2.0000      -0.526265       -14.3204
  11   2.0000      -0.507100       -13.7989
  12   2.0000      -0.444161       -12.0862
  13   2.0000      -0.422679       -11.5017
  14   2.0000      -0.387928       -10.5561
  15   2.0000      -0.374633       -10.1943
  16   2.0000      -0.365699        -9.9512
  17   2.0000      -0.333644        -9.0789
  18   2.0000      -0.295178        -8.0322
  19   2.0000      -0.294883        -8.0242
  20   2.0000      -0.284452        -7.7403
  21   2.0000      -0.281778        -7.6676
  22   2.0000      -0.275169        -7.4877
  23   2.0000      -0.268278        -7.3002
  24   0.0000       0.092850         2.5266
  25   0.0000       0.106512         2.8983
  26   0.0000       0.112392         3.0583
  27   0.0000       0.132709         3.6112
  28   0.0000       0.145945         3.9714

MULLIKEN ATOMIC CHARGES
-----------------------
   0 C :   -0.552751
   1 C :    0.028899
   2 C :   -0.367425
   3 C :   -0.284164
   4 C :   -0.310921
   5 C :   -0.412868
   6 H :    0.159080
   7 H :    0.152801
   8 H :    0.156263
   9 H :    0.160843
  10 H :    0.160035
  11 H :    0.160834
  12 H :    0.153573
  13 H :    0.157071
  14 H :    0.155261
  15 H :    0.156764
  16 H :    0.161623
  17 H :    0.165082
Sum of atomic charges:    0.0000000

LOEWDIN ATOMIC CHARGES
----------------------
   0 C :   -0.422905
   1 C :   -0.234566
   2 C :   -0.304140
   3 C :   -0.308467
   4 C :   -0.309785
   5 C :   -0.307005
   6 H :    0.154206
   7 H :    0.154435
   8 H :    0.154703
   9 H :    0.159200
  10 H :    0.159462
  11 H :    0.159299
  12 H :    0.156725
  13 H :    0.156418
  14 H :    0.156581
  15 H :    0.156481
  16 H :    0.159616
  17 H :    0.159743

  Mayer bond orders larger than 0.100000
B(  0-C ,  1-C ) :   0.8889 B(  0-C ,  6-H ) :   0.9913 B(  0-C ,  7-H ) :   0.9727
B(  0-C ,  8-H ) :   0.9765 B(  1-C ,  2-C ) :   0.9152 B(  1-C ,  5-C ) :   0.9292
B(  1-C ,  9-H ) :   0.9368 B(  2-C ,  3-C ) :   0.8880 B(  2-C , 10-H ) :   0.9496
B(  2-C , 11-H ) :   1.0087 B(  3-C ,  4-C ) :   0.9215 B(  3-C , 12-H ) :   0.9796
B(  3-C , 13-H ) :   0.9556 B(  4-C ,  5-C ) :   0.9138 B(  4-C , 14-H ) :   0.9603
B(  4-C , 15-H ) :   0.9846 B(  5-C , 16-H ) :   0.9704 B(  5-C , 17-H ) :   1.0011

Dispersion correction           -0.004651777
FINAL SINGLE POINT ENERGY      -235.782213208456

DIPOLE MOMENT
-------------

Method             : SCF
Type of density    : Electron Density
Multiplicity       :   1
Irrep              :   0
Energy             :  -235.7850706955646842 Eh
Relativity type    :
Basis              : AO
                                X                 Y                 Z
Electronic contribution:      1.173777305      -0.095070655       0.507649936
Nuclear contribution   :     -1.168498598       0.082250145      -0.465403067
                        -----------------------------------------
Total Dipole Moment    :      0.005278707      -0.012820510       0.042246869
                        -----------------------------------------
Magnitude (a.u.)       :      0.044463785
Magnitude (Debye)      :      0.113017959

Rotational constants in cm-1:             0.205753             0.100314             0.075997
Rotational constants in MHz :          6168.324044          3007.343609          2278.334718

                             ****ORCA TERMINATED NORMALLY****
TOTAL RUN TIME: 0 days 0 hours 0 minutes 13 seconds 674 msec
