                         Program Version 6.0.0  -   RELEASE  -
|  1> ! r2scan-3c def2/J RI DEFGRID2 scfconv6 printgap
|  2> %output
|  3>     printlevel normal
|  4> end
|  5> * xyz 0 1
|  6> C -2.1818319162 -0.0309852092 -0.0006230023
|  7> C -0.6938644093 -0.0401008889 0.0014334122
|  8> C 0.1553983718 -1.1129955058 0.0004700331
|  9> N 1.4234563843 -0.5989717374 -0.0006875822
| 10> C 1.2915361393 0.7444193605 -0.0004382345
| 11> N 0.0393363414 1.1155356239 0.0005214499
| 12> H -2.5541175834 0.4117023333 -0.922684452
| 13> H -2.5593929128 -1.045894314 0.0862484009
| 14> H -2.5534579272 0.5661384472 0.8291783079
| 15> H -0.0374895216 -2.165094269 0.001220499
| 16> H 2.2804486836 -1.1273316728 -0.000966134
| 17> H 2.1218084629 1.4211889398 -0.0007238387
| 18> *
| 19>
| 20>                          ****END OF INPUT****

CARTESIAN COORDINATES (ANGSTROEM)
---------------------------------
  C     -2.181832   -0.030985   -0.000623
  C     -0.693864   -0.040101    0.001433
  C      0.155398   -1.112996    0.000470
  N      1.423456   -0.598972   -0.000688
  C      1.291536    0.744419   -0.000438
  N      0.039336    1.115536    0.000521
  H     -2.554118    0.411702   -0.922684
  H     -2.559393   -1.045894    0.086248
  H     -2.553458    0.566138    0.829178
  H     -0.037490   -2.165094    0.001220
  H      2.280449   -1.127332   -0.000966
  H      2.121808    1.421189   -0.000724

 Total Charge           Charge          ....    0
 Multiplicity           Mult            ....    1
 Number of Electrons    NEL             ....   44
 Basis Dimension        Dim             ....  154

ORBITAL ENERGIES
----------------

  NO   OCC          E(Eh)            E(eV)
   0   2.0000     -14.216840      -386.8599
   1   2.0000     -14.130600      -384.5132
   2   2.0000     -10.077569      -274.2246
   3   2.0000     -10.051190      -273.5068
   4   2.0000     -10.045979      -273.3650
   5   2.0000     -10.019749      -272.6512
   6   2.0000      -0.984310       -26.7844
   7   2.0000      -0.840340       -22.8668
   8   2.0000      -0.730688       -19.8830
   9   2.0000      -0.662549       -18.0289
  10   2.0000      -0.581932       -15.8352
  11   2.0000      -0.540379       -14.7045
  12   2.0000      -0.515289       -14.0217
  13   2.0000      -0.419714       -11.4210
  14   2.0000      -0.411873       -11.2076
  15   2.0000      -0.402092       -10.9415
  16   2.0000      -0.366910        -9.9841
  17   2.0000      -0.357246        -9.7211
  18   2.0000      -0.344048        -9.3620
  19   2.0000      -0.254342        -6.9210
  20   2.0000      -0.234978        -6.3941
  21   2.0000      -0.201145        -5.4734
  22   0.0000       0.002209         0.0601
  23   0.0000       0.041196         1.1210
  24   0.0000       0.070865         1.9283
  25   0.0000       0.097690         2.6583
  26   0.0000       0.115801         3.1511

MULLIKEN ATOMIC CHARGES
-----------------------
   0 C :   -0.593565
   1 C :    0.243768
   2 C :   -0.284677
   3 N :   -0.028783
   4 C :   -0.113317
   5 N :   -0.206266
   6 H :    0.161266
   7 H :    0.145564
   8 H :    0.162284
   9 H :    0.138334
  10 H :    0.240900
  11 H :    0.134493
Sum of atomic charges:   -0.0000000

LOEWDIN ATOMIC CHARGES
----------------------
   0 C :   -0.362971
   1 C :    0.101855
   2 C :    0.044478
   3 N :   -0.585970
   4 C :    0.210202
   5 N :   -0.558341
   6 H :    0.165718
   7 H :    0.157700
   8 H :    0.166960
   9 H :    0.184724
  10 H :    0.278807
  11 H :    0.196838

  Mayer bond orders larger than 0.100000
B(  0-C ,  1-C ) :   0.8322 B(  0-C ,  6-H ) :   0.9674 B(  0-C ,  7-H ) :   0.9996
B(  0-C ,  8-H ) :   0.9730 B(  1-C ,  2-C ) :   1.5554 B(  1-C ,  5-N ) :   1.2326
B(  2-C ,  3-N ) :   1.1820 B(  2-C ,  4-C ) :   0.1183 B(  2-C ,  9-H ) :   0.9445
B(  3-N ,  4-C ) :   1.2136 B(  3-N , 10-H ) :   0.9070 B(  4-C ,  5-N ) :   1.6106
B(  4-C , 11-H ) :   0.9691

Dispersion correction           -0.002997335
FINAL SINGLE POINT ENERGY      -265.464972116519

DIPOLE MOMENT
-------------

Method             : SCF
Type of density    : Electron Density
Multiplicity       :   1
Irrep              :   0
Energy             :  -265.4716217322924194 Eh
Relativity type    :
Basis              : AO
                                X                 Y                 Z
Electronic contribution:      3.875184071       0.765894229       0.004842672
Nuclear contribution   :     -3.089982281      -1.816546769      -0.007250388
                        -----------------------------------------
Total Dipole Moment    :      0.785201791      -1.050652540      -0.002407716
                        -----------------------------------------
Magnitude (a.u.)       :      1.311647212
Magnitude (Debye)      :      3.333942260

Rotational constants in cm-1:             0.305288             0.118068             0.086502
Rotational constants in MHz :          9152.296790          3539.588553          2593.278210

                             ****ORCA TERMINATED NORMALLY****
TOTAL RUN TIME: 0 days 0 hours 0 minutes 12 seconds 539 msec
