                         Program Version 6.0.0  -   RELEASE  -
|  1> ! r2scan-3c def2/J RI DEFGRID2 scfconv6 printgap
|  2> %output
|  3>     printlevel normal
|  4> end
|  5> %cpcm
|  6>     smd true
|  7>     smdsolvent "water"
|  8> end
|  9> * xyz 0 1
| 10> C -2.1818319162 -0.0309852092 -0.0006230023
| 11> C -0.6938644093 -0.0401008889 0.0014334122
| 12> C 0.1553983718 -1.1129955058 0.0004700331
| 13> N 1.4234563843 -0.5989717374 -0.0006875822
| 14> C 1.2915361393 0.7444193605 -0.0004382345
| 15> N 0.0393363414 1.1155356239 0.0005214499
| 16> H -2.5541175834 0.4117023333 -0.922684452
| 17> H -2.5593929128 -1.045894314 0.0862484009
| 18> H -2.5534579272 0.5661384472 0.8291783079
| 19> H -0.0374895216 -2.165094269 0.001220499
| 20> H 2.2804486836 -1.1273316728 -0.000966134
| 21> H 2.1218084629 1.4211889398 -0.0007238387
| 22> *
| 23>
| 24>                          ****END OF INPUT****

CARTESIAN COORDINATES (ANGSTROEM)
---------------------------------
  C     -2.181832   -0.030985   -0.000623
  C     -0.693864   -0.040101    0.001433
  C      0.155398   -1.112996    0.000470
  N      1.423456   -0.598972   -0.000688
  C      1.291536    0.744419   -0.000438
  N      0.039336    1.115536    0.000521
  H     -2.554118    0.411702   -0.922684
  H     -2.559393   -1.045894    0.086248
  H     -2.553458    0.566138    0.829178
  H     -0.037490   -2.165094    0.001220
  H      2.280449   -1.127332   -0.000966
  H      2.121808    1.421189   -0.000724

 Total Charge           Charge          ....    0
 Multiplicity           Mult            ....    1
 Number of Electrons    NEL             ....   44
 Basis Dimension        Dim             ....  154

ORBITAL ENERGIES
----------------

  NO   OCC          E(Eh)            E(eV)
   0   2.0000     -14.208468      -386.6321
   1   2.0000     -14.138093      -384.7171
   2   2.0000     -10.076115      -274.1850
   3   2.0000     -10.047309      -273.4012
   4   2.0000     -10.046667      -273.3837
   5   2.0000     -10.018204      -272.6092
   6   2.0000      -0.982608       -26.7381
   7   2.0000      -0.839957       -22.8564
   8   2.0000      -0.730606       -19.8808
   9   2.0000      -0.659067       -17.9341
  10   2.0000      -0.574880       -15.6433
  11   2.0000      -0.537918       -14.6375
  12   2.0000      -0.509261       -13.8577
  13   2.0000      -0.416155       -11.3242
  14   2.0000      -0.413454       -11.2507
  15   2.0000      -0.394147       -10.7253
  16   2.0000      -0.365902        -9.9567
  17   2.0000      -0.356321        -9.6960
  18   2.0000      -0.342601        -9.3227
  19   2.0000      -0.258592        -7.0367
  20   2.0000      -0.249037        -6.7766
  21   2.0000      -0.202191        -5.5019
  22   0.0000       0.002411         0.0656
  23   0.0000       0.037854         1.0301
  24   0.0000       0.088594         2.4108
  25   0.0000       0.107375         2.9218
  26   0.0000       0.122953         3.3457

MULLIKEN ATOMIC CHARGES
-----------------------
   0 C :   -0.636765
   1 C :    0.210319
   2 C :   -0.295280
   3 N :   -0.055601
   4 C :   -0.110883
   5 N :   -0.289451
   6 H :    0.173174
   7 H :    0.173283
   8 H :    0.172040
   9 H :    0.177867
  10 H :    0.308049
  11 H :    0.173249
Sum of atomic charges:    0.0000000

LOEWDIN ATOMIC CHARGES
----------------------
   0 C :   -0.372930
   1 C :    0.080678
   2 C :    0.050517
   3 N :   -0.554195
   4 C :    0.209158
   5 N :   -0.627351
   6 H :    0.167713
   7 H :    0.168229
   8 H :    0.168016
   9 H :    0.200340
  10 H :    0.299361
  11 H :    0.210462

  Mayer bond orders larger than 0.100000
B(  0-C ,  1-C ) :   0.8294 B(  0-C ,  6-H ) :   0.9649 B(  0-C ,  7-H ) :   0.9867
B(  0-C ,  8-H ) :   0.9715 B(  1-C ,  2-C ) :   1.5437 B(  1-C ,  5-N ) :   1.2223
B(  2-C ,  3-N ) :   1.1620 B(  2-C ,  4-C ) :   0.1106 B(  2-C ,  9-H ) :   0.9631
B(  3-N ,  4-C ) :   1.2369 B(  3-N , 10-H ) :   0.8834 B(  4-C ,  5-N ) :   1.5807
B(  4-C , 11-H ) :   0.9623

Dispersion correction           -0.002997335
FINAL SINGLE POINT ENERGY      -265.478614036076

DIPOLE MOMENT
-------------

Method             : SCF
Type of density    : Electron Density
Multiplicity       :   1
Irrep              :   0
Energy             :  -265.4852636518498343 Eh
Relativity type    :
Basis              : AO
                                X                 Y                 Z
Electronic contribution:      4.211589861       0.299734961       0.003651168
Nuclear contribution   :     -3.089982281      -1.816546769      -0.007250388
                        -----------------------------------------
Total Dipole Moment    :      1.121607580      -1.516811807      -0.003599220
                        -----------------------------------------
Magnitude (a.u.)       :      1.886460860
Magnitude (Debye)      :      4.795002442

Rotational constants in cm-1:             0.305288             0.118068             0.086502
Rotational constants in MHz :          9152.296790          3539.588553          2593.278210

                             ****ORCA TERMINATED NORMALLY****
TOTAL RUN TIME: 0 days 0 hours 0 minutes 15 seconds 286 msec
