                         Program Version 6.0.0  -   RELEASE  -
|  1> ! r2scan-3c def2/J RI DEFGRID2 scfconv6 printgap
|  2> %output
|  3>     printlevel normal
|  4> end
|  5> * xyz 0 1
|  6> C -2.3785878839 -0.9868055571 0.668834568
|  7> N -1.6056306058 -0.0882662066 -0.1619559389
|  8> C -2.3210517341 1.1182477429 -0.5153460504
|  9> C -0.2289768032 -0.0416514657 -0.0500478184
| 10> C 0.5200136369 -1.1825631274 0.2749038614
| 11> C 1.8984718217 -1.1503322628 0.3155196271
| 12> C 2.5924285712 0.0153006529 0.036785606
| 13> C 1.8718338851 1.1514198293 -0.2853365647
| 14> C 0.49132085 1.1297742918 -0.326951155
| 15> H -3.3612511668 -1.1213063427 0.2186599394
| 16> H -2.5091634429 -0.5894020336 1.6834184178
| 17> H -1.906606882 -1.9608991272 0.73690156
| 18> H -2.2904686343 1.8763275782 0.2772247055
| 19> H -3.3609628742 0.8588132707 -0.7035520025
| 20> H -1.9073343127 1.5397940874 -1.4298202261
| 21> H 0.0296248499 -2.1189066488 0.4867165923
| 22> H 2.4387645487 -2.0519429954 0.5672322911
| 23> H 3.6710092156 0.0366845031 0.0718357421
| 24> H 2.389666914 2.0754559269 -0.5007902373
| 25> H -0.0220726334 2.0457674721 -0.5676428565
| 26> *
| 27>
| 28>                          ****END OF INPUT****

CARTESIAN COORDINATES (ANGSTROEM)
---------------------------------
  C     -2.378588   -0.986806    0.668835
  N     -1.605631   -0.088266   -0.161956
  C     -2.321052    1.118248   -0.515346
  C     -0.228977   -0.041651   -0.050048
  C      0.520014   -1.182563    0.274904
  C      1.898472   -1.150332    0.315520
  C      2.592429    0.015301    0.036786
  C      1.871834    1.151420   -0.285337
  C      0.491321    1.129774   -0.326951
  H     -3.361251   -1.121306    0.218660
  H     -2.509163   -0.589402    1.683418
  H     -1.906607   -1.960899    0.736902
  H     -2.290469    1.876328    0.277225
  H     -3.360963    0.858813   -0.703552
  H     -1.907334    1.539794   -1.429820
  H      0.029625   -2.118907    0.486717
  H      2.438765   -2.051943    0.567232
  H      3.671009    0.036685    0.071836
  H      2.389667    2.075456   -0.500790
  H     -0.022073    2.045767   -0.567643

 Total Charge           Charge          ....    0
 Multiplicity           Mult            ....    1
 Number of Electrons    NEL             ....   66
 Basis Dimension        Dim             ....  231

ORBITAL ENERGIES
----------------

  NO   OCC          E(Eh)            E(eV)
   0   2.0000     -14.178486      -385.8162
   1   2.0000     -10.068502      -273.9779
   2   2.0000     -10.060522      -273.7607
   3   2.0000     -10.059565      -273.7347
   4   2.0000     -10.024808      -272.7889
   5   2.0000     -10.024640      -272.7843
   6   2.0000     -10.021294      -272.6933
   7   2.0000     -10.020337      -272.6672
   8   2.0000     -10.014511      -272.5087
   9   2.0000      -0.917276       -24.9604
  10   2.0000      -0.808386       -21.9973
  11   2.0000      -0.712120       -19.3778
  12   2.0000      -0.711886       -19.3714
  13   2.0000      -0.685240       -18.6463
  14   2.0000      -0.626427       -17.0460
  15   2.0000      -0.564711       -15.3666
  16   2.0000      -0.541938       -14.7469
  17   2.0000      -0.497598       -13.5403
  18   2.0000      -0.446211       -12.1420
  19   2.0000      -0.441527       -12.0146
  20   2.0000      -0.436612       -11.8808
  21   2.0000      -0.412132       -11.2147
  22   2.0000      -0.387970       -10.5572
  23   2.0000      -0.382849       -10.4178
  24   2.0000      -0.371547       -10.1103
  25   2.0000      -0.363634        -9.8950
  26   2.0000      -0.348368        -9.4796
  27   2.0000      -0.338354        -9.2071
  28   2.0000      -0.318884        -8.6773
  29   2.0000      -0.297654        -8.0996
  30   2.0000      -0.259571        -7.0633
  31   2.0000      -0.227444        -6.1891
  32   2.0000      -0.171031        -4.6540
  33   0.0000      -0.022250        -0.6055
  34   0.0000      -0.007493        -0.2039
  35   0.0000       0.077399         2.1061
  36   0.0000       0.081759         2.2248
  37   0.0000       0.111807         3.0424

MULLIKEN ATOMIC CHARGES
-----------------------
   0 C :   -0.371301
   1 N :    0.088228
   2 C :   -0.435959
   3 C :    0.264014
   4 C :   -0.339639
   5 C :   -0.138678
   6 C :   -0.197903
   7 C :   -0.155835
   8 C :   -0.304128
   9 H :    0.144678
  10 H :    0.151582
  11 H :    0.140316
  12 H :    0.161711
  13 H :    0.140012
  14 H :    0.159422
  15 H :    0.124031
  16 H :    0.143540
  17 H :    0.144603
  18 H :    0.142963
  19 H :    0.138341
Sum of atomic charges:    0.0000000

LOEWDIN ATOMIC CHARGES
----------------------
   0 C :   -0.119261
   1 N :   -0.916691
   2 C :   -0.129115
   3 C :    0.148380
   4 C :   -0.160637
   5 C :   -0.157983
   6 C :   -0.203882
   7 C :   -0.156917
   8 C :   -0.169896
   9 H :    0.174228
  10 H :    0.163885
  11 H :    0.174938
  12 H :    0.162649
  13 H :    0.177450
  14 H :    0.179022
  15 H :    0.166535
  16 H :    0.165860
  17 H :    0.164532
  18 H :    0.165805
  19 H :    0.171099

  Mayer bond orders larger than 0.100000
B(  0-C ,  1-N ) :   0.9081 B(  0-C ,  9-H ) :   0.9728 B(  0-C , 10-H ) :   0.9458
B(  0-C , 11-H ) :   0.9622 B(  1-N ,  2-C ) :   0.9107 B(  1-N ,  3-C ) :   1.2202
B(  2-C , 12-H ) :   0.9498 B(  2-C , 13-H ) :   0.9603 B(  2-C , 14-H ) :   0.9645
B(  3-C ,  4-C ) :   1.3088 B(  3-C ,  8-C ) :   1.3073 B(  4-C ,  5-C ) :   1.4471
B(  4-C , 15-H ) :   0.9424 B(  5-C ,  6-C ) :   1.4061 B(  5-C , 16-H ) :   0.9472
B(  6-C ,  7-C ) :   1.4242 B(  6-C , 17-H ) :   0.9489 B(  7-C ,  8-C ) :   1.4182
B(  7-C , 18-H ) :   0.9491 B(  8-C , 19-H ) :   0.9478

Dispersion correction           -0.006685901
FINAL SINGLE POINT ENERGY      -366.098947734004

DIPOLE MOMENT
-------------

Method             : SCF
Type of density    : Electron Density
Multiplicity       :   1
Irrep              :   0
Energy             :  -366.1050412711388162 Eh
Relativity type    :
Basis              : AO
                                X                 Y                 Z
Electronic contribution:      5.660989268      -0.509489983      -0.682632178
Nuclear contribution   :     -6.415356299       0.553397106       0.787345890
                        -----------------------------------------
Total Dipole Moment    :     -0.754367031       0.043907123       0.104713712
                        -----------------------------------------
Magnitude (a.u.)       :      0.762864611
Magnitude (Debye)      :      1.939047742

Rotational constants in cm-1:             0.119682             0.040639             0.031015
Rotational constants in MHz :          3587.972893          1218.323090           929.808246

                             ****ORCA TERMINATED NORMALLY****
TOTAL RUN TIME: 0 days 0 hours 0 minutes 35 seconds 275 msec
