                         Program Version 6.0.0  -   RELEASE  -
|  1> ! r2scan-3c def2/J RI DEFGRID2 scfconv6 printgap
|  2> %output
|  3>     printlevel normal
|  4> end
|  5> %cpcm
|  6>     smd true
|  7>     smdsolvent "water"
|  8> end
|  9> * xyz 0 1
| 10> C -2.3785878839 -0.9868055571 0.668834568
| 11> N -1.6056306058 -0.0882662066 -0.1619559389
| 12> C -2.3210517341 1.1182477429 -0.5153460504
| 13> C -0.2289768032 -0.0416514657 -0.0500478184
| 14> C 0.5200136369 -1.1825631274 0.2749038614
| 15> C 1.8984718217 -1.1503322628 0.3155196271
| 16> C 2.5924285712 0.0153006529 0.036785606
| 17> C 1.8718338851 1.1514198293 -0.2853365647
| 18> C 0.49132085 1.1297742918 -0.326951155
| 19> H -3.3612511668 -1.1213063427 0.2186599394
| 20> H -2.5091634429 -0.5894020336 1.6834184178
| 21> H -1.906606882 -1.9608991272 0.73690156
| 22> H -2.2904686343 1.8763275782 0.2772247055
| 23> H -3.3609628742 0.8588132707 -0.7035520025
| 24> H -1.9073343127 1.5397940874 -1.4298202261
| 25> H 0.0296248499 -2.1189066488 0.4867165923
| 26> H 2.4387645487 -2.0519429954 0.5672322911
| 27> H 3.6710092156 0.0366845031 0.0718357421
| 28> H 2.389666914 2.0754559269 -0.5007902373
| 29> H -0.0220726334 2.0457674721 -0.5676428565
| 30> *
| 31>
| 32>                          ****END OF INPUT****

CARTESIAN COORDINATES (ANGSTROEM)
---------------------------------
  C     -2.378588   -0.986806    0.668835
  N     -1.605631   -0.088266   -0.161956
  C     -2.321052    1.118248   -0.515346
  C     -0.228977   -0.041651   -0.050048
  C      0.520014   -1.182563    0.274904
  C      1.898472   -1.150332    0.315520
  C      2.592429    0.015301    0.036786
  C      1.871834    1.151420   -0.285337
  C      0.491321    1.129774   -0.326951
  H     -3.361251   -1.121306    0.218660
  H     -2.509163   -0.589402    1.683418
  H     -1.906607   -1.960899    0.736902
  H     -2.290469    1.876328    0.277225
  H     -3.360963    0.858813   -0.703552
  H     -1.907334    1.539794   -1.429820
  H      0.029625   -2.118907    0.486717
  H      2.438765   -2.051943    0.567232
  H      3.671009    0.036685    0.071836
  H      2.389667    2.075456   -0.500790
  H     -0.022073    2.045767   -0.567643

 Total Charge           Charge          ....    0
 Multiplicity           Mult            ....    1
 Number of Electrons    NEL             ....   66
 Basis Dimension        Dim             ....  231

ORBITAL ENERGIES
----------------

  NO   OCC          E(Eh)            E(eV)
   0   2.0000     -14.175211      -385.7271
   1   2.0000     -10.070876      -274.0425
   2   2.0000     -10.045948      -273.3642
   3   2.0000     -10.045066      -273.3401
   4   2.0000     -10.028655      -272.8936
   5   2.0000     -10.028588      -272.8917
   6   2.0000     -10.023494      -272.7531
   7   2.0000     -10.022565      -272.7278
   8   2.0000     -10.018597      -272.6199
   9   2.0000      -0.912863       -24.8403
  10   2.0000      -0.812945       -22.1214
  11   2.0000      -0.713991       -19.4287
  12   2.0000      -0.712624       -19.3915
  13   2.0000      -0.675516       -18.3817
  14   2.0000      -0.621899       -16.9227
  15   2.0000      -0.566048       -15.4029
  16   2.0000      -0.540455       -14.7065
  17   2.0000      -0.493573       -13.4308
  18   2.0000      -0.441901       -12.0247
  19   2.0000      -0.438966       -11.9449
  20   2.0000      -0.427876       -11.6431
  21   2.0000      -0.409327       -11.1383
  22   2.0000      -0.385686       -10.4950
  23   2.0000      -0.381063       -10.3692
  24   2.0000      -0.358591        -9.7578
  25   2.0000      -0.353755        -9.6262
  26   2.0000      -0.344870        -9.3844
  27   2.0000      -0.335284        -9.1235
  28   2.0000      -0.320307        -8.7160
  29   2.0000      -0.296778        -8.0758
  30   2.0000      -0.262450        -7.1416
  31   2.0000      -0.235565        -6.4101
  32   2.0000      -0.172179        -4.6852
  33   0.0000      -0.029001        -0.7892
  34   0.0000      -0.013379        -0.3641
  35   0.0000       0.086000         2.3402
  36   0.0000       0.090920         2.4741
  37   0.0000       0.117784         3.2051

MULLIKEN ATOMIC CHARGES
-----------------------
   0 C :   -0.400943
   1 N :    0.083099
   2 C :   -0.451155
   3 C :    0.216511
   4 C :   -0.364106
   5 C :   -0.180128
   6 C :   -0.245752
   7 C :   -0.200877
   8 C :   -0.323207
   9 H :    0.168689
  10 H :    0.163580
  11 H :    0.162603
  12 H :    0.172610
  13 H :    0.166498
  14 H :    0.170705
  15 H :    0.164551
  16 H :    0.175174
  17 H :    0.174592
  18 H :    0.174331
  19 H :    0.173223
Sum of atomic charges:   -0.0000000

LOEWDIN ATOMIC CHARGES
----------------------
   0 C :   -0.120507
   1 N :   -0.922350
   2 C :   -0.128176
   3 C :    0.136890
   4 C :   -0.173144
   5 C :   -0.173642
   6 C :   -0.228010
   7 C :   -0.172436
   8 C :   -0.181536
   9 H :    0.183708
  10 H :    0.169531
  11 H :    0.181719
  12 H :    0.168951
  13 H :    0.186940
  14 H :    0.183192
  15 H :    0.180120
  16 H :    0.176171
  17 H :    0.173303
  18 H :    0.176083
  19 H :    0.183195

  Mayer bond orders larger than 0.100000
B(  0-C ,  1-N ) :   0.9012 B(  0-C ,  9-H ) :   0.9643 B(  0-C , 10-H ) :   0.9421
B(  0-C , 11-H ) :   0.9574 B(  1-N ,  2-C ) :   0.9108 B(  1-N ,  3-C ) :   1.2305
B(  2-C , 12-H ) :   0.9453 B(  2-C , 13-H ) :   0.9543 B(  2-C , 14-H ) :   0.9585
B(  3-C ,  4-C ) :   1.2771 B(  3-C ,  8-C ) :   1.2692 B(  4-C ,  5-C ) :   1.4151
B(  4-C , 15-H ) :   0.9530 B(  5-C ,  6-C ) :   1.3537 B(  5-C , 16-H ) :   0.9600
B(  6-C ,  7-C ) :   1.3735 B(  6-C , 17-H ) :   0.9612 B(  7-C ,  8-C ) :   1.3862
B(  7-C , 18-H ) :   0.9628 B(  8-C , 19-H ) :   0.9574

Dispersion correction           -0.006685901
FINAL SINGLE POINT ENERGY      -366.104616657981

DIPOLE MOMENT
-------------

Method             : SCF
Type of density    : Electron Density
Multiplicity       :   1
Irrep              :   0
Energy             :  -366.1107101951157006 Eh
Relativity type    :
Basis              : AO
                                X                 Y                 Z
Electronic contribution:      5.310390251      -0.487145757      -0.630858766
Nuclear contribution   :     -6.415356299       0.553397106       0.787345890
                        -----------------------------------------
Total Dipole Moment    :     -1.104966048       0.066251349       0.156487125
                        -----------------------------------------
Magnitude (a.u.)       :      1.117956810
Magnitude (Debye)      :      2.841620383

Rotational constants in cm-1:             0.119682             0.040639             0.031015
Rotational constants in MHz :          3587.972893          1218.323090           929.808246

                             ****ORCA TERMINATED NORMALLY****
TOTAL RUN TIME: 0 days 0 hours 0 minutes 36 seconds 477 msec
