                         Program Version 6.0.0  -   RELEASE  -
|  1> ! wb97x-v def2-tzvp def2/J RIJCOSX DEFGRID2 scfconv7 GCP(DFT/TZ) printgap
|  2> %output
|  3>     printlevel normal
|  4> end
|  5> * xyz 0 1
|  6> C -2.210991710389015 0.6975343678061439 0.059198432125987195
|  7> C -2.211037557867283 -0.6974088111834336 0.05944551142041505
|  8> C -1.0079185604524976 -1.4052870319061606 -0.0009147533393714394
|  9> C 0.1889569309410591 -0.7004037694638081 -0.0548047891838024
| 10> C 0.18900605859866476 0.7003348021454151 -0.054959141722506565
| 11> C -1.0078276576852576 1.4053137684432488 -0.0013444825918964623
| 12> C 1.6011765249418595 1.2218138516779298 -0.14145950910678967
| 13> C 2.4444669515981126 -0.00010472091393246511 0.28073885184677216
| 14> C 1.6010824430756174 -1.2219733567672648 -0.14136372260568697
| 15> H -3.152170936139033 1.236587182629057 0.11176594830247182
| 16> H -3.1522489778880267 -1.236381246571283 0.11224181295390227
| 17> H -1.0112326447171753 -2.4919912709162584 0.0015767452353859593
| 18> H -1.0110610037673675 2.492018837430479 0.0008008196365880067
| 19> H 1.8254265291529683 1.5093819352833218 -1.1777612734631784
| 20> H 1.7732715366545806 2.1024119623131563 0.4839434563778744
| 21> H 3.44407643863857 -0.00016268100176977765 -0.16019817608330242
| 22> H 2.5553951400662083 -6.309137097901687e-05 1.3703633386084766
| 23> H 1.8252102454200063 -1.5094942060135623 -1.1776889190326354
| 24> H 1.7731940747677137 -2.1025878570113994 0.4839746785714585
| 25> *
| 26>
| 27>                          ****END OF INPUT****

CARTESIAN COORDINATES (ANGSTROEM)
---------------------------------
  C     -2.210992    0.697534    0.059198
  C     -2.211038   -0.697409    0.059446
  C     -1.007919   -1.405287   -0.000915
  C      0.188957   -0.700404   -0.054805
  C      0.189006    0.700335   -0.054959
  C     -1.007828    1.405314   -0.001344
  C      1.601177    1.221814   -0.141460
  C      2.444467   -0.000105    0.280739
  C      1.601082   -1.221973   -0.141364
  H     -3.152171    1.236587    0.111766
  H     -3.152249   -1.236381    0.112242
  H     -1.011233   -2.491991    0.001577
  H     -1.011061    2.492019    0.000801
  H      1.825427    1.509382   -1.177761
  H      1.773272    2.102412    0.483943
  H      3.444076   -0.000163   -0.160198
  H      2.555395   -0.000063    1.370363
  H      1.825210   -1.509494   -1.177689
  H      1.773194   -2.102588    0.483975

 Total Charge           Charge          ....    0
 Multiplicity           Mult            ....    1
 Number of Electrons    NEL             ....   64
 Basis Dimension        Dim             ....  339

ORBITAL ENERGIES
----------------

  NO   OCC          E(Eh)            E(eV)
   0   2.0000     -12.049081      -327.8722
   1   2.0000     -12.048022      -327.8434
   2   2.0000     -12.047162      -327.8199
   3   2.0000     -12.047058      -327.8171
   4   2.0000     -12.047037      -327.8166
   5   2.0000     -12.045485      -327.7743
   6   2.0000     -12.045427      -327.7727
   7   2.0000     -12.044869      -327.7576
   8   2.0000     -12.043789      -327.7282
   9   2.0000      -1.393359       -37.9152
  10   2.0000      -1.327038       -36.1105
  11   2.0000      -1.276298       -34.7298
  12   2.0000      -1.234206       -33.5844
  13   2.0000      -1.199299       -32.6346
  14   2.0000      -1.109935       -30.2029
  15   2.0000      -1.069893       -29.1133
  16   2.0000      -1.059011       -28.8171
  17   2.0000      -0.963724       -26.2243
  18   2.0000      -0.939071       -25.5534
  19   2.0000      -0.904438       -24.6110
  20   2.0000      -0.894333       -24.3360
  21   2.0000      -0.870090       -23.6764
  22   2.0000      -0.869628       -23.6638
  23   2.0000      -0.831997       -22.6398
  24   2.0000      -0.815795       -22.1989
  25   2.0000      -0.812992       -22.1226
  26   2.0000      -0.794778       -21.6270
  27   2.0000      -0.794648       -21.6235
  28   2.0000      -0.780329       -21.2338
  29   2.0000      -0.742981       -20.2175
  30   2.0000      -0.631899       -17.1949
  31   2.0000      -0.623778       -16.9739
  32   0.0000      -0.234485        -6.3807
  33   0.0000      -0.231957        -6.3119
  34   0.0000      -0.069132        -1.8812
  35   0.0000      -0.062620        -1.7040
  36   0.0000      -0.040817        -1.1107

MULLIKEN ATOMIC CHARGES
-----------------------
   0 C :   -0.103659
   1 C :   -0.103727
   2 C :   -0.221926
   3 C :    0.042755
   4 C :    0.042960
   5 C :   -0.222130
   6 C :   -0.152223
   7 C :   -0.178862
   8 C :   -0.152318
   9 H :    0.113646
  10 H :    0.113630
  11 H :    0.110811
  12 H :    0.110821
  13 H :    0.097209
  14 H :    0.106446
  15 H :    0.102599
  16 H :    0.090297
  17 H :    0.097200
  18 H :    0.106471
Sum of atomic charges:    0.0000000

LOEWDIN ATOMIC CHARGES
----------------------
   0 C :   -0.144034
   1 C :   -0.144033
   2 C :   -0.115547
   3 C :   -0.112546
   4 C :   -0.112543
   5 C :   -0.115548
   6 C :   -0.199032
   7 C :   -0.228844
   8 C :   -0.199035
   9 H :    0.139860
  10 H :    0.139860
  11 H :    0.141748
  12 H :    0.141749
  13 H :    0.140077
  14 H :    0.133876
  15 H :    0.125633
  16 H :    0.134407
  17 H :    0.140081
  18 H :    0.133870

  Mayer bond orders larger than 0.100000
B(  0-C ,  1-C ) :   1.4253 B(  0-C ,  5-C ) :   1.4257 B(  0-C ,  9-H ) :   0.9776
B(  1-C ,  2-C ) :   1.4256 B(  1-C , 10-H ) :   0.9776 B(  2-C ,  3-C ) :   1.3961
B(  2-C , 11-H ) :   0.9835 B(  3-C ,  4-C ) :   1.3736 B(  3-C ,  8-C ) :   0.9489
B(  4-C ,  5-C ) :   1.3962 B(  4-C ,  6-C ) :   0.9486 B(  5-C , 12-H ) :   0.9835
B(  6-C ,  7-C ) :   1.0180 B(  6-C , 13-H ) :   0.9498 B(  6-C , 14-H ) :   0.9733
B(  7-C ,  8-C ) :   1.0180 B(  7-C , 15-H ) :   0.9832 B(  7-C , 16-H ) :   0.9669
B(  8-C , 17-H ) :   0.9498 B(  8-C , 18-H ) :   0.9733

FINAL SINGLE POINT ENERGY      -349.002672732358

DIPOLE MOMENT
-------------

Method             : SCF
Type of density    : Electron Density
Multiplicity       :   1
Irrep              :   0
Energy             :  -349.0132860832578103 Eh
Relativity type    :
Basis              : AO
                                X                 Y                 Z
Electronic contribution:     -4.316579813       0.000056297      -0.060236559
Nuclear contribution   :      4.572976874      -0.000068168       0.037739944
                        -----------------------------------------
Total Dipole Moment    :      0.256397060      -0.000011871      -0.022496615
                        -----------------------------------------
Magnitude (a.u.)       :      0.257382109
Magnitude (Debye)      :      0.654213331

Rotational constants in cm-1:             0.118154             0.050092             0.036205
Rotational constants in MHz :          3542.162387          1501.730884          1085.392361

                             ****ORCA TERMINATED NORMALLY****
TOTAL RUN TIME: 0 days 0 hours 3 minutes 50 seconds 314 msec
