                         Program Version 6.0.0  -   RELEASE  -
|  1> ! wb97x-v def2-tzvp def2/J RIJCOSX DEFGRID2 scfconv7 GCP(DFT/TZ) printgap
|  2> %output
|  3>     printlevel normal
|  4> end
|  5> %cpcm
|  6>     smd true
|  7>     smdsolvent "water"
|  8> end
|  9> * xyz 0 1
| 10> C -2.210991710389015 0.6975343678061439 0.059198432125987195
| 11> C -2.211037557867283 -0.6974088111834336 0.05944551142041505
| 12> C -1.0079185604524976 -1.4052870319061606 -0.0009147533393714394
| 13> C 0.1889569309410591 -0.7004037694638081 -0.0548047891838024
| 14> C 0.18900605859866476 0.7003348021454151 -0.054959141722506565
| 15> C -1.0078276576852576 1.4053137684432488 -0.0013444825918964623
| 16> C 1.6011765249418595 1.2218138516779298 -0.14145950910678967
| 17> C 2.4444669515981126 -0.00010472091393246511 0.28073885184677216
| 18> C 1.6010824430756174 -1.2219733567672648 -0.14136372260568697
| 19> H -3.152170936139033 1.236587182629057 0.11176594830247182
| 20> H -3.1522489778880267 -1.236381246571283 0.11224181295390227
| 21> H -1.0112326447171753 -2.4919912709162584 0.0015767452353859593
| 22> H -1.0110610037673675 2.492018837430479 0.0008008196365880067
| 23> H 1.8254265291529683 1.5093819352833218 -1.1777612734631784
| 24> H 1.7732715366545806 2.1024119623131563 0.4839434563778744
| 25> H 3.44407643863857 -0.00016268100176977765 -0.16019817608330242
| 26> H 2.5553951400662083 -6.309137097901687e-05 1.3703633386084766
| 27> H 1.8252102454200063 -1.5094942060135623 -1.1776889190326354
| 28> H 1.7731940747677137 -2.1025878570113994 0.4839746785714585
| 29> *
| 30>
| 31>                          ****END OF INPUT****

CARTESIAN COORDINATES (ANGSTROEM)
---------------------------------
  C     -2.210992    0.697534    0.059198
  C     -2.211038   -0.697409    0.059446
  C     -1.007919   -1.405287   -0.000915
  C      0.188957   -0.700404   -0.054805
  C      0.189006    0.700335   -0.054959
  C     -1.007828    1.405314   -0.001344
  C      1.601177    1.221814   -0.141460
  C      2.444467   -0.000105    0.280739
  C      1.601082   -1.221973   -0.141364
  H     -3.152171    1.236587    0.111766
  H     -3.152249   -1.236381    0.112242
  H     -1.011233   -2.491991    0.001577
  H     -1.011061    2.492019    0.000801
  H      1.825427    1.509382   -1.177761
  H      1.773272    2.102412    0.483943
  H      3.444076   -0.000163   -0.160198
  H      2.555395   -0.000063    1.370363
  H      1.825210   -1.509494   -1.177689
  H      1.773194   -2.102588    0.483975

 Total Charge           Charge          ....    0
 Multiplicity           Mult            ....    1
 Number of Electrons    NEL             ....   64
 Basis Dimension        Dim             ....  339

ORBITAL ENERGIES
----------------

  NO   OCC          E(Eh)            E(eV)
   0   2.0000     -12.048680      -327.8613
   1   2.0000     -12.047269      -327.8229
   2   2.0000     -12.046557      -327.8035
   3   2.0000     -12.045294      -327.7691
   4   2.0000     -12.044362      -327.7437
   5   2.0000     -12.043292      -327.7146
   6   2.0000     -12.038745      -327.5909
   7   2.0000     -12.038657      -327.5885
   8   2.0000     -12.035999      -327.5162
   9   2.0000      -1.392785       -37.8996
  10   2.0000      -1.324505       -36.0416
  11   2.0000      -1.275998       -34.7217
  12   2.0000      -1.231362       -33.5071
  13   2.0000      -1.194175       -32.4952
  14   2.0000      -1.107593       -30.1391
  15   2.0000      -1.068330       -29.0707
  16   2.0000      -1.053208       -28.6592
  17   2.0000      -0.961931       -26.1755
  18   2.0000      -0.937159       -25.5014
  19   2.0000      -0.900784       -24.5116
  20   2.0000      -0.887154       -24.1407
  21   2.0000      -0.867602       -23.6087
  22   2.0000      -0.865345       -23.5472
  23   2.0000      -0.824210       -22.4279
  24   2.0000      -0.809865       -22.0376
  25   2.0000      -0.809798       -22.0357
  26   2.0000      -0.791908       -21.5489
  27   2.0000      -0.786386       -21.3987
  28   2.0000      -0.776000       -21.1160
  29   2.0000      -0.740453       -20.1487
  30   2.0000      -0.633948       -17.2506
  31   2.0000      -0.624796       -17.0016
  32   0.0000      -0.235954        -6.4206
  33   0.0000      -0.233310        -6.3487
  34   0.0000      -0.069092        -1.8801
  35   0.0000      -0.056477        -1.5368
  36   0.0000      -0.035333        -0.9615

MULLIKEN ATOMIC CHARGES
-----------------------
   0 C :   -0.154052
   1 C :   -0.154106
   2 C :   -0.264995
   3 C :    0.015896
   4 C :    0.016054
   5 C :   -0.265161
   6 C :   -0.158561
   7 C :   -0.203112
   8 C :   -0.158663
   9 H :    0.157579
  10 H :    0.157559
  11 H :    0.153064
  12 H :    0.153077
  13 H :    0.114307
  14 H :    0.126855
  15 H :    0.119372
  16 H :    0.103709
  17 H :    0.114296
  18 H :    0.126883
Sum of atomic charges:    0.0000000

LOEWDIN ATOMIC CHARGES
----------------------
   0 C :   -0.158615
   1 C :   -0.158614
   2 C :   -0.125510
   3 C :   -0.119120
   4 C :   -0.119116
   5 C :   -0.125511
   6 C :   -0.198464
   7 C :   -0.229862
   8 C :   -0.198467
   9 H :    0.148597
  10 H :    0.148596
  11 H :    0.151127
  12 H :    0.151128
  13 H :    0.144939
  14 H :    0.138782
  15 H :    0.129780
  16 H :    0.136613
  17 H :    0.144943
  18 H :    0.138776

  Mayer bond orders larger than 0.100000
B(  0-C ,  1-C ) :   1.4037 B(  0-C ,  5-C ) :   1.4073 B(  0-C ,  9-H ) :   0.9801
B(  1-C ,  2-C ) :   1.4072 B(  1-C , 10-H ) :   0.9801 B(  2-C ,  3-C ) :   1.3686
B(  2-C , 11-H ) :   0.9918 B(  3-C ,  4-C ) :   1.3531 B(  3-C ,  8-C ) :   0.9623
B(  4-C ,  5-C ) :   1.3687 B(  4-C ,  6-C ) :   0.9621 B(  5-C , 12-H ) :   0.9917
B(  6-C ,  7-C ) :   1.0111 B(  6-C , 13-H ) :   0.9455 B(  6-C , 14-H ) :   0.9695
B(  7-C ,  8-C ) :   1.0111 B(  7-C , 15-H ) :   0.9783 B(  7-C , 16-H ) :   0.9695
B(  8-C , 17-H ) :   0.9454 B(  8-C , 18-H ) :   0.9695

FINAL SINGLE POINT ENERGY      -349.004591124183

DIPOLE MOMENT
-------------

Method             : SCF
Type of density    : Electron Density
Multiplicity       :   1
Irrep              :   0
Energy             :  -349.0152044750832943 Eh
Relativity type    :
Basis              : AO
                                X                 Y                 Z
Electronic contribution:     -4.177209437       0.000053233      -0.085520389
Nuclear contribution   :      4.572976874      -0.000068168       0.037739944
                        -----------------------------------------
Total Dipole Moment    :      0.395767436      -0.000014935      -0.047780445
                        -----------------------------------------
Magnitude (a.u.)       :      0.398641236
Magnitude (Debye)      :      1.013265495

Rotational constants in cm-1:             0.118154             0.050092             0.036205
Rotational constants in MHz :          3542.162387          1501.730884          1085.392361

                             ****ORCA TERMINATED NORMALLY****
TOTAL RUN TIME: 0 days 0 hours 3 minutes 39 seconds 668 msec
