                         Program Version 6.0.0  -   RELEASE  -
|  1> ! pbe def2-sv(p) def2/J RI DEFGRID1 loosescf d4 GCP(DFT/SV(P)) printgap
|  2> %output
|  3>     printlevel normal
|  4> end
|  5> * xyz 0 1
|  6> C -2.3925079989 -1.1240248014 -0.3578337699
|  7> C -1.0672397271 -0.6159343173 0.2350192091
|  8> H -1.1165525121 -0.624734434 1.3368139674
|  9> C -0.7805082806 0.8352208857 -0.2038044363
| 10> H -0.8670969801 0.9134488477 -1.2983120039
| 11> C 0.6459776745 1.2542752846 0.1760345311
| 12> H 0.6883557687 1.3895212984 1.2674885533
| 13> C 1.6606720888 0.1762924486 -0.2268106208
| 14> H 1.7098203016 0.140540712 -1.3270034513
| 15> C 1.2122262569 -1.2024246626 0.292594906
| 16> H 1.2122844195 -1.1821665037 1.3962982088
| 17> O -0.066903639 -1.5138543245 -0.2002813586
| 18> O 2.0876321904 -2.202733984 -0.0885700848
| 19> O 2.9090487124 0.5351097981 0.3111416581
| 20> O 0.9282650423 2.466647102 -0.4749771906
| 21> O -1.6676755425 1.7202211545 0.4285978494
| 22> O -3.5038794481 -0.3906879002 0.0885676993
| 23> H -2.4861247623 -2.1898963861 -0.1279705707
| 24> H -2.3584228085 -1.0077934313 -1.4435073329
| 25> H 1.8669903616 -2.4930845485 -0.9880367367
| 26> H 3.5221172216 -0.2094056607 0.2108448211
| 27> H 1.822483986 2.7456598423 -0.2272116971
| 28> H -2.5763133571 1.4632571083 0.1887318543
| 29> H -3.7182561328 -0.640233457 0.9988834326
| 30> *
| 31>
| 32>                          ****END OF INPUT****

CARTESIAN COORDINATES (ANGSTROEM)
---------------------------------
  C     -2.392508   -1.124025   -0.357834
  C     -1.067240   -0.615934    0.235019
  H     -1.116553   -0.624734    1.336814
  C     -0.780508    0.835221   -0.203804
  H     -0.867097    0.913449   -1.298312
  C      0.645978    1.254275    0.176035
  H      0.688356    1.389521    1.267489
  C      1.660672    0.176292   -0.226811
  H      1.709820    0.140541   -1.327003
  C      1.212226   -1.202425    0.292595
  H      1.212284   -1.182167    1.396298
  O     -0.066904   -1.513854   -0.200281
  O      2.087632   -2.202734   -0.088570
  O      2.909049    0.535110    0.311142
  O      0.928265    2.466647   -0.474977
  O     -1.667676    1.720221    0.428598
  O     -3.503879   -0.390688    0.088568
  H     -2.486125   -2.189896   -0.127971
  H     -2.358423   -1.007793   -1.443507
  H      1.866990   -2.493085   -0.988037
  H      3.522117   -0.209406    0.210845
  H      1.822484    2.745660   -0.227212
  H     -2.576313    1.463257    0.188732
  H     -3.718256   -0.640233    0.998883

 Total Charge           Charge          ....    0
 Multiplicity           Mult            ....    1
 Number of Electrons    NEL             ....   96
 Basis Dimension        Dim             ....  192

ORBITAL ENERGIES
----------------

  NO   OCC          E(Eh)            E(eV)
   0   2.0000     -18.782380      -511.0945
   1   2.0000     -18.779624      -511.0195
   2   2.0000     -18.771097      -510.7875
   3   2.0000     -18.756101      -510.3794
   4   2.0000     -18.738580      -509.9027
   5   2.0000     -18.736597      -509.8487
   6   2.0000      -9.991161      -271.8733
   7   2.0000      -9.949846      -270.7491
   8   2.0000      -9.948331      -270.7078
   9   2.0000      -9.938416      -270.4381
  10   2.0000      -9.936538      -270.3869
  11   2.0000      -9.936274      -270.3798
  12   2.0000      -0.994025       -27.0488
  13   2.0000      -0.954703       -25.9788
  14   2.0000      -0.937969       -25.5234
  15   2.0000      -0.930440       -25.3186
  16   2.0000      -0.917295       -24.9609
  17   2.0000      -0.905506       -24.6401
  18   2.0000      -0.701624       -19.0922
  19   2.0000      -0.694524       -18.8990
  20   2.0000      -0.622904       -16.9501
  21   2.0000      -0.583230       -15.8705
  22   2.0000      -0.570130       -15.5140
  23   2.0000      -0.530617       -14.4388
  24   2.0000      -0.503876       -13.7112
  25   2.0000      -0.484648       -13.1879
  26   2.0000      -0.480619       -13.0783
  27   2.0000      -0.469599       -12.7784
  28   2.0000      -0.456647       -12.4260
  29   2.0000      -0.442512       -12.0414
  30   2.0000      -0.423203       -11.5159
  31   2.0000      -0.396321       -10.7845
  32   2.0000      -0.393880       -10.7180
  33   2.0000      -0.363417        -9.8891
  34   2.0000      -0.356241        -9.6938
  35   2.0000      -0.352142        -9.5823
  36   2.0000      -0.335160        -9.1202
  37   2.0000      -0.324279        -8.8241
  38   2.0000      -0.307465        -8.3666
  39   2.0000      -0.295276        -8.0349
  40   2.0000      -0.291972        -7.9450
  41   2.0000      -0.281263        -7.6536
  42   2.0000      -0.256430        -6.9778
  43   2.0000      -0.245687        -6.6855
  44   2.0000      -0.239540        -6.5182
  45   2.0000      -0.218327        -5.9410
  46   2.0000      -0.213638        -5.8134
  47   2.0000      -0.197932        -5.3860
  48   0.0000       0.006110         0.1663
  49   0.0000       0.018896         0.5142
  50   0.0000       0.037735         1.0268
  51   0.0000       0.041382         1.1261
  52   0.0000       0.061373         1.6700

MULLIKEN ATOMIC CHARGES
-----------------------
   0 C :    0.070667
   1 C :   -0.019573
   2 H :    0.048840
   3 C :    0.057572
   4 H :    0.053709
   5 C :    0.100823
   6 H :    0.055543
   7 C :    0.035377
   8 H :    0.039115
   9 C :    0.176693
  10 H :    0.053329
  11 O :   -0.308662
  12 O :   -0.388057
  13 O :   -0.423949
  14 O :   -0.408696
  15 O :   -0.418559
  16 O :   -0.433656
  17 H :    0.096137
  18 H :    0.089725
  19 H :    0.306137
  20 H :    0.304625
  21 H :    0.305713
  22 H :    0.297093
  23 H :    0.310054
Sum of atomic charges:   -0.0000000

LOEWDIN ATOMIC CHARGES
----------------------
   0 C :   -0.125755
   1 C :   -0.079716
   2 H :    0.099068
   3 C :   -0.063372
   4 H :    0.105084
   5 C :   -0.061737
   6 H :    0.107434
   7 C :   -0.101010
   8 H :    0.098364
   9 C :   -0.005150
  10 H :    0.097112
  11 O :   -0.150803
  12 O :   -0.296460
  13 O :   -0.324881
  14 O :   -0.315012
  15 O :   -0.320595
  16 O :   -0.317517
  17 H :    0.107159
  18 H :    0.118647
  19 H :    0.290786
  20 H :    0.285828
  21 H :    0.288293
  22 H :    0.271621
  23 H :    0.292613

  Mayer bond orders larger than 0.100000
B(  0-C ,  1-C ) :   1.0283 B(  0-C , 16-O ) :   1.0475 B(  0-C , 17-H ) :   0.9256
B(  0-C , 18-H ) :   0.9135 B(  1-C ,  2-H ) :   0.8748 B(  1-C ,  3-C ) :   0.9925
B(  1-C , 11-O ) :   0.9764 B(  3-C ,  4-H ) :   0.8734 B(  3-C ,  5-C ) :   1.0133
B(  3-C , 15-O ) :   1.1054 B(  5-C ,  6-H ) :   0.8745 B(  5-C ,  7-C ) :   1.0013
B(  5-C , 14-O ) :   1.1016 B(  7-C ,  8-H ) :   0.8594 B(  7-C ,  9-C ) :   0.9785
B(  7-C , 13-O ) :   1.0710 B(  9-C , 10-H ) :   0.8785 B(  9-C , 11-O ) :   1.0120
B(  9-C , 12-O ) :   1.1170 B( 12-O , 19-H ) :   0.8402 B( 13-O , 20-H ) :   0.8332
B( 14-O , 21-H ) :   0.8420 B( 15-O , 22-H ) :   0.8102 B( 16-O , 22-H ) :   0.1010
B( 16-O , 23-H ) :   0.8426

Dispersion correction           -0.023761917
FINAL SINGLE POINT ENERGY      -685.700123338192

DIPOLE MOMENT
-------------

Method             : SCF
Type of density    : Electron Density
Multiplicity       :   1
Irrep              :   0
Energy             :  -685.8308730167260592 Eh
Relativity type    :
Basis              : AO
                                X                 Y                 Z
Electronic contribution:      2.032840184       0.443149673       0.023902566
Nuclear contribution   :     -2.148291628      -1.580985478      -0.011223127
                        -----------------------------------------
Total Dipole Moment    :     -0.115451444      -1.137835805       0.012679439
                        -----------------------------------------
Magnitude (a.u.)       :      1.143748278
Magnitude (Debye)      :      2.907177086

Rotational constants in cm-1:             0.043845             0.024397             0.016496
Rotational constants in MHz :          1314.436004           731.417143           494.535477

                             ****ORCA TERMINATED NORMALLY****
TOTAL RUN TIME: 0 days 0 hours 0 minutes 11 seconds 963 msec
