                         Program Version 6.0.0  -   RELEASE  -
|  1> ! pbe def2-sv(p) def2/J RI DEFGRID1 loosescf d4 GCP(DFT/SV(P)) printgap
|  2> %output
|  3>     printlevel normal
|  4> end
|  5> * xyz 0 1
|  6> C -2.2336685973 -0.9577096609 -0.3806297797
|  7> C -1.1699892226 -0.2004265112 0.4324593783
|  8> H -1.6386632659 0.2173596068 1.332488856
|  9> C -0.5832665461 0.9496007246 -0.4069379261
| 10> H -0.4554717844 0.6118500746 -1.4432035561
| 11> C 0.7930434661 1.3191368282 0.170766915
| 12> H 0.7200403266 1.4715198146 1.2540154039
| 13> C 1.7476031842 0.1393967224 -0.0728354003
| 14> H 2.0560842888 0.1475200637 -1.1274662916
| 15> C 1.0055232347 -1.202087682 0.1698120865
| 16> H 1.6423456432 -1.8443355336 0.7968226791
| 17> O -0.1560660272 -1.0641177034 0.9421615646
| 18> O 0.7640049189 -1.7830289895 -1.0749482593
| 19> O 2.8510973431 0.2902019126 0.7811710487
| 20> O 1.2784736461 2.5297258553 -0.3367680485
| 21> O -1.4606312052 2.040184944 -0.4747487437
| 22> O -2.8370374442 -2.012784135 0.3226958135
| 23> H -1.7704612111 -1.4112099648 -1.2587766038
| 24> H -2.9774571709 -0.2219380919 -0.7143126287
| 25> H 0.4137097924 -2.6798946353 -0.9583838098
| 26> H 3.5909075124 -0.2550255276 0.4779080795
| 27> H 1.3361583303 2.4860842227 -1.3026208938
| 28> H -1.3860968028 2.5750150551 0.3294143313
| 29> H -3.2607253114 -1.6707739399 1.1223190777
| 30> *
| 31>
| 32>                          ****END OF INPUT****

CARTESIAN COORDINATES (ANGSTROEM)
---------------------------------
  C     -2.233669   -0.957710   -0.380630
  C     -1.169989   -0.200427    0.432459
  H     -1.638663    0.217360    1.332489
  C     -0.583267    0.949601   -0.406938
  H     -0.455472    0.611850   -1.443204
  C      0.793043    1.319137    0.170767
  H      0.720040    1.471520    1.254015
  C      1.747603    0.139397   -0.072835
  H      2.056084    0.147520   -1.127466
  C      1.005523   -1.202088    0.169812
  H      1.642346   -1.844336    0.796823
  O     -0.156066   -1.064118    0.942162
  O      0.764005   -1.783029   -1.074948
  O      2.851097    0.290202    0.781171
  O      1.278474    2.529726   -0.336768
  O     -1.460631    2.040185   -0.474749
  O     -2.837037   -2.012784    0.322696
  H     -1.770461   -1.411210   -1.258777
  H     -2.977457   -0.221938   -0.714313
  H      0.413710   -2.679895   -0.958384
  H      3.590908   -0.255026    0.477908
  H      1.336158    2.486084   -1.302621
  H     -1.386097    2.575015    0.329414
  H     -3.260725   -1.670774    1.122319

 Total Charge           Charge          ....    0
 Multiplicity           Mult            ....    1
 Number of Electrons    NEL             ....   96
 Basis Dimension        Dim             ....  192

ORBITAL ENERGIES
----------------

  NO   OCC          E(Eh)            E(eV)
   0   2.0000     -18.770277      -510.7652
   1   2.0000     -18.764245      -510.6011
   2   2.0000     -18.755379      -510.3598
   3   2.0000     -18.755050      -510.3509
   4   2.0000     -18.749989      -510.2132
   5   2.0000     -18.743106      -510.0258
   6   2.0000      -9.986340      -271.7421
   7   2.0000      -9.944496      -270.6035
   8   2.0000      -9.944230      -270.5962
   9   2.0000      -9.943433      -270.5746
  10   2.0000      -9.942510      -270.5494
  11   2.0000      -9.925506      -270.0867
  12   2.0000      -0.982002       -26.7216
  13   2.0000      -0.945723       -25.7344
  14   2.0000      -0.933319       -25.3969
  15   2.0000      -0.922491       -25.1023
  16   2.0000      -0.916859       -24.9490
  17   2.0000      -0.910139       -24.7661
  18   2.0000      -0.705348       -19.1935
  19   2.0000      -0.692003       -18.8304
  20   2.0000      -0.616372       -16.7723
  21   2.0000      -0.589815       -16.0497
  22   2.0000      -0.568436       -15.4679
  23   2.0000      -0.532104       -14.4793
  24   2.0000      -0.512772       -13.9532
  25   2.0000      -0.488662       -13.2972
  26   2.0000      -0.467058       -12.7093
  27   2.0000      -0.460359       -12.5270
  28   2.0000      -0.428241       -11.6530
  29   2.0000      -0.424653       -11.5554
  30   2.0000      -0.417436       -11.3590
  31   2.0000      -0.404541       -11.0081
  32   2.0000      -0.387094       -10.5334
  33   2.0000      -0.383587       -10.4379
  34   2.0000      -0.357234        -9.7208
  35   2.0000      -0.354331        -9.6418
  36   2.0000      -0.330996        -9.0069
  37   2.0000      -0.311652        -8.4805
  38   2.0000      -0.296036        -8.0555
  39   2.0000      -0.286503        -7.7961
  40   2.0000      -0.277030        -7.5384
  41   2.0000      -0.273253        -7.4356
  42   2.0000      -0.264242        -7.1904
  43   2.0000      -0.237054        -6.4506
  44   2.0000      -0.232289        -6.3209
  45   2.0000      -0.224676        -6.1138
  46   2.0000      -0.214369        -5.8333
  47   2.0000      -0.196982        -5.3602
  48   0.0000       0.019903         0.5416
  49   0.0000       0.022954         0.6246
  50   0.0000       0.027388         0.7453
  51   0.0000       0.031180         0.8484
  52   0.0000       0.040034         1.0894

MULLIKEN ATOMIC CHARGES
-----------------------
   0 C :    0.057864
   1 C :    0.066825
   2 H :    0.041126
   3 C :   -0.014831
   4 H :    0.065642
   5 C :    0.063376
   6 H :    0.065290
   7 C :    0.050561
   8 H :    0.053162
   9 C :    0.180819
  10 H :    0.050838
  11 O :   -0.309685
  12 O :   -0.402616
  13 O :   -0.400626
  14 O :   -0.401898
  15 O :   -0.402889
  16 O :   -0.428320
  17 H :    0.075776
  18 H :    0.080087
  19 H :    0.312293
  20 H :    0.303749
  21 H :    0.297476
  22 H :    0.302321
  23 H :    0.293662
Sum of atomic charges:    0.0000000

LOEWDIN ATOMIC CHARGES
----------------------
   0 C :   -0.140189
   1 C :   -0.074849
   2 H :    0.104713
   3 C :   -0.085024
   4 H :    0.113878
   5 C :   -0.075756
   6 H :    0.120900
   7 C :   -0.083775
   8 H :    0.103453
   9 C :   -0.009933
  10 H :    0.096112
  11 O :   -0.143760
  12 O :   -0.313390
  13 O :   -0.310455
  14 O :   -0.304130
  15 O :   -0.307137
  16 O :   -0.336404
  17 H :    0.110440
  18 H :    0.102268
  19 H :    0.290723
  20 H :    0.288569
  21 H :    0.284788
  22 H :    0.286878
  23 H :    0.282081

  Mayer bond orders larger than 0.100000
B(  0-C ,  1-C ) :   1.0489 B(  0-C , 16-O ) :   1.0838 B(  0-C , 17-H ) :   0.9023
B(  0-C , 18-H ) :   0.9123 B(  1-C ,  2-H ) :   0.8796 B(  1-C ,  3-C ) :   0.9411
B(  1-C , 11-O ) :   0.9778 B(  3-C ,  4-H ) :   0.8757 B(  3-C ,  5-C ) :   1.0028
B(  3-C , 15-O ) :   1.0601 B(  5-C ,  6-H ) :   0.8509 B(  5-C ,  7-C ) :   1.0137
B(  5-C , 14-O ) :   1.0770 B(  7-C ,  8-H ) :   0.8793 B(  7-C ,  9-C ) :   0.9615
B(  7-C , 13-O ) :   1.1106 B(  9-C , 10-H ) :   0.8942 B(  9-C , 11-O ) :   1.0969
B(  9-C , 12-O ) :   1.0900 B( 12-O , 19-H ) :   0.8312 B( 13-O , 20-H ) :   0.8476
B( 14-O , 21-H ) :   0.8492 B( 15-O , 22-H ) :   0.8446 B( 16-O , 23-H ) :   0.8539

Dispersion correction           -0.024363543
FINAL SINGLE POINT ENERGY      -685.685160344699

DIPOLE MOMENT
-------------

Method             : SCF
Type of density    : Electron Density
Multiplicity       :   1
Irrep              :   0
Energy             :  -685.8138448161390670 Eh
Relativity type    :
Basis              : AO
                                X                 Y                 Z
Electronic contribution:      1.877166123       0.205352812       1.303440784
Nuclear contribution   :     -1.616170831      -0.538346391      -1.397193975
                        -----------------------------------------
Total Dipole Moment    :      0.260995291      -0.332993579      -0.093753191
                        -----------------------------------------
Magnitude (a.u.)       :      0.433350812
Magnitude (Debye)      :      1.101490228

Rotational constants in cm-1:             0.042672             0.025784             0.018424
Rotational constants in MHz :          1279.273807           772.989319           552.324300

                             ****ORCA TERMINATED NORMALLY****
TOTAL RUN TIME: 0 days 0 hours 0 minutes 11 seconds 915 msec
