                         Program Version 6.0.0  -   RELEASE  -
|  1> ! pbe def2-sv(p) def2/J RI DEFGRID1 loosescf d4 GCP(DFT/SV(P)) printgap
|  2> %output
|  3>     printlevel normal
|  4> end
|  5> * xyz 0 1
|  6> C -3.2991156587 0.2609944365 -0.0087472212
|  7> C -1.8164214656 0.0873110804 0.0086998943
|  8> C -0.9732532932 1.1982524807 0.0061472068
|  9> C 0.3952351121 1.0437826704 0.0014515467
| 10> C 0.9612747404 -0.2361158447 -0.0007207302
| 11> C 0.1189492718 -1.3518408775 0.0004167864
| 12> C -1.2494897282 -1.1863789663 0.0051336329
| 13> C 2.4031998053 -0.4034464929 -0.0029234375
| 14> O 3.2254676661 0.4941666642 -0.002689823
| 15> H -3.5895854761 1.162876869 0.5231837504
| 16> H -3.6410419901 0.3549603513 -1.0392100443
| 17> H -3.7968666552 -0.5966627971 0.4348722338
| 18> H -1.4012470801 2.1893203964 0.0090083052
| 19> H 1.0574401792 1.8968932695 0.0010815523
| 20> H 0.5502710494 -2.3417828938 -0.0006798663
| 21> H -1.8939888341 -2.0524236887 0.0071446132
| 22> H 2.7417705203 -1.4571244666 -0.0054081029
| 23> *
| 24>
| 25>                          ****END OF INPUT****

CARTESIAN COORDINATES (ANGSTROEM)
---------------------------------
  C     -3.299116    0.260994   -0.008747
  C     -1.816421    0.087311    0.008700
  C     -0.973253    1.198252    0.006147
  C      0.395235    1.043783    0.001452
  C      0.961275   -0.236116   -0.000721
  C      0.118949   -1.351841    0.000417
  C     -1.249490   -1.186379    0.005134
  C      2.403200   -0.403446   -0.002923
  O      3.225468    0.494167   -0.002690
  H     -3.589585    1.162877    0.523184
  H     -3.641042    0.354960   -1.039210
  H     -3.796867   -0.596663    0.434872
  H     -1.401247    2.189320    0.009008
  H      1.057440    1.896893    0.001082
  H      0.550271   -2.341783   -0.000680
  H     -1.893989   -2.052424    0.007145
  H      2.741771   -1.457124   -0.005408

 Total Charge           Charge          ....    0
 Multiplicity           Mult            ....    1
 Number of Electrons    NEL             ....   64
 Basis Dimension        Dim             ....  142

ORBITAL ENERGIES
----------------

  NO   OCC          E(Eh)            E(eV)
   0   2.0000     -18.740950      -509.9672
   1   2.0000      -9.963223      -271.1131
   2   2.0000      -9.924252      -270.0526
   3   2.0000      -9.910365      -269.6747
   4   2.0000      -9.907062      -269.5849
   5   2.0000      -9.906140      -269.5598
   6   2.0000      -9.905271      -269.5361
   7   2.0000      -9.904950      -269.5274
   8   2.0000      -9.897864      -269.3346
   9   2.0000      -0.932403       -25.3720
  10   2.0000      -0.794938       -21.6314
  11   2.0000      -0.719630       -19.5821
  12   2.0000      -0.686018       -18.6675
  13   2.0000      -0.644222       -17.5302
  14   2.0000      -0.567854       -15.4521
  15   2.0000      -0.556389       -15.1401
  16   2.0000      -0.514919       -14.0117
  17   2.0000      -0.461189       -12.5496
  18   2.0000      -0.432729       -11.7752
  19   2.0000      -0.414364       -11.2754
  20   2.0000      -0.395201       -10.7540
  21   2.0000      -0.388945       -10.5837
  22   2.0000      -0.388835       -10.5807
  23   2.0000      -0.368732       -10.0337
  24   2.0000      -0.363047        -9.8790
  25   2.0000      -0.351003        -9.5513
  26   2.0000      -0.323949        -8.8151
  27   2.0000      -0.320036        -8.7086
  28   2.0000      -0.308537        -8.3957
  29   2.0000      -0.246082        -6.6962
  30   2.0000      -0.234449        -6.3797
  31   2.0000      -0.201668        -5.4877
  32   0.0000      -0.093182        -2.5356
  33   0.0000      -0.049157        -1.3376
  34   0.0000       0.001326         0.0361
  35   0.0000       0.039204         1.0668
  36   0.0000       0.054887         1.4936

MULLIKEN ATOMIC CHARGES
-----------------------
   0 C :   -0.225595
   1 C :    0.049440
   2 C :   -0.099478
   3 C :   -0.085206
   4 C :    0.093201
   5 C :   -0.091873
   6 C :   -0.098912
   7 C :    0.031106
   8 O :   -0.167274
   9 H :    0.115188
  10 H :    0.129697
  11 H :    0.112598
  12 H :    0.046295
  13 H :    0.062244
  14 H :    0.051943
  15 H :    0.043686
  16 H :    0.032940
Sum of atomic charges:    0.0000000

LOEWDIN ATOMIC CHARGES
----------------------
   0 C :   -0.322208
   1 C :   -0.026314
   2 C :   -0.118957
   3 C :   -0.077432
   4 C :   -0.100636
   5 C :   -0.093306
   6 C :   -0.122860
   7 C :    0.000614
   8 O :   -0.132036
   9 H :    0.131581
  10 H :    0.141348
  11 H :    0.129940
  12 H :    0.125710
  13 H :    0.134138
  14 H :    0.127255
  15 H :    0.124840
  16 H :    0.078321

  Mayer bond orders larger than 0.100000
B(  0-C ,  1-C ) :   1.1053 B(  0-C ,  9-H ) :   0.9396 B(  0-C , 10-H ) :   0.9269
B(  0-C , 11-H ) :   0.9411 B(  1-C ,  2-C ) :   1.3518 B(  1-C ,  6-C ) :   1.3769
B(  2-C ,  3-C ) :   1.3741 B(  2-C , 12-H ) :   0.9688 B(  3-C ,  4-C ) :   1.3302
B(  3-C , 13-H ) :   0.9603 B(  4-C ,  5-C ) :   1.3114 B(  4-C ,  7-C ) :   1.0035
B(  5-C ,  6-C ) :   1.3735 B(  5-C , 14-H ) :   0.9593 B(  6-C , 15-H ) :   0.9639
B(  7-C ,  8-O ) :   2.1343 B(  7-C , 16-H ) :   0.9171

Dispersion correction           -0.017329895
FINAL SINGLE POINT ENERGY      -384.062559597003

DIPOLE MOMENT
-------------

Method             : SCF
Type of density    : Electron Density
Multiplicity       :   1
Irrep              :   0
Energy             :  -384.1089102267857811 Eh
Relativity type    :
Basis              : AO
                                X                 Y                 Z
Electronic contribution:      7.866682463       0.360932174       0.036284157
Nuclear contribution   :     -9.308820760      -0.784441350      -0.065718850
                        -----------------------------------------
Total Dipole Moment    :     -1.442138297      -0.423509175      -0.029434694
                        -----------------------------------------
Magnitude (a.u.)       :      1.503326076
Magnitude (Debye)      :      3.821151213

Rotational constants in cm-1:             0.167892             0.033283             0.027920
Rotational constants in MHz :          5033.281765           997.798831           837.018096

                             ****ORCA TERMINATED NORMALLY****
TOTAL RUN TIME: 0 days 0 hours 0 minutes 8 seconds 86 msec
