                         Program Version 6.0.0  -   RELEASE  -
|  1> ! pbe def2-sv(p) def2/J RI DEFGRID1 loosescf d4 GCP(DFT/SV(P)) printgap
|  2> %output
|  3>     printlevel normal
|  4> end
|  5> * xyz 0 1
|  6> C -3.0633264325 1.1877527414 0.0391752683
|  7> C -1.7984225662 0.3841766994 0.0388556488
|  8> C -1.8128097827 -0.9858168056 -0.1773176894
|  9> C -0.6391385957 -1.7176989654 -0.1914965121
| 10> C 0.5864992856 -1.0968222638 0.0065986776
| 11> C 0.6115879641 0.2854411886 0.233143174
| 12> C -0.5719512299 1.0042654315 0.2422581795
| 13> O 1.8252472962 0.91068952 0.4915363046
| 14> C 2.3293912631 1.6806874286 -0.5870342886
| 15> O 1.7662361135 -1.7758592258 -0.0137079382
| 16> H -3.9266774245 0.5471660227 0.1947622149
| 17> H -3.03661664 1.9436942471 0.8200851786
| 18> H -3.1820156289 1.6965160154 -0.9169024814
| 19> H -2.7522875148 -1.4932746367 -0.335346795
| 20> H -0.6725813164 -2.7839029755 -0.3618170544
| 21> H -0.5259039852 2.0678488222 0.4252525124
| 22> H 1.6082383774 2.4397354338 -0.9036558009
| 23> H 2.5768650219 1.0382855834 -1.4381657187
| 24> H 3.2313471618 2.1588289363 -0.2126086876
| 25> H 1.6041297512 -2.7233319224 -0.1397476971
| 26> *
| 27>
| 28>                          ****END OF INPUT****

CARTESIAN COORDINATES (ANGSTROEM)
---------------------------------
  C     -3.063326    1.187753    0.039175
  C     -1.798423    0.384177    0.038856
  C     -1.812810   -0.985817   -0.177318
  C     -0.639139   -1.717699   -0.191497
  C      0.586499   -1.096822    0.006599
  C      0.611588    0.285441    0.233143
  C     -0.571951    1.004265    0.242258
  O      1.825247    0.910690    0.491536
  C      2.329391    1.680687   -0.587034
  O      1.766236   -1.775859   -0.013708
  H     -3.926677    0.547166    0.194762
  H     -3.036617    1.943694    0.820085
  H     -3.182016    1.696516   -0.916902
  H     -2.752288   -1.493275   -0.335347
  H     -0.672581   -2.783903   -0.361817
  H     -0.525904    2.067849    0.425253
  H      1.608238    2.439735   -0.903656
  H      2.576865    1.038286   -1.438166
  H      3.231347    2.158829   -0.212609
  H      1.604130   -2.723332   -0.139748

 Total Charge           Charge          ....    0
 Multiplicity           Mult            ....    1
 Number of Electrons    NEL             ....   74
 Basis Dimension        Dim             ....  160

ORBITAL ENERGIES
----------------

  NO   OCC          E(Eh)            E(eV)
   0   2.0000     -18.779881      -511.0265
   1   2.0000     -18.760882      -510.5096
   2   2.0000      -9.947772      -270.6927
   3   2.0000      -9.937003      -270.3996
   4   2.0000      -9.926399      -270.1110
   5   2.0000      -9.893947      -269.2280
   6   2.0000      -9.889934      -269.1188
   7   2.0000      -9.886419      -269.0231
   8   2.0000      -9.884805      -268.9792
   9   2.0000      -9.880213      -268.8543
  10   2.0000      -0.963307       -26.2129
  11   2.0000      -0.937257       -25.5040
  12   2.0000      -0.770932       -20.9781
  13   2.0000      -0.690001       -18.7759
  14   2.0000      -0.671493       -18.2723
  15   2.0000      -0.618096       -16.8192
  16   2.0000      -0.605821       -16.4852
  17   2.0000      -0.557723       -15.1764
  18   2.0000      -0.517500       -14.0819
  19   2.0000      -0.494166       -13.4469
  20   2.0000      -0.447721       -12.1831
  21   2.0000      -0.438092       -11.9211
  22   2.0000      -0.405343       -11.0299
  23   2.0000      -0.403002       -10.9662
  24   2.0000      -0.387565       -10.5462
  25   2.0000      -0.379385       -10.3236
  26   2.0000      -0.373588       -10.1659
  27   2.0000      -0.352861        -9.6018
  28   2.0000      -0.350156        -9.5282
  29   2.0000      -0.330983        -9.0065
  30   2.0000      -0.311674        -8.4811
  31   2.0000      -0.308086        -8.3834
  32   2.0000      -0.287941        -7.8353
  33   2.0000      -0.278551        -7.5798
  34   2.0000      -0.225366        -6.1325
  35   2.0000      -0.208428        -5.6716
  36   2.0000      -0.183380        -4.9900
  37   0.0000      -0.030440        -0.8283
  38   0.0000      -0.013824        -0.3762
  39   0.0000       0.022842         0.6216
  40   0.0000       0.046124         1.2551
  41   0.0000       0.058896         1.6026

MULLIKEN ATOMIC CHARGES
-----------------------
   0 C :   -0.224720
   1 C :    0.076798
   2 C :   -0.113769
   3 C :   -0.190416
   4 C :    0.196630
   5 C :    0.164261
   6 C :   -0.222265
   7 O :   -0.303079
   8 C :   -0.077496
   9 O :   -0.327362
  10 H :    0.101092
  11 H :    0.108440
  12 H :    0.115253
  13 H :    0.032003
  14 H :    0.021743
  15 H :    0.024902
  16 H :    0.090539
  17 H :    0.094871
  18 H :    0.115935
  19 H :    0.316640
Sum of atomic charges:   -0.0000000

LOEWDIN ATOMIC CHARGES
----------------------
   0 C :   -0.321931
   1 C :   -0.065823
   2 C :   -0.129228
   3 C :   -0.173275
   4 C :    0.004339
   5 C :    0.009591
   6 C :   -0.134481
   7 O :   -0.130155
   8 C :   -0.194216
   9 O :   -0.231307
  10 H :    0.123977
  11 H :    0.127369
  12 H :    0.130823
  13 H :    0.120762
  14 H :    0.120008
  15 H :    0.126840
  16 H :    0.098422
  17 H :    0.104082
  18 H :    0.116429
  19 H :    0.297774

  Mayer bond orders larger than 0.100000
B(  0-C ,  1-C ) :   1.0932 B(  0-C , 10-H ) :   0.9452 B(  0-C , 11-H ) :   0.9417
B(  0-C , 12-H ) :   0.9345 B(  1-C ,  2-C ) :   1.3941 B(  1-C ,  6-C ) :   1.3008
B(  2-C ,  3-C ) :   1.3327 B(  2-C , 13-H ) :   0.9635 B(  3-C ,  4-C ) :   1.3037
B(  3-C ,  6-C ) :   0.1035 B(  3-C , 14-H ) :   0.9610 B(  4-C ,  5-C ) :   1.3524
B(  4-C ,  9-O ) :   1.2248 B(  5-C ,  6-C ) :   1.3859 B(  5-C ,  7-O ) :   1.0806
B(  6-C , 15-H ) :   0.9703 B(  7-O ,  8-C ) :   0.9863 B(  8-C , 16-H ) :   0.9436
B(  8-C , 17-H ) :   0.9455 B(  8-C , 18-H ) :   0.9634 B(  9-O , 19-H ) :   0.8416

Dispersion correction           -0.020113337
FINAL SINGLE POINT ENERGY      -460.300402380768

DIPOLE MOMENT
-------------

Method             : SCF
Type of density    : Electron Density
Multiplicity       :   1
Irrep              :   0
Energy             :  -460.3669482223001523 Eh
Relativity type    :
Basis              : AO
                                X                 Y                 Z
Electronic contribution:      4.411613569      -4.873171408       2.150838665
Nuclear contribution   :     -4.708468517       4.576299271      -2.683726066
                        -----------------------------------------
Total Dipole Moment    :     -0.296854948      -0.296872137      -0.532887402
                        -----------------------------------------
Magnitude (a.u.)       :      0.678398783
Magnitude (Debye)      :      1.724352671

Rotational constants in cm-1:             0.068351             0.036811             0.024992
Rotational constants in MHz :          2049.116812          1103.577713           749.230700

                             ****ORCA TERMINATED NORMALLY****
TOTAL RUN TIME: 0 days 0 hours 0 minutes 9 seconds 990 msec
