                         Program Version 6.0.0  -   RELEASE  -
|  1> ! pbe def2-sv(p) def2/J RI DEFGRID1 loosescf d4 GCP(DFT/SV(P)) printgap
|  2> %output
|  3>     printlevel normal
|  4> end
|  5> * xyz 0 1
|  6> C -2.8896714583 0.5742698197 -0.8900393596
|  7> C -1.9953556377 0.4754868739 0.3502376934
|  8> H -2.6485323598 0.545872292 1.2290574385
|  9> C -0.9436173796 1.5829868527 0.417351006
| 10> C 0.1965188429 1.3419099388 -0.5699847256
| 11> C 0.8385885045 -0.0540117967 -0.417456163
| 12> H 0.7269246642 -0.5953248821 -1.3617361187
| 13> C 0.1218089103 -0.8893777093 0.6634631601
| 14> C -1.3578260605 -0.8943067435 0.4197570037
| 15> O -1.9985237125 -1.9198813632 0.2822493902
| 16> C 2.3161907805 0.006394477 -0.0862866304
| 17> C 2.7845305001 0.7272534579 0.9202141841
| 18> C 3.2041902088 -0.8233605459 -0.9601375995
| 19> H -2.2925148503 0.5387820493 -1.7973707187
| 20> H -3.584647109 -0.2619801644 -0.9074975439
| 21> H -3.453133468 1.5028740235 -0.8757331208
| 22> H -1.416868836 2.5400458493 0.1937986011
| 23> H -0.5442544046 1.6445314109 1.430560989
| 24> H -0.1863460338 1.4507746135 -1.5851262015
| 25> H 0.955857258 2.1114339002 -0.4289766951
| 26> H 0.4974192426 -1.9137385544 0.6610088451
| 27> H 0.3126093396 -0.4519958228 1.644050594
| 28> H 3.8346368015 0.7571598392 1.1539006508
| 29> H 2.1444566515 1.3211323 1.5500177439
| 30> H 4.2386088543 -0.7691284764 -0.6331318443
| 31> H 2.8825646862 -1.8639270017 -0.9403001659
| 32> H 3.1426697333 -0.4770444669 -1.9910818611
| 33> *
| 34>
| 35>                          ****END OF INPUT****

CARTESIAN COORDINATES (ANGSTROEM)
---------------------------------
  C     -2.889671    0.574270   -0.890039
  C     -1.995356    0.475487    0.350238
  H     -2.648532    0.545872    1.229057
  C     -0.943617    1.582987    0.417351
  C      0.196519    1.341910   -0.569985
  C      0.838589   -0.054012   -0.417456
  H      0.726925   -0.595325   -1.361736
  C      0.121809   -0.889378    0.663463
  C     -1.357826   -0.894307    0.419757
  O     -1.998524   -1.919881    0.282249
  C      2.316191    0.006394   -0.086287
  C      2.784531    0.727253    0.920214
  C      3.204190   -0.823361   -0.960138
  H     -2.292515    0.538782   -1.797371
  H     -3.584647   -0.261980   -0.907498
  H     -3.453133    1.502874   -0.875733
  H     -1.416869    2.540046    0.193799
  H     -0.544254    1.644531    1.430561
  H     -0.186346    1.450775   -1.585126
  H      0.955857    2.111434   -0.428977
  H      0.497419   -1.913739    0.661009
  H      0.312609   -0.451996    1.644051
  H      3.834637    0.757160    1.153901
  H      2.144457    1.321132    1.550018
  H      4.238609   -0.769128   -0.633132
  H      2.882565   -1.863927   -0.940300
  H      3.142670   -0.477044   -1.991082

 Total Charge           Charge          ....    0
 Multiplicity           Mult            ....    1
 Number of Electrons    NEL             ....   84
 Basis Dimension        Dim             ....  186

ORBITAL ENERGIES
----------------

  NO   OCC          E(Eh)            E(eV)
   0   2.0000     -18.737897      -509.8841
   1   2.0000      -9.968387      -271.2536
   2   2.0000      -9.909358      -269.6473
   3   2.0000      -9.904836      -269.5243
   4   2.0000      -9.902133      -269.4507
   5   2.0000      -9.894116      -269.2326
   6   2.0000      -9.893465      -269.2149
   7   2.0000      -9.891034      -269.1487
   8   2.0000      -9.887186      -269.0440
   9   2.0000      -9.881552      -268.8907
  10   2.0000      -9.877104      -268.7697
  11   2.0000      -0.932797       -25.3827
  12   2.0000      -0.773295       -21.0424
  13   2.0000      -0.730820       -19.8866
  14   2.0000      -0.683313       -18.5939
  15   2.0000      -0.658809       -17.9271
  16   2.0000      -0.619576       -16.8595
  17   2.0000      -0.612098       -16.6560
  18   2.0000      -0.553303       -15.0561
  19   2.0000      -0.536754       -14.6058
  20   2.0000      -0.470516       -12.8034
  21   2.0000      -0.457462       -12.4482
  22   2.0000      -0.447842       -12.1864
  23   2.0000      -0.425956       -11.5909
  24   2.0000      -0.414416       -11.2768
  25   2.0000      -0.404829       -11.0160
  26   2.0000      -0.390501       -10.6261
  27   2.0000      -0.376251       -10.2383
  28   2.0000      -0.367620       -10.0034
  29   2.0000      -0.360943        -9.8218
  30   2.0000      -0.355587        -9.6760
  31   2.0000      -0.346529        -9.4295
  32   2.0000      -0.336990        -9.1700
  33   2.0000      -0.327697        -8.9171
  34   2.0000      -0.323198        -8.7947
  35   2.0000      -0.315748        -8.5919
  36   2.0000      -0.309326        -8.4172
  37   2.0000      -0.287650        -7.8274
  38   2.0000      -0.278431        -7.5765
  39   2.0000      -0.275096        -7.4858
  40   2.0000      -0.223061        -6.0698
  41   2.0000      -0.189660        -5.1609
  42   0.0000      -0.054670        -1.4877
  43   0.0000      -0.017802        -0.4844
  44   0.0000       0.024775         0.6742
  45   0.0000       0.036791         1.0011
  46   0.0000       0.052517         1.4291

MULLIKEN ATOMIC CHARGES
-----------------------
   0 C :   -0.249605
   1 C :   -0.182347
   2 H :    0.099871
   3 C :   -0.098920
   4 C :   -0.111209
   5 C :   -0.184312
   6 H :    0.063364
   7 C :   -0.042536
   8 C :    0.015011
   9 O :   -0.165897
  10 C :   -0.036177
  11 C :   -0.246244
  12 C :   -0.210346
  13 H :    0.101664
  14 H :    0.121641
  15 H :    0.101142
  16 H :    0.086141
  17 H :    0.076836
  18 H :    0.086919
  19 H :    0.094992
  20 H :    0.085148
  21 H :    0.094874
  22 H :    0.086884
  23 H :    0.090360
  24 H :    0.097669
  25 H :    0.113077
  26 H :    0.112004
Sum of atomic charges:    0.0000000

LOEWDIN ATOMIC CHARGES
----------------------
   0 C :   -0.322335
   1 C :   -0.175919
   2 H :    0.142793
   3 C :   -0.219523
   4 C :   -0.217640
   5 C :   -0.125339
   6 H :    0.121106
   7 C :   -0.226786
   8 C :    0.052613
   9 O :   -0.131834
  10 C :   -0.045078
  11 C :   -0.270186
  12 C :   -0.321048
  13 H :    0.117766
  14 H :    0.128723
  15 H :    0.120076
  16 H :    0.121810
  17 H :    0.115716
  18 H :    0.120096
  19 H :    0.125700
  20 H :    0.130586
  21 H :    0.138696
  22 H :    0.120786
  23 H :    0.115791
  24 H :    0.123714
  25 H :    0.129841
  26 H :    0.129875

  Mayer bond orders larger than 0.100000
B(  0-C ,  1-C ) :   1.1086 B(  0-C , 13-H ) :   0.9500 B(  0-C , 14-H ) :   0.9384
B(  0-C , 15-H ) :   0.9480 B(  1-C ,  2-H ) :   0.8613 B(  1-C ,  3-C ) :   1.0907
B(  1-C ,  8-C ) :   0.9200 B(  3-C ,  4-C ) :   1.1750 B(  3-C , 16-H ) :   0.9106
B(  3-C , 17-H ) :   0.8861 B(  4-C ,  5-C ) :   1.0560 B(  4-C , 18-H ) :   0.9087
B(  4-C , 19-H ) :   0.9067 B(  5-C ,  6-H ) :   0.8875 B(  5-C ,  7-C ) :   1.1095
B(  5-C , 10-C ) :   0.9870 B(  7-C ,  8-C ) :   1.0869 B(  7-C , 20-H ) :   0.8928
B(  7-C , 21-H ) :   0.8527 B(  8-C ,  9-O ) :   2.1810 B( 10-C , 11-C ) :   2.0398
B( 10-C , 12-C ) :   1.1361 B( 11-C , 22-H ) :   0.9028 B( 11-C , 23-H ) :   0.9041
B( 12-C , 24-H ) :   0.9402 B( 12-C , 25-H ) :   0.9280 B( 12-C , 26-H ) :   0.9268

Dispersion correction           -0.028678123
FINAL SINGLE POINT ENERGY      -464.822070623443

DIPOLE MOMENT
-------------

Method             : SCF
Type of density    : Electron Density
Multiplicity       :   1
Irrep              :   0
Energy             :  -464.9075718325824482 Eh
Relativity type    :
Basis              : AO
                                X                 Y                 Z
Electronic contribution:     -3.794976534      -4.868867270       2.417920308
Nuclear contribution   :      4.294796283       5.675082981      -2.489986085
                        -----------------------------------------
Total Dipole Moment    :      0.499819749       0.806215711      -0.072065777
                        -----------------------------------------
Magnitude (a.u.)       :      0.951313318
Magnitude (Debye)      :      2.418046290

Rotational constants in cm-1:             0.066140             0.023862             0.020728
Rotational constants in MHz :          1982.837688           715.366502           621.402499

                             ****ORCA TERMINATED NORMALLY****
TOTAL RUN TIME: 0 days 0 hours 0 minutes 17 seconds 256 msec
