                         Program Version 6.0.0  -   RELEASE  -
|  1> ! pbe def2-sv(p) def2/J RI DEFGRID1 loosescf d4 GCP(DFT/SV(P)) printgap
|  2> %output
|  3>     printlevel normal
|  4> end
|  5> * xyz 0 1
|  6> C -0.4879035365 0.4462932721 -0.0007107693
|  7> C 0.4879012439 -0.4462599249 -0.0005235021
|  8> Cl 2.1375159226 0.0413049548 0.0002039902
|  9> Cl -2.1375131809 -0.0413170318 0.000215464
| 10> H -0.337915908 1.5133391714 0.0003116455
| 11> H 0.3378467895 -1.5133117469 -0.000357657
| 12> *
| 13>
| 14>                          ****END OF INPUT****

CARTESIAN COORDINATES (ANGSTROEM)
---------------------------------
  C     -0.487904    0.446293   -0.000711
  C      0.487901   -0.446260   -0.000524
  Cl     2.137516    0.041305    0.000204
  Cl    -2.137513   -0.041317    0.000215
  H     -0.337916    1.513339    0.000312
  H      0.337847   -1.513312   -0.000358

 Total Charge           Charge          ....    0
 Multiplicity           Mult            ....    1
 Number of Electrons    NEL             ....   48
 Basis Dimension        Dim             ....   68

ORBITAL ENERGIES
----------------

  NO   OCC          E(Eh)            E(eV)
   0   2.0000    -100.651872     -2738.8767
   1   2.0000    -100.651847     -2738.8760
   2   2.0000      -9.955456      -270.9017
   3   2.0000      -9.954844      -270.8851
   4   2.0000      -9.187853      -250.0142
   5   2.0000      -9.187840      -250.0138
   6   2.0000      -7.019296      -191.0048
   7   2.0000      -7.019288      -191.0045
   8   2.0000      -7.007832      -190.6928
   9   2.0000      -7.007829      -190.6927
  10   2.0000      -7.007135      -190.6738
  11   2.0000      -7.007132      -190.6738
  12   2.0000      -0.822668       -22.3859
  13   2.0000      -0.790996       -21.5241
  14   2.0000      -0.657751       -17.8983
  15   2.0000      -0.534024       -14.5315
  16   2.0000      -0.446698       -12.1553
  17   2.0000      -0.434763       -11.8305
  18   2.0000      -0.369157       -10.0453
  19   2.0000      -0.353261        -9.6127
  20   2.0000      -0.306552        -8.3417
  21   2.0000      -0.280573        -7.6348
  22   2.0000      -0.276135        -7.5140
  23   2.0000      -0.219058        -5.9609
  24   0.0000      -0.046334        -1.2608
  25   0.0000      -0.007606        -0.2070
  26   0.0000       0.035817         0.9746
  27   0.0000       0.067023         1.8238
  28   0.0000       0.136499         3.7143

MULLIKEN ATOMIC CHARGES
-----------------------
   0 C :   -0.062637
   1 C :   -0.062631
   2 Cl:   -0.070414
   3 Cl:   -0.070422
   4 H :    0.133050
   5 H :    0.133054
Sum of atomic charges:   -0.0000000

LOEWDIN ATOMIC CHARGES
----------------------
   0 C :   -0.266260
   1 C :   -0.266265
   2 Cl:    0.132097
   3 Cl:    0.132088
   4 H :    0.134170
   5 H :    0.134171

  Mayer bond orders larger than 0.100000
B(  0-C ,  1-C ) :   1.8818 B(  0-C ,  3-Cl) :   1.0583 B(  0-C ,  4-H ) :   0.9170
B(  1-C ,  2-Cl) :   1.0584 B(  1-C ,  5-H ) :   0.9170

Dispersion correction           -0.004887206
FINAL SINGLE POINT ENERGY      -996.939505409046

DIPOLE MOMENT
-------------

Method             : SCF
Type of density    : Electron Density
Multiplicity       :   1
Irrep              :   0
Energy             :  -996.9541167366692207 Eh
Relativity type    :
Basis              : AO
                                X                 Y                 Z
Electronic contribution:      0.000082069      -0.000026717       0.000927755
Nuclear contribution   :     -0.000068525       0.000041939      -0.000606164
                        -----------------------------------------
Total Dipole Moment    :      0.000013544       0.000015222       0.000321591
                        -----------------------------------------
Magnitude (a.u.)       :      0.000322236
Magnitude (Debye)      :      0.000819058

Rotational constants in cm-1:             1.770341             0.051097             0.049663
Rotational constants in MHz :         53073.480651          1531.843582          1488.870874

                             ****ORCA TERMINATED NORMALLY****
TOTAL RUN TIME: 0 days 0 hours 0 minutes 3 seconds 676 msec
