                         Program Version 6.0.0  -   RELEASE  -
|  1> ! r2scan-3c def2/J RI DEFGRID2 scfconv6 printgap
|  2> %output
|  3>     printlevel normal
|  4> end
|  5> * xyz 0 1
|  6> C 0.4120652379 1.8945505034 0.1877698679
|  7> C 0.5628126689 0.5090848325 0.783427268
|  8> H 1.1052968836 0.5483412344 1.7306967275
|  9> C -0.7568610805 -0.2020067113 1.0175924599
| 10> Cl -1.6765040862 -0.4199150431 -0.5100324749
| 11> Cl 1.5960426047 -0.5092321443 -0.3051163758
| 12> H -0.1484190121 2.5200901121 0.8771280772
| 13> H 1.3875795566 2.3403394409 0.0185360889
| 14> H -0.1209955875 1.8462751092 -0.7581775114
| 15> H -0.6033198379 -1.1987312114 1.4269167899
| 16> H -1.3879325615 0.3903115465 1.678004376
| 17> *
| 18>
| 19>                          ****END OF INPUT****

CARTESIAN COORDINATES (ANGSTROEM)
---------------------------------
  C      0.412065    1.894551    0.187770
  C      0.562813    0.509085    0.783427
  H      1.105297    0.548341    1.730697
  C     -0.756861   -0.202007    1.017592
  Cl    -1.676504   -0.419915   -0.510032
  Cl     1.596043   -0.509232   -0.305116
  H     -0.148419    2.520090    0.877128
  H      1.387580    2.340339    0.018536
  H     -0.120996    1.846275   -0.758178
  H     -0.603320   -1.198731    1.426917
  H     -1.387933    0.390312    1.678004

 Total Charge           Charge          ....    0
 Multiplicity           Mult            ....    1
 Number of Electrons    NEL             ....   58
 Basis Dimension        Dim             ....  141

ORBITAL ENERGIES
----------------

  NO   OCC          E(Eh)            E(eV)
   0   2.0000    -101.208609     -2754.0263
   1   2.0000    -101.203876     -2753.8975
   2   2.0000     -10.118421      -275.3362
   3   2.0000     -10.109487      -275.0931
   4   2.0000     -10.041715      -273.2490
   5   2.0000      -9.364451      -254.8197
   6   2.0000      -9.359813      -254.6935
   7   2.0000      -7.110904      -193.4975
   8   2.0000      -7.106122      -193.3674
   9   2.0000      -7.100502      -193.2145
  10   2.0000      -7.100253      -193.2077
  11   2.0000      -7.095854      -193.0880
  12   2.0000      -7.095804      -193.0867
  13   2.0000      -0.856780       -23.3142
  14   2.0000      -0.799734       -21.7619
  15   2.0000      -0.722991       -19.6736
  16   2.0000      -0.666396       -18.1336
  17   2.0000      -0.560974       -15.2649
  18   2.0000      -0.469279       -12.7697
  19   2.0000      -0.457868       -12.4592
  20   2.0000      -0.426271       -11.5994
  21   2.0000      -0.392325       -10.6757
  22   2.0000      -0.368455       -10.0262
  23   2.0000      -0.358029        -9.7425
  24   2.0000      -0.347371        -9.4524
  25   2.0000      -0.280876        -7.6430
  26   2.0000      -0.277853        -7.5608
  27   2.0000      -0.270296        -7.3551
  28   2.0000      -0.266176        -7.2430
  29   0.0000      -0.019034        -0.5179
  30   0.0000       0.013244         0.3604
  31   0.0000       0.075932         2.0662
  32   0.0000       0.115833         3.1520
  33   0.0000       0.123057         3.3485

MULLIKEN ATOMIC CHARGES
-----------------------
   0 C :   -0.480927
   1 C :    0.032956
   2 H :    0.171875
   3 C :   -0.169731
   4 Cl:   -0.181812
   5 Cl:   -0.196695
   6 H :    0.143027
   7 H :    0.164437
   8 H :    0.180097
   9 H :    0.178112
  10 H :    0.158661
Sum of atomic charges:   -0.0000000

LOEWDIN ATOMIC CHARGES
----------------------
   0 C :   -0.428694
   1 C :   -0.280167
   2 H :    0.168400
   3 C :   -0.334021
   4 Cl:    0.019177
   5 Cl:    0.028035
   6 H :    0.159783
   7 H :    0.163599
   8 H :    0.169518
   9 H :    0.168534
  10 H :    0.165835

  Mayer bond orders larger than 0.100000
B(  0-C ,  1-C ) :   0.9455 B(  0-C ,  6-H ) :   0.9574 B(  0-C ,  7-H ) :   0.9634
B(  0-C ,  8-H ) :   0.9646 B(  1-C ,  2-H ) :   0.9278 B(  1-C ,  3-C ) :   0.9369
B(  1-C ,  5-Cl) :   0.9415 B(  3-C ,  4-Cl) :   0.9912 B(  3-C ,  9-H ) :   0.9536
B(  3-C , 10-H ) :   0.9453

Dispersion correction           -0.003037191
FINAL SINGLE POINT ENERGY     -1038.250747771224

DIPOLE MOMENT
-------------

Method             : SCF
Type of density    : Electron Density
Multiplicity       :   1
Irrep              :   0
Energy             : -1038.2572473504490063 Eh
Relativity type    :
Basis              : AO
                                X                 Y                 Z
Electronic contribution:     -0.384608341      -6.674449022      -4.753653407
Nuclear contribution   :      0.325847693       7.295157373       5.759728219
                        -----------------------------------------
Total Dipole Moment    :     -0.058760648       0.620708351       1.006074812
                        -----------------------------------------
Magnitude (a.u.)       :      1.183603903
Magnitude (Debye)      :      3.008482032

Rotational constants in cm-1:             0.141464             0.069242             0.056824
Rotational constants in MHz :          4240.970909          2075.824077          1703.551558

                             ****ORCA TERMINATED NORMALLY****
TOTAL RUN TIME: 0 days 0 hours 0 minutes 15 seconds 90 msec
