                         Program Version 6.0.0  -   RELEASE  -
|  1> ! r2scan-3c def2/J RI DEFGRID2 scfconv6 printgap
|  2> %output
|  3>     printlevel normal
|  4> end
|  5> %cpcm
|  6>     smd true
|  7>     smdsolvent "water"
|  8> end
|  9> * xyz 0 1
| 10> C 0.4120652379 1.8945505034 0.1877698679
| 11> C 0.5628126689 0.5090848325 0.783427268
| 12> H 1.1052968836 0.5483412344 1.7306967275
| 13> C -0.7568610805 -0.2020067113 1.0175924599
| 14> Cl -1.6765040862 -0.4199150431 -0.5100324749
| 15> Cl 1.5960426047 -0.5092321443 -0.3051163758
| 16> H -0.1484190121 2.5200901121 0.8771280772
| 17> H 1.3875795566 2.3403394409 0.0185360889
| 18> H -0.1209955875 1.8462751092 -0.7581775114
| 19> H -0.6033198379 -1.1987312114 1.4269167899
| 20> H -1.3879325615 0.3903115465 1.678004376
| 21> *
| 22>
| 23>                          ****END OF INPUT****

CARTESIAN COORDINATES (ANGSTROEM)
---------------------------------
  C      0.412065    1.894551    0.187770
  C      0.562813    0.509085    0.783427
  H      1.105297    0.548341    1.730697
  C     -0.756861   -0.202007    1.017592
  Cl    -1.676504   -0.419915   -0.510032
  Cl     1.596043   -0.509232   -0.305116
  H     -0.148419    2.520090    0.877128
  H      1.387580    2.340339    0.018536
  H     -0.120996    1.846275   -0.758178
  H     -0.603320   -1.198731    1.426917
  H     -1.387933    0.390312    1.678004

 Total Charge           Charge          ....    0
 Multiplicity           Mult            ....    1
 Number of Electrons    NEL             ....   58
 Basis Dimension        Dim             ....  141

ORBITAL ENERGIES
----------------

  NO   OCC          E(Eh)            E(eV)
   0   2.0000    -101.205367     -2753.9380
   1   2.0000    -101.201491     -2753.8326
   2   2.0000     -10.103846      -274.9396
   3   2.0000     -10.092857      -274.6406
   4   2.0000     -10.023970      -272.7661
   5   2.0000      -9.361550      -254.7407
   6   2.0000      -9.357811      -254.6390
   7   2.0000      -7.107579      -193.4071
   8   2.0000      -7.103693      -193.3013
   9   2.0000      -7.097760      -193.1399
  10   2.0000      -7.097562      -193.1345
  11   2.0000      -7.094014      -193.0379
  12   2.0000      -7.094002      -193.0376
  13   2.0000      -0.847614       -23.0647
  14   2.0000      -0.795255       -21.6400
  15   2.0000      -0.712101       -19.3773
  16   2.0000      -0.651282       -17.7223
  17   2.0000      -0.546250       -14.8642
  18   2.0000      -0.454165       -12.3585
  19   2.0000      -0.442194       -12.0327
  20   2.0000      -0.412966       -11.2374
  21   2.0000      -0.380217       -10.3462
  22   2.0000      -0.356526        -9.7016
  23   2.0000      -0.342690        -9.3251
  24   2.0000      -0.333983        -9.0881
  25   2.0000      -0.278983        -7.5915
  26   2.0000      -0.274507        -7.4697
  27   2.0000      -0.267587        -7.2814
  28   2.0000      -0.264999        -7.2110
  29   0.0000      -0.010334        -0.2812
  30   0.0000       0.022040         0.5997
  31   0.0000       0.096251         2.6191
  32   0.0000       0.131387         3.5752
  33   0.0000       0.140587         3.8256

MULLIKEN ATOMIC CHARGES
-----------------------
   0 C :   -0.524911
   1 C :    0.056551
   2 H :    0.211126
   3 C :   -0.186353
   4 Cl:   -0.232830
   5 Cl:   -0.251114
   6 H :    0.175125
   7 H :    0.175308
   8 H :    0.175341
   9 H :    0.202455
  10 H :    0.199302
Sum of atomic charges:   -0.0000000

LOEWDIN ATOMIC CHARGES
----------------------
   0 C :   -0.432306
   1 C :   -0.268220
   2 H :    0.184455
   3 C :   -0.324194
   4 Cl:   -0.014818
   5 Cl:   -0.007672
   6 H :    0.172292
   7 H :    0.166242
   8 H :    0.164852
   9 H :    0.176994
  10 H :    0.182376

  Mayer bond orders larger than 0.100000
B(  0-C ,  1-C ) :   0.9359 B(  0-C ,  6-H ) :   0.9525 B(  0-C ,  7-H ) :   0.9602
B(  0-C ,  8-H ) :   0.9666 B(  1-C ,  2-H ) :   0.9199 B(  1-C ,  3-C ) :   0.9358
B(  1-C ,  5-Cl) :   0.8871 B(  3-C ,  4-Cl) :   0.9501 B(  3-C ,  9-H ) :   0.9453
B(  3-C , 10-H ) :   0.9388

Dispersion correction           -0.003037191
FINAL SINGLE POINT ENERGY     -1038.256835028371

DIPOLE MOMENT
-------------

Method             : SCF
Type of density    : Electron Density
Multiplicity       :   1
Irrep              :   0
Energy             : -1038.2633346075958798 Eh
Relativity type    :
Basis              : AO
                                X                 Y                 Z
Electronic contribution:     -0.414599077      -6.458015715      -4.281924871
Nuclear contribution   :      0.325847693       7.295157373       5.759728219
                        -----------------------------------------
Total Dipole Moment    :     -0.088751384       0.837141658       1.477803348
                        -----------------------------------------
Magnitude (a.u.)       :      1.700760330
Magnitude (Debye)      :      4.322989204

Rotational constants in cm-1:             0.141464             0.069242             0.056824
Rotational constants in MHz :          4240.970909          2075.824077          1703.551558

                             ****ORCA TERMINATED NORMALLY****
TOTAL RUN TIME: 0 days 0 hours 0 minutes 18 seconds 510 msec
