                         Program Version 6.0.0  -   RELEASE  -
|  1> ! pbe def2-sv(p) def2/J RI DEFGRID1 loosescf d4 GCP(DFT/SV(P)) printgap
|  2> %output
|  3>     printlevel normal
|  4> end
|  5> * xyz 0 1
|  6> C -2.1120834437 -0.8828802453 0.8871548818
|  7> C -1.5990393311 0.3954803616 0.222145281
|  8> C -1.8740849478 0.3560535447 -1.2786656313
|  9> C -0.1506179193 0.7594102977 0.6089201745
| 10> C 1.0856364242 0.0322928226 0.0322228177
| 11> C 1.3996394001 0.482998995 -1.3980887767
| 12> C 2.2752326954 0.4379555304 0.9171970188
| 13> C 0.9672377419 -1.4914043733 0.0686891614
| 14> H -1.877067841 -0.8848994404 1.949017123
| 15> H -3.1936436153 -0.9412380441 0.7797826957
| 16> H -1.6844609222 -1.7720511628 0.4365969377
| 17> H -2.2000862801 1.2182771095 0.6336116549
| 18> H -1.4199143139 -0.5167994244 -1.7395885241
| 19> H -2.9473516213 0.3020046345 -1.4521205297
| 20> H -1.4954951764 1.2516828546 -1.7642474466
| 21> H -0.0174354336 1.8203848405 0.3777790689
| 22> H -0.1000030813 0.6680456935 1.6976914242
| 23> H 0.6466023621 0.1456178136 -2.1013736208
| 24> H 2.3578667207 0.0727728698 -1.7114923747
| 25> H 1.4618506127 1.5677049406 -1.4529142138
| 26> H 3.1996236487 0.0143602531 0.530832793
| 27> H 2.1379826054 0.081240415 1.9356969773
| 28> H 2.381633994 1.5202358305 0.9444685363
| 29> H 0.2304633058 -1.8468355151 -0.6455315444
| 30> H 0.6909082413 -1.8325268973 1.0629372178
| 31> H 1.9248076114 -1.9393848252 -0.1910920531
| 32> *
| 33>
| 34>                          ****END OF INPUT****

CARTESIAN COORDINATES (ANGSTROEM)
---------------------------------
  C     -2.112083   -0.882880    0.887155
  C     -1.599039    0.395480    0.222145
  C     -1.874085    0.356054   -1.278666
  C     -0.150618    0.759410    0.608920
  C      1.085636    0.032293    0.032223
  C      1.399639    0.482999   -1.398089
  C      2.275233    0.437956    0.917197
  C      0.967238   -1.491404    0.068689
  H     -1.877068   -0.884899    1.949017
  H     -3.193644   -0.941238    0.779783
  H     -1.684461   -1.772051    0.436597
  H     -2.200086    1.218277    0.633612
  H     -1.419914   -0.516799   -1.739589
  H     -2.947352    0.302005   -1.452121
  H     -1.495495    1.251683   -1.764247
  H     -0.017435    1.820385    0.377779
  H     -0.100003    0.668046    1.697691
  H      0.646602    0.145618   -2.101374
  H      2.357867    0.072773   -1.711492
  H      1.461851    1.567705   -1.452914
  H      3.199624    0.014360    0.530833
  H      2.137983    0.081240    1.935697
  H      2.381634    1.520236    0.944469
  H      0.230463   -1.846836   -0.645532
  H      0.690908   -1.832527    1.062937
  H      1.924808   -1.939385   -0.191092

 Total Charge           Charge          ....    0
 Multiplicity           Mult            ....    1
 Number of Electrons    NEL             ....   66
 Basis Dimension        Dim             ....  148

ORBITAL ENERGIES
----------------

  NO   OCC          E(Eh)            E(eV)
   0   2.0000      -9.902103      -269.4499
   1   2.0000      -9.891153      -269.1520
   2   2.0000      -9.876270      -268.7470
   3   2.0000      -9.869048      -268.5505
   4   2.0000      -9.867994      -268.5218
   5   2.0000      -9.867238      -268.5012
   6   2.0000      -9.866700      -268.4866
   7   2.0000      -9.866112      -268.4705
   8   2.0000      -0.746567       -20.3151
   9   2.0000      -0.704800       -19.1786
  10   2.0000      -0.614062       -16.7095
  11   2.0000      -0.613603       -16.6970
  12   2.0000      -0.601310       -16.3625
  13   2.0000      -0.599871       -16.3233
  14   2.0000      -0.505192       -13.7470
  15   2.0000      -0.459624       -12.5070
  16   2.0000      -0.417706       -11.3664
  17   2.0000      -0.406222       -11.0539
  18   2.0000      -0.396961       -10.8019
  19   2.0000      -0.381426       -10.3791
  20   2.0000      -0.373054       -10.1513
  21   2.0000      -0.365830        -9.9547
  22   2.0000      -0.345896        -9.4123
  23   2.0000      -0.335565        -9.1312
  24   2.0000      -0.325865        -8.8672
  25   2.0000      -0.315431        -8.5833
  26   2.0000      -0.314200        -8.5498
  27   2.0000      -0.308159        -8.3854
  28   2.0000      -0.291543        -7.9333
  29   2.0000      -0.284110        -7.7310
  30   2.0000      -0.271361        -7.3841
  31   2.0000      -0.264946        -7.2095
  32   2.0000      -0.251662        -6.8481
  33   0.0000       0.023412         0.6371
  34   0.0000       0.057672         1.5693
  35   0.0000       0.066560         1.8112
  36   0.0000       0.071877         1.9559
  37   0.0000       0.080972         2.2034

MULLIKEN ATOMIC CHARGES
-----------------------
   0 C :   -0.254356
   1 C :   -0.146058
   2 C :   -0.252234
   3 C :   -0.090609
   4 C :   -0.255694
   5 C :   -0.216298
   6 C :   -0.215059
   7 C :   -0.212829
   8 H :    0.093251
   9 H :    0.094528
  10 H :    0.099182
  11 H :    0.065733
  12 H :    0.109398
  13 H :    0.093913
  14 H :    0.101043
  15 H :    0.069543
  16 H :    0.067814
  17 H :    0.099502
  18 H :    0.089258
  19 H :    0.089093
  20 H :    0.091527
  21 H :    0.093306
  22 H :    0.092130
  23 H :    0.107987
  24 H :    0.096916
  25 H :    0.089012
Sum of atomic charges:    0.0000000

LOEWDIN ATOMIC CHARGES
----------------------
   0 C :   -0.332963
   1 C :   -0.154466
   2 C :   -0.331669
   3 C :   -0.202236
   4 C :   -0.103625
   5 C :   -0.318925
   6 C :   -0.315233
   7 C :   -0.317619
   8 H :    0.114826
   9 H :    0.116567
  10 H :    0.116255
  11 H :    0.117430
  12 H :    0.114636
  13 H :    0.117522
  14 H :    0.117332
  15 H :    0.113625
  16 H :    0.113359
  17 H :    0.116246
  18 H :    0.115007
  19 H :    0.114577
  20 H :    0.113391
  21 H :    0.113854
  22 H :    0.114954
  23 H :    0.113988
  24 H :    0.116995
  25 H :    0.116172

  Mayer bond orders larger than 0.100000
B(  0-C ,  1-C ) :   1.1149 B(  0-C ,  8-H ) :   0.9485 B(  0-C ,  9-H ) :   0.9475
B(  0-C , 10-H ) :   0.9414 B(  1-C ,  2-C ) :   1.1216 B(  1-C ,  3-C ) :   1.0975
B(  1-C , 11-H ) :   0.8927 B(  2-C , 12-H ) :   0.9352 B(  2-C , 13-H ) :   0.9443
B(  2-C , 14-H ) :   0.9442 B(  3-C ,  4-C ) :   1.0443 B(  3-C , 15-H ) :   0.9074
B(  3-C , 16-H ) :   0.9094 B(  4-C ,  5-C ) :   1.0773 B(  4-C ,  6-C ) :   1.0674
B(  4-C ,  7-C ) :   1.0893 B(  5-C , 17-H ) :   0.9369 B(  5-C , 18-H ) :   0.9452
B(  5-C , 19-H ) :   0.9464 B(  6-C , 20-H ) :   0.9453 B(  6-C , 21-H ) :   0.9462
B(  6-C , 22-H ) :   0.9492 B(  7-C , 23-H ) :   0.9332 B(  7-C , 24-H ) :   0.9405
B(  7-C , 25-H ) :   0.9419

Dispersion correction           -0.024009444
FINAL SINGLE POINT ENERGY      -314.868796333435

DIPOLE MOMENT
-------------

Method             : SCF
Type of density    : Electron Density
Multiplicity       :   1
Irrep              :   0
Energy             :  -314.9551402492195962 Eh
Relativity type    :
Basis              : AO
                                X                 Y                 Z
Electronic contribution:     -0.133195260       1.030404695       0.671432078
Nuclear contribution   :      0.090326969      -1.005153930      -0.666043985
                        -----------------------------------------
Total Dipole Moment    :     -0.042868291       0.025250765       0.005388094
                        -----------------------------------------
Magnitude (a.u.)       :      0.050043212
Magnitude (Debye)      :      0.127199737

Rotational constants in cm-1:             0.094414             0.044897             0.040545
Rotational constants in MHz :          2830.467897          1345.992365          1215.512793

                             ****ORCA TERMINATED NORMALLY****
TOTAL RUN TIME: 0 days 0 hours 0 minutes 12 seconds 99 msec
