                         Program Version 6.0.0  -   RELEASE  -
|  1> ! pbe def2-sv(p) def2/J RI DEFGRID1 loosescf d4 GCP(DFT/SV(P)) printgap
|  2> %output
|  3>     printlevel normal
|  4> end
|  5> * xyz 0 1
|  6> C -2.9990180801 0.2542977832 2.9376e-06
|  7> C -1.6379412738 -0.4337840883 -6.94708e-05
|  8> C -0.5064932819 0.5929191117 -0.0004630323
|  9> C 0.9248566527 0.0251389134 -5.3016e-06
| 10> C 1.1800307896 -0.820766157 -1.2499874587
| 11> C 1.8990192641 1.2093790696 0.0004910936
| 12> C 1.1790535719 -0.8210477785 1.2499873699
| 13> H -3.7995625504 -0.4816682495 0.0005797617
| 14> H -3.1092586295 0.8823825835 0.8814137505
| 15> H -3.1098380332 0.8815660699 -0.8818931457
| 16> H -1.5632827349 -1.0698208892 0.8829764121
| 17> H -1.5635890195 -1.070176508 -0.8828836905
| 18> H -0.6218275223 1.2315992965 0.8794433628
| 19> H -0.6216024536 1.2307666706 -0.8810010001
| 20> H 0.5725502489 -1.7217605406 -1.2432307982
| 21> H 0.9497373045 -0.2536434468 -2.1491222578
| 22> H 2.2250332552 -1.1198428407 -1.2921376465
| 23> H 1.7492935844 1.8288697612 -0.8809857487
| 24> H 2.9280548151 0.8571690452 -4.5448e-05
| 25> H 1.7498007027 1.8276940118 0.8828804736
| 26> H 0.946468357 -0.2546945277 2.1490138061
| 27> H 0.5728173389 -1.7228693565 1.2417632094
| 28> H 2.2243984173 -1.1187030906 1.2937516602
| 29> *
| 30>
| 31>                          ****END OF INPUT****

CARTESIAN COORDINATES (ANGSTROEM)
---------------------------------
  C     -2.999018    0.254298    0.000003
  C     -1.637941   -0.433784   -0.000069
  C     -0.506493    0.592919   -0.000463
  C      0.924857    0.025139   -0.000005
  C      1.180031   -0.820766   -1.249987
  C      1.899019    1.209379    0.000491
  C      1.179054   -0.821048    1.249987
  H     -3.799563   -0.481668    0.000580
  H     -3.109259    0.882383    0.881414
  H     -3.109838    0.881566   -0.881893
  H     -1.563283   -1.069821    0.882976
  H     -1.563589   -1.070177   -0.882884
  H     -0.621828    1.231599    0.879443
  H     -0.621602    1.230767   -0.881001
  H      0.572550   -1.721761   -1.243231
  H      0.949737   -0.253643   -2.149122
  H      2.225033   -1.119843   -1.292138
  H      1.749294    1.828870   -0.880986
  H      2.928055    0.857169   -0.000045
  H      1.749801    1.827694    0.882880
  H      0.946468   -0.254695    2.149014
  H      0.572817   -1.722869    1.241763
  H      2.224398   -1.118703    1.293752

 Total Charge           Charge          ....    0
 Multiplicity           Mult            ....    1
 Number of Electrons    NEL             ....   58
 Basis Dimension        Dim             ....  130

ORBITAL ENERGIES
----------------

  NO   OCC          E(Eh)            E(eV)
   0   2.0000      -9.901329      -269.4289
   1   2.0000      -9.878503      -268.8077
   2   2.0000      -9.876466      -268.7523
   3   2.0000      -9.869479      -268.5622
   4   2.0000      -9.867765      -268.5155
   5   2.0000      -9.867753      -268.5152
   6   2.0000      -9.867056      -268.4962
   7   2.0000      -0.745063       -20.2742
   8   2.0000      -0.688557       -18.7366
   9   2.0000      -0.609052       -16.5731
  10   2.0000      -0.608762       -16.5653
  11   2.0000      -0.599941       -16.3252
  12   2.0000      -0.522922       -14.2294
  13   2.0000      -0.466658       -12.6984
  14   2.0000      -0.418580       -11.3901
  15   2.0000      -0.408957       -11.1283
  16   2.0000      -0.389936       -10.6107
  17   2.0000      -0.387151       -10.5349
  18   2.0000      -0.359062        -9.7706
  19   2.0000      -0.345695        -9.4068
  20   2.0000      -0.341376        -9.2893
  21   2.0000      -0.318792        -8.6748
  22   2.0000      -0.318478        -8.6662
  23   2.0000      -0.315719        -8.5911
  24   2.0000      -0.300712        -8.1828
  25   2.0000      -0.288313        -7.8454
  26   2.0000      -0.273271        -7.4361
  27   2.0000      -0.268848        -7.3157
  28   2.0000      -0.262354        -7.1390
  29   0.0000       0.029809         0.8111
  30   0.0000       0.056892         1.5481
  31   0.0000       0.069753         1.8981
  32   0.0000       0.069974         1.9041
  33   0.0000       0.083803         2.2804

MULLIKEN ATOMIC CHARGES
-----------------------
   0 C :   -0.261149
   1 C :   -0.185018
   2 C :   -0.128856
   3 C :   -0.229260
   4 C :   -0.222861
   5 C :   -0.203939
   6 C :   -0.222885
   7 H :    0.099977
   8 H :    0.095820
   9 H :    0.095823
  10 H :    0.087595
  11 H :    0.087599
  12 H :    0.070857
  13 H :    0.070852
  14 H :    0.103291
  15 H :    0.091231
  16 H :    0.091503
  17 H :    0.090823
  18 H :    0.091714
  19 H :    0.090828
  20 H :    0.091246
  21 H :    0.103310
  22 H :    0.091499
Sum of atomic charges:   -0.0000000

LOEWDIN ATOMIC CHARGES
----------------------
   0 C :   -0.337551
   1 C :   -0.236809
   2 C :   -0.207875
   3 C :   -0.107033
   4 C :   -0.317642
   5 C :   -0.315454
   6 C :   -0.317648
   7 H :    0.117504
   8 H :    0.115824
   9 H :    0.115827
  10 H :    0.115073
  11 H :    0.115068
  12 H :    0.111380
  13 H :    0.111381
  14 H :    0.115343
  15 H :    0.115585
  16 H :    0.116351
  17 H :    0.114667
  18 H :    0.114045
  19 H :    0.114668
  20 H :    0.115588
  21 H :    0.115353
  22 H :    0.116355

  Mayer bond orders larger than 0.100000
B(  0-C ,  1-C ) :   1.1562 B(  0-C ,  7-H ) :   0.9528 B(  0-C ,  8-H ) :   0.9544
B(  0-C ,  9-H ) :   0.9544 B(  1-C ,  2-C ) :   1.1378 B(  1-C , 10-H ) :   0.9168
B(  1-C , 11-H ) :   0.9168 B(  2-C ,  3-C ) :   1.0414 B(  2-C , 12-H ) :   0.9163
B(  2-C , 13-H ) :   0.9163 B(  3-C ,  4-C ) :   1.0725 B(  3-C ,  5-C ) :   1.0799
B(  3-C ,  6-C ) :   1.0724 B(  4-C , 14-H ) :   0.9423 B(  4-C , 15-H ) :   0.9490
B(  4-C , 16-H ) :   0.9475 B(  5-C , 17-H ) :   0.9473 B(  5-C , 18-H ) :   0.9469
B(  5-C , 19-H ) :   0.9473 B(  6-C , 20-H ) :   0.9489 B(  6-C , 21-H ) :   0.9423
B(  6-C , 22-H ) :   0.9475

Dispersion correction           -0.018962783
FINAL SINGLE POINT ENERGY      -275.663247777633

DIPOLE MOMENT
-------------

Method             : SCF
Type of density    : Electron Density
Multiplicity       :   1
Irrep              :   0
Energy             :  -275.7405076600838925 Eh
Relativity type    :
Basis              : AO
                                X                 Y                 Z
Electronic contribution:      0.430867072       0.039274836      -0.000479190
Nuclear contribution   :     -0.441692896      -0.068609633       0.000490378
                        -----------------------------------------
Total Dipole Moment    :     -0.010825824      -0.029334797       0.000011188
                        -----------------------------------------
Magnitude (a.u.)       :      0.031268656
Magnitude (Debye)      :      0.079478608

Rotational constants in cm-1:             0.136059             0.047226             0.046611
Rotational constants in MHz :          4078.950340          1415.801204          1397.370698

                             ****ORCA TERMINATED NORMALLY****
TOTAL RUN TIME: 0 days 0 hours 0 minutes 8 seconds 17 msec
