                         Program Version 6.0.0  -   RELEASE  -
|  1> ! pbe def2-sv(p) def2/J RI DEFGRID1 loosescf d4 GCP(DFT/SV(P)) printgap
|  2> %output
|  3>     printlevel normal
|  4> end
|  5> * xyz 0 1
|  6> C -1.9927559049 -1.2149125186 -0.365737503
|  7> C -1.2861589704 -0.3881277665 0.7196187617
|  8> H -1.9619295852 -0.3019881876 1.5766945677
|  9> C -0.9693235985 1.0412414656 0.2379610969
| 10> H -1.3121878581 1.1627688943 -0.7991025786
| 11> C 0.5456727326 1.2752038325 0.2470648298
| 12> H 0.880482366 1.3695927802 1.2948723153
| 13> C 1.2387377066 0.0695363536 -0.4007184508
| 14> H 0.7977925924 -0.1215274252 -1.3843139224
| 15> C 1.0041296809 -1.1640321081 0.4828367169
| 16> H 1.8174147961 -1.2380034414 1.2260622064
| 17> O -0.1525487929 -1.0402878919 1.2794043746
| 18> O 0.9790232225 -2.2955193897 -0.3219573039
| 19> O 2.59640279 0.3347746 -0.6325402378
| 20> O 0.8321221833 2.4643321805 -0.4472003675
| 21> O -1.6423416049 1.9458239053 1.0800062815
| 22> O -1.3739091063 -1.0336056926 -1.6199184026
| 23> H -3.0363356799 -0.8776707005 -0.4092124252
| 24> H -1.9645890417 -2.2669487295 -0.0622220562
| 25> H 0.9335628338 -3.0947418063 0.2254556984
| 26> H 3.0800683127 0.3696215985 0.2070418309
| 27> H 1.6928186141 2.3588629666 -0.8850428177
| 28> H -1.409914888 2.8468454339 0.8097810653
| 29> H -1.7860572436 -1.6263740174 -2.2638927699
| 30> *
| 31>
| 32>                          ****END OF INPUT****

CARTESIAN COORDINATES (ANGSTROEM)
---------------------------------
  C     -1.992756   -1.214913   -0.365738
  C     -1.286159   -0.388128    0.719619
  H     -1.961930   -0.301988    1.576695
  C     -0.969324    1.041241    0.237961
  H     -1.312188    1.162769   -0.799103
  C      0.545673    1.275204    0.247065
  H      0.880482    1.369593    1.294872
  C      1.238738    0.069536   -0.400718
  H      0.797793   -0.121527   -1.384314
  C      1.004130   -1.164032    0.482837
  H      1.817415   -1.238003    1.226062
  O     -0.152549   -1.040288    1.279404
  O      0.979023   -2.295519   -0.321957
  O      2.596403    0.334775   -0.632540
  O      0.832122    2.464332   -0.447200
  O     -1.642342    1.945824    1.080006
  O     -1.373909   -1.033606   -1.619918
  H     -3.036336   -0.877671   -0.409212
  H     -1.964589   -2.266949   -0.062222
  H      0.933563   -3.094742    0.225456
  H      3.080068    0.369622    0.207042
  H      1.692819    2.358863   -0.885043
  H     -1.409915    2.846845    0.809781
  H     -1.786057   -1.626374   -2.263893

 Total Charge           Charge          ....    0
 Multiplicity           Mult            ....    1
 Number of Electrons    NEL             ....   96
 Basis Dimension        Dim             ....  192

ORBITAL ENERGIES
----------------

  NO   OCC          E(Eh)            E(eV)
   0   2.0000     -18.762692      -510.5588
   1   2.0000     -18.762648      -510.5576
   2   2.0000     -18.756202      -510.3822
   3   2.0000     -18.755049      -510.3508
   4   2.0000     -18.741435      -509.9804
   5   2.0000     -18.738979      -509.9135
   6   2.0000      -9.985373      -271.7158
   7   2.0000      -9.941141      -270.5122
   8   2.0000      -9.935086      -270.3474
   9   2.0000      -9.934365      -270.3278
  10   2.0000      -9.930625      -270.2260
  11   2.0000      -9.930194      -270.2143
  12   2.0000      -0.975303       -26.5394
  13   2.0000      -0.943706       -25.6795
  14   2.0000      -0.930015       -25.3070
  15   2.0000      -0.923814       -25.1383
  16   2.0000      -0.907558       -24.6959
  17   2.0000      -0.904667       -24.6172
  18   2.0000      -0.698500       -19.0071
  19   2.0000      -0.688677       -18.7399
  20   2.0000      -0.618761       -16.8373
  21   2.0000      -0.576563       -15.6891
  22   2.0000      -0.565160       -15.3788
  23   2.0000      -0.518391       -14.1061
  24   2.0000      -0.501597       -13.6492
  25   2.0000      -0.489231       -13.3127
  26   2.0000      -0.459916       -12.5150
  27   2.0000      -0.457172       -12.4403
  28   2.0000      -0.438412       -11.9298
  29   2.0000      -0.419441       -11.4136
  30   2.0000      -0.409365       -11.1394
  31   2.0000      -0.406049       -11.0492
  32   2.0000      -0.390337       -10.6216
  33   2.0000      -0.369750       -10.0614
  34   2.0000      -0.348208        -9.4752
  35   2.0000      -0.340430        -9.2636
  36   2.0000      -0.323520        -8.8034
  37   2.0000      -0.315358        -8.5813
  38   2.0000      -0.296287        -8.0624
  39   2.0000      -0.291840        -7.9414
  40   2.0000      -0.286750        -7.8029
  41   2.0000      -0.253711        -6.9038
  42   2.0000      -0.244603        -6.6560
  43   2.0000      -0.239965        -6.5298
  44   2.0000      -0.227949        -6.2028
  45   2.0000      -0.219019        -5.9598
  46   2.0000      -0.206600        -5.6219
  47   2.0000      -0.203173        -5.5286
  48   0.0000       0.018153         0.4940
  49   0.0000       0.019249         0.5238
  50   0.0000       0.036758         1.0002
  51   0.0000       0.045958         1.2506
  52   0.0000       0.061791         1.6814

MULLIKEN ATOMIC CHARGES
-----------------------
   0 C :    0.024634
   1 C :    0.037728
   2 H :    0.085285
   3 C :    0.084990
   4 H :    0.073892
   5 C :    0.033826
   6 H :    0.038857
   7 C :   -0.019706
   8 H :    0.101984
   9 C :    0.221513
  10 H :    0.034487
  11 O :   -0.316416
  12 O :   -0.378087
  13 O :   -0.412874
  14 O :   -0.427171
  15 O :   -0.421574
  16 O :   -0.420102
  17 H :    0.081132
  18 H :    0.069130
  19 H :    0.296921
  20 H :    0.298435
  21 H :    0.300368
  22 H :    0.306440
  23 H :    0.306307
Sum of atomic charges:    0.0000000

LOEWDIN ATOMIC CHARGES
----------------------
   0 C :   -0.134987
   1 C :   -0.053154
   2 H :    0.130561
   3 C :   -0.066520
   4 H :    0.109901
   5 C :   -0.083533
   6 H :    0.095931
   7 C :   -0.098049
   8 H :    0.132254
   9 C :   -0.005313
  10 H :    0.087699
  11 O :   -0.150920
  12 O :   -0.301092
  13 O :   -0.302693
  14 O :   -0.332131
  15 O :   -0.323758
  16 O :   -0.330108
  17 H :    0.103538
  18 H :    0.099528
  19 H :    0.282826
  20 H :    0.282849
  21 H :    0.279304
  22 H :    0.287918
  23 H :    0.289948

  Mayer bond orders larger than 0.100000
B(  0-C ,  1-C ) :   1.0652 B(  0-C , 16-O ) :   1.0707 B(  0-C , 17-H ) :   0.9108
B(  0-C , 18-H ) :   0.9068 B(  1-C ,  2-H ) :   0.8851 B(  1-C ,  3-C ) :   0.9854
B(  1-C , 11-O ) :   1.0335 B(  3-C ,  4-H ) :   0.8782 B(  3-C ,  5-C ) :   1.0365
B(  3-C , 15-O ) :   1.0657 B(  5-C ,  6-H ) :   0.8585 B(  5-C ,  7-C ) :   1.0155
B(  5-C , 14-O ) :   1.1006 B(  7-C ,  8-H ) :   0.8524 B(  7-C ,  9-C ) :   0.9921
B(  7-C , 13-O ) :   1.0048 B(  9-C , 10-H ) :   0.8842 B(  9-C , 11-O ) :   1.0516
B(  9-C , 12-O ) :   1.1576 B( 12-O , 19-H ) :   0.8418 B( 13-O , 20-H ) :   0.8448
B( 14-O , 21-H ) :   0.8211 B( 15-O , 22-H ) :   0.8441 B( 16-O , 23-H ) :   0.8456

Dispersion correction           -0.025168985
FINAL SINGLE POINT ENERGY      -685.690071677455

DIPOLE MOMENT
-------------

Method             : SCF
Type of density    : Electron Density
Multiplicity       :   1
Irrep              :   0
Energy             :  -685.8204558237927131 Eh
Relativity type    :
Basis              : AO
                                X                 Y                 Z
Electronic contribution:      2.153605337       0.529063599       0.474601664
Nuclear contribution   :     -2.110239090      -1.326228140      -0.445007549
                        -----------------------------------------
Total Dipole Moment    :      0.043366247      -0.797164541       0.029594115
                        -----------------------------------------
Magnitude (a.u.)       :      0.798891575
Magnitude (Debye)      :      2.030621008

Rotational constants in cm-1:             0.034786             0.033220             0.022297
Rotational constants in MHz :          1042.852765           995.912787           668.447613

                             ****ORCA TERMINATED NORMALLY****
TOTAL RUN TIME: 0 days 0 hours 0 minutes 11 seconds 875 msec
