                         Program Version 6.0.0  -   RELEASE  -
|  1> ! wb97x-v def2-tzvp def2/J RIJCOSX DEFGRID2 scfconv7 GCP(DFT/TZ) printgap
|  2> %output
|  3>     printlevel normal
|  4> end
|  5> * xyz 0 1
|  6> C 1.2575931081628606 1.4920792061029078 -0.15169279852500359
|  7> C 0.7004074314298236 0.10535429469741593 -0.4425532904868353
|  8> C 1.5024806319801618 -0.990932080869403 0.28119153892727317
|  9> C -0.7678654908181044 -0.0161422339618497 -0.09013459382719485
| 10> O -1.3888547439661465 0.9070871860096711 0.4287320664194577
| 11> C -1.4425338589806114 -1.3279182082986452 -0.3777495366758427
| 12> H 1.2290547608613835 1.7066434454651416 0.9215171490056018
| 13> H 2.2986236599892673 1.551360964156763 -0.4821225628169165
| 14> H 0.688991269888662 2.270219032103729 -0.6687188394709587
| 15> H 0.7597711846925731 -0.09934303245666774 -1.5219956620059467
| 16> H 1.1769859541031071 -1.9948333957860476 -0.002464381758585116
| 17> H 1.4006398227295598 -0.8858245275411191 1.3667097267508919
| 18> H 2.5619155405132177 -0.894332851586787 0.026978781641910334
| 19> H -2.5186546506322967 -1.1814185790061156 -0.4883986907516703
| 20> H -1.2743855448931947 -1.9954343593287858 0.47690987264357537
| 21> H -1.0251652216552123 -1.8172597277670526 -1.2613079423132902
| 22> *
| 23>
| 24>                          ****END OF INPUT****

CARTESIAN COORDINATES (ANGSTROEM)
---------------------------------
  C      1.257593    1.492079   -0.151693
  C      0.700407    0.105354   -0.442553
  C      1.502481   -0.990932    0.281192
  C     -0.767865   -0.016142   -0.090135
  O     -1.388855    0.907087    0.428732
  C     -1.442534   -1.327918   -0.377750
  H      1.229055    1.706643    0.921517
  H      2.298624    1.551361   -0.482123
  H      0.688991    2.270219   -0.668719
  H      0.759771   -0.099343   -1.521996
  H      1.176986   -1.994833   -0.002464
  H      1.400640   -0.885825    1.366710
  H      2.561916   -0.894333    0.026979
  H     -2.518655   -1.181419   -0.488399
  H     -1.274386   -1.995434    0.476910
  H     -1.025165   -1.817260   -1.261308

 Total Charge           Charge          ....    0
 Multiplicity           Mult            ....    1
 Number of Electrons    NEL             ....   48
 Basis Dimension        Dim             ....  246

ORBITAL ENERGIES
----------------

  NO   OCC          E(Eh)            E(eV)
   0   2.0000     -21.657389      -589.3275
   1   2.0000     -12.135552      -330.2252
   2   2.0000     -12.064208      -328.2838
   3   2.0000     -12.052081      -327.9538
   4   2.0000     -12.051480      -327.9375
   5   2.0000     -12.035237      -327.4955
   6   2.0000      -1.700648       -46.2770
   7   2.0000      -1.327431       -36.1212
   8   2.0000      -1.251379       -34.0518
   9   2.0000      -1.186046       -32.2739
  10   2.0000      -1.126429       -30.6517
  11   2.0000      -1.062187       -28.9036
  12   2.0000      -0.964621       -26.2487
  13   2.0000      -0.955333       -25.9959
  14   2.0000      -0.915226       -24.9046
  15   2.0000      -0.879718       -23.9383
  16   2.0000      -0.850525       -23.1440
  17   2.0000      -0.842310       -22.9204
  18   2.0000      -0.833899       -22.6915
  19   2.0000      -0.830302       -22.5937
  20   2.0000      -0.816104       -22.2073
  21   2.0000      -0.793696       -21.5976
  22   2.0000      -0.780352       -21.2345
  23   2.0000      -0.767305       -20.8794
  24   0.0000      -0.307260        -8.3610
  25   0.0000      -0.053507        -1.4560
  26   0.0000      -0.042029        -1.1437
  27   0.0000      -0.025767        -0.7011
  28   0.0000      -0.019680        -0.5355

MULLIKEN ATOMIC CHARGES
-----------------------
   0 C :   -0.332471
   1 C :   -0.007094
   2 C :   -0.374406
   3 C :    0.192405
   4 O :   -0.316890
   5 C :   -0.371822
   6 H :    0.113745
   7 H :    0.108370
   8 H :    0.124099
   9 H :    0.088314
  10 H :    0.122490
  11 H :    0.124132
  12 H :    0.120307
  13 H :    0.143642
  14 H :    0.139290
  15 H :    0.125888
Sum of atomic charges:    0.0000000

LOEWDIN ATOMIC CHARGES
----------------------
   0 C :   -0.273280
   1 C :   -0.281731
   2 C :   -0.268328
   3 C :   -0.317749
   4 O :    0.109909
   5 C :   -0.262133
   6 H :    0.125198
   7 H :    0.118079
   8 H :    0.124899
   9 H :    0.159554
  10 H :    0.118825
  11 H :    0.124368
  12 H :    0.122874
  13 H :    0.132832
  14 H :    0.139651
  15 H :    0.127033

  Mayer bond orders larger than 0.100000
B(  0-C ,  1-C ) :   1.0030 B(  0-C ,  6-H ) :   0.9693 B(  0-C ,  7-H ) :   0.9799
B(  0-C ,  8-H ) :   0.9764 B(  1-C ,  2-C ) :   0.9404 B(  1-C ,  3-C ) :   0.9527
B(  1-C ,  9-H ) :   0.9460 B(  2-C , 10-H ) :   0.9758 B(  2-C , 11-H ) :   0.9746
B(  2-C , 12-H ) :   0.9771 B(  3-C ,  4-O ) :   2.1277 B(  3-C ,  5-C ) :   0.9633
B(  5-C , 13-H ) :   0.9751 B(  5-C , 14-H ) :   0.9502 B(  5-C , 15-H ) :   0.9708

FINAL SINGLE POINT ENERGY      -271.794054845732

DIPOLE MOMENT
-------------

Method             : SCF
Type of density    : Electron Density
Multiplicity       :   1
Irrep              :   0
Energy             :  -271.8048475434317197 Eh
Relativity type    :
Basis              : AO
                                X                 Y                 Z
Electronic contribution:     -4.515561738       2.474041794       0.602531930
Nuclear contribution   :      5.153209248      -3.369766944      -1.071064877
                        -----------------------------------------
Total Dipole Moment    :      0.637647510      -0.895725150      -0.468532946
                        -----------------------------------------
Magnitude (a.u.)       :      1.195174052
Magnitude (Debye)      :      3.037891015

Rotational constants in cm-1:             0.156327             0.103170             0.070175
Rotational constants in MHz :          4686.574285          3092.948172          2103.780639

                             ****ORCA TERMINATED NORMALLY****
TOTAL RUN TIME: 0 days 0 hours 1 minutes 34 seconds 956 msec
