                         Program Version 6.0.0  -   RELEASE  -
|  1> ! wb97x-v def2-tzvp def2/J RIJCOSX DEFGRID2 scfconv7 GCP(DFT/TZ) printgap
|  2> %output
|  3>     printlevel normal
|  4> end
|  5> %cpcm
|  6>     smd true
|  7>     smdsolvent "water"
|  8> end
|  9> * xyz 0 1
| 10> C 1.2575931081628606 1.4920792061029078 -0.15169279852500359
| 11> C 0.7004074314298236 0.10535429469741593 -0.4425532904868353
| 12> C 1.5024806319801618 -0.990932080869403 0.28119153892727317
| 13> C -0.7678654908181044 -0.0161422339618497 -0.09013459382719485
| 14> O -1.3888547439661465 0.9070871860096711 0.4287320664194577
| 15> C -1.4425338589806114 -1.3279182082986452 -0.3777495366758427
| 16> H 1.2290547608613835 1.7066434454651416 0.9215171490056018
| 17> H 2.2986236599892673 1.551360964156763 -0.4821225628169165
| 18> H 0.688991269888662 2.270219032103729 -0.6687188394709587
| 19> H 0.7597711846925731 -0.09934303245666774 -1.5219956620059467
| 20> H 1.1769859541031071 -1.9948333957860476 -0.002464381758585116
| 21> H 1.4006398227295598 -0.8858245275411191 1.3667097267508919
| 22> H 2.5619155405132177 -0.894332851586787 0.026978781641910334
| 23> H -2.5186546506322967 -1.1814185790061156 -0.4883986907516703
| 24> H -1.2743855448931947 -1.9954343593287858 0.47690987264357537
| 25> H -1.0251652216552123 -1.8172597277670526 -1.2613079423132902
| 26> *
| 27>
| 28>                          ****END OF INPUT****

CARTESIAN COORDINATES (ANGSTROEM)
---------------------------------
  C      1.257593    1.492079   -0.151693
  C      0.700407    0.105354   -0.442553
  C      1.502481   -0.990932    0.281192
  C     -0.767865   -0.016142   -0.090135
  O     -1.388855    0.907087    0.428732
  C     -1.442534   -1.327918   -0.377750
  H      1.229055    1.706643    0.921517
  H      2.298624    1.551361   -0.482123
  H      0.688991    2.270219   -0.668719
  H      0.759771   -0.099343   -1.521996
  H      1.176986   -1.994833   -0.002464
  H      1.400640   -0.885825    1.366710
  H      2.561916   -0.894333    0.026979
  H     -2.518655   -1.181419   -0.488399
  H     -1.274386   -1.995434    0.476910
  H     -1.025165   -1.817260   -1.261308

 Total Charge           Charge          ....    0
 Multiplicity           Mult            ....    1
 Number of Electrons    NEL             ....   48
 Basis Dimension        Dim             ....  246

ORBITAL ENERGIES
----------------

  NO   OCC          E(Eh)            E(eV)
   0   2.0000     -21.667036      -589.5900
   1   2.0000     -12.141689      -330.3922
   2   2.0000     -12.053548      -327.9937
   3   2.0000     -12.038569      -327.5861
   4   2.0000     -12.034333      -327.4708
   5   2.0000     -12.027731      -327.2912
   6   2.0000      -1.713729       -46.6329
   7   2.0000      -1.318168       -35.8692
   8   2.0000      -1.242568       -33.8120
   9   2.0000      -1.173996       -31.9461
  10   2.0000      -1.123167       -30.5629
  11   2.0000      -1.068855       -29.0850
  12   2.0000      -0.967828       -26.3359
  13   2.0000      -0.948895       -25.8208
  14   2.0000      -0.921980       -25.0884
  15   2.0000      -0.872217       -23.7342
  16   2.0000      -0.840984       -22.8843
  17   2.0000      -0.834781       -22.7156
  18   2.0000      -0.822365       -22.3777
  19   2.0000      -0.820245       -22.3200
  20   2.0000      -0.804745       -21.8982
  21   2.0000      -0.781812       -21.2742
  22   2.0000      -0.772997       -21.0343
  23   2.0000      -0.758771       -20.6472
  24   0.0000      -0.304005        -8.2724
  25   0.0000      -0.046489        -1.2650
  26   0.0000      -0.032829        -0.8933
  27   0.0000      -0.009986        -0.2717
  28   0.0000      -0.004502        -0.1225

MULLIKEN ATOMIC CHARGES
-----------------------
   0 C :   -0.407523
   1 C :    0.013005
   2 C :   -0.417938
   3 C :    0.274470
   4 O :   -0.458784
   5 C :   -0.411886
   6 H :    0.124714
   7 H :    0.134772
   8 H :    0.132277
   9 H :    0.119552
  10 H :    0.145344
  11 H :    0.133964
  12 H :    0.138457
  13 H :    0.149792
  14 H :    0.170793
  15 H :    0.158991
Sum of atomic charges:    0.0000000

LOEWDIN ATOMIC CHARGES
----------------------
   0 C :   -0.283593
   1 C :   -0.273564
   2 C :   -0.266973
   3 C :   -0.294701
   4 O :    0.029516
   5 C :   -0.256043
   6 H :    0.123574
   7 H :    0.125189
   8 H :    0.122346
   9 H :    0.172177
  10 H :    0.125202
  11 H :    0.126512
  12 H :    0.126845
  13 H :    0.133547
  14 H :    0.150645
  15 H :    0.139320

  Mayer bond orders larger than 0.100000
B(  0-C ,  1-C ) :   0.9769 B(  0-C ,  6-H ) :   0.9700 B(  0-C ,  7-H ) :   0.9777
B(  0-C ,  8-H ) :   0.9778 B(  1-C ,  2-C ) :   0.9375 B(  1-C ,  3-C ) :   0.9681
B(  1-C ,  9-H ) :   0.9366 B(  2-C , 10-H ) :   0.9720 B(  2-C , 11-H ) :   0.9712
B(  2-C , 12-H ) :   0.9737 B(  3-C ,  4-O ) :   1.9654 B(  3-C ,  5-C ) :   0.9915
B(  5-C , 13-H ) :   0.9668 B(  5-C , 14-H ) :   0.9378 B(  5-C , 15-H ) :   0.9623

FINAL SINGLE POINT ENERGY      -271.801135135114

DIPOLE MOMENT
-------------

Method             : SCF
Type of density    : Electron Density
Multiplicity       :   1
Irrep              :   0
Energy             :  -271.8119278328143196 Eh
Relativity type    :
Basis              : AO
                                X                 Y                 Z
Electronic contribution:     -4.218417071       2.008532495       0.351964883
Nuclear contribution   :      5.153209248      -3.369766944      -1.071064877
                        -----------------------------------------
Total Dipole Moment    :      0.934792177      -1.361234450      -0.719099994
                        -----------------------------------------
Magnitude (a.u.)       :      1.801083130
Magnitude (Debye)      :      4.577989499

Rotational constants in cm-1:             0.156327             0.103170             0.070175
Rotational constants in MHz :          4686.574285          3092.948172          2103.780639

                             ****ORCA TERMINATED NORMALLY****
TOTAL RUN TIME: 0 days 0 hours 1 minutes 38 seconds 498 msec
