                         Program Version 6.0.0  -   RELEASE  -
|  1> ! wb97x-v def2-tzvp def2/J RIJCOSX DEFGRID2 scfconv7 GCP(DFT/TZ) printgap
|  2> %output
|  3>     printlevel normal
|  4> end
|  5> * xyz 0 1
|  6> C 2.7739157655362376 0.002039874908887174 0.7360486069218873
|  7> C 1.9914669128694669 -0.0025916552969089458 -0.5836000412732196
|  8> C 0.5112737205293092 -0.0012856751439795974 -0.3331242518980819
|  9> C -0.20316542887998393 1.189221448109165 -0.18440336430561596
| 10> C -1.5609331590195383 1.1411715436182 0.09973723655026333
| 11> N -2.2550728164403213 0.00144059497788361 0.24697513545304234
| 12> C -1.5627296272473339 -1.1396394675613808 0.10197951626048504
| 13> C -0.2050073262832845 -1.190358380047622 -0.18203813054447654
| 14> H 2.5316726590751606 0.8906961776866921 1.327786809453736
| 15> H 3.8510247967337397 0.0007471971286251398 0.5440252182806066
| 16> H 2.530691271614763 -0.8818654211058002 1.3344544530385847
| 17> H 2.262298413910744 -0.8898193417941108 -1.1654666728840861
| 18> H 2.262789099093103 0.880219751777576 -1.1719410126690777
| 19> H 0.2945064628318808 2.148663170460604 -0.2917822129179348
| 20> H -2.123059842922166 2.0657357538950403 0.2141105296974101
| 21> H -2.1262720811189415 -2.0631102995382995 0.2182222018549073
| 22> H 0.2911864979175152 -2.150777208978832 -0.2875015421233983
| 23> *
| 24>
| 25>                          ****END OF INPUT****

CARTESIAN COORDINATES (ANGSTROEM)
---------------------------------
  C      2.773916    0.002040    0.736049
  C      1.991467   -0.002592   -0.583600
  C      0.511274   -0.001286   -0.333124
  C     -0.203165    1.189221   -0.184403
  C     -1.560933    1.141172    0.099737
  N     -2.255073    0.001441    0.246975
  C     -1.562730   -1.139639    0.101980
  C     -0.205007   -1.190358   -0.182038
  H      2.531673    0.890696    1.327787
  H      3.851025    0.000747    0.544025
  H      2.530691   -0.881865    1.334454
  H      2.262298   -0.889819   -1.165467
  H      2.262789    0.880220   -1.171941
  H      0.294506    2.148663   -0.291782
  H     -2.123060    2.065736    0.214111
  H     -2.126272   -2.063110    0.218222
  H      0.291186   -2.150777   -0.287502

 Total Charge           Charge          ....    0
 Multiplicity           Mult            ....    1
 Number of Electrons    NEL             ....   58
 Basis Dimension        Dim             ....  302

ORBITAL ENERGIES
----------------

  NO   OCC          E(Eh)            E(eV)
   0   2.0000     -16.521933      -449.5846
   1   2.0000     -12.082961      -328.7941
   2   2.0000     -12.082608      -328.7845
   3   2.0000     -12.077188      -328.6370
   4   2.0000     -12.060530      -328.1837
   5   2.0000     -12.055712      -328.0526
   6   2.0000     -12.055331      -328.0422
   7   2.0000     -12.048075      -327.8448
   8   2.0000      -1.513917       -41.1958
   9   2.0000      -1.361938       -37.0602
  10   2.0000      -1.294325       -35.2204
  11   2.0000      -1.270864       -34.5820
  12   2.0000      -1.158023       -31.5114
  13   2.0000      -1.151291       -31.3282
  14   2.0000      -1.088643       -29.6235
  15   2.0000      -1.000910       -27.2361
  16   2.0000      -0.967404       -26.3244
  17   2.0000      -0.926925       -25.2229
  18   2.0000      -0.888647       -24.1813
  19   2.0000      -0.883720       -24.0472
  20   2.0000      -0.875384       -23.8204
  21   2.0000      -0.849050       -23.1038
  22   2.0000      -0.828058       -22.5326
  23   2.0000      -0.821288       -22.3484
  24   2.0000      -0.803275       -21.8582
  25   2.0000      -0.781020       -21.2526
  26   2.0000      -0.762147       -20.7391
  27   2.0000      -0.691143       -18.8070
  28   2.0000      -0.649998       -17.6873
  29   0.0000      -0.292816        -7.9679
  30   0.0000      -0.242898        -6.6096
  31   0.0000      -0.101855        -2.7716
  32   0.0000      -0.054158        -1.4737
  33   0.0000      -0.025011        -0.6806

MULLIKEN ATOMIC CHARGES
-----------------------
   0 C :   -0.343684
   1 C :   -0.203341
   2 C :    0.127508
   3 C :   -0.151560
   4 C :   -0.049567
   5 N :   -0.224844
   6 C :   -0.049424
   7 C :   -0.151650
   8 H :    0.116388
   9 H :    0.115679
  10 H :    0.116426
  11 H :    0.108624
  12 H :    0.108683
  13 H :    0.119975
  14 H :    0.120450
  15 H :    0.120432
  16 H :    0.119905
Sum of atomic charges:    0.0000000

LOEWDIN ATOMIC CHARGES
----------------------
   0 C :   -0.289925
   1 C :   -0.236199
   2 C :   -0.131853
   3 C :   -0.127735
   4 C :   -0.199297
   5 N :    0.112509
   6 C :   -0.199291
   7 C :   -0.127765
   8 H :    0.119822
   9 H :    0.117152
  10 H :    0.119845
  11 H :    0.140610
  12 H :    0.140640
  13 H :    0.145898
  14 H :    0.134851
  15 H :    0.134851
  16 H :    0.145887

  Mayer bond orders larger than 0.100000
B(  0-C ,  1-C ) :   0.9720 B(  0-C ,  8-H ) :   0.9785 B(  0-C ,  9-H ) :   0.9779
B(  0-C , 10-H ) :   0.9785 B(  1-C ,  2-C ) :   0.9099 B(  1-C , 11-H ) :   0.9860
B(  1-C , 12-H ) :   0.9859 B(  2-C ,  3-C ) :   1.3946 B(  2-C ,  7-C ) :   1.3950
B(  3-C ,  4-C ) :   1.4267 B(  3-C , 13-H ) :   0.9653 B(  4-C ,  5-N ) :   1.5041
B(  4-C , 14-H ) :   0.9872 B(  5-N ,  6-C ) :   1.5042 B(  6-C ,  7-C ) :   1.4266
B(  6-C , 15-H ) :   0.9871 B(  7-C , 16-H ) :   0.9653

FINAL SINGLE POINT ENERGY      -326.926719209974

DIPOLE MOMENT
-------------

Method             : SCF
Type of density    : Electron Density
Multiplicity       :   1
Irrep              :   0
Energy             :  -326.9363594788738396 Eh
Relativity type    :
Basis              : AO
                                X                 Y                 Z
Electronic contribution:     -8.121408552      -0.001094102      -0.852411480
Nuclear contribution   :      9.219347587       0.000203407       0.675604400
                        -----------------------------------------
Total Dipole Moment    :      1.097939035      -0.000890694      -0.176807081
                        -----------------------------------------
Magnitude (a.u.)       :      1.112084377
Magnitude (Debye)      :      2.826693846

Rotational constants in cm-1:             0.157487             0.049263             0.041339
Rotational constants in MHz :          4721.352812          1476.855054          1239.298902

                             ****ORCA TERMINATED NORMALLY****
TOTAL RUN TIME: 0 days 0 hours 2 minutes 17 seconds 921 msec
