                         Program Version 6.0.0  -   RELEASE  -
|  1> ! wb97x-v def2-tzvp def2/J RIJCOSX DEFGRID2 scfconv7 GCP(DFT/TZ) printgap
|  2> %output
|  3>     printlevel normal
|  4> end
|  5> %cpcm
|  6>     smd true
|  7>     smdsolvent "water"
|  8> end
|  9> * xyz 0 1
| 10> C 2.7739157655362376 0.002039874908887174 0.7360486069218873
| 11> C 1.9914669128694669 -0.0025916552969089458 -0.5836000412732196
| 12> C 0.5112737205293092 -0.0012856751439795974 -0.3331242518980819
| 13> C -0.20316542887998393 1.189221448109165 -0.18440336430561596
| 14> C -1.5609331590195383 1.1411715436182 0.09973723655026333
| 15> N -2.2550728164403213 0.00144059497788361 0.24697513545304234
| 16> C -1.5627296272473339 -1.1396394675613808 0.10197951626048504
| 17> C -0.2050073262832845 -1.190358380047622 -0.18203813054447654
| 18> H 2.5316726590751606 0.8906961776866921 1.327786809453736
| 19> H 3.8510247967337397 0.0007471971286251398 0.5440252182806066
| 20> H 2.530691271614763 -0.8818654211058002 1.3344544530385847
| 21> H 2.262298413910744 -0.8898193417941108 -1.1654666728840861
| 22> H 2.262789099093103 0.880219751777576 -1.1719410126690777
| 23> H 0.2945064628318808 2.148663170460604 -0.2917822129179348
| 24> H -2.123059842922166 2.0657357538950403 0.2141105296974101
| 25> H -2.1262720811189415 -2.0631102995382995 0.2182222018549073
| 26> H 0.2911864979175152 -2.150777208978832 -0.2875015421233983
| 27> *
| 28>
| 29>                          ****END OF INPUT****

CARTESIAN COORDINATES (ANGSTROEM)
---------------------------------
  C      2.773916    0.002040    0.736049
  C      1.991467   -0.002592   -0.583600
  C      0.511274   -0.001286   -0.333124
  C     -0.203165    1.189221   -0.184403
  C     -1.560933    1.141172    0.099737
  N     -2.255073    0.001441    0.246975
  C     -1.562730   -1.139639    0.101980
  C     -0.205007   -1.190358   -0.182038
  H      2.531673    0.890696    1.327787
  H      3.851025    0.000747    0.544025
  H      2.530691   -0.881865    1.334454
  H      2.262298   -0.889819   -1.165467
  H      2.262789    0.880220   -1.171941
  H      0.294506    2.148663   -0.291782
  H     -2.123060    2.065736    0.214111
  H     -2.126272   -2.063110    0.218222
  H      0.291186   -2.150777   -0.287502

 Total Charge           Charge          ....    0
 Multiplicity           Mult            ....    1
 Number of Electrons    NEL             ....   58
 Basis Dimension        Dim             ....  302

ORBITAL ENERGIES
----------------

  NO   OCC          E(Eh)            E(eV)
   0   2.0000     -16.526250      -449.7021
   1   2.0000     -12.081031      -328.7416
   2   2.0000     -12.080693      -328.7324
   3   2.0000     -12.072077      -328.4979
   4   2.0000     -12.049782      -327.8912
   5   2.0000     -12.049439      -327.8819
   6   2.0000     -12.044328      -327.7428
   7   2.0000     -12.032207      -327.4130
   8   2.0000      -1.517359       -41.2894
   9   2.0000      -1.355886       -36.8955
  10   2.0000      -1.292262       -35.1642
  11   2.0000      -1.258501       -34.2455
  12   2.0000      -1.149732       -31.2858
  13   2.0000      -1.148996       -31.2658
  14   2.0000      -1.078368       -29.3439
  15   2.0000      -0.997325       -27.1386
  16   2.0000      -0.962399       -26.1882
  17   2.0000      -0.919073       -25.0092
  18   2.0000      -0.879739       -23.9389
  19   2.0000      -0.878267       -23.8989
  20   2.0000      -0.860246       -23.4085
  21   2.0000      -0.840015       -22.8580
  22   2.0000      -0.820757       -22.3339
  23   2.0000      -0.820478       -22.3264
  24   2.0000      -0.790424       -21.5085
  25   2.0000      -0.764798       -20.8112
  26   2.0000      -0.764478       -20.8025
  27   2.0000      -0.688390       -18.7320
  28   2.0000      -0.648020       -17.6335
  29   0.0000      -0.291873        -7.9423
  30   0.0000      -0.240488        -6.5440
  31   0.0000      -0.098050        -2.6681
  32   0.0000      -0.045119        -1.2278
  33   0.0000      -0.017239        -0.4691

MULLIKEN ATOMIC CHARGES
-----------------------
   0 C :   -0.401490
   1 C :   -0.183886
   2 C :    0.101398
   3 C :   -0.193606
   4 C :   -0.059701
   5 N :   -0.307072
   6 C :   -0.059548
   7 C :   -0.193738
   8 H :    0.130496
   9 H :    0.132965
  10 H :    0.130471
  11 H :    0.126454
  12 H :    0.126452
  13 H :    0.165483
  14 H :    0.159951
  15 H :    0.159932
  16 H :    0.165438
Sum of atomic charges:    0.0000000

LOEWDIN ATOMIC CHARGES
----------------------
   0 C :   -0.294449
   1 C :   -0.231035
   2 C :   -0.128640
   3 C :   -0.124020
   4 C :   -0.210819
   5 N :    0.065242
   6 C :   -0.210808
   7 C :   -0.124059
   8 H :    0.121530
   9 H :    0.120990
  10 H :    0.121533
  11 H :    0.146341
  12 H :    0.146368
  13 H :    0.158245
  14 H :    0.142674
  15 H :    0.142674
  16 H :    0.158232

  Mayer bond orders larger than 0.100000
B(  0-C ,  1-C ) :   0.9614 B(  0-C ,  8-H ) :   0.9773 B(  0-C ,  9-H ) :   0.9748
B(  0-C , 10-H ) :   0.9773 B(  1-C ,  2-C ) :   0.9257 B(  1-C , 11-H ) :   0.9776
B(  1-C , 12-H ) :   0.9775 B(  2-C ,  3-C ) :   1.3833 B(  2-C ,  7-C ) :   1.3837
B(  3-C ,  4-C ) :   1.4508 B(  3-C , 13-H ) :   0.9639 B(  4-C ,  5-N ) :   1.4880
B(  4-C , 14-H ) :   0.9679 B(  5-N ,  6-C ) :   1.4882 B(  6-C ,  7-C ) :   1.4507
B(  6-C , 15-H ) :   0.9678 B(  7-C , 16-H ) :   0.9639

FINAL SINGLE POINT ENERGY      -326.933988043768

DIPOLE MOMENT
-------------

Method             : SCF
Type of density    : Electron Density
Multiplicity       :   1
Irrep              :   0
Energy             :  -326.9436283126676130 Eh
Relativity type    :
Basis              : AO
                                X                 Y                 Z
Electronic contribution:     -7.651916120      -0.001499448      -0.957505567
Nuclear contribution   :      9.219347587       0.000203407       0.675604400
                        -----------------------------------------
Total Dipole Moment    :      1.567431467      -0.001296040      -0.281901167
                        -----------------------------------------
Magnitude (a.u.)       :      1.592580093
Magnitude (Debye)      :      4.048016895

Rotational constants in cm-1:             0.157487             0.049263             0.041339
Rotational constants in MHz :          4721.352812          1476.855054          1239.298902

                             ****ORCA TERMINATED NORMALLY****
TOTAL RUN TIME: 0 days 0 hours 2 minutes 23 seconds 227 msec
