                         Program Version 6.0.0  -   RELEASE  -
|  1> ! pbe def2-sv(p) def2/J RI DEFGRID1 loosescf d4 GCP(DFT/SV(P)) printgap
|  2> %output
|  3>     printlevel normal
|  4> end
|  5> * xyz 0 1
|  6> C -2.228635971 -0.7511537182 -1.0996617666
|  7> C -1.7793595408 0.0033049864 0.114484151
|  8> O -2.5666014298 0.5953061204 0.8314298844
|  9> C -0.2954046684 0.0371944999 0.4050842346
| 10> C 0.3318556897 1.1768764577 -0.4173856281
| 11> C 1.8096807908 1.322647996 -0.0667079815
| 12> C 2.5526190453 0.0135616424 -0.3175466472
| 13> C 1.9191393056 -1.1208008501 0.4828335018
| 14> C 0.443594888 -1.2706387705 0.1194988448
| 15> H -3.2738102865 -0.534319071 -1.3029701439
| 16> H -1.6171552 -0.4907894152 -1.9582204354
| 17> H -2.1160608962 -1.8166972877 -0.9118135299
| 18> H -0.1856821504 0.292465274 1.4655268834
| 19> H 0.2318819572 0.9560147603 -1.481624947
| 20> H -0.198606564 2.1092018307 -0.2118784781
| 21> H 2.2477226775 2.1219773814 -0.6669791221
| 22> H 1.9070086683 1.6009671047 0.9847145994
| 23> H 2.5122672064 -0.2274967167 -1.3818630685
| 24> H 3.6016335922 0.1247450042 -0.0385083704
| 25> H 2.4431651294 -2.056328326 0.2803628926
| 26> H 2.0125733042 -0.908636169 1.5501227165
| 27> H 0.364877723 -1.5213578482 -0.9383546018
| 28> H -0.000536404 -2.0805120555 0.7013850154
| 29> *
| 30>
| 31>                          ****END OF INPUT****

CARTESIAN COORDINATES (ANGSTROEM)
---------------------------------
  C     -2.228636   -0.751154   -1.099662
  C     -1.779360    0.003305    0.114484
  O     -2.566601    0.595306    0.831430
  C     -0.295405    0.037194    0.405084
  C      0.331856    1.176876   -0.417386
  C      1.809681    1.322648   -0.066708
  C      2.552619    0.013562   -0.317547
  C      1.919139   -1.120801    0.482834
  C      0.443595   -1.270639    0.119499
  H     -3.273810   -0.534319   -1.302970
  H     -1.617155   -0.490789   -1.958220
  H     -2.116061   -1.816697   -0.911814
  H     -0.185682    0.292465    1.465527
  H      0.231882    0.956015   -1.481625
  H     -0.198607    2.109202   -0.211878
  H      2.247723    2.121977   -0.666979
  H      1.907009    1.600967    0.984715
  H      2.512267   -0.227497   -1.381863
  H      3.601634    0.124745   -0.038508
  H      2.443165   -2.056328    0.280363
  H      2.012573   -0.908636    1.550123
  H      0.364878   -1.521358   -0.938355
  H     -0.000536   -2.080512    0.701385

 Total Charge           Charge          ....    0
 Multiplicity           Mult            ....    1
 Number of Electrons    NEL             ....   70
 Basis Dimension        Dim             ....  154

ORBITAL ENERGIES
----------------

  NO   OCC          E(Eh)            E(eV)
   0   2.0000     -18.729837      -509.6648
   1   2.0000      -9.967889      -271.2400
   2   2.0000      -9.897871      -269.3348
   3   2.0000      -9.895010      -269.2569
   4   2.0000      -9.893509      -269.2161
   5   2.0000      -9.889246      -269.1001
   6   2.0000      -9.889093      -269.0959
   7   2.0000      -9.887895      -269.0633
   8   2.0000      -9.885028      -268.9853
   9   2.0000      -0.927457       -25.2374
  10   2.0000      -0.767472       -20.8840
  11   2.0000      -0.695030       -18.9127
  12   2.0000      -0.675337       -18.3769
  13   2.0000      -0.654041       -17.7974
  14   2.0000      -0.563383       -15.3304
  15   2.0000      -0.550460       -14.9788
  16   2.0000      -0.507026       -13.7969
  17   2.0000      -0.473779       -12.8922
  18   2.0000      -0.435354       -11.8466
  19   2.0000      -0.412265       -11.2183
  20   2.0000      -0.405322       -11.0294
  21   2.0000      -0.403277       -10.9737
  22   2.0000      -0.395115       -10.7516
  23   2.0000      -0.369597       -10.0573
  24   2.0000      -0.360948        -9.8219
  25   2.0000      -0.344176        -9.3655
  26   2.0000      -0.342679        -9.3248
  27   2.0000      -0.333503        -9.0751
  28   2.0000      -0.315078        -8.5737
  29   2.0000      -0.308801        -8.4029
  30   2.0000      -0.299411        -8.1474
  31   2.0000      -0.289479        -7.8771
  32   2.0000      -0.277527        -7.5519
  33   2.0000      -0.265342        -7.2203
  34   2.0000      -0.187068        -5.0904
  35   0.0000      -0.045065        -1.2263
  36   0.0000       0.027321         0.7434
  37   0.0000       0.038599         1.0503
  38   0.0000       0.056074         1.5258
  39   0.0000       0.064473         1.7544

MULLIKEN ATOMIC CHARGES
-----------------------
   0 C :   -0.263902
   1 C :    0.032406
   2 O :   -0.170308
   3 C :   -0.177905
   4 C :   -0.154886
   5 C :   -0.120309
   6 C :   -0.169123
   7 C :   -0.135360
   8 C :   -0.128687
   9 H :    0.116868
  10 H :    0.124734
  11 H :    0.130619
  12 H :    0.070058
  13 H :    0.077630
  14 H :    0.099270
  15 H :    0.089249
  16 H :    0.079308
  17 H :    0.075499
  18 H :    0.088992
  19 H :    0.087557
  20 H :    0.078567
  21 H :    0.076925
  22 H :    0.092797
Sum of atomic charges:   -0.0000000

LOEWDIN ATOMIC CHARGES
----------------------
   0 C :   -0.361887
   1 C :    0.049251
   2 O :   -0.136450
   3 C :   -0.167165
   4 C :   -0.208264
   5 C :   -0.223826
   6 C :   -0.227842
   7 C :   -0.223497
   8 C :   -0.219104
   9 H :    0.135044
  10 H :    0.134989
  11 H :    0.145665
  12 H :    0.127805
  13 H :    0.113852
  14 H :    0.123701
  15 H :    0.118859
  16 H :    0.117636
  17 H :    0.114087
  18 H :    0.118276
  19 H :    0.117727
  20 H :    0.116779
  21 H :    0.115349
  22 H :    0.119018

  Mayer bond orders larger than 0.100000
B(  0-C ,  1-C ) :   1.0795 B(  0-C ,  9-H ) :   0.9284 B(  0-C , 10-H ) :   0.9262
B(  0-C , 11-H ) :   0.9109 B(  1-C ,  2-O ) :   2.1957 B(  1-C ,  3-C ) :   0.9404
B(  3-C ,  4-C ) :   1.0760 B(  3-C ,  8-C ) :   1.0652 B(  3-C , 12-H ) :   0.8701
B(  4-C ,  5-C ) :   1.1361 B(  4-C , 13-H ) :   0.9062 B(  4-C , 14-H ) :   0.9125
B(  5-C ,  6-C ) :   1.1350 B(  5-C , 15-H ) :   0.9179 B(  5-C , 16-H ) :   0.9116
B(  6-C ,  7-C ) :   1.1360 B(  6-C , 17-H ) :   0.9151 B(  6-C , 18-H ) :   0.9191
B(  7-C ,  8-C ) :   1.1328 B(  7-C , 19-H ) :   0.9195 B(  7-C , 20-H ) :   0.9125
B(  8-C , 21-H ) :   0.8906 B(  8-C , 22-H ) :   0.9191

Dispersion correction           -0.022037815
FINAL SINGLE POINT ENERGY      -387.608586068134

DIPOLE MOMENT
-------------

Method             : SCF
Type of density    : Electron Density
Multiplicity       :   1
Irrep              :   0
Energy             :  -387.6861555080847097 Eh
Relativity type    :
Basis              : AO
                                X                 Y                 Z
Electronic contribution:     -6.566227764       1.813427895       3.067173330
Nuclear contribution   :      7.400914506      -2.271632600      -3.655992501
                        -----------------------------------------
Total Dipole Moment    :      0.834686742      -0.458204704      -0.588819171
                        -----------------------------------------
Magnitude (a.u.)       :      1.119536299
Magnitude (Debye)      :      2.845635125

Rotational constants in cm-1:             0.102164             0.035256             0.031262
Rotational constants in MHz :          3062.789454          1056.934988           937.217319

                             ****ORCA TERMINATED NORMALLY****
TOTAL RUN TIME: 0 days 0 hours 0 minutes 10 seconds 58 msec
