                         Program Version 6.0.0  -   RELEASE  -
|  1> ! pbe def2-sv(p) def2/J RI DEFGRID1 loosescf d4 GCP(DFT/SV(P)) printgap
|  2> %output
|  3>     printlevel normal
|  4> end
|  5> * xyz 0 1
|  6> C -1.8117312568 -1.0533425331 -0.6805734502
|  7> C -1.0480819864 -0.4902700628 0.528205111
|  8> H -1.7136992037 -0.5773093512 1.3955526974
|  9> C -0.7131540921 1.0009962049 0.3620803653
| 10> H -1.5606815673 1.4779725108 -0.1409113764
| 11> C 0.5707888203 1.2447512449 -0.4672315886
| 12> H 0.8276427794 2.3047210453 -0.3349214391
| 13> C 1.7103029557 0.3690680456 0.0814584294
| 14> H 2.5581556904 0.4108422401 -0.6161709016
| 15> C 1.2568345285 -1.1004432828 0.1440204158
| 16> H 2.0073799314 -1.6630576009 0.7180002239
| 17> O 0.0797252337 -1.2895357023 0.8781569341
| 18> O 1.1590896976 -1.568755961 -1.170054761
| 19> O 2.0969985959 0.7413943879 1.3814644481
| 20> O 0.3971913254 1.0573037848 -1.8489198223
| 21> O -0.5980887178 1.6369002068 1.6136107183
| 22> O -3.094509038 -0.468575013 -0.6780883993
| 23> H -1.8806341925 -2.1423692098 -0.5567430696
| 24> H -1.2853120915 -0.8234005258 -1.6118741984
| 25> H 1.0576309247 -2.5323326758 -1.1782371316
| 26> H 2.602086668 1.5670341576 1.3474121921
| 27> H 0.5917000932 0.1307824051 -2.0678142403
| 28> H 0.1565345099 1.2436366461 2.0854590147
| 29> H -3.584646664 -0.7740727367 -1.4544349033
| 30> *
| 31>
| 32>                          ****END OF INPUT****

CARTESIAN COORDINATES (ANGSTROEM)
---------------------------------
  C     -1.811731   -1.053343   -0.680573
  C     -1.048082   -0.490270    0.528205
  H     -1.713699   -0.577309    1.395553
  C     -0.713154    1.000996    0.362080
  H     -1.560682    1.477973   -0.140911
  C      0.570789    1.244751   -0.467232
  H      0.827643    2.304721   -0.334921
  C      1.710303    0.369068    0.081458
  H      2.558156    0.410842   -0.616171
  C      1.256835   -1.100443    0.144020
  H      2.007380   -1.663058    0.718000
  O      0.079725   -1.289536    0.878157
  O      1.159090   -1.568756   -1.170055
  O      2.096999    0.741394    1.381464
  O      0.397191    1.057304   -1.848920
  O     -0.598089    1.636900    1.613611
  O     -3.094509   -0.468575   -0.678088
  H     -1.880634   -2.142369   -0.556743
  H     -1.285312   -0.823401   -1.611874
  H      1.057631   -2.532333   -1.178237
  H      2.602087    1.567034    1.347412
  H      0.591700    0.130782   -2.067814
  H      0.156535    1.243637    2.085459
  H     -3.584647   -0.774073   -1.454435

 Total Charge           Charge          ....    0
 Multiplicity           Mult            ....    1
 Number of Electrons    NEL             ....   96
 Basis Dimension        Dim             ....  192

ORBITAL ENERGIES
----------------

  NO   OCC          E(Eh)            E(eV)
   0   2.0000     -18.790591      -511.3180
   1   2.0000     -18.778142      -510.9792
   2   2.0000     -18.770493      -510.7711
   3   2.0000     -18.748292      -510.1669
   4   2.0000     -18.743684      -510.0416
   5   2.0000     -18.728872      -509.6385
   6   2.0000      -9.998302      -272.0676
   7   2.0000      -9.954120      -270.8654
   8   2.0000      -9.937112      -270.4026
   9   2.0000      -9.935458      -270.3576
  10   2.0000      -9.928884      -270.1787
  11   2.0000      -9.925680      -270.0915
  12   2.0000      -0.993996       -27.0480
  13   2.0000      -0.953199       -25.9379
  14   2.0000      -0.930238       -25.3131
  15   2.0000      -0.923115       -25.1192
  16   2.0000      -0.920310       -25.0429
  17   2.0000      -0.903941       -24.5975
  18   2.0000      -0.700042       -19.0491
  19   2.0000      -0.690575       -18.7915
  20   2.0000      -0.621345       -16.9076
  21   2.0000      -0.583107       -15.8672
  22   2.0000      -0.570086       -15.5128
  23   2.0000      -0.539491       -14.6803
  24   2.0000      -0.503195       -13.6926
  25   2.0000      -0.485576       -13.2132
  26   2.0000      -0.474257       -12.9052
  27   2.0000      -0.458503       -12.4765
  28   2.0000      -0.438158       -11.9229
  29   2.0000      -0.431975       -11.7547
  30   2.0000      -0.414733       -11.2854
  31   2.0000      -0.395993       -10.7755
  32   2.0000      -0.383381       -10.4323
  33   2.0000      -0.378229       -10.2921
  34   2.0000      -0.368745       -10.0341
  35   2.0000      -0.341502        -9.2928
  36   2.0000      -0.331093        -9.0095
  37   2.0000      -0.328870        -8.9490
  38   2.0000      -0.311129        -8.4662
  39   2.0000      -0.292926        -7.9709
  40   2.0000      -0.277070        -7.5395
  41   2.0000      -0.267668        -7.2836
  42   2.0000      -0.261691        -7.1210
  43   2.0000      -0.244136        -6.6433
  44   2.0000      -0.239671        -6.5218
  45   2.0000      -0.217538        -5.9195
  46   2.0000      -0.215231        -5.8567
  47   2.0000      -0.189688        -5.1617
  48   0.0000      -0.000129        -0.0035
  49   0.0000       0.013130         0.3573
  50   0.0000       0.025928         0.7055
  51   0.0000       0.058924         1.6034
  52   0.0000       0.075369         2.0509

MULLIKEN ATOMIC CHARGES
-----------------------
   0 C :    0.022479
   1 C :    0.033976
   2 H :    0.085815
   3 C :    0.086085
   4 H :    0.087317
   5 C :    0.049948
   6 H :    0.064520
   7 C :   -0.034871
   8 H :    0.085647
   9 C :    0.199670
  10 H :    0.075834
  11 O :   -0.308242
  12 O :   -0.410935
  13 O :   -0.410976
  14 O :   -0.420555
  15 O :   -0.437712
  16 O :   -0.430968
  17 H :    0.061513
  18 H :    0.053480
  19 H :    0.317454
  20 H :    0.316338
  21 H :    0.315784
  22 H :    0.294776
  23 H :    0.303625
Sum of atomic charges:    0.0000000

LOEWDIN ATOMIC CHARGES
----------------------
   0 C :   -0.143189
   1 C :   -0.065122
   2 H :    0.125307
   3 C :   -0.070502
   4 H :    0.125509
   5 C :   -0.077786
   6 H :    0.108972
   7 C :   -0.092320
   8 H :    0.110788
   9 C :   -0.001449
  10 H :    0.105454
  11 O :   -0.138107
  12 O :   -0.307017
  13 O :   -0.302414
  14 O :   -0.319584
  15 O :   -0.324632
  16 O :   -0.337913
  17 H :    0.091850
  18 H :    0.091018
  19 H :    0.295857
  20 H :    0.296600
  21 H :    0.271464
  22 H :    0.268250
  23 H :    0.288966

  Mayer bond orders larger than 0.100000
B(  0-C ,  1-C ) :   1.0558 B(  0-C , 16-O ) :   1.0770 B(  0-C , 17-H ) :   0.9072
B(  0-C , 18-H ) :   0.8967 B(  1-C ,  2-H ) :   0.8894 B(  1-C ,  3-C ) :   1.0134
B(  1-C , 11-O ) :   0.9795 B(  3-C ,  4-H ) :   0.8820 B(  3-C ,  5-C ) :   0.9468
B(  3-C , 15-O ) :   1.0340 B(  5-C ,  6-H ) :   0.9023 B(  5-C ,  7-C ) :   0.9899
B(  5-C , 14-O ) :   1.0806 B(  7-C ,  8-H ) :   0.8966 B(  7-C ,  9-C ) :   0.9934
B(  7-C , 13-O ) :   1.0495 B(  9-C , 10-H ) :   0.9030 B(  9-C , 11-O ) :   1.0938
B(  9-C , 12-O ) :   1.0820 B( 12-O , 19-H ) :   0.8308 B( 13-O , 20-H ) :   0.8395
B( 14-O , 21-H ) :   0.8003 B( 15-O , 22-H ) :   0.8211 B( 16-O , 23-H ) :   0.8493

Dispersion correction           -0.025873868
FINAL SINGLE POINT ENERGY      -685.696160760313

DIPOLE MOMENT
-------------

Method             : SCF
Type of density    : Electron Density
Multiplicity       :   1
Irrep              :   0
Energy             :  -685.8285837330537333 Eh
Relativity type    :
Basis              : AO
                                X                 Y                 Z
Electronic contribution:      1.136469723       0.211562793       1.610478841
Nuclear contribution   :     -0.209404318      -1.290768345      -2.262773703
                        -----------------------------------------
Total Dipole Moment    :      0.927065406      -1.079205553      -0.652294862
                        -----------------------------------------
Magnitude (a.u.)       :      1.565127304
Magnitude (Debye)      :      3.978237452

Rotational constants in cm-1:             0.040996             0.028397             0.024627
Rotational constants in MHz :          1229.031190           851.306624           738.287614

                             ****ORCA TERMINATED NORMALLY****
TOTAL RUN TIME: 0 days 0 hours 0 minutes 12 seconds 333 msec
