                         Program Version 6.0.0  -   RELEASE  -
|  1> ! r2scan-3c def2/J RI DEFGRID2 scfconv6 printgap
|  2> %output
|  3>     printlevel normal
|  4> end
|  5> * xyz 0 1
|  6> C -2.3806606515 -1.1392707134 -0.3799963095
|  7> C -1.0789593681 -0.6196126558 0.2393851642
|  8> H -1.1624029053 -0.6297924532 1.3387611943
|  9> C -0.790198047 0.8337604837 -0.1870251015
| 10> H -0.9006801683 0.9277791875 -1.2789677559
| 11> C 0.644457117 1.2486976421 0.1670889094
| 12> H 0.6957414513 1.4069821642 1.2553879384
| 13> C 1.6592038918 0.164964223 -0.2157906271
| 14> H 1.7082759383 0.0924432475 -1.3128462234
| 15> C 1.2055793169 -1.1988150446 0.3203965019
| 16> H 1.1715674817 -1.1554970525 1.4300363079
| 17> O -0.0725636674 -1.5204754366 -0.1740015569
| 18> O 2.0993982851 -2.1547727957 -0.1184964796
| 19> O 2.9024929082 0.5403608836 0.3182834112
| 20> O 0.9257683302 2.4461528988 -0.5109394382
| 21> O -1.6528747112 1.721699233 0.4749107151
| 22> O -3.4567068882 -0.3484009953 0.064491218
| 23> H -2.5020312157 -2.1854584088 -0.0770510957
| 24> H -2.2790482116 -1.0968627155 -1.4712848201
| 25> H 1.7297682078 -3.0407251364 0.020808883
| 26> H 3.5519367873 -0.150313699 0.1178173776
| 27> H 1.8255187815 2.722544176 -0.2796406428
| 28> H -2.5651167037 1.3966708995 0.369930795
| 29> H -4.282460443 -0.6902744745 -0.3074359935
| 30> *
| 31>
| 32>                          ****END OF INPUT****

CARTESIAN COORDINATES (ANGSTROEM)
---------------------------------
  C     -2.380661   -1.139271   -0.379996
  C     -1.078959   -0.619613    0.239385
  H     -1.162403   -0.629792    1.338761
  C     -0.790198    0.833760   -0.187025
  H     -0.900680    0.927779   -1.278968
  C      0.644457    1.248698    0.167089
  H      0.695741    1.406982    1.255388
  C      1.659204    0.164964   -0.215791
  H      1.708276    0.092443   -1.312846
  C      1.205579   -1.198815    0.320397
  H      1.171567   -1.155497    1.430036
  O     -0.072564   -1.520475   -0.174002
  O      2.099398   -2.154773   -0.118496
  O      2.902493    0.540361    0.318283
  O      0.925768    2.446153   -0.510939
  O     -1.652875    1.721699    0.474911
  O     -3.456707   -0.348401    0.064491
  H     -2.502031   -2.185458   -0.077051
  H     -2.279048   -1.096863   -1.471285
  H      1.729768   -3.040725    0.020809
  H      3.551937   -0.150314    0.117817
  H      1.825519    2.722544   -0.279641
  H     -2.565117    1.396671    0.369931
  H     -4.282460   -0.690274   -0.307436

 Total Charge           Charge          ....    0
 Multiplicity           Mult            ....    1
 Number of Electrons    NEL             ....   96
 Basis Dimension        Dim             ....  318

ORBITAL ENERGIES
----------------

  NO   OCC          E(Eh)            E(eV)
   0   2.0000     -18.982447      -516.5386
   1   2.0000     -18.976725      -516.3829
   2   2.0000     -18.976053      -516.3646
   3   2.0000     -18.961415      -515.9663
   4   2.0000     -18.944058      -515.4940
   5   2.0000     -18.937790      -515.3235
   6   2.0000     -10.141518      -275.9647
   7   2.0000     -10.097898      -274.7778
   8   2.0000     -10.097343      -274.7627
   9   2.0000     -10.085251      -274.4336
  10   2.0000     -10.083906      -274.3970
  11   2.0000     -10.083028      -274.3732
  12   2.0000      -1.058321       -28.7984
  13   2.0000      -1.020617       -27.7724
  14   2.0000      -1.005577       -27.3631
  15   2.0000      -0.995629       -27.0924
  16   2.0000      -0.983656       -26.7666
  17   2.0000      -0.971704       -26.4414
  18   2.0000      -0.747971       -20.3533
  19   2.0000      -0.741124       -20.1670
  20   2.0000      -0.663554       -18.0562
  21   2.0000      -0.611516       -16.6402
  22   2.0000      -0.594084       -16.1659
  23   2.0000      -0.549914       -14.9639
  24   2.0000      -0.535740       -14.5782
  25   2.0000      -0.512468       -13.9450
  26   2.0000      -0.496260       -13.5039
  27   2.0000      -0.486172       -13.2294
  28   2.0000      -0.477452       -12.9921
  29   2.0000      -0.469952       -12.7880
  30   2.0000      -0.431967       -11.7544
  31   2.0000      -0.420395       -11.4395
  32   2.0000      -0.416357       -11.3297
  33   2.0000      -0.383904       -10.4466
  34   2.0000      -0.378678       -10.3043
  35   2.0000      -0.370749       -10.0886
  36   2.0000      -0.356380        -9.6976
  37   2.0000      -0.354645        -9.6504
  38   2.0000      -0.332897        -9.0586
  39   2.0000      -0.322884        -8.7861
  40   2.0000      -0.303411        -8.2562
  41   2.0000      -0.285897        -7.7797
  42   2.0000      -0.277624        -7.5545
  43   2.0000      -0.265178        -7.2159
  44   2.0000      -0.260603        -7.0914
  45   2.0000      -0.239799        -6.5253
  46   2.0000      -0.236725        -6.4416
  47   2.0000      -0.219257        -5.9663
  48   0.0000       0.021934         0.5969
  49   0.0000       0.044036         1.1983
  50   0.0000       0.060209         1.6384
  51   0.0000       0.086970         2.3666
  52   0.0000       0.092805         2.5254

MULLIKEN ATOMIC CHARGES
-----------------------
   0 C :   -0.204499
   1 C :   -0.083714
   2 H :    0.178015
   3 C :   -0.003557
   4 H :    0.172635
   5 C :   -0.077002
   6 H :    0.171291
   7 C :    0.051437
   8 H :    0.170895
   9 C :   -0.030218
  10 H :    0.140552
  11 O :   -0.201062
  12 O :   -0.399881
  13 O :   -0.441641
  14 O :   -0.418431
  15 O :   -0.424456
  16 O :   -0.425217
  17 H :    0.136094
  18 H :    0.138866
  19 H :    0.308420
  20 H :    0.312697
  21 H :    0.310923
  22 H :    0.310986
  23 H :    0.306866
Sum of atomic charges:   -0.0000000

LOEWDIN ATOMIC CHARGES
----------------------
   0 C :    0.056111
   1 C :    0.124895
   2 H :    0.187917
   3 C :    0.118089
   4 H :    0.185042
   5 C :    0.121419
   6 H :    0.190707
   7 C :    0.117805
   8 H :    0.189042
   9 C :    0.296634
  10 H :    0.179574
  11 O :   -0.690033
  12 O :   -0.503628
  13 O :   -0.572215
  14 O :   -0.557657
  15 O :   -0.572429
  16 O :   -0.623651
  17 H :    0.170778
  18 H :    0.169932
  19 H :    0.285210
  20 H :    0.282641
  21 H :    0.280598
  22 H :    0.286402
  23 H :    0.276816

  Mayer bond orders larger than 0.100000
B(  0-C ,  1-C ) :   0.9781 B(  0-C , 16-O ) :   0.9763 B(  0-C , 17-H ) :   0.9557
B(  0-C , 18-H ) :   0.9747 B(  1-C ,  2-H ) :   0.9596 B(  1-C ,  3-C ) :   0.7866
B(  1-C , 11-O ) :   0.8143 B(  3-C ,  4-H ) :   0.9727 B(  3-C ,  5-C ) :   0.9437
B(  3-C , 15-O ) :   0.8708 B(  5-C ,  6-H ) :   1.0001 B(  5-C ,  7-C ) :   0.8362
B(  5-C , 14-O ) :   0.9260 B(  7-C ,  8-H ) :   0.9795 B(  7-C ,  9-C ) :   0.8132
B(  7-C , 13-O ) :   0.9158 B(  9-C , 10-H ) :   0.9951 B(  9-C , 11-O ) :   0.9091
B(  9-C , 12-O ) :   1.0447 B( 12-O , 19-H ) :   0.8795 B( 13-O , 20-H ) :   0.8814
B( 14-O , 21-H ) :   0.8792 B( 15-O , 22-H ) :   0.8514 B( 16-O , 23-H ) :   0.8915

Dispersion correction           -0.007946264
FINAL SINGLE POINT ENERGY      -687.073388685783

DIPOLE MOMENT
-------------

Method             : SCF
Type of density    : Electron Density
Multiplicity       :   1
Irrep              :   0
Energy             :  -687.0853440643188605 Eh
Relativity type    :
Basis              : AO
                                X                 Y                 Z
Electronic contribution:      2.249446201       0.652549236       0.067370121
Nuclear contribution   :     -2.811844736      -2.243816246      -0.181655456
                        -----------------------------------------
Total Dipole Moment    :     -0.562398535      -1.591267010      -0.114285335
                        -----------------------------------------
Magnitude (a.u.)       :      1.691592134
Magnitude (Debye)      :      4.299685503

Rotational constants in cm-1:             0.044094             0.024492             0.016566
Rotational constants in MHz :          1321.901241           734.260831           496.623968

                             ****ORCA TERMINATED NORMALLY****
TOTAL RUN TIME: 0 days 0 hours 0 minutes 47 seconds 557 msec
