                         Program Version 6.0.0  -   RELEASE  -
|  1> ! r2scan-3c def2/J RI DEFGRID2 scfconv6 printgap
|  2> %output
|  3>     printlevel normal
|  4> end
|  5> %cpcm
|  6>     smd true
|  7>     smdsolvent "water"
|  8> end
|  9> * xyz 0 1
| 10> C -2.3806606515 -1.1392707134 -0.3799963095
| 11> C -1.0789593681 -0.6196126558 0.2393851642
| 12> H -1.1624029053 -0.6297924532 1.3387611943
| 13> C -0.790198047 0.8337604837 -0.1870251015
| 14> H -0.9006801683 0.9277791875 -1.2789677559
| 15> C 0.644457117 1.2486976421 0.1670889094
| 16> H 0.6957414513 1.4069821642 1.2553879384
| 17> C 1.6592038918 0.164964223 -0.2157906271
| 18> H 1.7082759383 0.0924432475 -1.3128462234
| 19> C 1.2055793169 -1.1988150446 0.3203965019
| 20> H 1.1715674817 -1.1554970525 1.4300363079
| 21> O -0.0725636674 -1.5204754366 -0.1740015569
| 22> O 2.0993982851 -2.1547727957 -0.1184964796
| 23> O 2.9024929082 0.5403608836 0.3182834112
| 24> O 0.9257683302 2.4461528988 -0.5109394382
| 25> O -1.6528747112 1.721699233 0.4749107151
| 26> O -3.4567068882 -0.3484009953 0.064491218
| 27> H -2.5020312157 -2.1854584088 -0.0770510957
| 28> H -2.2790482116 -1.0968627155 -1.4712848201
| 29> H 1.7297682078 -3.0407251364 0.020808883
| 30> H 3.5519367873 -0.150313699 0.1178173776
| 31> H 1.8255187815 2.722544176 -0.2796406428
| 32> H -2.5651167037 1.3966708995 0.369930795
| 33> H -4.282460443 -0.6902744745 -0.3074359935
| 34> *
| 35>
| 36>                          ****END OF INPUT****

CARTESIAN COORDINATES (ANGSTROEM)
---------------------------------
  C     -2.380661   -1.139271   -0.379996
  C     -1.078959   -0.619613    0.239385
  H     -1.162403   -0.629792    1.338761
  C     -0.790198    0.833760   -0.187025
  H     -0.900680    0.927779   -1.278968
  C      0.644457    1.248698    0.167089
  H      0.695741    1.406982    1.255388
  C      1.659204    0.164964   -0.215791
  H      1.708276    0.092443   -1.312846
  C      1.205579   -1.198815    0.320397
  H      1.171567   -1.155497    1.430036
  O     -0.072564   -1.520475   -0.174002
  O      2.099398   -2.154773   -0.118496
  O      2.902493    0.540361    0.318283
  O      0.925768    2.446153   -0.510939
  O     -1.652875    1.721699    0.474911
  O     -3.456707   -0.348401    0.064491
  H     -2.502031   -2.185458   -0.077051
  H     -2.279048   -1.096863   -1.471285
  H      1.729768   -3.040725    0.020809
  H      3.551937   -0.150314    0.117817
  H      1.825519    2.722544   -0.279641
  H     -2.565117    1.396671    0.369931
  H     -4.282460   -0.690274   -0.307436

 Total Charge           Charge          ....    0
 Multiplicity           Mult            ....    1
 Number of Electrons    NEL             ....   96
 Basis Dimension        Dim             ....  318

ORBITAL ENERGIES
----------------

  NO   OCC          E(Eh)            E(eV)
   0   2.0000     -18.976497      -516.3767
   1   2.0000     -18.969998      -516.1999
   2   2.0000     -18.965531      -516.0783
   3   2.0000     -18.963607      -516.0260
   4   2.0000     -18.959340      -515.9099
   5   2.0000     -18.954739      -515.7847
   6   2.0000     -10.136534      -275.8291
   7   2.0000     -10.091796      -274.6117
   8   2.0000     -10.088250      -274.5152
   9   2.0000     -10.087652      -274.4990
  10   2.0000     -10.085851      -274.4500
  11   2.0000     -10.080734      -274.3107
  12   2.0000      -1.055281       -28.7157
  13   2.0000      -1.012896       -27.5623
  14   2.0000      -1.008002       -27.4291
  15   2.0000      -0.995776       -27.0964
  16   2.0000      -0.985894       -26.8275
  17   2.0000      -0.983951       -26.7747
  18   2.0000      -0.747469       -20.3397
  19   2.0000      -0.738140       -20.0858
  20   2.0000      -0.658571       -17.9206
  21   2.0000      -0.611581       -16.6420
  22   2.0000      -0.589239       -16.0340
  23   2.0000      -0.548895       -14.9362
  24   2.0000      -0.530252       -14.4289
  25   2.0000      -0.510788       -13.8993
  26   2.0000      -0.493103       -13.4180
  27   2.0000      -0.486136       -13.2284
  28   2.0000      -0.478971       -13.0335
  29   2.0000      -0.462577       -12.5874
  30   2.0000      -0.429890       -11.6979
  31   2.0000      -0.417431       -11.3589
  32   2.0000      -0.410564       -11.1720
  33   2.0000      -0.391002       -10.6397
  34   2.0000      -0.384561       -10.4644
  35   2.0000      -0.368472       -10.0266
  36   2.0000      -0.362969        -9.8769
  37   2.0000      -0.349200        -9.5022
  38   2.0000      -0.338393        -9.2081
  39   2.0000      -0.327462        -8.9107
  40   2.0000      -0.310537        -8.4501
  41   2.0000      -0.285806        -7.7772
  42   2.0000      -0.277148        -7.5416
  43   2.0000      -0.268803        -7.3145
  44   2.0000      -0.252853        -6.8805
  45   2.0000      -0.250341        -6.8121
  46   2.0000      -0.246181        -6.6989
  47   2.0000      -0.225375        -6.1328
  48   0.0000       0.035404         0.9634
  49   0.0000       0.057878         1.5749
  50   0.0000       0.080984         2.2037
  51   0.0000       0.091731         2.4961
  52   0.0000       0.099127         2.6974

MULLIKEN ATOMIC CHARGES
-----------------------
   0 C :   -0.213886
   1 C :   -0.091402
   2 H :    0.202898
   3 C :    0.002740
   4 H :    0.186580
   5 C :   -0.032713
   6 H :    0.179190
   7 C :    0.038816
   8 H :    0.184745
   9 C :   -0.042223
  10 H :    0.167686
  11 O :   -0.240042
  12 O :   -0.451829
  13 O :   -0.495624
  14 O :   -0.494171
  15 O :   -0.501683
  16 O :   -0.481763
  17 H :    0.156001
  18 H :    0.157134
  19 H :    0.358931
  20 H :    0.354090
  21 H :    0.353707
  22 H :    0.346552
  23 H :    0.356266
Sum of atomic charges:   -0.0000000

LOEWDIN ATOMIC CHARGES
----------------------
   0 C :    0.059840
   1 C :    0.126543
   2 H :    0.195430
   3 C :    0.115673
   4 H :    0.192541
   5 C :    0.117770
   6 H :    0.196777
   7 C :    0.118360
   8 H :    0.193988
   9 C :    0.299872
  10 H :    0.191407
  11 O :   -0.701896
  12 O :   -0.517607
  13 O :   -0.589499
  14 O :   -0.594335
  15 O :   -0.612146
  16 O :   -0.633223
  17 H :    0.178563
  18 H :    0.176763
  19 H :    0.302926
  20 H :    0.296723
  21 H :    0.295086
  22 H :    0.294720
  23 H :    0.295722

  Mayer bond orders larger than 0.100000
B(  0-C ,  1-C ) :   0.9499 B(  0-C , 16-O ) :   0.9713 B(  0-C , 17-H ) :   0.9575
B(  0-C , 18-H ) :   0.9717 B(  1-C ,  2-H ) :   0.9587 B(  1-C ,  3-C ) :   0.8032
B(  1-C , 11-O ) :   0.8176 B(  3-C ,  4-H ) :   0.9554 B(  3-C ,  5-C ) :   0.9340
B(  3-C , 15-O ) :   0.8469 B(  5-C ,  6-H ) :   0.9717 B(  5-C ,  7-C ) :   0.8817
B(  5-C , 14-O ) :   0.9018 B(  7-C ,  8-H ) :   0.9690 B(  7-C ,  9-C ) :   0.8269
B(  7-C , 13-O ) :   0.8972 B(  9-C , 10-H ) :   0.9937 B(  9-C , 11-O ) :   0.9133
B(  9-C , 12-O ) :   1.0453 B( 12-O , 19-H ) :   0.8539 B( 13-O , 20-H ) :   0.8603
B( 14-O , 21-H ) :   0.8586 B( 15-O , 22-H ) :   0.8339 B( 16-O , 23-H ) :   0.8641

Dispersion correction           -0.007946264
FINAL SINGLE POINT ENERGY      -687.107398762321

DIPOLE MOMENT
-------------

Method             : SCF
Type of density    : Electron Density
Multiplicity       :   1
Irrep              :   0
Energy             :  -687.1193541408563306 Eh
Relativity type    :
Basis              : AO
                                X                 Y                 Z
Electronic contribution:      2.139029801       0.027063831       0.080382235
Nuclear contribution   :     -2.811844736      -2.243816246      -0.181655456
                        -----------------------------------------
Total Dipole Moment    :     -0.672814935      -2.216752414      -0.101273220
                        -----------------------------------------
Magnitude (a.u.)       :      2.318820275
Magnitude (Debye)      :      5.893972738

Rotational constants in cm-1:             0.044094             0.024492             0.016566
Rotational constants in MHz :          1321.901241           734.260831           496.623968

                             ****ORCA TERMINATED NORMALLY****
TOTAL RUN TIME: 0 days 0 hours 0 minutes 56 seconds 863 msec
