                         Program Version 6.0.0  -   RELEASE  -
|  1> ! pbe def2-sv(p) def2/J RI DEFGRID1 loosescf d4 GCP(DFT/SV(P)) printgap
|  2> %output
|  3>     printlevel normal
|  4> end
|  5> * xyz 0 1
|  6> C -2.4149477099 -0.8671451795 0.3721349469
|  7> C -0.958402462 -0.443462337 0.5951606108
|  8> H -0.6952946757 -0.6112302112 1.6516409876
|  9> C -0.7428353725 1.050402558 0.2643211921
| 10> H -1.5415068438 1.3765338062 -0.412077865
| 11> C 0.6205897203 1.2557961531 -0.434216026
| 12> H 0.9359056844 2.2922545859 -0.2376211965
| 13> C 1.6692712015 0.328812335 0.1980211269
| 14> H 2.5993648035 0.4236032473 -0.3736519885
| 15> C 1.2193636362 -1.1482181691 0.0782411503
| 16> H 1.4012488007 -1.6381337833 1.0640361502
| 17> O -0.1478554632 -1.2745730771 -0.2203880515
| 18> O 1.953434969 -1.7642131483 -0.9149684059
| 19> O 1.8249104254 0.7214790214 1.5393405038
| 20> O 0.586971717 0.9930503176 -1.8102055946
| 21> O -0.8567584691 1.8543101432 1.4094516166
| 22> O -2.8392538524 -0.6449942443 -0.9469156229
| 23> H -3.0593150937 -0.2627176349 1.012800982
| 24> H -2.5204485594 -1.9256928409 0.6401467494
| 25> H 1.4745068374 -2.5465647402 -1.2299911954
| 26> H 2.6728342957 0.4090312794 1.8844613554
| 27> H 0.0229649606 1.6445110392 -2.2511990037
| 28> H -0.0844074631 1.6974962618 1.9767957239
| 29> H -2.2502698025 -1.1340940164 -1.5399687836
| 30> *
| 31>
| 32>                          ****END OF INPUT****

CARTESIAN COORDINATES (ANGSTROEM)
---------------------------------
  C     -2.414948   -0.867145    0.372135
  C     -0.958402   -0.443462    0.595161
  H     -0.695295   -0.611230    1.651641
  C     -0.742835    1.050403    0.264321
  H     -1.541507    1.376534   -0.412078
  C      0.620590    1.255796   -0.434216
  H      0.935906    2.292255   -0.237621
  C      1.669271    0.328812    0.198021
  H      2.599365    0.423603   -0.373652
  C      1.219364   -1.148218    0.078241
  H      1.401249   -1.638134    1.064036
  O     -0.147855   -1.274573   -0.220388
  O      1.953435   -1.764213   -0.914968
  O      1.824910    0.721479    1.539341
  O      0.586972    0.993050   -1.810206
  O     -0.856758    1.854310    1.409452
  O     -2.839254   -0.644994   -0.946916
  H     -3.059315   -0.262718    1.012801
  H     -2.520449   -1.925693    0.640147
  H      1.474507   -2.546565   -1.229991
  H      2.672834    0.409031    1.884461
  H      0.022965    1.644511   -2.251199
  H     -0.084407    1.697496    1.976796
  H     -2.250270   -1.134094   -1.539969

 Total Charge           Charge          ....    0
 Multiplicity           Mult            ....    1
 Number of Electrons    NEL             ....   96
 Basis Dimension        Dim             ....  192

ORBITAL ENERGIES
----------------

  NO   OCC          E(Eh)            E(eV)
   0   2.0000     -18.777388      -510.9587
   1   2.0000     -18.770614      -510.7744
   2   2.0000     -18.758992      -510.4581
   3   2.0000     -18.751894      -510.2650
   4   2.0000     -18.745476      -510.0903
   5   2.0000     -18.738926      -509.9121
   6   2.0000      -9.987741      -271.7803
   7   2.0000      -9.946797      -270.6661
   8   2.0000      -9.940928      -270.5064
   9   2.0000      -9.938713      -270.4461
  10   2.0000      -9.931103      -270.2391
  11   2.0000      -9.929633      -270.1990
  12   2.0000      -0.986135       -26.8341
  13   2.0000      -0.950849       -25.8739
  14   2.0000      -0.932577       -25.3767
  15   2.0000      -0.926728       -25.2175
  16   2.0000      -0.915615       -24.9152
  17   2.0000      -0.909760       -24.7558
  18   2.0000      -0.695033       -18.9128
  19   2.0000      -0.687868       -18.7178
  20   2.0000      -0.617980       -16.8161
  21   2.0000      -0.585851       -15.9418
  22   2.0000      -0.561229       -15.2718
  23   2.0000      -0.525675       -14.3044
  24   2.0000      -0.504306       -13.7229
  25   2.0000      -0.487140       -13.2557
  26   2.0000      -0.474450       -12.9104
  27   2.0000      -0.459088       -12.4924
  28   2.0000      -0.444457       -12.0943
  29   2.0000      -0.438018       -11.9191
  30   2.0000      -0.424534       -11.5522
  31   2.0000      -0.387012       -10.5311
  32   2.0000      -0.383782       -10.4432
  33   2.0000      -0.366976        -9.9859
  34   2.0000      -0.355822        -9.6824
  35   2.0000      -0.348845        -9.4926
  36   2.0000      -0.328632        -8.9425
  37   2.0000      -0.317455        -8.6384
  38   2.0000      -0.305835        -8.3222
  39   2.0000      -0.304101        -8.2750
  40   2.0000      -0.276982        -7.5371
  41   2.0000      -0.268118        -7.2959
  42   2.0000      -0.248259        -6.7555
  43   2.0000      -0.244271        -6.6469
  44   2.0000      -0.233259        -6.3473
  45   2.0000      -0.219465        -5.9719
  46   2.0000      -0.216679        -5.8961
  47   2.0000      -0.191756        -5.2179
  48   0.0000       0.005326         0.1449
  49   0.0000       0.025490         0.6936
  50   0.0000       0.040942         1.1141
  51   0.0000       0.048331         1.3151
  52   0.0000       0.055055         1.4981

MULLIKEN ATOMIC CHARGES
-----------------------
   0 C :    0.076119
   1 C :    0.001165
   2 H :    0.046699
   3 C :    0.065288
   4 H :    0.060120
   5 C :    0.034447
   6 H :    0.071277
   7 C :   -0.011332
   8 H :    0.090176
   9 C :    0.245180
  10 H :    0.028102
  11 O :   -0.324757
  12 O :   -0.383872
  13 O :   -0.428444
  14 O :   -0.406049
  15 O :   -0.430228
  16 O :   -0.436474
  17 H :    0.097409
  18 H :    0.075167
  19 H :    0.304170
  20 H :    0.317108
  21 H :    0.305135
  22 H :    0.303324
  23 H :    0.300271
Sum of atomic charges:   -0.0000000

LOEWDIN ATOMIC CHARGES
----------------------
   0 C :   -0.122302
   1 C :   -0.078843
   2 H :    0.102372
   3 C :   -0.077749
   4 H :    0.112683
   5 C :   -0.074454
   6 H :    0.104309
   7 C :   -0.082183
   8 H :    0.119373
   9 C :    0.005538
  10 H :    0.069827
  11 O :   -0.160861
  12 O :   -0.296941
  13 O :   -0.313334
  14 O :   -0.313169
  15 O :   -0.317832
  16 O :   -0.331388
  17 H :    0.122483
  18 H :    0.099766
  19 H :    0.288953
  20 H :    0.297040
  21 H :    0.289374
  22 H :    0.274606
  23 H :    0.282733

  Mayer bond orders larger than 0.100000
B(  0-C ,  1-C ) :   1.0467 B(  0-C , 16-O ) :   1.0631 B(  0-C , 17-H ) :   0.9209
B(  0-C , 18-H ) :   0.9123 B(  1-C ,  2-H ) :   0.8643 B(  1-C ,  3-C ) :   0.9722
B(  1-C , 11-O ) :   1.0121 B(  3-C ,  4-H ) :   0.8790 B(  3-C ,  5-C ) :   0.9704
B(  3-C , 15-O ) :   1.0445 B(  5-C ,  6-H ) :   0.8972 B(  5-C ,  7-C ) :   1.0346
B(  5-C , 14-O ) :   1.0754 B(  7-C ,  8-H ) :   0.8925 B(  7-C ,  9-C ) :   0.9161
B(  7-C , 13-O ) :   1.0432 B(  9-C , 10-H ) :   0.9071 B(  9-C , 11-O ) :   1.0227
B(  9-C , 12-O ) :   1.1762 B( 12-O , 19-H ) :   0.8383 B( 13-O , 20-H ) :   0.8415
B( 14-O , 21-H ) :   0.8463 B( 15-O , 22-H ) :   0.8264 B( 16-O , 23-H ) :   0.8431

Dispersion correction           -0.024989084
FINAL SINGLE POINT ENERGY      -685.690111546198

DIPOLE MOMENT
-------------

Method             : SCF
Type of density    : Electron Density
Multiplicity       :   1
Irrep              :   0
Energy             :  -685.8201966225763044 Eh
Relativity type    :
Basis              : AO
                                X                 Y                 Z
Electronic contribution:      1.817811400      -0.234008921      -1.759539740
Nuclear contribution   :     -0.972115866      -0.259702396       2.036270407
                        -----------------------------------------
Total Dipole Moment    :      0.845695534      -0.493711317       0.276730667
                        -----------------------------------------
Magnitude (a.u.)       :      1.017610762
Magnitude (Debye)      :      2.586561000

Rotational constants in cm-1:             0.039016             0.028317             0.023003
Rotational constants in MHz :          1169.678378           848.910469           689.626044

                             ****ORCA TERMINATED NORMALLY****
TOTAL RUN TIME: 0 days 0 hours 0 minutes 12 seconds 40 msec
