                         Program Version 6.0.0  -   RELEASE  -
|  1> ! pbe def2-sv(p) def2/J RI DEFGRID1 loosescf d4 GCP(DFT/SV(P)) printgap
|  2> %output
|  3>     printlevel normal
|  4> end
|  5> * xyz 0 1
|  6> C -2.3011123197 -0.8720732179 0.7116698105
|  7> C -0.8531766657 -0.3765564974 0.7836395077
|  8> H -0.6262766904 -0.0920568816 1.8227353764
|  9> C -0.6483468566 0.8436665113 -0.1319640216
| 10> H -0.9271483055 0.5513826326 -1.1500411701
| 11> C 0.8253558104 1.3093747267 -0.1228600781
| 12> H 0.922868482 2.1417225243 0.5844171595
| 13> C 1.7755915768 0.1738321421 0.3247566906
| 14> H 2.7408002039 0.3255269548 -0.1760094962
| 15> C 1.2096799585 -1.1639577247 -0.1640835886
| 16> H 1.8801727116 -1.9846115981 0.136878993
| 17> O -0.0176309873 -1.4742460809 0.4273279985
| 18> O 1.1187423584 -1.081442684 -1.5566891207
| 19> O 1.926027978 0.0983296833 1.7188710463
| 20> O 1.2238472335 1.8376674413 -1.3613488772
| 21> O -1.5312282535 1.882257549 0.2078117624
| 22> O -2.6140007857 -1.1920732492 -0.6240252722
| 23> H -2.9544936123 -0.0754044935 1.0851284567
| 24> H -2.3853576476 -1.7576427973 1.3525086613
| 25> H 0.718056661 -1.8934108777 -1.9029151355
| 26> H 2.5099168806 0.8087117454 2.0231353873
| 27> H 1.1866292347 1.1316478906 -2.0254489976
| 28> H -1.305080837 2.2320008589 1.0823444087
| 29> H -3.5341154465 -1.4854239332 -0.6709973728
| 30> *
| 31>
| 32>                          ****END OF INPUT****

CARTESIAN COORDINATES (ANGSTROEM)
---------------------------------
  C     -2.301112   -0.872073    0.711670
  C     -0.853177   -0.376556    0.783640
  H     -0.626277   -0.092057    1.822735
  C     -0.648347    0.843667   -0.131964
  H     -0.927148    0.551383   -1.150041
  C      0.825356    1.309375   -0.122860
  H      0.922868    2.141723    0.584417
  C      1.775592    0.173832    0.324757
  H      2.740800    0.325527   -0.176009
  C      1.209680   -1.163958   -0.164084
  H      1.880173   -1.984612    0.136879
  O     -0.017631   -1.474246    0.427328
  O      1.118742   -1.081443   -1.556689
  O      1.926028    0.098330    1.718871
  O      1.223847    1.837667   -1.361349
  O     -1.531228    1.882258    0.207812
  O     -2.614001   -1.192073   -0.624025
  H     -2.954494   -0.075404    1.085128
  H     -2.385358   -1.757643    1.352509
  H      0.718057   -1.893411   -1.902915
  H      2.509917    0.808712    2.023135
  H      1.186629    1.131648   -2.025449
  H     -1.305081    2.232001    1.082344
  H     -3.534115   -1.485424   -0.670997

 Total Charge           Charge          ....    0
 Multiplicity           Mult            ....    1
 Number of Electrons    NEL             ....   96
 Basis Dimension        Dim             ....  192

ORBITAL ENERGIES
----------------

  NO   OCC          E(Eh)            E(eV)
   0   2.0000     -18.768692      -510.7221
   1   2.0000     -18.761981      -510.5394
   2   2.0000     -18.760775      -510.5066
   3   2.0000     -18.746287      -510.1124
   4   2.0000     -18.745101      -510.0801
   5   2.0000     -18.733657      -509.7687
   6   2.0000      -9.984912      -271.7033
   7   2.0000      -9.941340      -270.5176
   8   2.0000      -9.935884      -270.3691
   9   2.0000      -9.934633      -270.3351
  10   2.0000      -9.929900      -270.2063
  11   2.0000      -9.926657      -270.1181
  12   2.0000      -0.980416       -26.6785
  13   2.0000      -0.937606       -25.5136
  14   2.0000      -0.929550       -25.2943
  15   2.0000      -0.922140       -25.0927
  16   2.0000      -0.911044       -24.7908
  17   2.0000      -0.905568       -24.6418
  18   2.0000      -0.693533       -18.8720
  19   2.0000      -0.688221       -18.7274
  20   2.0000      -0.618320       -16.8253
  21   2.0000      -0.579968       -15.7817
  22   2.0000      -0.558614       -15.2007
  23   2.0000      -0.522981       -14.2310
  24   2.0000      -0.503126       -13.6908
  25   2.0000      -0.482101       -13.1186
  26   2.0000      -0.464298       -12.6342
  27   2.0000      -0.462457       -12.5841
  28   2.0000      -0.436097       -11.8668
  29   2.0000      -0.427226       -11.6254
  30   2.0000      -0.410020       -11.1572
  31   2.0000      -0.386317       -10.5122
  32   2.0000      -0.377555       -10.2738
  33   2.0000      -0.369323       -10.0498
  34   2.0000      -0.357143        -9.7183
  35   2.0000      -0.343569        -9.3490
  36   2.0000      -0.341821        -9.3014
  37   2.0000      -0.310840        -8.4584
  38   2.0000      -0.294426        -8.0117
  39   2.0000      -0.284089        -7.7305
  40   2.0000      -0.277273        -7.5450
  41   2.0000      -0.264827        -7.2063
  42   2.0000      -0.249319        -6.7843
  43   2.0000      -0.243611        -6.6290
  44   2.0000      -0.225477        -6.1355
  45   2.0000      -0.213808        -5.8180
  46   2.0000      -0.210664        -5.7325
  47   2.0000      -0.191708        -5.2166
  48   0.0000       0.013455         0.3661
  49   0.0000       0.026686         0.7262
  50   0.0000       0.030658         0.8342
  51   0.0000       0.036938         1.0051
  52   0.0000       0.072154         1.9634

MULLIKEN ATOMIC CHARGES
-----------------------
   0 C :    0.081047
   1 C :    0.034025
   2 H :    0.049170
   3 C :    0.051575
   4 H :    0.065337
   5 C :    0.131626
   6 H :    0.025034
   7 C :   -0.015503
   8 H :    0.075444
   9 C :    0.188980
  10 H :    0.064523
  11 O :   -0.309003
  12 O :   -0.407083
  13 O :   -0.412202
  14 O :   -0.430544
  15 O :   -0.414870
  16 O :   -0.438768
  17 H :    0.065647
  18 H :    0.076209
  19 H :    0.311950
  20 H :    0.308545
  21 H :    0.304007
  22 H :    0.292975
  23 H :    0.301879
Sum of atomic charges:    0.0000000

LOEWDIN ATOMIC CHARGES
----------------------
   0 C :   -0.126171
   1 C :   -0.069042
   2 H :    0.103818
   3 C :   -0.079273
   4 H :    0.122575
   5 C :   -0.072870
   6 H :    0.104485
   7 C :   -0.093910
   8 H :    0.110359
   9 C :    0.002121
  10 H :    0.098597
  11 O :   -0.137434
  12 O :   -0.315182
  13 O :   -0.312331
  14 O :   -0.317979
  15 O :   -0.304632
  16 O :   -0.340734
  17 H :    0.099631
  18 H :    0.100721
  19 H :    0.292132
  20 H :    0.291655
  21 H :    0.277263
  22 H :    0.277926
  23 H :    0.288275

  Mayer bond orders larger than 0.100000
B(  0-C ,  1-C ) :   1.0499 B(  0-C , 16-O ) :   1.0825 B(  0-C , 17-H ) :   0.9037
B(  0-C , 18-H ) :   0.9131 B(  1-C ,  2-H ) :   0.8701 B(  1-C ,  3-C ) :   1.0458
B(  1-C , 11-O ) :   0.9656 B(  3-C ,  4-H ) :   0.8402 B(  3-C ,  5-C ) :   1.0137
B(  3-C , 15-O ) :   1.0115 B(  5-C ,  6-H ) :   0.8637 B(  5-C ,  7-C ) :   0.9657
B(  5-C , 14-O ) :   1.0495 B(  7-C ,  8-H ) :   0.8857 B(  7-C ,  9-C ) :   1.0321
B(  7-C , 13-O ) :   1.0397 B(  9-C , 10-H ) :   0.8935 B(  9-C , 11-O ) :   1.0960
B(  9-C , 12-O ) :   1.1002 B( 12-O , 19-H ) :   0.8354 B( 13-O , 20-H ) :   0.8475
B( 14-O , 21-H ) :   0.8325 B( 15-O , 22-H ) :   0.8487 B( 16-O , 23-H ) :   0.8509

Dispersion correction           -0.025058979
FINAL SINGLE POINT ENERGY      -685.689291480395

DIPOLE MOMENT
-------------

Method             : SCF
Type of density    : Electron Density
Multiplicity       :   1
Irrep              :   0
Energy             :  -685.8190049337447363 Eh
Relativity type    :
Basis              : AO
                                X                 Y                 Z
Electronic contribution:      1.638060173      -0.367538157      -1.405291823
Nuclear contribution   :     -1.662773657      -0.090481664       2.010475979
                        -----------------------------------------
Total Dipole Moment    :     -0.024713484      -0.458019820       0.605184157
                        -----------------------------------------
Magnitude (a.u.)       :      0.759368669
Magnitude (Debye)      :      1.930161765

Rotational constants in cm-1:             0.040501             0.027262             0.023706
Rotational constants in MHz :          1214.191589           817.301738           710.682806

                             ****ORCA TERMINATED NORMALLY****
TOTAL RUN TIME: 0 days 0 hours 0 minutes 12 seconds 107 msec
