                         Program Version 6.0.0  -   RELEASE  -
|  1> ! wb97x-v def2-tzvp def2/J RIJCOSX DEFGRID2 scfconv7 GCP(DFT/TZ) printgap
|  2> %output
|  3>     printlevel normal
|  4> end
|  5> * xyz 0 1
|  6> C -2.3419408808627775 -1.0898539032798598 0.5118895398674465
|  7> N -1.6252650684776597 -0.10006717429135739 -0.2963946779536914
|  8> C -2.327909172206998 1.1817518464539727 -0.39027259721890245
|  9> C -0.2401835175442088 -0.041499995119245195 -0.13095849521010539
| 10> C 0.48456317841188407 -1.1336997890010438 0.39295612045761585
| 11> C 1.8706316827574376 -1.0895435806796587 0.49228907408835565
| 12> C 2.5885677800528426 0.03488066300732369 0.09154521142545882
| 13> C 1.8820411160895913 1.1261467723973537 -0.40874606746131775
| 14> C 0.4962183703667415 1.1001369803462904 -0.5152814343758039
| 15> H -3.4091883167909516 -1.0098476003755694 0.29804051075836646
| 16> H -2.188989191984679 -0.9406204967199876 1.5927339641234741
| 17> H -2.035959832644098 -2.1066822014321582 0.2534238742137173
| 18> H -2.165631346689988 1.8150702839689745 0.4957969743187152
| 19> H -3.3974383746218133 0.9887736144318064 -0.4879072400054703
| 20> H -2.0175426442010065 1.7384003568114939 -1.277637685731646
| 21> H -0.028491359057469693 -2.0278615906822783 0.7234227835197159
| 22> H 2.392752916454833 -1.9510866745227526 0.8984370883083708
| 23> H 3.6697410551537772 0.06360847588488425 0.1753326361915898
| 24> H 2.4130562423623716 2.0221407435251533 -0.7176495179816176
| 25> H -0.008009940565621817 1.9753779704892085 -0.9043462448290832
| 26> *
| 27>
| 28>                          ****END OF INPUT****

CARTESIAN COORDINATES (ANGSTROEM)
---------------------------------
  C     -2.341941   -1.089854    0.511890
  N     -1.625265   -0.100067   -0.296395
  C     -2.327909    1.181752   -0.390273
  C     -0.240184   -0.041500   -0.130958
  C      0.484563   -1.133700    0.392956
  C      1.870632   -1.089544    0.492289
  C      2.588568    0.034881    0.091545
  C      1.882041    1.126147   -0.408746
  C      0.496218    1.100137   -0.515281
  H     -3.409188   -1.009848    0.298041
  H     -2.188989   -0.940620    1.592734
  H     -2.035960   -2.106682    0.253424
  H     -2.165631    1.815070    0.495797
  H     -3.397438    0.988774   -0.487907
  H     -2.017543    1.738400   -1.277638
  H     -0.028491   -2.027862    0.723423
  H      2.392753   -1.951087    0.898437
  H      3.669741    0.063608    0.175333
  H      2.413056    2.022141   -0.717650
  H     -0.008010    1.975378   -0.904346

 Total Charge           Charge          ....    0
 Multiplicity           Mult            ....    1
 Number of Electrons    NEL             ....   66
 Basis Dimension        Dim             ....  345

ORBITAL ENERGIES
----------------

  NO   OCC          E(Eh)            E(eV)
   0   2.0000     -16.541904      -450.1281
   1   2.0000     -12.087218      -328.9099
   2   2.0000     -12.074525      -328.5645
   3   2.0000     -12.074154      -328.5544
   4   2.0000     -12.045486      -327.7743
   5   2.0000     -12.045253      -327.7680
   6   2.0000     -12.039258      -327.6049
   7   2.0000     -12.039000      -327.5978
   8   2.0000     -12.034315      -327.4704
   9   2.0000      -1.514322       -41.2068
  10   2.0000      -1.367388       -37.2085
  11   2.0000      -1.270335       -34.5676
  12   2.0000      -1.266689       -34.4684
  13   2.0000      -1.225561       -33.3492
  14   2.0000      -1.170096       -31.8399
  15   2.0000      -1.097154       -29.8551
  16   2.0000      -1.073211       -29.2035
  17   2.0000      -0.997023       -27.1304
  18   2.0000      -0.962764       -26.1982
  19   2.0000      -0.938306       -25.5326
  20   2.0000      -0.911413       -24.8008
  21   2.0000      -0.909090       -24.7376
  22   2.0000      -0.894440       -24.3390
  23   2.0000      -0.867994       -23.6193
  24   2.0000      -0.837527       -22.7903
  25   2.0000      -0.831880       -22.6366
  26   2.0000      -0.821587       -22.3565
  27   2.0000      -0.819008       -22.2863
  28   2.0000      -0.795630       -21.6502
  29   2.0000      -0.775300       -21.0970
  30   2.0000      -0.722356       -19.6563
  31   2.0000      -0.632225       -17.2037
  32   2.0000      -0.606263       -16.4973
  33   0.0000      -0.233436        -6.3521
  34   0.0000      -0.228829        -6.2268
  35   0.0000      -0.118012        -3.2113
  36   0.0000      -0.070938        -1.9303
  37   0.0000      -0.064261        -1.7486

MULLIKEN ATOMIC CHARGES
-----------------------
   0 C :   -0.287708
   1 N :   -0.069856
   2 C :   -0.286220
   3 C :    0.268961
   4 C :   -0.267036
   5 C :   -0.100828
   6 C :   -0.167692
   7 C :   -0.100356
   8 C :   -0.266405
   9 H :    0.117443
  10 H :    0.121747
  11 H :    0.126654
  12 H :    0.121827
  13 H :    0.116980
  14 H :    0.126110
  15 H :    0.107053
  16 H :    0.111278
  17 H :    0.110468
  18 H :    0.111342
  19 H :    0.106237
Sum of atomic charges:    0.0000000

LOEWDIN ATOMIC CHARGES
----------------------
   0 C :   -0.294880
   1 N :    0.119149
   2 C :   -0.294701
   3 C :   -0.185204
   4 C :   -0.135993
   5 C :   -0.142083
   6 C :   -0.167754
   7 C :   -0.142182
   8 C :   -0.135666
   9 H :    0.114947
  10 H :    0.108561
  11 H :    0.114245
  12 H :    0.108601
  13 H :    0.114920
  14 H :    0.114002
  15 H :    0.141957
  16 H :    0.141237
  17 H :    0.137670
  18 H :    0.141279
  19 H :    0.141895

  Mayer bond orders larger than 0.100000
B(  0-C ,  1-N ) :   0.9667 B(  0-C ,  9-H ) :   0.9784 B(  0-C , 10-H ) :   0.9708
B(  0-C , 11-H ) :   0.9738 B(  1-N ,  2-C ) :   0.9665 B(  1-N ,  3-C ) :   1.1913
B(  2-C , 12-H ) :   0.9710 B(  2-C , 13-H ) :   0.9783 B(  2-C , 14-H ) :   0.9739
B(  3-C ,  4-C ) :   1.3233 B(  3-C ,  8-C ) :   1.3222 B(  4-C ,  5-C ) :   1.4754
B(  4-C , 15-H ) :   0.9694 B(  5-C ,  6-C ) :   1.4242 B(  5-C , 16-H ) :   0.9719
B(  6-C ,  7-C ) :   1.4235 B(  6-C , 17-H ) :   0.9770 B(  7-C ,  8-C ) :   1.4766
B(  7-C , 18-H ) :   0.9719 B(  8-C , 19-H ) :   0.9699

FINAL SINGLE POINT ENERGY      -366.225584947675

DIPOLE MOMENT
-------------

Method             : SCF
Type of density    : Electron Density
Multiplicity       :   1
Irrep              :   0
Energy             :  -366.2378693270749181 Eh
Relativity type    :
Basis              : AO
                                X                 Y                 Z
Electronic contribution:      5.689105801      -0.440689543      -1.031430638
Nuclear contribution   :     -6.312533189       0.511971145       1.202272249
                        -----------------------------------------
Total Dipole Moment    :     -0.623427388       0.071281601       0.170841610
                        -----------------------------------------
Magnitude (a.u.)       :      0.650330401
Magnitude (Debye)      :      1.653008513

Rotational constants in cm-1:             0.116800             0.041005             0.030917
Rotational constants in MHz :          3501.561116          1229.312977           926.880364

                             ****ORCA TERMINATED NORMALLY****
TOTAL RUN TIME: 0 days 0 hours 4 minutes 11 seconds 833 msec
