                         Program Version 6.0.0  -   RELEASE  -
|  1> ! wb97x-v def2-tzvp def2/J RIJCOSX DEFGRID2 scfconv7 GCP(DFT/TZ) printgap
|  2> %output
|  3>     printlevel normal
|  4> end
|  5> %cpcm
|  6>     smd true
|  7>     smdsolvent "water"
|  8> end
|  9> * xyz 0 1
| 10> C -2.3419408808627775 -1.0898539032798598 0.5118895398674465
| 11> N -1.6252650684776597 -0.10006717429135739 -0.2963946779536914
| 12> C -2.327909172206998 1.1817518464539727 -0.39027259721890245
| 13> C -0.2401835175442088 -0.041499995119245195 -0.13095849521010539
| 14> C 0.48456317841188407 -1.1336997890010438 0.39295612045761585
| 15> C 1.8706316827574376 -1.0895435806796587 0.49228907408835565
| 16> C 2.5885677800528426 0.03488066300732369 0.09154521142545882
| 17> C 1.8820411160895913 1.1261467723973537 -0.40874606746131775
| 18> C 0.4962183703667415 1.1001369803462904 -0.5152814343758039
| 19> H -3.4091883167909516 -1.0098476003755694 0.29804051075836646
| 20> H -2.188989191984679 -0.9406204967199876 1.5927339641234741
| 21> H -2.035959832644098 -2.1066822014321582 0.2534238742137173
| 22> H -2.165631346689988 1.8150702839689745 0.4957969743187152
| 23> H -3.3974383746218133 0.9887736144318064 -0.4879072400054703
| 24> H -2.0175426442010065 1.7384003568114939 -1.277637685731646
| 25> H -0.028491359057469693 -2.0278615906822783 0.7234227835197159
| 26> H 2.392752916454833 -1.9510866745227526 0.8984370883083708
| 27> H 3.6697410551537772 0.06360847588488425 0.1753326361915898
| 28> H 2.4130562423623716 2.0221407435251533 -0.7176495179816176
| 29> H -0.008009940565621817 1.9753779704892085 -0.9043462448290832
| 30> *
| 31>
| 32>                          ****END OF INPUT****

CARTESIAN COORDINATES (ANGSTROEM)
---------------------------------
  C     -2.341941   -1.089854    0.511890
  N     -1.625265   -0.100067   -0.296395
  C     -2.327909    1.181752   -0.390273
  C     -0.240184   -0.041500   -0.130958
  C      0.484563   -1.133700    0.392956
  C      1.870632   -1.089544    0.492289
  C      2.588568    0.034881    0.091545
  C      1.882041    1.126147   -0.408746
  C      0.496218    1.100137   -0.515281
  H     -3.409188   -1.009848    0.298041
  H     -2.188989   -0.940620    1.592734
  H     -2.035960   -2.106682    0.253424
  H     -2.165631    1.815070    0.495797
  H     -3.397438    0.988774   -0.487907
  H     -2.017543    1.738400   -1.277638
  H     -0.028491   -2.027862    0.723423
  H      2.392753   -1.951087    0.898437
  H      3.669741    0.063608    0.175333
  H      2.413056    2.022141   -0.717650
  H     -0.008010    1.975378   -0.904346

 Total Charge           Charge          ....    0
 Multiplicity           Mult            ....    1
 Number of Electrons    NEL             ....   66
 Basis Dimension        Dim             ....  345

ORBITAL ENERGIES
----------------

  NO   OCC          E(Eh)            E(eV)
   0   2.0000     -16.537237      -450.0011
   1   2.0000     -12.089020      -328.9590
   2   2.0000     -12.059930      -328.1674
   3   2.0000     -12.059565      -328.1574
   4   2.0000     -12.047765      -327.8364
   5   2.0000     -12.047554      -327.8306
   6   2.0000     -12.040261      -327.6322
   7   2.0000     -12.039999      -327.6250
   8   2.0000     -12.036735      -327.5362
   9   2.0000      -1.509388       -41.0725
  10   2.0000      -1.370768       -37.3005
  11   2.0000      -1.271058       -34.5873
  12   2.0000      -1.269143       -34.5351
  13   2.0000      -1.214602       -33.0510
  14   2.0000      -1.165261       -31.7084
  15   2.0000      -1.098367       -29.8881
  16   2.0000      -1.070983       -29.1429
  17   2.0000      -0.991268       -26.9738
  18   2.0000      -0.960641       -26.1404
  19   2.0000      -0.937909       -25.5218
  20   2.0000      -0.905967       -24.6526
  21   2.0000      -0.900507       -24.5040
  22   2.0000      -0.893547       -24.3147
  23   2.0000      -0.867988       -23.6192
  24   2.0000      -0.825035       -22.4503
  25   2.0000      -0.821750       -22.3609
  26   2.0000      -0.818066       -22.2607
  27   2.0000      -0.807172       -21.9643
  28   2.0000      -0.792736       -21.5714
  29   2.0000      -0.775859       -21.1122
  30   2.0000      -0.720584       -19.6081
  31   2.0000      -0.637267       -17.3409
  32   2.0000      -0.609028       -16.5725
  33   0.0000      -0.238020        -6.4768
  34   0.0000      -0.233209        -6.3459
  35   0.0000      -0.109682        -2.9846
  36   0.0000      -0.066307        -1.8043
  37   0.0000      -0.062392        -1.6978

MULLIKEN ATOMIC CHARGES
-----------------------
   0 C :   -0.318163
   1 N :   -0.085551
   2 C :   -0.316613
   3 C :    0.239145
   4 C :   -0.324801
   5 C :   -0.138310
   6 C :   -0.233343
   7 C :   -0.138060
   8 C :   -0.324308
   9 H :    0.148916
  10 H :    0.131292
  11 H :    0.146504
  12 H :    0.131115
  13 H :    0.148575
  14 H :    0.146060
  15 H :    0.158705
  16 H :    0.157427
  17 H :    0.155520
  18 H :    0.157407
  19 H :    0.158484
Sum of atomic charges:    0.0000000

LOEWDIN ATOMIC CHARGES
----------------------
   0 C :   -0.294108
   1 N :    0.112357
   2 C :   -0.293892
   3 C :   -0.197035
   4 C :   -0.145583
   5 C :   -0.155630
   6 C :   -0.186227
   7 C :   -0.155754
   8 C :   -0.145319
   9 H :    0.122711
  10 H :    0.112287
  11 H :    0.119008
  12 H :    0.112216
  13 H :    0.122713
  14 H :    0.118847
  15 H :    0.153022
  16 H :    0.150708
  17 H :    0.145917
  18 H :    0.150761
  19 H :    0.153000

  Mayer bond orders larger than 0.100000
B(  0-C ,  1-N ) :   0.9527 B(  0-C ,  9-H ) :   0.9717 B(  0-C , 10-H ) :   0.9697
B(  0-C , 11-H ) :   0.9683 B(  1-N ,  2-C ) :   0.9525 B(  1-N ,  3-C ) :   1.2219
B(  2-C , 12-H ) :   0.9699 B(  2-C , 13-H ) :   0.9717 B(  2-C , 14-H ) :   0.9684
B(  3-C ,  4-C ) :   1.2987 B(  3-C ,  8-C ) :   1.2977 B(  4-C ,  5-C ) :   1.4502
B(  4-C , 15-H ) :   0.9753 B(  5-C ,  6-C ) :   1.3982 B(  5-C , 16-H ) :   0.9743
B(  6-C ,  7-C ) :   1.3978 B(  6-C , 17-H ) :   0.9814 B(  7-C ,  8-C ) :   1.4513
B(  7-C , 18-H ) :   0.9743 B(  8-C , 19-H ) :   0.9755

FINAL SINGLE POINT ENERGY      -366.231893440119

DIPOLE MOMENT
-------------

Method             : SCF
Type of density    : Electron Density
Multiplicity       :   1
Irrep              :   0
Energy             :  -366.2441778195189954 Eh
Relativity type    :
Basis              : AO
                                X                 Y                 Z
Electronic contribution:      5.430217029      -0.407490927      -0.952617089
Nuclear contribution   :     -6.312533189       0.511971145       1.202272249
                        -----------------------------------------
Total Dipole Moment    :     -0.882316160       0.104480218       0.249655160
                        -----------------------------------------
Magnitude (a.u.)       :      0.922889821
Magnitude (Debye)      :      2.345799501

Rotational constants in cm-1:             0.116800             0.041005             0.030917
Rotational constants in MHz :          3501.561116          1229.312977           926.880364

                             ****ORCA TERMINATED NORMALLY****
TOTAL RUN TIME: 0 days 0 hours 3 minutes 58 seconds 666 msec
