                         Program Version 6.0.0  -   RELEASE  -
|  1> ! wb97x-v def2-tzvp def2/J RIJCOSX DEFGRID2 scfconv7 GCP(DFT/TZ) printgap
|  2> %output
|  3>     printlevel normal
|  4> end
|  5> * xyz 0 1
|  6> C 1.6598682259482789 -1.23264223405007 0.009544941432849195
|  7> C 0.9304732210235932 0.009832115860333243 -0.46669583553282545
|  8> H 0.9224927700405776 0.061751464185704916 -1.5608129739501568
|  9> C -0.5345490924160603 -0.0018910287845410583 -0.03789122945545473
| 10> F -1.1865081261355337 -1.0864853994034276 -0.5236577516467867
| 11> F -0.673990545164209 -0.022891709166162653 1.3117131382140366
| 12> F -1.1998133470225754 1.0913505589383536 -0.4814672707716896
| 13> O 1.5331463796400564 1.215152125214758 -0.005578578896217551
| 14> H 1.6639078417449915 -1.2846652260068923 1.1032714824381609
| 15> H 2.6923995776487897 -1.1915086388898306 -0.3449993592276709
| 16> H 1.1945927480012704 -2.138933081109431 -0.38672640229476946
| 17> H 1.7474967729117872 1.1009087736450238 0.9315072458546234
| 18> *
| 19>
| 20>                          ****END OF INPUT****

CARTESIAN COORDINATES (ANGSTROEM)
---------------------------------
  C      1.659868   -1.232642    0.009545
  C      0.930473    0.009832   -0.466696
  H      0.922493    0.061751   -1.560813
  C     -0.534549   -0.001891   -0.037891
  F     -1.186508   -1.086485   -0.523658
  F     -0.673991   -0.022892    1.311713
  F     -1.199813    1.091351   -0.481467
  O      1.533146    1.215152   -0.005579
  H      1.663908   -1.284665    1.103271
  H      2.692400   -1.191509   -0.344999
  H      1.194593   -2.138933   -0.386726
  H      1.747497    1.100909    0.931507

 Total Charge           Charge          ....    0
 Multiplicity           Mult            ....    1
 Number of Electrons    NEL             ....   58
 Basis Dimension        Dim             ....  247

ORBITAL ENERGIES
----------------

  NO   OCC          E(Eh)            E(eV)
   0   2.0000     -27.600806      -751.0561
   1   2.0000     -27.600455      -751.0466
   2   2.0000     -27.593319      -750.8524
   3   2.0000     -21.698922      -590.4577
   4   2.0000     -12.297079      -334.6205
   5   2.0000     -12.137599      -330.2809
   6   2.0000     -12.065934      -328.3308
   7   2.0000      -2.058297       -56.0091
   8   2.0000      -2.012586       -54.7652
   9   2.0000      -2.007160       -54.6176
  10   2.0000      -1.704231       -46.3745
  11   2.0000      -1.394302       -37.9409
  12   2.0000      -1.304363       -35.4935
  13   2.0000      -1.255860       -34.1737
  14   2.0000      -1.252615       -34.0854
  15   2.0000      -1.205871       -32.8134
  16   2.0000      -1.164724       -31.6937
  17   2.0000      -1.163499       -31.6604
  18   2.0000      -1.159967       -31.5643
  19   2.0000      -1.150144       -31.2970
  20   2.0000      -1.146064       -31.1860
  21   2.0000      -1.144005       -31.1300
  22   2.0000      -1.057966       -28.7887
  23   2.0000      -0.998578       -27.1727
  24   2.0000      -0.973901       -26.5012
  25   2.0000      -0.898594       -24.4520
  26   2.0000      -0.863592       -23.4995
  27   2.0000      -0.845629       -23.0107
  28   2.0000      -0.823613       -22.4117
  29   0.0000      -0.276602        -7.5267
  30   0.0000      -0.263282        -7.1643
  31   0.0000      -0.231300        -6.2940
  32   0.0000      -0.119513        -3.2521
  33   0.0000      -0.071298        -1.9401

MULLIKEN ATOMIC CHARGES
-----------------------
   0 C :   -0.381384
   1 C :    0.056403
   2 H :    0.110216
   3 C :    0.426172
   4 F :   -0.168577
   5 F :   -0.172579
   6 F :   -0.154564
   7 O :   -0.424518
   8 H :    0.123345
   9 H :    0.139940
  10 H :    0.134721
  11 H :    0.310824
Sum of atomic charges:   -0.0000000

LOEWDIN ATOMIC CHARGES
----------------------
   0 C :   -0.278468
   1 C :   -0.351154
   2 H :    0.157687
   3 C :   -0.632108
   4 F :    0.179352
   5 F :    0.174331
   6 F :    0.184535
   7 O :    0.002263
   8 H :    0.124930
   9 H :    0.129121
  10 H :    0.131789
  11 H :    0.177723

  Mayer bond orders larger than 0.100000
B(  0-C ,  1-C ) :   1.0015 B(  0-C ,  8-H ) :   0.9569 B(  0-C ,  9-H ) :   0.9767
B(  0-C , 10-H ) :   0.9665 B(  1-C ,  2-H ) :   0.9464 B(  1-C ,  3-C ) :   0.9820
B(  1-C ,  7-O ) :   1.0287 B(  3-C ,  4-F ) :   1.1375 B(  3-C ,  5-F ) :   1.1248
B(  3-C ,  6-F ) :   1.1684 B(  7-O , 11-H ) :   0.8891

FINAL SINGLE POINT ENERGY      -492.138751417745

DIPOLE MOMENT
-------------

Method             : SCF
Type of density    : Electron Density
Multiplicity       :   1
Irrep              :   0
Energy             :  -492.1526037399451070 Eh
Relativity type    :
Basis              : AO
                                X                 Y                 Z
Electronic contribution:     -9.757379222       2.619593971       0.659602699
Nuclear contribution   :     10.581476859      -3.219676215      -0.518027058
                        -----------------------------------------
Total Dipole Moment    :      0.824097638      -0.600082244       0.141575641
                        -----------------------------------------
Magnitude (a.u.)       :      1.029212941
Magnitude (Debye)      :      2.616051395

Rotational constants in cm-1:             0.115786             0.079337             0.065183
Rotational constants in MHz :          3471.189743          2378.476849          1954.122964

                             ****ORCA TERMINATED NORMALLY****
TOTAL RUN TIME: 0 days 0 hours 1 minutes 14 seconds 511 msec
