                         Program Version 6.0.0  -   RELEASE  -
|  1> ! wb97x-v def2-tzvp def2/J RIJCOSX DEFGRID2 scfconv7 GCP(DFT/TZ) printgap
|  2> %output
|  3>     printlevel normal
|  4> end
|  5> %cpcm
|  6>     smd true
|  7>     smdsolvent "water"
|  8> end
|  9> * xyz 0 1
| 10> C 1.6598682259482789 -1.23264223405007 0.009544941432849195
| 11> C 0.9304732210235932 0.009832115860333243 -0.46669583553282545
| 12> H 0.9224927700405776 0.061751464185704916 -1.5608129739501568
| 13> C -0.5345490924160603 -0.0018910287845410583 -0.03789122945545473
| 14> F -1.1865081261355337 -1.0864853994034276 -0.5236577516467867
| 15> F -0.673990545164209 -0.022891709166162653 1.3117131382140366
| 16> F -1.1998133470225754 1.0913505589383536 -0.4814672707716896
| 17> O 1.5331463796400564 1.215152125214758 -0.005578578896217551
| 18> H 1.6639078417449915 -1.2846652260068923 1.1032714824381609
| 19> H 2.6923995776487897 -1.1915086388898306 -0.3449993592276709
| 20> H 1.1945927480012704 -2.138933081109431 -0.38672640229476946
| 21> H 1.7474967729117872 1.1009087736450238 0.9315072458546234
| 22> *
| 23>
| 24>                          ****END OF INPUT****

CARTESIAN COORDINATES (ANGSTROEM)
---------------------------------
  C      1.659868   -1.232642    0.009545
  C      0.930473    0.009832   -0.466696
  H      0.922493    0.061751   -1.560813
  C     -0.534549   -0.001891   -0.037891
  F     -1.186508   -1.086485   -0.523658
  F     -0.673991   -0.022892    1.311713
  F     -1.199813    1.091351   -0.481467
  O      1.533146    1.215152   -0.005579
  H      1.663908   -1.284665    1.103271
  H      2.692400   -1.191509   -0.344999
  H      1.194593   -2.138933   -0.386726
  H      1.747497    1.100909    0.931507

 Total Charge           Charge          ....    0
 Multiplicity           Mult            ....    1
 Number of Electrons    NEL             ....   58
 Basis Dimension        Dim             ....  247

ORBITAL ENERGIES
----------------

  NO   OCC          E(Eh)            E(eV)
   0   2.0000     -27.600962      -751.0603
   1   2.0000     -27.600119      -751.0374
   2   2.0000     -27.598899      -751.0042
   3   2.0000     -21.690431      -590.2266
   4   2.0000     -12.295113      -334.5670
   5   2.0000     -12.122952      -329.8823
   6   2.0000     -12.041757      -327.6729
   7   2.0000      -2.060017       -56.0559
   8   2.0000      -2.012711       -54.7686
   9   2.0000      -2.011462       -54.7347
  10   2.0000      -1.695702       -46.1424
  11   2.0000      -1.393055       -37.9070
  12   2.0000      -1.292153       -35.1613
  13   2.0000      -1.256604       -34.1939
  14   2.0000      -1.256226       -34.1837
  15   2.0000      -1.198551       -32.6142
  16   2.0000      -1.165349       -31.7108
  17   2.0000      -1.165073       -31.7033
  18   2.0000      -1.153541       -31.3895
  19   2.0000      -1.151039       -31.3214
  20   2.0000      -1.148170       -31.2433
  21   2.0000      -1.147397       -31.2223
  22   2.0000      -1.049772       -28.5657
  23   2.0000      -0.992359       -27.0035
  24   2.0000      -0.961522       -26.1643
  25   2.0000      -0.886065       -24.1111
  26   2.0000      -0.847409       -23.0592
  27   2.0000      -0.821811       -22.3626
  28   2.0000      -0.800846       -21.7921
  29   0.0000      -0.277010        -7.5378
  30   0.0000      -0.258222        -7.0266
  31   0.0000      -0.226827        -6.1723
  32   0.0000      -0.108186        -2.9439
  33   0.0000      -0.052701        -1.4341

MULLIKEN ATOMIC CHARGES
-----------------------
   0 C :   -0.414125
   1 C :    0.091108
   2 H :    0.144522
   3 C :    0.422929
   4 F :   -0.177497
   5 F :   -0.179277
   6 F :   -0.175636
   7 O :   -0.524332
   8 H :    0.146377
   9 H :    0.150186
  10 H :    0.146960
  11 H :    0.368785
Sum of atomic charges:   -0.0000000

LOEWDIN ATOMIC CHARGES
----------------------
   0 C :   -0.274490
   1 C :   -0.346589
   2 H :    0.166959
   3 C :   -0.628507
   4 F :    0.174501
   5 F :    0.170466
   6 F :    0.171112
   7 O :   -0.032881
   8 H :    0.131426
   9 H :    0.133562
  10 H :    0.134969
  11 H :    0.199472

  Mayer bond orders larger than 0.100000
B(  0-C ,  1-C ) :   0.9968 B(  0-C ,  8-H ) :   0.9584 B(  0-C ,  9-H ) :   0.9698
B(  0-C , 10-H ) :   0.9623 B(  1-C ,  2-H ) :   0.9403 B(  1-C ,  3-C ) :   0.9867
B(  1-C ,  7-O ) :   0.9901 B(  3-C ,  4-F ) :   1.1369 B(  3-C ,  5-F ) :   1.1338
B(  3-C ,  6-F ) :   1.1453 B(  7-O , 11-H ) :   0.8547

FINAL SINGLE POINT ENERGY      -492.146418332135

DIPOLE MOMENT
-------------

Method             : SCF
Type of density    : Electron Density
Multiplicity       :   1
Irrep              :   0
Energy             :  -492.1602706543350223 Eh
Relativity type    :
Basis              : AO
                                X                 Y                 Z
Electronic contribution:     -9.589295258       2.427828305       0.727276643
Nuclear contribution   :     10.581476859      -3.219676215      -0.518027058
                        -----------------------------------------
Total Dipole Moment    :      0.992181601      -0.791847911       0.209249585
                        -----------------------------------------
Magnitude (a.u.)       :      1.286558522
Magnitude (Debye)      :      3.270171879

Rotational constants in cm-1:             0.115786             0.079337             0.065183
Rotational constants in MHz :          3471.189743          2378.476849          1954.122964

                             ****ORCA TERMINATED NORMALLY****
TOTAL RUN TIME: 0 days 0 hours 1 minutes 28 seconds 254 msec
