                         Program Version 6.0.0  -   RELEASE  -
|  1> ! pbe def2-sv(p) def2/J RI DEFGRID1 loosescf d4 GCP(DFT/SV(P)) printgap
|  2> %output
|  3>     printlevel normal
|  4> end
|  5> * xyz 0 1
|  6> C -3.9058710372 1.5141307419 -0.0691472829
|  7> C -3.5275136232 0.5554094735 -0.9944461323
|  8> C -2.2442768798 0.0393302046 -0.9773011177
|  9> C -1.3231951214 0.4826598515 -0.0333688825
| 10> C -1.7056143835 1.4563983964 0.884665849
| 11> C -2.9920138506 1.9640695086 0.8694879905
| 12> C 0.05212882 -0.048260078 -0.0091460338
| 13> C 1.1265739508 0.8355010902 -0.0727421301
| 14> C 2.4246227484 0.3597597759 -0.0590543457
| 15> C 2.6907503711 -0.9972981364 0.0240358526
| 16> C 1.6316055464 -1.8836236714 0.1022672491
| 17> C 0.3295387281 -1.4114216887 0.0854652293
| 18> Cl -0.968221233 -2.5581277972 0.2394499923
| 19> Cl 3.7432353179 1.4866609026 -0.1480765369
| 20> H -4.9095829575 1.9108989513 -0.0812982496
| 21> H -4.2340284992 0.2076911479 -1.7330344816
| 22> H -1.9477872017 -0.6978189854 -1.7082668941
| 23> H -0.9938114792 1.7988854702 1.6207305438
| 24> H -3.2821270269 2.7122970069 1.5913934854
| 25> H 0.9350338426 1.8940980082 -0.1464169011
| 26> H 3.7062898547 -1.3561066796 0.0330288745
| 27> H 1.8148896791 -2.9424947888 0.1804704884
| 28> *
| 29>
| 30>                          ****END OF INPUT****

CARTESIAN COORDINATES (ANGSTROEM)
---------------------------------
  C     -3.905871    1.514131   -0.069147
  C     -3.527514    0.555409   -0.994446
  C     -2.244277    0.039330   -0.977301
  C     -1.323195    0.482660   -0.033369
  C     -1.705614    1.456398    0.884666
  C     -2.992014    1.964070    0.869488
  C      0.052129   -0.048260   -0.009146
  C      1.126574    0.835501   -0.072742
  C      2.424623    0.359760   -0.059054
  C      2.690750   -0.997298    0.024036
  C      1.631606   -1.883624    0.102267
  C      0.329539   -1.411422    0.085465
  Cl    -0.968221   -2.558128    0.239450
  Cl     3.743235    1.486661   -0.148077
  H     -4.909583    1.910899   -0.081298
  H     -4.234028    0.207691   -1.733034
  H     -1.947787   -0.697819   -1.708267
  H     -0.993811    1.798885    1.620731
  H     -3.282127    2.712297    1.591393
  H      0.935034    1.894098   -0.146417
  H      3.706290   -1.356107    0.033029
  H      1.814890   -2.942495    0.180470

 Total Charge           Charge          ....    0
 Multiplicity           Mult            ....    1
 Number of Electrons    NEL             ....  114
 Basis Dimension        Dim             ....  220

ORBITAL ENERGIES
----------------

  NO   OCC          E(Eh)            E(eV)
   0   2.0000    -100.645455     -2738.7021
   1   2.0000    -100.644388     -2738.6730
   2   2.0000      -9.958810      -270.9930
   3   2.0000      -9.957954      -270.9697
   4   2.0000      -9.925927      -270.0982
   5   2.0000      -9.914929      -269.7989
   6   2.0000      -9.913540      -269.7611
   7   2.0000      -9.913517      -269.7605
   8   2.0000      -9.912945      -269.7449
   9   2.0000      -9.900397      -269.4035
  10   2.0000      -9.899556      -269.3806
  11   2.0000      -9.898621      -269.3552
  12   2.0000      -9.898165      -269.3428
  13   2.0000      -9.897905      -269.3357
  14   2.0000      -9.180937      -249.8260
  15   2.0000      -9.180166      -249.8050
  16   2.0000      -7.012320      -190.8149
  17   2.0000      -7.011531      -190.7935
  18   2.0000      -7.001031      -190.5077
  19   2.0000      -7.000242      -190.4863
  20   2.0000      -7.000168      -190.4843
  21   2.0000      -6.999578      -190.4682
  22   2.0000      -0.832838       -22.6627
  23   2.0000      -0.804309       -21.8864
  24   2.0000      -0.784401       -21.3446
  25   2.0000      -0.751402       -20.4467
  26   2.0000      -0.715624       -19.4731
  27   2.0000      -0.677416       -18.4334
  28   2.0000      -0.668220       -18.1832
  29   2.0000      -0.646974       -17.6051
  30   2.0000      -0.580745       -15.8029
  31   2.0000      -0.560284       -15.2461
  32   2.0000      -0.544137       -14.8067
  33   2.0000      -0.523779       -14.2527
  34   2.0000      -0.484368       -13.1803
  35   2.0000      -0.461930       -12.5698
  36   2.0000      -0.450380       -12.2554
  37   2.0000      -0.424237       -11.5441
  38   2.0000      -0.413177       -11.2431
  39   2.0000      -0.407285       -11.0828
  40   2.0000      -0.398690       -10.8489
  41   2.0000      -0.387855       -10.5541
  42   2.0000      -0.382884       -10.4188
  43   2.0000      -0.371908       -10.1201
  44   2.0000      -0.349705        -9.5160
  45   2.0000      -0.345341        -9.3972
  46   2.0000      -0.334103        -9.0914
  47   2.0000      -0.328944        -8.9510
  48   2.0000      -0.311214        -8.4686
  49   2.0000      -0.309023        -8.4089
  50   2.0000      -0.276781        -7.5316
  51   2.0000      -0.274229        -7.4622
  52   2.0000      -0.271087        -7.3767
  53   2.0000      -0.257177        -6.9981
  54   2.0000      -0.235234        -6.4011
  55   2.0000      -0.227755        -6.1975
  56   2.0000      -0.211893        -5.7659
  57   0.0000      -0.067420        -1.8346
  58   0.0000      -0.054188        -1.4745
  59   0.0000      -0.040448        -1.1007
  60   0.0000      -0.027374        -0.7449
  61   0.0000      -0.000649        -0.0177

MULLIKEN ATOMIC CHARGES
-----------------------
   0 C :   -0.042153
   1 C :   -0.056558
   2 C :   -0.076618
   3 C :    0.065741
   4 C :   -0.094491
   5 C :   -0.050885
   6 C :    0.085184
   7 C :   -0.152907
   8 C :    0.137860
   9 C :   -0.071777
  10 C :   -0.097862
  11 C :    0.071280
  12 Cl:   -0.065560
  13 Cl:   -0.083197
  14 H :    0.056893
  15 H :    0.056159
  16 H :    0.049685
  17 H :    0.050268
  18 H :    0.055693
  19 H :    0.050577
  20 H :    0.057266
  21 H :    0.055402
Sum of atomic charges:    0.0000000

LOEWDIN ATOMIC CHARGES
----------------------
   0 C :   -0.119562
   1 C :   -0.119277
   2 C :   -0.110909
   3 C :   -0.036910
   4 C :   -0.111764
   5 C :   -0.119866
   6 C :   -0.036481
   7 C :   -0.124485
   8 C :   -0.132783
   9 C :   -0.135314
  10 C :   -0.129945
  11 C :   -0.127331
  12 Cl:    0.145300
  13 Cl:    0.126360
  14 H :    0.125180
  15 H :    0.125866
  16 H :    0.123536
  17 H :    0.126723
  18 H :    0.125697
  19 H :    0.136470
  20 H :    0.134793
  21 H :    0.134702

  Mayer bond orders larger than 0.100000
B(  0-C ,  1-C ) :   1.3745 B(  0-C ,  5-C ) :   1.3798 B(  0-C , 14-H ) :   0.9654
B(  1-C ,  2-C ) :   1.3761 B(  1-C , 15-H ) :   0.9631 B(  2-C ,  3-C ) :   1.3748
B(  2-C , 16-H ) :   0.9603 B(  3-C ,  4-C ) :   1.3866 B(  3-C ,  6-C ) :   0.9583
B(  4-C ,  5-C ) :   1.3635 B(  4-C , 17-H ) :   0.9616 B(  5-C , 18-H ) :   0.9637
B(  6-C ,  7-C ) :   1.3625 B(  6-C , 11-C ) :   1.4102 B(  7-C ,  8-C ) :   1.3412
B(  7-C , 19-H ) :   0.9653 B(  8-C ,  9-C ) :   1.3737 B(  8-C , 13-Cl) :   0.9638
B(  9-C , 10-C ) :   1.3459 B(  9-C , 20-H ) :   0.9658 B( 10-C , 11-C ) :   1.3619
B( 10-C , 21-H ) :   0.9616 B( 11-C , 12-Cl) :   1.0169

Dispersion correction           -0.033060275
FINAL SINGLE POINT ENERGY     -1380.848428405992

DIPOLE MOMENT
-------------

Method             : SCF
Type of density    : Electron Density
Multiplicity       :   1
Irrep              :   0
Energy             : -1380.8925210520687870 Eh
Relativity type    :
Basis              : AO
                                X                 Y                 Z
Electronic contribution:     11.881100692      -4.745929169       0.337709538
Nuclear contribution   :    -12.084831496       4.747493745      -0.350987305
                        -----------------------------------------
Total Dipole Moment    :     -0.203730804       0.001564576      -0.013277767
                        -----------------------------------------
Magnitude (a.u.)       :      0.204169017
Magnitude (Debye)      :      0.518956399

Rotational constants in cm-1:             0.028570             0.011828             0.008860
Rotational constants in MHz :           856.509361           354.609036           265.614625

                             ****ORCA TERMINATED NORMALLY****
TOTAL RUN TIME: 0 days 0 hours 0 minutes 16 seconds 820 msec
