                         Program Version 6.0.0  -   RELEASE  -
|  1> ! pbe def2-sv(p) def2/J RI DEFGRID1 loosescf d4 GCP(DFT/SV(P)) printgap
|  2> %output
|  3>     printlevel normal
|  4> end
|  5> * xyz 0 1
|  6> C -2.5429281852 -0.9205618284 0.2663798135
|  7> C -1.122110746 -0.4708449181 0.6112136256
|  8> H -1.0306691946 -0.4007115051 1.707490475
|  9> C -0.8277533715 0.9144986784 0.0205783788
| 10> H -1.0386025475 0.8883521369 -1.0576783981
| 11> C 0.6505028229 1.2672272281 0.2223206471
| 12> H 0.8319256398 1.3946935231 1.304640892
| 13> C 1.5466617778 0.1376424945 -0.3046761132
| 14> H 1.404176888 0.0326061798 -1.3855815034
| 15> C 1.1257595406 -1.1810778279 0.3630852472
| 16> H 1.2867079581 -1.0903859447 1.4639147141
| 17> O -0.2303678166 -1.4523118236 0.1223293855
| 18> O 1.8706395754 -2.2262243864 -0.147425812
| 19> O 2.9023049704 0.4491504752 -0.1203282405
| 20> O 0.9097125139 2.4801143111 -0.4424206074
| 21> O -1.6617154413 1.8378573722 0.673230786
| 22> O -2.7138866009 -0.8967646407 -1.1304195452
| 23> H -3.23461476 -0.2279208772 0.7596741099
| 24> H -2.6811955019 -1.934733707 0.6584113455
| 25> H 1.3354572255 -3.0352486656 -0.1237605789
| 26> H 3.1697581334 0.2676247063 0.7924296972
| 27> H 1.8677156782 2.5619825245 -0.5697663782
| 28> H -1.4553649501 2.7218488987 0.3334677783
| 29> H -3.6054708924 -1.2067286334 -1.3431782454
| 30> *
| 31>
| 32>                          ****END OF INPUT****

CARTESIAN COORDINATES (ANGSTROEM)
---------------------------------
  C     -2.542928   -0.920562    0.266380
  C     -1.122111   -0.470845    0.611214
  H     -1.030669   -0.400712    1.707490
  C     -0.827753    0.914499    0.020578
  H     -1.038603    0.888352   -1.057678
  C      0.650503    1.267227    0.222321
  H      0.831926    1.394694    1.304641
  C      1.546662    0.137642   -0.304676
  H      1.404177    0.032606   -1.385582
  C      1.125760   -1.181078    0.363085
  H      1.286708   -1.090386    1.463915
  O     -0.230368   -1.452312    0.122329
  O      1.870640   -2.226224   -0.147426
  O      2.902305    0.449150   -0.120328
  O      0.909713    2.480114   -0.442421
  O     -1.661715    1.837857    0.673231
  O     -2.713887   -0.896765   -1.130420
  H     -3.234615   -0.227921    0.759674
  H     -2.681196   -1.934734    0.658411
  H      1.335457   -3.035249   -0.123761
  H      3.169758    0.267625    0.792430
  H      1.867716    2.561983   -0.569766
  H     -1.455365    2.721849    0.333468
  H     -3.605471   -1.206729   -1.343178

 Total Charge           Charge          ....    0
 Multiplicity           Mult            ....    1
 Number of Electrons    NEL             ....   96
 Basis Dimension        Dim             ....  192

ORBITAL ENERGIES
----------------

  NO   OCC          E(Eh)            E(eV)
   0   2.0000     -18.774728      -510.8863
   1   2.0000     -18.760612      -510.5022
   2   2.0000     -18.756600      -510.3930
   3   2.0000     -18.749766      -510.2071
   4   2.0000     -18.749218      -510.1922
   5   2.0000     -18.747795      -510.1534
   6   2.0000      -9.990839      -271.8645
   7   2.0000      -9.947548      -270.6866
   8   2.0000      -9.938988      -270.4536
   9   2.0000      -9.936125      -270.3757
  10   2.0000      -9.935012      -270.3454
  11   2.0000      -9.932991      -270.2904
  12   2.0000      -0.987152       -26.8618
  13   2.0000      -0.944962       -25.7137
  14   2.0000      -0.935008       -25.4429
  15   2.0000      -0.924068       -25.1452
  16   2.0000      -0.912533       -24.8313
  17   2.0000      -0.911334       -24.7987
  18   2.0000      -0.702097       -19.1050
  19   2.0000      -0.693415       -18.8688
  20   2.0000      -0.617677       -16.8078
  21   2.0000      -0.578702       -15.7473
  22   2.0000      -0.558820       -15.2063
  23   2.0000      -0.532322       -14.4852
  24   2.0000      -0.507072       -13.7981
  25   2.0000      -0.489436       -13.3182
  26   2.0000      -0.467526       -12.7220
  27   2.0000      -0.454733       -12.3739
  28   2.0000      -0.444295       -12.0899
  29   2.0000      -0.431727       -11.7479
  30   2.0000      -0.421790       -11.4775
  31   2.0000      -0.406131       -11.0514
  32   2.0000      -0.390075       -10.6145
  33   2.0000      -0.367199        -9.9920
  34   2.0000      -0.357064        -9.7162
  35   2.0000      -0.349349        -9.5063
  36   2.0000      -0.323025        -8.7900
  37   2.0000      -0.310417        -8.4469
  38   2.0000      -0.301255        -8.1976
  39   2.0000      -0.294213        -8.0059
  40   2.0000      -0.290395        -7.9021
  41   2.0000      -0.269259        -7.3269
  42   2.0000      -0.250006        -6.8030
  43   2.0000      -0.242273        -6.5926
  44   2.0000      -0.230120        -6.2619
  45   2.0000      -0.220470        -5.9993
  46   2.0000      -0.209949        -5.7130
  47   2.0000      -0.200542        -5.4570
  48   0.0000       0.016071         0.4373
  49   0.0000       0.025934         0.7057
  50   0.0000       0.031684         0.8622
  51   0.0000       0.045541         1.2392
  52   0.0000       0.056594         1.5400

MULLIKEN ATOMIC CHARGES
-----------------------
   0 C :    0.074918
   1 C :    0.016841
   2 H :    0.058240
   3 C :    0.057660
   4 H :    0.075371
   5 C :    0.068480
   6 H :    0.030604
   7 C :    0.041979
   8 H :    0.076080
   9 C :    0.183839
  10 H :    0.015313
  11 O :   -0.314339
  12 O :   -0.376810
  13 O :   -0.412013
  14 O :   -0.426070
  15 O :   -0.424964
  16 O :   -0.434887
  17 H :    0.083767
  18 H :    0.074271
  19 H :    0.307685
  20 H :    0.302355
  21 H :    0.306102
  22 H :    0.312464
  23 H :    0.303115
Sum of atomic charges:   -0.0000000

LOEWDIN ATOMIC CHARGES
----------------------
   0 C :   -0.122774
   1 C :   -0.055417
   2 H :    0.106778
   3 C :   -0.069051
   4 H :    0.114335
   5 C :   -0.085871
   6 H :    0.091820
   7 C :   -0.093985
   8 H :    0.125502
   9 C :    0.002152
  10 H :    0.068268
  11 O :   -0.142827
  12 O :   -0.300613
  13 O :   -0.306239
  14 O :   -0.329483
  15 O :   -0.319684
  16 O :   -0.336940
  17 H :    0.108221
  18 H :    0.100387
  19 H :    0.291116
  20 H :    0.287564
  21 H :    0.285382
  22 H :    0.292213
  23 H :    0.289146

  Mayer bond orders larger than 0.100000
B(  0-C ,  1-C ) :   1.0685 B(  0-C , 16-O ) :   1.0912 B(  0-C , 17-H ) :   0.9058
B(  0-C , 18-H ) :   0.9122 B(  1-C ,  2-H ) :   0.8753 B(  1-C ,  3-C ) :   1.0231
B(  1-C , 11-O ) :   0.9843 B(  3-C ,  4-H ) :   0.8644 B(  3-C ,  5-C ) :   1.0244
B(  3-C , 15-O ) :   1.0526 B(  5-C ,  6-H ) :   0.8668 B(  5-C ,  7-C ) :   0.9902
B(  5-C , 14-O ) :   1.0927 B(  7-C ,  8-H ) :   0.8579 B(  7-C ,  9-C ) :   0.9828
B(  7-C , 13-O ) :   1.0306 B(  9-C , 10-H ) :   0.8751 B(  9-C , 11-O ) :   1.0223
B(  9-C , 12-O ) :   1.1834 B( 12-O , 19-H ) :   0.8368 B( 13-O , 20-H ) :   0.8448
B( 14-O , 21-H ) :   0.8290 B( 15-O , 22-H ) :   0.8389 B( 16-O , 23-H ) :   0.8499

Dispersion correction           -0.023863337
FINAL SINGLE POINT ENERGY      -685.695127055925

DIPOLE MOMENT
-------------

Method             : SCF
Type of density    : Electron Density
Multiplicity       :   1
Irrep              :   0
Energy             :  -685.8244111711128426 Eh
Relativity type    :
Basis              : AO
                                X                 Y                 Z
Electronic contribution:      2.487053093      -0.307179203      -1.685661705
Nuclear contribution   :     -2.939450720      -0.024009973       2.367530409
                        -----------------------------------------
Total Dipole Moment    :     -0.452397627      -0.331189176       0.681868703
                        -----------------------------------------
Magnitude (a.u.)       :      0.882776762
Magnitude (Debye)      :      2.243840209

Rotational constants in cm-1:             0.039519             0.026896             0.017823
Rotational constants in MHz :          1184.763412           806.336094           534.329093

                             ****ORCA TERMINATED NORMALLY****
TOTAL RUN TIME: 0 days 0 hours 0 minutes 11 seconds 550 msec
