                         Program Version 6.0.0  -   RELEASE  -
|  1> ! r2scan-3c def2/J RI DEFGRID2 scfconv6 printgap
|  2> %output
|  3>     printlevel normal
|  4> end
|  5> * xyz 0 1
|  6> C -2.628273206 0.0381183756 -0.3731690049
|  7> O -1.3514220525 0.5409687265 0.0410994117
|  8> C -0.4503286664 -0.3029852018 0.4995530515
|  9> O -0.6133016327 -1.4955152859 0.6240021533
| 10> C 0.8431155277 0.4141901249 0.8312363522
| 11> Cl 1.8358668975 0.3479159008 -0.6601260871
| 12> H -3.3708942089 0.743272972 -0.0094394004
| 13> H -2.7904327442 -0.9553886622 0.0446185264
| 14> H -2.6466235583 -0.0065861734 -1.4612603003
| 15> H 1.3901617067 -0.1080259256 1.6127694942
| 16> H 0.6687525831 1.4617682178 1.0638355914
| 17> *
| 18>
| 19>                          ****END OF INPUT****

CARTESIAN COORDINATES (ANGSTROEM)
---------------------------------
  C     -2.628273    0.038118   -0.373169
  O     -1.351422    0.540969    0.041099
  C     -0.450329   -0.302985    0.499553
  O     -0.613302   -1.495515    0.624002
  C      0.843116    0.414190    0.831236
  Cl     1.835867    0.347916   -0.660126
  H     -3.370894    0.743273   -0.009439
  H     -2.790433   -0.955389    0.044619
  H     -2.646624   -0.006586   -1.461260
  H      1.390162   -0.108026    1.612769
  H      0.668753    1.461768    1.063836

 Total Charge           Charge          ....    0
 Multiplicity           Mult            ....    1
 Number of Electrons    NEL             ....   56
 Basis Dimension        Dim             ....  157

ORBITAL ENERGIES
----------------

  NO   OCC          E(Eh)            E(eV)
   0   2.0000    -101.218379     -2754.2921
   1   2.0000     -19.017557      -517.4940
   2   2.0000     -18.945700      -515.5387
   3   2.0000     -10.174201      -276.8541
   4   2.0000     -10.112781      -275.1828
   5   2.0000     -10.097743      -274.7736
   6   2.0000      -9.373958      -255.0784
   7   2.0000      -7.120773      -193.7661
   8   2.0000      -7.109873      -193.4695
   9   2.0000      -7.109594      -193.4619
  10   2.0000      -1.092697       -29.7338
  11   2.0000      -0.995517       -27.0894
  12   2.0000      -0.836275       -22.7562
  13   2.0000      -0.731109       -19.8945
  14   2.0000      -0.663794       -18.0627
  15   2.0000      -0.552252       -15.0275
  16   2.0000      -0.492429       -13.3997
  17   2.0000      -0.469437       -12.7740
  18   2.0000      -0.466241       -12.6871
  19   2.0000      -0.422377       -11.4935
  20   2.0000      -0.418381       -11.3847
  21   2.0000      -0.399532       -10.8718
  22   2.0000      -0.366736        -9.9794
  23   2.0000      -0.335773        -9.1369
  24   2.0000      -0.292000        -7.9457
  25   2.0000      -0.289647        -7.8817
  26   2.0000      -0.277689        -7.5563
  27   2.0000      -0.251056        -6.8316
  28   0.0000      -0.058894        -1.6026
  29   0.0000       0.024842         0.6760
  30   0.0000       0.061402         1.6708
  31   0.0000       0.092636         2.5208
  32   0.0000       0.122982         3.3465

MULLIKEN ATOMIC CHARGES
-----------------------
   0 C :   -0.291239
   1 O :   -0.184414
   2 C :    0.404844
   3 O :   -0.414113
   4 C :   -0.206171
   5 Cl:   -0.153492
   6 H :    0.151968
   7 H :    0.185754
   8 H :    0.157318
   9 H :    0.178900
  10 H :    0.170645
Sum of atomic charges:   -0.0000000

LOEWDIN ATOMIC CHARGES
----------------------
   0 C :   -0.038082
   1 O :   -0.591059
   2 C :    0.321698
   3 O :   -0.414497
   4 C :   -0.241282
   5 Cl:    0.062003
   6 H :    0.177275
   7 H :    0.191882
   8 H :    0.177158
   9 H :    0.178097
  10 H :    0.176806

  Mayer bond orders larger than 0.100000
B(  0-C ,  1-O ) :   0.8369 B(  0-C ,  6-H ) :   0.9671 B(  0-C ,  7-H ) :   0.9647
B(  0-C ,  8-H ) :   0.9582 B(  1-O ,  2-C ) :   1.0833 B(  2-C ,  3-O ) :   1.8503
B(  2-C ,  4-C ) :   0.9571 B(  4-C ,  5-Cl) :   0.9979 B(  4-C ,  9-H ) :   0.9544
B(  4-C , 10-H ) :   0.9567

Dispersion correction           -0.002598218
FINAL SINGLE POINT ENERGY      -727.901915643867

DIPOLE MOMENT
-------------

Method             : SCF
Type of density    : Electron Density
Multiplicity       :   1
Irrep              :   0
Energy             :  -727.9096829921791141 Eh
Relativity type    :
Basis              : AO
                                X                 Y                 Z
Electronic contribution:      8.106927920       0.148464521      -1.787874110
Nuclear contribution   :     -8.824955228       0.583759746       2.069074064
                        -----------------------------------------
Total Dipole Moment    :     -0.718027308       0.732224267       0.281199954
                        -----------------------------------------
Magnitude (a.u.)       :      1.063385634
Magnitude (Debye)      :      2.702911477

Rotational constants in cm-1:             0.199054             0.054205             0.049073
Rotational constants in MHz :          5967.493136          1625.012405          1471.169069

                             ****ORCA TERMINATED NORMALLY****
TOTAL RUN TIME: 0 days 0 hours 0 minutes 15 seconds 348 msec
