                         Program Version 6.0.0  -   RELEASE  -
|  1> ! r2scan-3c def2/J RI DEFGRID2 scfconv6 printgap
|  2> %output
|  3>     printlevel normal
|  4> end
|  5> %cpcm
|  6>     smd true
|  7>     smdsolvent "water"
|  8> end
|  9> * xyz 0 1
| 10> C -2.628273206 0.0381183756 -0.3731690049
| 11> O -1.3514220525 0.5409687265 0.0410994117
| 12> C -0.4503286664 -0.3029852018 0.4995530515
| 13> O -0.6133016327 -1.4955152859 0.6240021533
| 14> C 0.8431155277 0.4141901249 0.8312363522
| 15> Cl 1.8358668975 0.3479159008 -0.6601260871
| 16> H -3.3708942089 0.743272972 -0.0094394004
| 17> H -2.7904327442 -0.9553886622 0.0446185264
| 18> H -2.6466235583 -0.0065861734 -1.4612603003
| 19> H 1.3901617067 -0.1080259256 1.6127694942
| 20> H 0.6687525831 1.4617682178 1.0638355914
| 21> *
| 22>
| 23>                          ****END OF INPUT****

CARTESIAN COORDINATES (ANGSTROEM)
---------------------------------
  C     -2.628273    0.038118   -0.373169
  O     -1.351422    0.540969    0.041099
  C     -0.450329   -0.302985    0.499553
  O     -0.613302   -1.495515    0.624002
  C      0.843116    0.414190    0.831236
  Cl     1.835867    0.347916   -0.660126
  H     -3.370894    0.743273   -0.009439
  H     -2.790433   -0.955389    0.044619
  H     -2.646624   -0.006586   -1.461260
  H      1.390162   -0.108026    1.612769
  H      0.668753    1.461768    1.063836

 Total Charge           Charge          ....    0
 Multiplicity           Mult            ....    1
 Number of Electrons    NEL             ....   56
 Basis Dimension        Dim             ....  157

ORBITAL ENERGIES
----------------

  NO   OCC          E(Eh)            E(eV)
   0   2.0000    -101.220306     -2754.3445
   1   2.0000     -19.016174      -517.4564
   2   2.0000     -18.954567      -515.7800
   3   2.0000     -10.178753      -276.9779
   4   2.0000     -10.103156      -274.9208
   5   2.0000     -10.080055      -274.2922
   6   2.0000      -9.376044      -255.1351
   7   2.0000      -7.122553      -193.8145
   8   2.0000      -7.112096      -193.5300
   9   2.0000      -7.111832      -193.5228
  10   2.0000      -1.092679       -29.7333
  11   2.0000      -1.002228       -27.2720
  12   2.0000      -0.835258       -22.7285
  13   2.0000      -0.723453       -19.6862
  14   2.0000      -0.655001       -17.8235
  15   2.0000      -0.543216       -14.7817
  16   2.0000      -0.488410       -13.2903
  17   2.0000      -0.468456       -12.7473
  18   2.0000      -0.464120       -12.6294
  19   2.0000      -0.418481       -11.3874
  20   2.0000      -0.411790       -11.2054
  21   2.0000      -0.391303       -10.6479
  22   2.0000      -0.364540        -9.9196
  23   2.0000      -0.330351        -8.9893
  24   2.0000      -0.295370        -8.0374
  25   2.0000      -0.291639        -7.9359
  26   2.0000      -0.278986        -7.5916
  27   2.0000      -0.259412        -7.0590
  28   0.0000      -0.059676        -1.6239
  29   0.0000       0.027478         0.7477
  30   0.0000       0.073221         1.9924
  31   0.0000       0.105134         2.8609
  32   0.0000       0.132382         3.6023

MULLIKEN ATOMIC CHARGES
-----------------------
   0 C :   -0.309578
   1 O :   -0.193430
   2 C :    0.437418
   3 O :   -0.489396
   4 C :   -0.228203
   5 Cl:   -0.188264
   6 H :    0.179620
   7 H :    0.185216
   8 H :    0.182767
   9 H :    0.213539
  10 H :    0.210311
Sum of atomic charges:   -0.0000000

LOEWDIN ATOMIC CHARGES
----------------------
   0 C :   -0.032152
   1 O :   -0.588140
   2 C :    0.330349
   3 O :   -0.470481
   4 C :   -0.230892
   5 Cl:    0.039146
   6 H :    0.189482
   7 H :    0.192254
   8 H :    0.186952
   9 H :    0.190822
  10 H :    0.192660

  Mayer bond orders larger than 0.100000
B(  0-C ,  1-O ) :   0.8236 B(  0-C ,  6-H ) :   0.9570 B(  0-C ,  7-H ) :   0.9611
B(  0-C ,  8-H ) :   0.9490 B(  1-O ,  2-C ) :   1.1132 B(  2-C ,  3-O ) :   1.7931
B(  2-C ,  4-C ) :   0.9495 B(  4-C ,  5-Cl) :   0.9580 B(  4-C ,  9-H ) :   0.9460
B(  4-C , 10-H ) :   0.9455

Dispersion correction           -0.002598218
FINAL SINGLE POINT ENERGY      -727.908790651226

DIPOLE MOMENT
-------------

Method             : SCF
Type of density    : Electron Density
Multiplicity       :   1
Irrep              :   0
Energy             :  -727.9165579995382132 Eh
Relativity type    :
Basis              : AO
                                X                 Y                 Z
Electronic contribution:      7.920343307       0.480066527      -1.655324619
Nuclear contribution   :     -8.824955228       0.583759746       2.069074064
                        -----------------------------------------
Total Dipole Moment    :     -0.904611920       1.063826274       0.413749445
                        -----------------------------------------
Magnitude (a.u.)       :      1.456446933
Magnitude (Debye)      :      3.701993902

Rotational constants in cm-1:             0.199054             0.054205             0.049073
Rotational constants in MHz :          5967.493136          1625.012405          1471.169069

                             ****ORCA TERMINATED NORMALLY****
TOTAL RUN TIME: 0 days 0 hours 0 minutes 17 seconds 567 msec
