                         Program Version 6.0.0  -   RELEASE  -
|  1> ! pbe def2-sv(p) def2/J RI DEFGRID1 loosescf d4 GCP(DFT/SV(P)) printgap
|  2> %output
|  3>     printlevel normal
|  4> end
|  5> * xyz 0 1
|  6> C -2.6482146247 0.407701186 1.2766632139
|  7> C -1.4572455273 0.4214954365 0.3677825217
|  8> C -0.8841182751 1.5422463846 -0.0502180838
|  9> C 0.3347028853 1.6174782989 -0.9171627105
| 10> C 1.0870650268 0.287188572 -1.0073864404
| 11> H 1.7162309293 0.3071937886 -1.9047560772
| 12> C 0.0543077178 -0.8319770382 -1.1967020778
| 13> C -0.888011739 -0.9356453248 0.0039639056
| 14> H -0.3380162254 -1.3306165917 0.8701667803
| 15> O -1.8992531565 -1.9045237408 -0.2262608691
| 16> C 1.9974979073 -0.0199033827 0.166306135
| 17> C 2.9163504349 -0.9680780482 0.0501390399
| 18> C 1.8513309188 0.7619309475 1.4356432243
| 19> H -2.3613583584 0.0071810428 2.2492403974
| 20> H -3.4265806923 -0.2409744255 0.8800913203
| 21> H -3.0466231559 1.4095057545 1.4102558423
| 22> H -1.3089558327 2.4956956188 0.2363544975
| 23> H 0.0206179566 1.9117496047 -1.9246244028
| 24> H 0.9933464342 2.4075982177 -0.5532896551
| 25> H -0.5400345045 -0.6133133214 -2.0879787167
| 26> H 0.5514317917 -1.7919929428 -1.3432547793
| 27> H -2.361469159 -1.6768185411 -1.044991032
| 28> H 3.5704729486 -1.231186285 0.8638192908
| 29> H 3.0527021339 -1.5231106558 -0.8631096859
| 30> H 2.2311860609 1.7737479878 1.2989496704
| 31> H 0.8085605748 0.8353438331 1.7328928645
| 32> H 2.4197709123 0.2929227539 2.2342808117
| 33> *
| 34>
| 35>                          ****END OF INPUT****

CARTESIAN COORDINATES (ANGSTROEM)
---------------------------------
  C     -2.648215    0.407701    1.276663
  C     -1.457246    0.421495    0.367783
  C     -0.884118    1.542246   -0.050218
  C      0.334703    1.617478   -0.917163
  C      1.087065    0.287189   -1.007386
  H      1.716231    0.307194   -1.904756
  C      0.054308   -0.831977   -1.196702
  C     -0.888012   -0.935645    0.003964
  H     -0.338016   -1.330617    0.870167
  O     -1.899253   -1.904524   -0.226261
  C      1.997498   -0.019903    0.166306
  C      2.916350   -0.968078    0.050139
  C      1.851331    0.761931    1.435643
  H     -2.361358    0.007181    2.249240
  H     -3.426581   -0.240974    0.880091
  H     -3.046623    1.409506    1.410256
  H     -1.308956    2.495696    0.236354
  H      0.020618    1.911750   -1.924624
  H      0.993346    2.407598   -0.553290
  H     -0.540035   -0.613313   -2.087979
  H      0.551432   -1.791993   -1.343255
  H     -2.361469   -1.676819   -1.044991
  H      3.570473   -1.231186    0.863819
  H      3.052702   -1.523111   -0.863110
  H      2.231186    1.773748    1.298950
  H      0.808561    0.835344    1.732893
  H      2.419771    0.292923    2.234281

 Total Charge           Charge          ....    0
 Multiplicity           Mult            ....    1
 Number of Electrons    NEL             ....   84
 Basis Dimension        Dim             ....  186

ORBITAL ENERGIES
----------------

  NO   OCC          E(Eh)            E(eV)
   0   2.0000     -18.742448      -510.0079
   1   2.0000      -9.936485      -270.3855
   2   2.0000      -9.901090      -269.4223
   3   2.0000      -9.899000      -269.3655
   4   2.0000      -9.891637      -269.1651
   5   2.0000      -9.890804      -269.1425
   6   2.0000      -9.886752      -269.0322
   7   2.0000      -9.884333      -268.9664
   8   2.0000      -9.877359      -268.7766
   9   2.0000      -9.875180      -268.7173
  10   2.0000      -9.866096      -268.4701
  11   2.0000      -0.920147       -25.0385
  12   2.0000      -0.768162       -20.9027
  13   2.0000      -0.718106       -19.5407
  14   2.0000      -0.678249       -18.4561
  15   2.0000      -0.660783       -17.9808
  16   2.0000      -0.616409       -16.7733
  17   2.0000      -0.601392       -16.3647
  18   2.0000      -0.558519       -15.1981
  19   2.0000      -0.538209       -14.6454
  20   2.0000      -0.489000       -13.3064
  21   2.0000      -0.462262       -12.5788
  22   2.0000      -0.435412       -11.8482
  23   2.0000      -0.419182       -11.4065
  24   2.0000      -0.407734       -11.0950
  25   2.0000      -0.400085       -10.8869
  26   2.0000      -0.386461       -10.5161
  27   2.0000      -0.376775       -10.2526
  28   2.0000      -0.368360       -10.0236
  29   2.0000      -0.362727        -9.8703
  30   2.0000      -0.352175        -9.5832
  31   2.0000      -0.343592        -9.3496
  32   2.0000      -0.337418        -9.1816
  33   2.0000      -0.323999        -8.8165
  34   2.0000      -0.317441        -8.6380
  35   2.0000      -0.306906        -8.3513
  36   2.0000      -0.287564        -7.8250
  37   2.0000      -0.276152        -7.5145
  38   2.0000      -0.266411        -7.2494
  39   2.0000      -0.218165        -5.9366
  40   2.0000      -0.215335        -5.8596
  41   2.0000      -0.202941        -5.5223
  42   0.0000      -0.019219        -0.5230
  43   0.0000      -0.012406        -0.3376
  44   0.0000       0.032474         0.8837
  45   0.0000       0.041111         1.1187
  46   0.0000       0.051690         1.4065

MULLIKEN ATOMIC CHARGES
-----------------------
   0 C :   -0.189790
   1 C :   -0.094878
   2 C :   -0.213655
   3 C :   -0.030012
   4 C :   -0.142588
   5 H :    0.071173
   6 C :   -0.099740
   7 C :    0.087466
   8 H :    0.084053
   9 O :   -0.421755
  10 C :   -0.064702
  11 C :   -0.237430
  12 C :   -0.215574
  13 H :    0.104329
  14 H :    0.098725
  15 H :    0.094286
  16 H :    0.043004
  17 H :    0.093585
  18 H :    0.085409
  19 H :    0.063511
  20 H :    0.089395
  21 H :    0.292434
  22 H :    0.083170
  23 H :    0.084713
  24 H :    0.110318
  25 H :    0.127085
  26 H :    0.097469
Sum of atomic charges:   -0.0000000

LOEWDIN ATOMIC CHARGES
----------------------
   0 C :   -0.322480
   1 C :   -0.088522
   2 C :   -0.150465
   3 C :   -0.213458
   4 C :   -0.130740
   5 H :    0.127009
   6 C :   -0.213388
   7 C :   -0.042985
   8 H :    0.121641
   9 O :   -0.318938
  10 C :   -0.049796
  11 C :   -0.265449
  12 C :   -0.328370
  13 H :    0.129823
  14 H :    0.124157
  15 H :    0.120560
  16 H :    0.116078
  17 H :    0.129683
  18 H :    0.122964
  19 H :    0.110693
  20 H :    0.120890
  21 H :    0.280828
  22 H :    0.117112
  23 H :    0.115329
  24 H :    0.130606
  25 H :    0.131985
  26 H :    0.125234

  Mayer bond orders larger than 0.100000
B(  0-C ,  1-C ) :   1.1263 B(  0-C , 13-H ) :   0.9280 B(  0-C , 14-H ) :   0.9226
B(  0-C , 15-H ) :   0.9422 B(  1-C ,  2-C ) :   1.8926 B(  1-C ,  7-C ) :   0.9799
B(  2-C ,  3-C ) :   1.0448 B(  2-C , 16-H ) :   0.9211 B(  3-C ,  4-C ) :   1.0955
B(  3-C , 17-H ) :   0.8851 B(  3-C , 18-H ) :   0.8990 B(  4-C ,  5-H ) :   0.8739
B(  4-C ,  6-C ) :   1.0451 B(  4-C , 10-C ) :   1.0041 B(  6-C ,  7-C ) :   1.1030
B(  6-C , 19-H ) :   0.9051 B(  6-C , 20-H ) :   0.9044 B(  7-C ,  8-H ) :   0.8592
B(  7-C ,  9-O ) :   1.0337 B(  9-O , 21-H ) :   0.8502 B( 10-C , 11-C ) :   2.0276
B( 10-C , 12-C ) :   1.1514 B( 11-C , 22-H ) :   0.9076 B( 11-C , 23-H ) :   0.9118
B( 12-C , 24-H ) :   0.9168 B( 12-C , 25-H ) :   0.9153 B( 12-C , 26-H ) :   0.9335

Dispersion correction           -0.029909263
FINAL SINGLE POINT ENERGY      -464.789714590056

DIPOLE MOMENT
-------------

Method             : SCF
Type of density    : Electron Density
Multiplicity       :   1
Irrep              :   0
Energy             :  -464.8789169739178533 Eh
Relativity type    :
Basis              : AO
                                X                 Y                 Z
Electronic contribution:     -1.864866074      -2.277546943      -2.285779122
Nuclear contribution   :      1.830608715       2.817147801       1.923683127
                        -----------------------------------------
Total Dipole Moment    :     -0.034257359       0.539600858      -0.362095995
                        -----------------------------------------
Magnitude (a.u.)       :      0.650735094
Magnitude (Debye)      :      1.654037160

Rotational constants in cm-1:             0.053848             0.028999             0.025200
Rotational constants in MHz :          1614.336598           869.372386           755.465750

                             ****ORCA TERMINATED NORMALLY****
TOTAL RUN TIME: 0 days 0 hours 0 minutes 12 seconds 753 msec
