                         Program Version 6.0.0  -   RELEASE  -
|  1> ! wb97x-v def2-tzvp def2/J RIJCOSX DEFGRID2 scfconv7 GCP(DFT/TZ) printgap
|  2> %output
|  3>     printlevel normal
|  4> end
|  5> * xyz 0 1
|  6> C 1.4506655422443158 0.0001907915340920898 -0.5589444123521177
|  7> C 0.9773632089307309 1.1970750131535624 0.21176299046146643
|  8> C -0.33594638292779294 1.5160503937253231 0.2698032684541505
|  9> C -1.407862224950952 0.6842961366498809 -0.20073934229495605
| 10> C -1.4076961965654293 -0.6846345340246724 -0.2007992471899167
| 11> C -0.3355799030862486 -1.516167603239372 0.2696794985790616
| 12> C 0.9776524277797255 -1.1968682401016073 0.21166902099836396
| 13> H 2.535888132998177 0.00032569013873949055 -0.6694360163244043
| 14> H 0.9916725032160332 0.00017374605179914848 -1.557711677780004
| 15> H 1.7112775159556621 1.8219871886860606 0.7150134951707706
| 16> H -0.6211442938824866 2.461562855524664 0.72808145438506
| 17> H -2.3507030898301533 1.1797743522524176 -0.4230566634179452
| 18> H -2.3504169441793388 -1.1803199495697114 -0.42315995961910907
| 19> H -0.6205502321606919 -2.4617849641847362 0.7278832905549129
| 20> H 1.7117149097892577 -1.8216395240166892 0.7148758048020634
| 21> *
| 22>
| 23>                          ****END OF INPUT****

CARTESIAN COORDINATES (ANGSTROEM)
---------------------------------
  C      1.450666    0.000191   -0.558944
  C      0.977363    1.197075    0.211763
  C     -0.335946    1.516050    0.269803
  C     -1.407862    0.684296   -0.200739
  C     -1.407696   -0.684635   -0.200799
  C     -0.335580   -1.516168    0.269679
  C      0.977652   -1.196868    0.211669
  H      2.535888    0.000326   -0.669436
  H      0.991673    0.000174   -1.557712
  H      1.711278    1.821987    0.715013
  H     -0.621144    2.461563    0.728081
  H     -2.350703    1.179774   -0.423057
  H     -2.350417   -1.180320   -0.423160
  H     -0.620550   -2.461785    0.727883
  H      1.711715   -1.821640    0.714876

 Total Charge           Charge          ....    0
 Multiplicity           Mult            ....    1
 Number of Electrons    NEL             ....   50
 Basis Dimension        Dim             ....  265

ORBITAL ENERGIES
----------------

  NO   OCC          E(Eh)            E(eV)
   0   2.0000     -12.056522      -328.0746
   1   2.0000     -12.056445      -328.0726
   2   2.0000     -12.054066      -328.0078
   3   2.0000     -12.051964      -327.9506
   4   2.0000     -12.050319      -327.9059
   5   2.0000     -12.045357      -327.7708
   6   2.0000     -12.045332      -327.7701
   7   2.0000      -1.364212       -37.1221
   8   2.0000      -1.293769       -35.2052
   9   2.0000      -1.287418       -35.0324
  10   2.0000      -1.172564       -31.9071
  11   2.0000      -1.132380       -30.8136
  12   2.0000      -1.020740       -27.7757
  13   2.0000      -0.975354       -26.5407
  14   2.0000      -0.954359       -25.9694
  15   2.0000      -0.906444       -24.6656
  16   2.0000      -0.896632       -24.3986
  17   2.0000      -0.879609       -23.9354
  18   2.0000      -0.842155       -22.9162
  19   2.0000      -0.819929       -22.3114
  20   2.0000      -0.799917       -21.7669
  21   2.0000      -0.795376       -21.6433
  22   2.0000      -0.723222       -19.6799
  23   2.0000      -0.650411       -17.6986
  24   2.0000      -0.602747       -16.4016
  25   0.0000      -0.269472        -7.3327
  26   0.0000      -0.205376        -5.5886
  27   0.0000      -0.126217        -3.4345
  28   0.0000      -0.035840        -0.9752
  29   0.0000      -0.015829        -0.4307

MULLIKEN ATOMIC CHARGES
-----------------------
   0 C :   -0.095782
   1 C :   -0.144801
   2 C :   -0.124998
   3 C :   -0.135530
   4 C :   -0.135519
   5 C :   -0.125020
   6 C :   -0.144782
   7 H :    0.107561
   8 H :    0.110052
   9 H :    0.116974
  10 H :    0.113833
  11 H :    0.113600
  12 H :    0.113601
  13 H :    0.113837
  14 H :    0.116976
Sum of atomic charges:    0.0000000

LOEWDIN ATOMIC CHARGES
----------------------
   0 C :   -0.238228
   1 C :   -0.130898
   2 C :   -0.169021
   3 C :   -0.150955
   4 C :   -0.150955
   5 C :   -0.169022
   6 C :   -0.130898
   7 H :    0.137022
   8 H :    0.152047
   9 H :    0.136801
  10 H :    0.145437
  11 H :    0.143217
  12 H :    0.143216
  13 H :    0.145437
  14 H :    0.136800

  Mayer bond orders larger than 0.100000
B(  0-C ,  1-C ) :   0.9656 B(  0-C ,  6-C ) :   0.9656 B(  0-C ,  7-H ) :   0.9813
B(  0-C ,  8-H ) :   0.9560 B(  1-C ,  2-C ) :   1.8298 B(  1-C ,  9-H ) :   0.9645
B(  2-C ,  3-C ) :   1.1097 B(  2-C , 10-H ) :   0.9612 B(  3-C ,  4-C ) :   1.7500
B(  3-C , 11-H ) :   0.9683 B(  4-C ,  5-C ) :   1.1097 B(  4-C , 12-H ) :   0.9683
B(  5-C ,  6-C ) :   1.8298 B(  5-C , 13-H ) :   0.9613 B(  6-C , 14-H ) :   0.9645

FINAL SINGLE POINT ENERGY      -271.516775369937

DIPOLE MOMENT
-------------

Method             : SCF
Type of density    : Electron Density
Multiplicity       :   1
Irrep              :   0
Energy             :  -271.5246566150369745 Eh
Relativity type    :
Basis              : AO
                                X                 Y                 Z
Electronic contribution:     -0.810382025      -0.000109930       0.226704725
Nuclear contribution   :      0.942336078       0.000124754      -0.162900905
                        -----------------------------------------
Total Dipole Moment    :      0.131954052       0.000014824       0.063803819
                        -----------------------------------------
Magnitude (a.u.)       :      0.146570118
Magnitude (Debye)      :      0.372551633

Rotational constants in cm-1:             0.124406             0.123280             0.068404
Rotational constants in MHz :          3729.588737          3695.840447          2050.689976

                             ****ORCA TERMINATED NORMALLY****
TOTAL RUN TIME: 0 days 0 hours 2 minutes 23 seconds 568 msec
