                         Program Version 6.0.0  -   RELEASE  -
|  1> ! wb97x-v def2-tzvp def2/J RIJCOSX DEFGRID2 scfconv7 GCP(DFT/TZ) printgap
|  2> %output
|  3>     printlevel normal
|  4> end
|  5> %cpcm
|  6>     smd true
|  7>     smdsolvent "water"
|  8> end
|  9> * xyz 0 1
| 10> C 1.4506655422443158 0.0001907915340920898 -0.5589444123521177
| 11> C 0.9773632089307309 1.1970750131535624 0.21176299046146643
| 12> C -0.33594638292779294 1.5160503937253231 0.2698032684541505
| 13> C -1.407862224950952 0.6842961366498809 -0.20073934229495605
| 14> C -1.4076961965654293 -0.6846345340246724 -0.2007992471899167
| 15> C -0.3355799030862486 -1.516167603239372 0.2696794985790616
| 16> C 0.9776524277797255 -1.1968682401016073 0.21166902099836396
| 17> H 2.535888132998177 0.00032569013873949055 -0.6694360163244043
| 18> H 0.9916725032160332 0.00017374605179914848 -1.557711677780004
| 19> H 1.7112775159556621 1.8219871886860606 0.7150134951707706
| 20> H -0.6211442938824866 2.461562855524664 0.72808145438506
| 21> H -2.3507030898301533 1.1797743522524176 -0.4230566634179452
| 22> H -2.3504169441793388 -1.1803199495697114 -0.42315995961910907
| 23> H -0.6205502321606919 -2.4617849641847362 0.7278832905549129
| 24> H 1.7117149097892577 -1.8216395240166892 0.7148758048020634
| 25> *
| 26>
| 27>                          ****END OF INPUT****

CARTESIAN COORDINATES (ANGSTROEM)
---------------------------------
  C      1.450666    0.000191   -0.558944
  C      0.977363    1.197075    0.211763
  C     -0.335946    1.516050    0.269803
  C     -1.407862    0.684296   -0.200739
  C     -1.407696   -0.684635   -0.200799
  C     -0.335580   -1.516168    0.269679
  C      0.977652   -1.196868    0.211669
  H      2.535888    0.000326   -0.669436
  H      0.991673    0.000174   -1.557712
  H      1.711278    1.821987    0.715013
  H     -0.621144    2.461563    0.728081
  H     -2.350703    1.179774   -0.423057
  H     -2.350417   -1.180320   -0.423160
  H     -0.620550   -2.461785    0.727883
  H      1.711715   -1.821640    0.714876

 Total Charge           Charge          ....    0
 Multiplicity           Mult            ....    1
 Number of Electrons    NEL             ....   50
 Basis Dimension        Dim             ....  265

ORBITAL ENERGIES
----------------

  NO   OCC          E(Eh)            E(eV)
   0   2.0000     -12.053894      -328.0031
   1   2.0000     -12.053769      -327.9997
   2   2.0000     -12.051626      -327.9414
   3   2.0000     -12.049532      -327.8844
   4   2.0000     -12.044190      -327.7391
   5   2.0000     -12.042519      -327.6936
   6   2.0000     -12.042450      -327.6917
   7   2.0000      -1.362672       -37.0802
   8   2.0000      -1.292370       -35.1672
   9   2.0000      -1.284867       -34.9630
  10   2.0000      -1.169573       -31.8257
  11   2.0000      -1.129799       -30.7434
  12   2.0000      -1.017680       -27.6925
  13   2.0000      -0.971606       -26.4387
  14   2.0000      -0.950595       -25.8670
  15   2.0000      -0.902977       -24.5712
  16   2.0000      -0.893082       -24.3020
  17   2.0000      -0.875274       -23.8174
  18   2.0000      -0.838338       -22.8123
  19   2.0000      -0.816251       -22.2113
  20   2.0000      -0.793962       -21.6048
  21   2.0000      -0.791574       -21.5398
  22   2.0000      -0.723110       -19.6768
  23   2.0000      -0.650252       -17.6943
  24   2.0000      -0.602340       -16.3905
  25   0.0000      -0.268634        -7.3099
  26   0.0000      -0.204687        -5.5698
  27   0.0000      -0.125339        -3.4106
  28   0.0000      -0.025853        -0.7035
  29   0.0000      -0.012413        -0.3378

MULLIKEN ATOMIC CHARGES
-----------------------
   0 C :   -0.088940
   1 C :   -0.197251
   2 C :   -0.184507
   3 C :   -0.176357
   4 C :   -0.176337
   5 C :   -0.184540
   6 C :   -0.197226
   7 H :    0.135377
   8 H :    0.120328
   9 H :    0.160212
  10 H :    0.157397
  11 H :    0.157114
  12 H :    0.157116
  13 H :    0.157402
  14 H :    0.160213
Sum of atomic charges:    0.0000000

LOEWDIN ATOMIC CHARGES
----------------------
   0 C :   -0.236754
   1 C :   -0.136237
   2 C :   -0.183625
   3 C :   -0.161880
   4 C :   -0.161880
   5 C :   -0.183626
   6 C :   -0.136238
   7 H :    0.144990
   8 H :    0.152587
   9 H :    0.145992
  10 H :    0.153605
  11 H :    0.151734
  12 H :    0.151734
  13 H :    0.153605
  14 H :    0.145992

  Mayer bond orders larger than 0.100000
B(  0-C ,  1-C ) :   0.9520 B(  0-C ,  6-C ) :   0.9519 B(  0-C ,  7-H ) :   0.9745
B(  0-C ,  8-H ) :   0.9552 B(  1-C ,  2-C ) :   1.8096 B(  1-C ,  6-C ) :   0.1075
B(  1-C ,  9-H ) :   0.9634 B(  2-C ,  3-C ) :   1.0927 B(  2-C , 10-H ) :   0.9605
B(  3-C ,  4-C ) :   1.7400 B(  3-C , 11-H ) :   0.9654 B(  4-C ,  5-C ) :   1.0927
B(  4-C , 12-H ) :   0.9654 B(  5-C ,  6-C ) :   1.8096 B(  5-C , 13-H ) :   0.9605
B(  6-C , 14-H ) :   0.9634

FINAL SINGLE POINT ENERGY      -271.518971392668

DIPOLE MOMENT
-------------

Method             : SCF
Type of density    : Electron Density
Multiplicity       :   1
Irrep              :   0
Energy             :  -271.5268526377678882 Eh
Relativity type    :
Basis              : AO
                                X                 Y                 Z
Electronic contribution:     -0.716121232      -0.000098135       0.235673770
Nuclear contribution   :      0.942336078       0.000124754      -0.162900905
                        -----------------------------------------
Total Dipole Moment    :      0.226214846       0.000026619       0.072772865
                        -----------------------------------------
Magnitude (a.u.)       :      0.237632167
Magnitude (Debye)      :      0.604012968

Rotational constants in cm-1:             0.124406             0.123280             0.068404
Rotational constants in MHz :          3729.588737          3695.840447          2050.689976

                             ****ORCA TERMINATED NORMALLY****
TOTAL RUN TIME: 0 days 0 hours 2 minutes 13 seconds 421 msec
