                         Program Version 6.0.0  -   RELEASE  -
|  1> ! r2scan-3c def2/J RI DEFGRID2 scfconv6 printgap
|  2> %output
|  3>     printlevel normal
|  4> end
|  5> * xyz 0 1
|  6> C -2.9208106948 -0.0361463784 0.0043886623
|  7> O -1.6604273274 0.6505402642 0.0005686304
|  8> C -0.5450943616 -0.0565758342 -0.0041776608
|  9> O -0.4861442471 -1.2630764297 -0.0057629508
| 10> C 0.6481077795 0.8783746832 -0.0079336497
| 11> Cl 2.1626139243 -0.0589668568 0.0052787207
| 12> H -2.7638153785 -1.1057083948 -0.1340468973
| 13> H -3.5117305681 0.3772096821 -0.8095434136
| 14> H -3.4045956135 0.1555045469 0.9604667037
| 15> H 0.6287928745 1.5126654161 0.8778056752
| 16> H 0.6348522338 1.4954898455 -0.9058785902
| 17> *
| 18>
| 19>                          ****END OF INPUT****

CARTESIAN COORDINATES (ANGSTROEM)
---------------------------------
  C     -2.920811   -0.036146    0.004389
  O     -1.660427    0.650540    0.000569
  C     -0.545094   -0.056576   -0.004178
  O     -0.486144   -1.263076   -0.005763
  C      0.648108    0.878375   -0.007934
  Cl     2.162614   -0.058967    0.005279
  H     -2.763815   -1.105708   -0.134047
  H     -3.511731    0.377210   -0.809543
  H     -3.404596    0.155505    0.960467
  H      0.628793    1.512665    0.877806
  H      0.634852    1.495490   -0.905879

 Total Charge           Charge          ....    0
 Multiplicity           Mult            ....    1
 Number of Electrons    NEL             ....   56
 Basis Dimension        Dim             ....  157

ORBITAL ENERGIES
----------------

  NO   OCC          E(Eh)            E(eV)
   0   2.0000    -101.209501     -2754.0505
   1   2.0000     -19.018276      -517.5136
   2   2.0000     -18.945877      -515.5435
   3   2.0000     -10.174343      -276.8579
   4   2.0000     -10.114134      -275.2196
   5   2.0000     -10.099550      -274.8227
   6   2.0000      -9.365203      -254.8401
   7   2.0000      -7.112045      -193.5286
   8   2.0000      -7.100990      -193.2277
   9   2.0000      -7.100895      -193.2252
  10   2.0000      -1.092566       -29.7302
  11   2.0000      -0.996445       -27.1146
  12   2.0000      -0.830079       -22.5876
  13   2.0000      -0.736005       -20.0277
  14   2.0000      -0.660272       -17.9669
  15   2.0000      -0.549285       -14.9468
  16   2.0000      -0.494037       -13.4434
  17   2.0000      -0.481279       -13.0963
  18   2.0000      -0.457382       -12.4460
  19   2.0000      -0.438322       -11.9274
  20   2.0000      -0.405834       -11.0433
  21   2.0000      -0.393174       -10.6988
  22   2.0000      -0.370269       -10.0755
  23   2.0000      -0.336758        -9.1637
  24   2.0000      -0.290697        -7.9103
  25   2.0000      -0.274810        -7.4780
  26   2.0000      -0.272677        -7.4199
  27   2.0000      -0.257231        -6.9996
  28   0.0000      -0.029945        -0.8148
  29   0.0000      -0.004991        -0.1358
  30   0.0000       0.063951         1.7402
  31   0.0000       0.080332         2.1859
  32   0.0000       0.110718         3.0128

MULLIKEN ATOMIC CHARGES
-----------------------
   0 C :   -0.296167
   1 O :   -0.194557
   2 C :    0.373814
   3 O :   -0.414389
   4 C :   -0.187532
   5 Cl:   -0.139055
   6 H :    0.192597
   7 H :    0.152355
   8 H :    0.153236
   9 H :    0.179726
  10 H :    0.179972
Sum of atomic charges:   -0.0000000

LOEWDIN ATOMIC CHARGES
----------------------
   0 C :   -0.039283
   1 O :   -0.597662
   2 C :    0.333227
   3 O :   -0.424955
   4 C :   -0.260166
   5 Cl:    0.077279
   6 H :    0.194300
   7 H :    0.176402
   8 H :    0.175504
   9 H :    0.182633
  10 H :    0.182720

  Mayer bond orders larger than 0.100000
B(  0-C ,  1-O ) :   0.8319 B(  0-C ,  6-H ) :   0.9655 B(  0-C ,  7-H ) :   0.9648
B(  0-C ,  8-H ) :   0.9614 B(  1-O ,  2-C ) :   1.0670 B(  2-C ,  3-O ) :   1.8631
B(  2-C ,  4-C ) :   1.0142 B(  4-C ,  5-Cl) :   1.0499 B(  4-C ,  9-H ) :   0.9339
B(  4-C , 10-H ) :   0.9325

Dispersion correction           -0.002547626
FINAL SINGLE POINT ENERGY      -727.901725096811

DIPOLE MOMENT
-------------

Method             : SCF
Type of density    : Electron Density
Multiplicity       :   1
Irrep              :   0
Energy             :  -727.9097222091265849 Eh
Relativity type    :
Basis              : AO
                                X                 Y                 Z
Electronic contribution:      9.729780460      -1.409532068       0.012534088
Nuclear contribution   :    -10.830573850       2.354678928      -0.017666263
                        -----------------------------------------
Total Dipole Moment    :     -1.100793390       0.945146860      -0.005132176
                        -----------------------------------------
Magnitude (a.u.)       :      1.450887664
Magnitude (Debye)      :      3.687863363

Rotational constants in cm-1:             0.331093             0.046747             0.041613
Rotational constants in MHz :          9925.924302          1401.428606          1247.535709

                             ****ORCA TERMINATED NORMALLY****
TOTAL RUN TIME: 0 days 0 hours 0 minutes 14 seconds 805 msec
