                         Program Version 6.0.0  -   RELEASE  -
|  1> ! r2scan-3c def2/J RI DEFGRID2 scfconv6 printgap
|  2> %output
|  3>     printlevel normal
|  4> end
|  5> %cpcm
|  6>     smd true
|  7>     smdsolvent "water"
|  8> end
|  9> * xyz 0 1
| 10> C -2.9208106948 -0.0361463784 0.0043886623
| 11> O -1.6604273274 0.6505402642 0.0005686304
| 12> C -0.5450943616 -0.0565758342 -0.0041776608
| 13> O -0.4861442471 -1.2630764297 -0.0057629508
| 14> C 0.6481077795 0.8783746832 -0.0079336497
| 15> Cl 2.1626139243 -0.0589668568 0.0052787207
| 16> H -2.7638153785 -1.1057083948 -0.1340468973
| 17> H -3.5117305681 0.3772096821 -0.8095434136
| 18> H -3.4045956135 0.1555045469 0.9604667037
| 19> H 0.6287928745 1.5126654161 0.8778056752
| 20> H 0.6348522338 1.4954898455 -0.9058785902
| 21> *
| 22>
| 23>                          ****END OF INPUT****

CARTESIAN COORDINATES (ANGSTROEM)
---------------------------------
  C     -2.920811   -0.036146    0.004389
  O     -1.660427    0.650540    0.000569
  C     -0.545094   -0.056576   -0.004178
  O     -0.486144   -1.263076   -0.005763
  C      0.648108    0.878375   -0.007934
  Cl     2.162614   -0.058967    0.005279
  H     -2.763815   -1.105708   -0.134047
  H     -3.511731    0.377210   -0.809543
  H     -3.404596    0.155505    0.960467
  H      0.628793    1.512665    0.877806
  H      0.634852    1.495490   -0.905879

 Total Charge           Charge          ....    0
 Multiplicity           Mult            ....    1
 Number of Electrons    NEL             ....   56
 Basis Dimension        Dim             ....  157

ORBITAL ENERGIES
----------------

  NO   OCC          E(Eh)            E(eV)
   0   2.0000    -101.213755     -2754.1663
   1   2.0000     -19.013561      -517.3853
   2   2.0000     -18.952767      -515.7310
   3   2.0000     -10.177469      -276.9430
   4   2.0000     -10.103387      -274.9271
   5   2.0000     -10.079715      -274.2830
   6   2.0000      -9.369682      -254.9620
   7   2.0000      -7.116123      -193.6395
   8   2.0000      -7.105610      -193.3535
   9   2.0000      -7.105606      -193.3534
  10   2.0000      -1.089804       -29.6551
  11   2.0000      -1.001044       -27.2398
  12   2.0000      -0.829877       -22.5821
  13   2.0000      -0.726473       -19.7683
  14   2.0000      -0.650210       -17.6931
  15   2.0000      -0.538889       -14.6639
  16   2.0000      -0.488991       -13.3061
  17   2.0000      -0.472217       -12.8497
  18   2.0000      -0.461192       -12.5497
  19   2.0000      -0.422550       -11.4982
  20   2.0000      -0.404062       -10.9951
  21   2.0000      -0.387662       -10.5488
  22   2.0000      -0.365129        -9.9357
  23   2.0000      -0.328812        -8.9474
  24   2.0000      -0.289297        -7.8722
  25   2.0000      -0.280905        -7.6438
  26   2.0000      -0.274648        -7.4736
  27   2.0000      -0.265879        -7.2349
  28   0.0000      -0.029294        -0.7971
  29   0.0000      -0.002049        -0.0558
  30   0.0000       0.075264         2.0480
  31   0.0000       0.097202         2.6450
  32   0.0000       0.130939         3.5630

MULLIKEN ATOMIC CHARGES
-----------------------
   0 C :   -0.311346
   1 O :   -0.198491
   2 C :    0.413884
   3 O :   -0.499225
   4 C :   -0.205215
   5 Cl:   -0.189791
   6 H :    0.188111
   7 H :    0.178636
   8 H :    0.180010
   9 H :    0.221438
  10 H :    0.221990
Sum of atomic charges:   -0.0000000

LOEWDIN ATOMIC CHARGES
----------------------
   0 C :   -0.032862
   1 O :   -0.590123
   2 C :    0.346020
   3 O :   -0.487583
   4 C :   -0.249677
   5 Cl:    0.046572
   6 H :    0.193078
   7 H :    0.187658
   8 H :    0.186343
   9 H :    0.200218
  10 H :    0.200356

  Mayer bond orders larger than 0.100000
B(  0-C ,  1-O ) :   0.8180 B(  0-C ,  6-H ) :   0.9626 B(  0-C ,  7-H ) :   0.9552
B(  0-C ,  8-H ) :   0.9524 B(  1-O ,  2-C ) :   1.1090 B(  2-C ,  3-O ) :   1.8101
B(  2-C ,  4-C ) :   1.0188 B(  4-C ,  5-Cl) :   0.9959 B(  4-C ,  9-H ) :   0.9198
B(  4-C , 10-H ) :   0.9185

Dispersion correction           -0.002547626
FINAL SINGLE POINT ENERGY      -727.910003787227

DIPOLE MOMENT
-------------

Method             : SCF
Type of density    : Electron Density
Multiplicity       :   1
Irrep              :   0
Energy             :  -727.9180008995422213 Eh
Relativity type    :
Basis              : AO
                                X                 Y                 Z
Electronic contribution:      9.414635012      -0.933598530       0.011621467
Nuclear contribution   :    -10.830573850       2.354678928      -0.017666263
                        -----------------------------------------
Total Dipole Moment    :     -1.415938838       1.421080398      -0.006044796
                        -----------------------------------------
Magnitude (a.u.)       :      2.006087942
Magnitude (Debye)      :      5.099070318

Rotational constants in cm-1:             0.331093             0.046747             0.041613
Rotational constants in MHz :          9925.924302          1401.428606          1247.535709

                             ****ORCA TERMINATED NORMALLY****
TOTAL RUN TIME: 0 days 0 hours 0 minutes 17 seconds 723 msec
