                         Program Version 6.0.0  -   RELEASE  -
|  1> ! pbe def2-sv(p) def2/J RI DEFGRID1 loosescf d4 GCP(DFT/SV(P)) printgap
|  2> %output
|  3>     printlevel normal
|  4> end
|  5> * xyz 0 1
|  6> C -2.2299396889 -1.1914955533 0.0531029934
|  7> C -0.8876578866 -0.5520512409 0.4484077245
|  8> H -0.978552126 -0.2122788376 1.49136509
|  9> C -0.5623671477 0.6610528274 -0.4265281957
| 10> H -0.494830676 0.3292606099 -1.4744400136
| 11> C 0.7913645334 1.2754049211 -0.0192765969
| 12> H 0.6330851817 1.9408508593 0.8375259245
| 13> C 1.8067568133 0.1868150222 0.4074794393
| 14> H 2.7835939893 0.4484917471 -0.0118949079
| 15> C 1.3742523445 -1.1769326117 -0.1468719465
| 16> H 2.059247833 -1.9548100658 0.2200176631
| 17> O 0.1193228973 -1.561082002 0.3661799264
| 18> O 1.3895177536 -1.1063093707 -1.5378361134
| 19> O 1.9927691691 0.1246997071 1.7967508848
| 20> O 1.2915467174 2.0947255398 -1.0464003914
| 21> O -1.6121097418 1.5891135087 -0.2854973835
| 22> O -3.3293678622 -0.4875689489 0.5627946163
| 23> H -2.2710563097 -2.194277161 0.4841726673
| 24> H -2.2896658081 -1.2735507159 -1.0405031087
| 25> H 1.2698435843 -1.9883323048 -1.9219856692
| 26> H 1.2620327765 -0.3583896114 2.2090645873
| 27> H 1.5190346819 1.5441242627 -1.8108754447
| 28> H -1.3748728997 2.4031908563 -0.7539151659
| 29> H -3.248008102 0.4410166186 0.2879963116
| 30> *
| 31>
| 32>                          ****END OF INPUT****

CARTESIAN COORDINATES (ANGSTROEM)
---------------------------------
  C     -2.229940   -1.191496    0.053103
  C     -0.887658   -0.552051    0.448408
  H     -0.978552   -0.212279    1.491365
  C     -0.562367    0.661053   -0.426528
  H     -0.494831    0.329261   -1.474440
  C      0.791365    1.275405   -0.019277
  H      0.633085    1.940851    0.837526
  C      1.806757    0.186815    0.407479
  H      2.783594    0.448492   -0.011895
  C      1.374252   -1.176933   -0.146872
  H      2.059248   -1.954810    0.220018
  O      0.119323   -1.561082    0.366180
  O      1.389518   -1.106309   -1.537836
  O      1.992769    0.124700    1.796751
  O      1.291547    2.094726   -1.046400
  O     -1.612110    1.589114   -0.285497
  O     -3.329368   -0.487569    0.562795
  H     -2.271056   -2.194277    0.484173
  H     -2.289666   -1.273551   -1.040503
  H      1.269844   -1.988332   -1.921986
  H      1.262033   -0.358390    2.209065
  H      1.519035    1.544124   -1.810875
  H     -1.374873    2.403191   -0.753915
  H     -3.248008    0.441017    0.287996

 Total Charge           Charge          ....    0
 Multiplicity           Mult            ....    1
 Number of Electrons    NEL             ....   96
 Basis Dimension        Dim             ....  192

ORBITAL ENERGIES
----------------

  NO   OCC          E(Eh)            E(eV)
   0   2.0000     -18.784045      -511.1399
   1   2.0000     -18.783220      -511.1174
   2   2.0000     -18.771716      -510.8044
   3   2.0000     -18.759481      -510.4714
   4   2.0000     -18.758065      -510.4329
   5   2.0000     -18.733272      -509.7582
   6   2.0000      -9.998182      -272.0644
   7   2.0000      -9.949762      -270.7468
   8   2.0000      -9.949217      -270.7320
   9   2.0000      -9.948802      -270.7207
  10   2.0000      -9.944353      -270.5996
  11   2.0000      -9.927635      -270.1447
  12   2.0000      -0.995393       -27.0860
  13   2.0000      -0.953752       -25.9529
  14   2.0000      -0.939266       -25.5587
  15   2.0000      -0.933846       -25.4112
  16   2.0000      -0.924304       -25.1516
  17   2.0000      -0.909812       -24.7573
  18   2.0000      -0.710031       -19.3209
  19   2.0000      -0.696306       -18.9474
  20   2.0000      -0.619690       -16.8626
  21   2.0000      -0.599238       -16.3061
  22   2.0000      -0.570253       -15.5174
  23   2.0000      -0.536720       -14.6049
  24   2.0000      -0.517717       -14.0878
  25   2.0000      -0.495415       -13.4809
  26   2.0000      -0.471123       -12.8199
  27   2.0000      -0.464931       -12.6514
  28   2.0000      -0.457418       -12.4470
  29   2.0000      -0.435501       -11.8506
  30   2.0000      -0.424292       -11.5456
  31   2.0000      -0.400372       -10.8947
  32   2.0000      -0.386025       -10.5043
  33   2.0000      -0.374492       -10.1904
  34   2.0000      -0.365906        -9.9568
  35   2.0000      -0.359582        -9.7847
  36   2.0000      -0.351316        -9.5598
  37   2.0000      -0.319714        -8.6999
  38   2.0000      -0.316787        -8.6202
  39   2.0000      -0.298345        -8.1184
  40   2.0000      -0.279912        -7.6168
  41   2.0000      -0.271571        -7.3898
  42   2.0000      -0.268279        -7.3003
  43   2.0000      -0.251880        -6.8540
  44   2.0000      -0.240492        -6.5441
  45   2.0000      -0.236365        -6.4318
  46   2.0000      -0.209793        -5.7088
  47   2.0000      -0.205878        -5.6022
  48   0.0000       0.003577         0.0973
  49   0.0000       0.013659         0.3717
  50   0.0000       0.030577         0.8320
  51   0.0000       0.051986         1.4146
  52   0.0000       0.053520         1.4563

MULLIKEN ATOMIC CHARGES
-----------------------
   0 C :    0.099500
   1 C :   -0.035958
   2 H :    0.063024
   3 C :    0.092515
   4 H :    0.050064
   5 C :    0.063049
   6 H :    0.072153
   7 C :    0.052652
   8 H :    0.079843
   9 C :    0.123583
  10 H :    0.076466
  11 O :   -0.313494
  12 O :   -0.393594
  13 O :   -0.416434
  14 O :   -0.427988
  15 O :   -0.428529
  16 O :   -0.445889
  17 H :    0.088607
  18 H :    0.056657
  19 H :    0.312859
  20 H :    0.308886
  21 H :    0.304302
  22 H :    0.315466
  23 H :    0.302262
Sum of atomic charges:    0.0000000

LOEWDIN ATOMIC CHARGES
----------------------
   0 C :   -0.120436
   1 C :   -0.071614
   2 H :    0.103584
   3 C :   -0.085913
   4 H :    0.103036
   5 C :   -0.080185
   6 H :    0.122565
   7 C :   -0.082457
   8 H :    0.123834
   9 C :   -0.015863
  10 H :    0.103137
  11 O :   -0.148926
  12 O :   -0.311766
  13 O :   -0.305788
  14 O :   -0.315582
  15 O :   -0.315273
  16 O :   -0.341004
  17 H :    0.115166
  18 H :    0.094243
  19 H :    0.292886
  20 H :    0.285262
  21 H :    0.283846
  22 H :    0.293836
  23 H :    0.273414

  Mayer bond orders larger than 0.100000
B(  0-C ,  1-C ) :   1.0299 B(  0-C , 16-O ) :   1.0938 B(  0-C , 17-H ) :   0.9208
B(  0-C , 18-H ) :   0.9057 B(  1-C ,  2-H ) :   0.8806 B(  1-C ,  3-C ) :   1.0436
B(  1-C , 11-O ) :   0.9605 B(  3-C ,  4-H ) :   0.8322 B(  3-C ,  5-C ) :   1.0486
B(  3-C , 15-O ) :   1.0257 B(  5-C ,  6-H ) :   0.8624 B(  5-C ,  7-C ) :   0.9586
B(  5-C , 14-O ) :   1.0247 B(  7-C ,  8-H ) :   0.8788 B(  7-C ,  9-C ) :   1.0516
B(  7-C , 13-O ) :   1.0532 B(  9-C , 10-H ) :   0.8984 B(  9-C , 11-O ) :   1.0562
B(  9-C , 12-O ) :   1.1190 B( 12-O , 19-H ) :   0.8362 B( 13-O , 20-H ) :   0.8396
B( 14-O , 21-H ) :   0.8436 B( 15-O , 22-H ) :   0.8325 B( 16-O , 23-H ) :   0.8214

Dispersion correction           -0.024856173
FINAL SINGLE POINT ENERGY      -685.695180538129

DIPOLE MOMENT
-------------

Method             : SCF
Type of density    : Electron Density
Multiplicity       :   1
Irrep              :   0
Energy             :  -685.8270798277441145 Eh
Relativity type    :
Basis              : AO
                                X                 Y                 Z
Electronic contribution:      1.556250593       0.452695637       0.390484091
Nuclear contribution   :     -1.062468266      -0.810938481      -1.393882576
                        -----------------------------------------
Total Dipole Moment    :      0.493782326      -0.358242844      -1.003398484
                        -----------------------------------------
Magnitude (a.u.)       :      1.174294443
Magnitude (Debye)      :      2.984819267

Rotational constants in cm-1:             0.042327             0.025344             0.021201
Rotational constants in MHz :          1268.924408           759.779869           635.579966

                             ****ORCA TERMINATED NORMALLY****
TOTAL RUN TIME: 0 days 0 hours 0 minutes 12 seconds 273 msec
