                         Program Version 6.0.0  -   RELEASE  -
|  1> ! wb97x-v def2-tzvp def2/J RIJCOSX DEFGRID2 scfconv7 GCP(DFT/TZ) printgap
|  2> %output
|  3>     printlevel normal
|  4> end
|  5> * xyz 0 1
|  6> C -0.17636507356045844 -2.3517387783009127 -0.015127668467701439
|  7> C 0.4849280587838125 -1.0069204460842618 -0.003724683092109305
|  8> C 1.8847474152974042 -0.9605772735528069 -0.004269177228258645
|  9> C 2.5924710727933835 0.23374739404155398 0.002978363747813679
| 10> C 1.914938885473686 1.451215737977318 0.00901086542050879
| 11> C 0.5321312745532453 1.455037814895951 0.007050693894488014
| 12> C -0.1655526411075231 0.24409474938669037 0.0019652481368114937
| 13> N -1.6267031566944705 0.34679660374708887 0.002574641180076429
| 14> O -2.1359792815787304 1.469735838307254 -0.04082692897811755
| 15> O -2.298843284358375 -0.6826791273608604 0.04849540076015906
| 16> H -0.7992046373115902 -2.5013007921817105 0.8710067576698864
| 17> H -0.8294045369284055 -2.4727023488430038 -0.883815168807964
| 18> H 0.5910885092151557 -3.127954882546445 -0.04072391402980972
| 19> H 2.426712349146209 -1.9007159002976153 -0.011039566994082688
| 20> H 3.6773776340417017 0.21336766736047758 0.003474863754407327
| 21> H 2.458839356899971 2.389069271658858 0.015182626523231754
| 22> H -0.017063781040899628 2.3871692635200707 0.012181836102404952
| 23> *
| 24>
| 25>                          ****END OF INPUT****

CARTESIAN COORDINATES (ANGSTROEM)
---------------------------------
  C     -0.176365   -2.351739   -0.015128
  C      0.484928   -1.006920   -0.003725
  C      1.884747   -0.960577   -0.004269
  C      2.592471    0.233747    0.002978
  C      1.914939    1.451216    0.009011
  C      0.532131    1.455038    0.007051
  C     -0.165553    0.244095    0.001965
  N     -1.626703    0.346797    0.002575
  O     -2.135979    1.469736   -0.040827
  O     -2.298843   -0.682679    0.048495
  H     -0.799205   -2.501301    0.871007
  H     -0.829405   -2.472702   -0.883815
  H      0.591089   -3.127955   -0.040724
  H      2.426712   -1.900716   -0.011040
  H      3.677378    0.213368    0.003475
  H      2.458839    2.389069    0.015183
  H     -0.017064    2.387169    0.012182

 Total Charge           Charge          ....    0
 Multiplicity           Mult            ....    1
 Number of Electrons    NEL             ....   72
 Basis Dimension        Dim             ....  352

ORBITAL ENERGIES
----------------

  NO   OCC          E(Eh)            E(eV)
   0   2.0000     -21.706012      -590.6506
   1   2.0000     -21.703606      -590.5851
   2   2.0000     -16.772788      -456.4108
   3   2.0000     -12.121716      -329.8487
   4   2.0000     -12.100742      -329.2779
   5   2.0000     -12.082659      -328.7859
   6   2.0000     -12.081808      -328.7627
   7   2.0000     -12.074986      -328.5771
   8   2.0000     -12.074340      -328.5595
   9   2.0000     -12.055746      -328.0535
  10   2.0000      -1.898446       -51.6593
  11   2.0000      -1.741893       -47.3993
  12   2.0000      -1.438529       -39.1444
  13   2.0000      -1.371006       -37.3070
  14   2.0000      -1.324273       -36.0353
  15   2.0000      -1.274016       -34.6677
  16   2.0000      -1.213580       -33.0232
  17   2.0000      -1.174504       -31.9599
  18   2.0000      -1.145070       -31.1589
  19   2.0000      -1.117689       -30.4139
  20   2.0000      -1.085767       -29.5452
  21   2.0000      -1.072705       -29.1898
  22   2.0000      -0.990399       -26.9501
  23   2.0000      -0.970432       -26.4068
  24   2.0000      -0.931331       -25.3428
  25   2.0000      -0.916603       -24.9420
  26   2.0000      -0.900866       -24.5138
  27   2.0000      -0.895697       -24.3732
  28   2.0000      -0.891959       -24.2714
  29   2.0000      -0.862330       -23.4652
  30   2.0000      -0.853749       -23.2317
  31   2.0000      -0.842157       -22.9163
  32   2.0000      -0.825322       -22.4582
  33   2.0000      -0.794441       -21.6178
  34   2.0000      -0.683685       -18.6040
  35   2.0000      -0.662752       -18.0344
  36   0.0000      -0.481249       -13.0954
  37   0.0000      -0.266624        -7.2552
  38   0.0000      -0.261138        -7.1059
  39   0.0000      -0.231781        -6.3071
  40   0.0000      -0.121702        -3.3117

MULLIKEN ATOMIC CHARGES
-----------------------
   0 C :   -0.303760
   1 C :    0.048036
   2 C :   -0.166670
   3 C :   -0.103354
   4 C :   -0.106329
   5 C :   -0.148469
   6 C :    0.004389
   7 N :    0.472861
   8 O :   -0.322477
   9 O :   -0.312464
  10 H :    0.140460
  11 H :    0.139862
  12 H :    0.108410
  13 H :    0.122072
  14 H :    0.130572
  15 H :    0.131277
  16 H :    0.165586
Sum of atomic charges:   -0.0000000

LOEWDIN ATOMIC CHARGES
----------------------
   0 C :   -0.249451
   1 C :   -0.114101
   2 C :   -0.106947
   3 C :   -0.112695
   4 C :   -0.133445
   5 C :   -0.087791
   6 C :   -0.130588
   7 N :    0.000724
   8 O :   -0.039517
   9 O :   -0.021467
  10 H :    0.134935
  11 H :    0.134608
  12 H :    0.123978
  13 H :    0.148770
  14 H :    0.147261
  15 H :    0.146803
  16 H :    0.158923

  Mayer bond orders larger than 0.100000
B(  0-C ,  1-C ) :   0.9754 B(  0-C , 10-H ) :   0.9597 B(  0-C , 11-H ) :   0.9614
B(  0-C , 12-H ) :   0.9784 B(  1-C ,  2-C ) :   1.4334 B(  1-C ,  6-C ) :   1.3440
B(  2-C ,  3-C ) :   1.4377 B(  2-C , 13-H ) :   0.9643 B(  3-C ,  4-C ) :   1.3983
B(  3-C , 14-H ) :   0.9719 B(  4-C ,  5-C ) :   1.4422 B(  4-C , 15-H ) :   0.9717
B(  5-C ,  6-C ) :   1.4401 B(  5-C , 16-H ) :   0.9295 B(  6-C ,  7-N ) :   0.9820
B(  7-N ,  8-O ) :   1.6255 B(  7-N ,  9-O ) :   1.6091 B(  8-O ,  9-O ) :   0.1976

FINAL SINGLE POINT ENERGY      -476.093956912566

DIPOLE MOMENT
-------------

Method             : SCF
Type of density    : Electron Density
Multiplicity       :   1
Irrep              :   0
Energy             :  -476.1036000885661110 Eh
Relativity type    :
Basis              : AO
                                X                 Y                 Z
Electronic contribution:     -5.278072181       4.435046467       0.035698391
Nuclear contribution   :      7.031433386      -4.745657953      -0.036301561
                        -----------------------------------------
Total Dipole Moment    :      1.753361204      -0.310611486      -0.000603169
                        -----------------------------------------
Magnitude (a.u.)       :      1.780661498
Magnitude (Debye)      :      4.526081836

Rotational constants in cm-1:             0.075058             0.042361             0.027220
Rotational constants in MHz :          2250.174382          1269.940214           816.041673

                             ****ORCA TERMINATED NORMALLY****
TOTAL RUN TIME: 0 days 0 hours 3 minutes 52 seconds 375 msec
