                         Program Version 6.0.0  -   RELEASE  -
|  1> ! wb97x-v def2-tzvp def2/J RIJCOSX DEFGRID2 scfconv7 GCP(DFT/TZ) printgap
|  2> %output
|  3>     printlevel normal
|  4> end
|  5> %cpcm
|  6>     smd true
|  7>     smdsolvent "water"
|  8> end
|  9> * xyz 0 1
| 10> C -0.17636507356045844 -2.3517387783009127 -0.015127668467701439
| 11> C 0.4849280587838125 -1.0069204460842618 -0.003724683092109305
| 12> C 1.8847474152974042 -0.9605772735528069 -0.004269177228258645
| 13> C 2.5924710727933835 0.23374739404155398 0.002978363747813679
| 14> C 1.914938885473686 1.451215737977318 0.00901086542050879
| 15> C 0.5321312745532453 1.455037814895951 0.007050693894488014
| 16> C -0.1655526411075231 0.24409474938669037 0.0019652481368114937
| 17> N -1.6267031566944705 0.34679660374708887 0.002574641180076429
| 18> O -2.1359792815787304 1.469735838307254 -0.04082692897811755
| 19> O -2.298843284358375 -0.6826791273608604 0.04849540076015906
| 20> H -0.7992046373115902 -2.5013007921817105 0.8710067576698864
| 21> H -0.8294045369284055 -2.4727023488430038 -0.883815168807964
| 22> H 0.5910885092151557 -3.127954882546445 -0.04072391402980972
| 23> H 2.426712349146209 -1.9007159002976153 -0.011039566994082688
| 24> H 3.6773776340417017 0.21336766736047758 0.003474863754407327
| 25> H 2.458839356899971 2.389069271658858 0.015182626523231754
| 26> H -0.017063781040899628 2.3871692635200707 0.012181836102404952
| 27> *
| 28>
| 29>                          ****END OF INPUT****

CARTESIAN COORDINATES (ANGSTROEM)
---------------------------------
  C     -0.176365   -2.351739   -0.015128
  C      0.484928   -1.006920   -0.003725
  C      1.884747   -0.960577   -0.004269
  C      2.592471    0.233747    0.002978
  C      1.914939    1.451216    0.009011
  C      0.532131    1.455038    0.007051
  C     -0.165553    0.244095    0.001965
  N     -1.626703    0.346797    0.002575
  O     -2.135979    1.469736   -0.040827
  O     -2.298843   -0.682679    0.048495
  H     -0.799205   -2.501301    0.871007
  H     -0.829405   -2.472702   -0.883815
  H      0.591089   -3.127955   -0.040724
  H      2.426712   -1.900716   -0.011040
  H      3.677378    0.213368    0.003475
  H      2.458839    2.389069    0.015183
  H     -0.017064    2.387169    0.012182

 Total Charge           Charge          ....    0
 Multiplicity           Mult            ....    1
 Number of Electrons    NEL             ....   72
 Basis Dimension        Dim             ....  352

ORBITAL ENERGIES
----------------

  NO   OCC          E(Eh)            E(eV)
   0   2.0000     -21.718375      -590.9870
   1   2.0000     -21.716061      -590.9241
   2   2.0000     -16.783794      -456.7103
   3   2.0000     -12.114348      -329.6482
   4   2.0000     -12.090406      -328.9967
   5   2.0000     -12.071914      -328.4935
   6   2.0000     -12.066742      -328.3528
   7   2.0000     -12.059742      -328.1622
   8   2.0000     -12.058627      -328.1319
   9   2.0000     -12.040808      -327.6470
  10   2.0000      -1.910794       -51.9954
  11   2.0000      -1.754878       -47.7527
  12   2.0000      -1.433719       -39.0135
  13   2.0000      -1.366417       -37.1821
  14   2.0000      -1.311724       -35.6938
  15   2.0000      -1.269323       -34.5400
  16   2.0000      -1.205221       -32.7957
  17   2.0000      -1.175998       -32.0005
  18   2.0000      -1.156502       -31.4700
  19   2.0000      -1.110021       -30.2052
  20   2.0000      -1.084018       -29.4976
  21   2.0000      -1.075620       -29.2691
  22   2.0000      -0.979017       -26.6404
  23   2.0000      -0.956500       -26.0277
  24   2.0000      -0.930509       -25.3204
  25   2.0000      -0.928262       -25.2593
  26   2.0000      -0.908528       -24.7223
  27   2.0000      -0.896271       -24.3888
  28   2.0000      -0.883746       -24.0479
  29   2.0000      -0.846517       -23.0349
  30   2.0000      -0.840502       -22.8712
  31   2.0000      -0.826783       -22.4979
  32   2.0000      -0.810916       -22.0662
  33   2.0000      -0.783500       -21.3201
  34   2.0000      -0.674470       -18.3533
  35   2.0000      -0.650266       -17.6946
  36   0.0000      -0.489002       -13.3064
  37   0.0000      -0.255335        -6.9480
  38   0.0000      -0.248645        -6.7660
  39   0.0000      -0.236664        -6.4400
  40   0.0000      -0.126051        -3.4300

MULLIKEN ATOMIC CHARGES
-----------------------
   0 C :   -0.360470
   1 C :    0.065668
   2 C :   -0.204188
   3 C :   -0.121630
   4 C :   -0.156829
   5 C :   -0.169158
   6 C :    0.044481
   7 N :    0.530199
   8 O :   -0.391348
   9 O :   -0.368668
  10 H :    0.150119
  11 H :    0.150925
  12 H :    0.142222
  13 H :    0.166016
  14 H :    0.171755
  15 H :    0.170812
  16 H :    0.180093
Sum of atomic charges:   -0.0000000

LOEWDIN ATOMIC CHARGES
----------------------
   0 C :   -0.250764
   1 C :   -0.111440
   2 C :   -0.103925
   3 C :   -0.105100
   4 C :   -0.132651
   5 C :   -0.089370
   6 C :   -0.133053
   7 N :    0.013773
   8 O :   -0.080130
   9 O :   -0.050822
  10 H :    0.135334
  11 H :    0.135398
  12 H :    0.133283
  13 H :    0.160491
  14 H :    0.158820
  15 H :    0.157303
  16 H :    0.162853

  Mayer bond orders larger than 0.100000
B(  0-C ,  1-C ) :   0.9540 B(  0-C , 10-H ) :   0.9616 B(  0-C , 11-H ) :   0.9637
B(  0-C , 12-H ) :   0.9748 B(  1-C ,  2-C ) :   1.4197 B(  1-C ,  6-C ) :   1.3175
B(  2-C ,  3-C ) :   1.4154 B(  2-C , 13-H ) :   0.9684 B(  3-C ,  4-C ) :   1.3754
B(  3-C , 14-H ) :   0.9737 B(  4-C ,  5-C ) :   1.4486 B(  4-C , 15-H ) :   0.9732
B(  5-C ,  6-C ) :   1.3747 B(  5-C , 16-H ) :   0.9457 B(  6-C ,  7-N ) :   0.9955
B(  7-N ,  8-O ) :   1.5813 B(  7-N ,  9-O ) :   1.5810 B(  8-O ,  9-O ) :   0.1863

FINAL SINGLE POINT ENERGY      -476.098258975468

DIPOLE MOMENT
-------------

Method             : SCF
Type of density    : Electron Density
Multiplicity       :   1
Irrep              :   0
Energy             :  -476.1079021514680676 Eh
Relativity type    :
Basis              : AO
                                X                 Y                 Z
Electronic contribution:     -4.583729423       4.303083554       0.034172369
Nuclear contribution   :      7.031433386      -4.745657953      -0.036301561
                        -----------------------------------------
Total Dipole Moment    :      2.447703963      -0.442574399      -0.002129191
                        -----------------------------------------
Magnitude (a.u.)       :      2.487394485
Magnitude (Debye)      :      6.322454327

Rotational constants in cm-1:             0.075058             0.042361             0.027220
Rotational constants in MHz :          2250.174382          1269.940214           816.041673

                             ****ORCA TERMINATED NORMALLY****
TOTAL RUN TIME: 0 days 0 hours 3 minutes 51 seconds 659 msec
