                         Program Version 6.0.0  -   RELEASE  -
|  1> ! pbe def2-sv(p) def2/J RI DEFGRID1 loosescf d4 GCP(DFT/SV(P)) printgap
|  2> %output
|  3>     printlevel normal
|  4> end
|  5> * xyz 0 1
|  6> C -2.3685050831 -0.8425301431 0.5417479306
|  7> C -0.9071813798 -0.3868826986 0.6294183638
|  8> H -0.5874232417 -0.3921543619 1.6796368082
|  9> C -0.7379554511 1.0412244238 0.0897595447
| 10> H -1.396015802 1.1477382411 -0.7867337261
| 11> C 0.7237168414 1.2632480133 -0.3720870847
| 12> H 1.0246843704 2.2827566012 -0.0901822858
| 13> C 1.6817493582 0.2904608252 0.3310589438
| 14> H 2.6795801808 0.4288042869 -0.1090985628
| 15> C 1.2590187136 -1.1652944536 0.010485373
| 16> H 1.6018126034 -1.8304505313 0.8209397762
| 17> O -0.1396102139 -1.3025876904 -0.1340595343
| 18> O 1.861004659 -1.627828864 -1.1444629695
| 19> O 1.6882867454 0.5769373154 1.7039699345
| 20> O 0.8891135696 1.0457045202 -1.7521470191
| 21> O -1.1255018441 1.9167994144 1.1163290757
| 22> O -2.8364081907 -0.8723109755 -0.7816385594
| 23> H -2.990995139 -0.1271688 1.0813451039
| 24> H -2.4580250438 -1.8307902537 1.0075198649
| 25> H 1.5825924761 -1.0624015869 -1.8865139102
| 26> H 2.4459356491 0.1493493946 2.1278622554
| 27> H 0.3792937406 1.6950756297 -2.2576090474
| 28> H -1.1878445283 2.8217855746 0.777814915
| 29> H -2.2804478689 -1.4892031695 -1.2801326119
| 30> *
| 31>
| 32>                          ****END OF INPUT****

CARTESIAN COORDINATES (ANGSTROEM)
---------------------------------
  C     -2.368505   -0.842530    0.541748
  C     -0.907181   -0.386883    0.629418
  H     -0.587423   -0.392154    1.679637
  C     -0.737955    1.041224    0.089760
  H     -1.396016    1.147738   -0.786734
  C      0.723717    1.263248   -0.372087
  H      1.024684    2.282757   -0.090182
  C      1.681749    0.290461    0.331059
  H      2.679580    0.428804   -0.109099
  C      1.259019   -1.165294    0.010485
  H      1.601813   -1.830451    0.820940
  O     -0.139610   -1.302588   -0.134060
  O      1.861005   -1.627829   -1.144463
  O      1.688287    0.576937    1.703970
  O      0.889114    1.045705   -1.752147
  O     -1.125502    1.916799    1.116329
  O     -2.836408   -0.872311   -0.781639
  H     -2.990995   -0.127169    1.081345
  H     -2.458025   -1.830790    1.007520
  H      1.582592   -1.062402   -1.886514
  H      2.445936    0.149349    2.127862
  H      0.379294    1.695076   -2.257609
  H     -1.187845    2.821786    0.777815
  H     -2.280448   -1.489203   -1.280133

 Total Charge           Charge          ....    0
 Multiplicity           Mult            ....    1
 Number of Electrons    NEL             ....   96
 Basis Dimension        Dim             ....  192

ORBITAL ENERGIES
----------------

  NO   OCC          E(Eh)            E(eV)
   0   2.0000     -18.773592      -510.8554
   1   2.0000     -18.762201      -510.5454
   2   2.0000     -18.761564      -510.5281
   3   2.0000     -18.753956      -510.3211
   4   2.0000     -18.744920      -510.0752
   5   2.0000     -18.740977      -509.9679
   6   2.0000      -9.980317      -271.5782
   7   2.0000      -9.949446      -270.7382
   8   2.0000      -9.944638      -270.6074
   9   2.0000      -9.937911      -270.4243
  10   2.0000      -9.933195      -270.2960
  11   2.0000      -9.923201      -270.0240
  12   2.0000      -0.976607       -26.5748
  13   2.0000      -0.947756       -25.7897
  14   2.0000      -0.935797       -25.4643
  15   2.0000      -0.931042       -25.3349
  16   2.0000      -0.919419       -25.0187
  17   2.0000      -0.900568       -24.5057
  18   2.0000      -0.700309       -19.0564
  19   2.0000      -0.683735       -18.6054
  20   2.0000      -0.612947       -16.6791
  21   2.0000      -0.589260       -16.0346
  22   2.0000      -0.559611       -15.2278
  23   2.0000      -0.520205       -14.1555
  24   2.0000      -0.503683       -13.7059
  25   2.0000      -0.490822       -13.3559
  26   2.0000      -0.475640       -12.9428
  27   2.0000      -0.454563       -12.3693
  28   2.0000      -0.443722       -12.0743
  29   2.0000      -0.435869       -11.8606
  30   2.0000      -0.426439       -11.6040
  31   2.0000      -0.385122       -10.4797
  32   2.0000      -0.374796       -10.1987
  33   2.0000      -0.364830        -9.9275
  34   2.0000      -0.363121        -9.8810
  35   2.0000      -0.351265        -9.5584
  36   2.0000      -0.330497        -8.9933
  37   2.0000      -0.311203        -8.4683
  38   2.0000      -0.301527        -8.2050
  39   2.0000      -0.293461        -7.9855
  40   2.0000      -0.279587        -7.6079
  41   2.0000      -0.270447        -7.3592
  42   2.0000      -0.252994        -6.8843
  43   2.0000      -0.247188        -6.7263
  44   2.0000      -0.225380        -6.1329
  45   2.0000      -0.216641        -5.8951
  46   2.0000      -0.214080        -5.8254
  47   2.0000      -0.197621        -5.3775
  48   0.0000       0.004008         0.1091
  49   0.0000       0.016922         0.4605
  50   0.0000       0.033891         0.9222
  51   0.0000       0.050869         1.3842
  52   0.0000       0.061820         1.6822

MULLIKEN ATOMIC CHARGES
-----------------------
   0 C :    0.092575
   1 C :   -0.020337
   2 H :    0.079026
   3 C :    0.076756
   4 H :    0.035184
   5 C :    0.072955
   6 H :    0.051481
   7 C :   -0.047973
   8 H :    0.081122
   9 C :    0.228288
  10 H :    0.046882
  11 O :   -0.318531
  12 O :   -0.396112
  13 O :   -0.398217
  14 O :   -0.425776
  15 O :   -0.404445
  16 O :   -0.440789
  17 H :    0.089776
  18 H :    0.077274
  19 H :    0.302002
  20 H :    0.309403
  21 H :    0.309350
  22 H :    0.299042
  23 H :    0.301063
Sum of atomic charges:    0.0000000

LOEWDIN ATOMIC CHARGES
----------------------
   0 C :   -0.123323
   1 C :   -0.074605
   2 H :    0.114104
   3 C :   -0.079543
   4 H :    0.096201
   5 C :   -0.069906
   6 H :    0.101202
   7 C :   -0.094839
   8 H :    0.111122
   9 C :    0.003346
  10 H :    0.092126
  11 O :   -0.158447
  12 O :   -0.299751
  13 O :   -0.306489
  14 O :   -0.314485
  15 O :   -0.310342
  16 O :   -0.333999
  17 H :    0.119979
  18 H :    0.101496
  19 H :    0.276741
  20 H :    0.291851
  21 H :    0.290440
  22 H :    0.284687
  23 H :    0.282434

  Mayer bond orders larger than 0.100000
B(  0-C ,  1-C ) :   1.0454 B(  0-C , 16-O ) :   1.0607 B(  0-C , 17-H ) :   0.9188
B(  0-C , 18-H ) :   0.9140 B(  1-C ,  2-H ) :   0.8620 B(  1-C ,  3-C ) :   1.0304
B(  1-C , 11-O ) :   1.0190 B(  3-C ,  4-H ) :   0.8689 B(  3-C ,  5-C ) :   0.9559
B(  3-C , 15-O ) :   1.0823 B(  5-C ,  6-H ) :   0.8841 B(  5-C ,  7-C ) :   1.0345
B(  5-C , 14-O ) :   1.0249 B(  7-C ,  8-H ) :   0.8975 B(  7-C ,  9-C ) :   0.9372
B(  7-C , 13-O ) :   1.0808 B(  9-C , 10-H ) :   0.9054 B(  9-C , 11-O ) :   1.0197
B(  9-C , 12-O ) :   1.1531 B( 12-O , 19-H ) :   0.8227 B( 13-O , 20-H ) :   0.8447
B( 14-O , 21-H ) :   0.8411 B( 15-O , 22-H ) :   0.8464 B( 16-O , 23-H ) :   0.8417

Dispersion correction           -0.024942620
FINAL SINGLE POINT ENERGY      -685.691180443001

DIPOLE MOMENT
-------------

Method             : SCF
Type of density    : Electron Density
Multiplicity       :   1
Irrep              :   0
Energy             :  -685.8212547725219110 Eh
Relativity type    :
Basis              : AO
                                X                 Y                 Z
Electronic contribution:      1.614286967      -0.691754234      -1.193199126
Nuclear contribution   :     -1.108478871       1.678558508       1.003076410
                        -----------------------------------------
Total Dipole Moment    :      0.505808096       0.986804274      -0.190122716
                        -----------------------------------------
Magnitude (a.u.)       :      1.125064955
Magnitude (Debye)      :      2.859687853

Rotational constants in cm-1:             0.039258             0.027900             0.023163
Rotational constants in MHz :          1176.930254           836.431192           694.412245

                             ****ORCA TERMINATED NORMALLY****
TOTAL RUN TIME: 0 days 0 hours 0 minutes 12 seconds 85 msec
