                         Program Version 6.0.0  -   RELEASE  -
|  1> ! r2scan-3c def2/J RI DEFGRID2 scfconv6 printgap
|  2> %output
|  3>     printlevel normal
|  4> end
|  5> * xyz 0 1
|  6> C -1.7285649416 0.3490597773 -0.5884269328
|  7> C -0.8818310081 0.3416274082 0.6799108308
|  8> C 0.584359291 -0.0711057223 0.4815975583
|  9> C 0.7114017205 -1.5023668617 -0.0370121045
| 10> C 1.3324189145 0.8949556845 -0.4353370778
| 11> H -2.74492223 0.6534764718 -0.3486276919
| 12> H -1.7695089592 -0.6399867946 -1.0362491144
| 13> H -1.3307875504 1.0477402667 -1.319204637
| 14> H -0.9005517656 1.3415734064 1.1207432775
| 15> H -1.3364325735 -0.3416540026 1.4017405651
| 16> H 1.057404859 -0.0292778491 1.4708034857
| 17> H 0.3389748851 -1.5792167045 -1.0552060374
| 18> H 0.1496689791 -2.1893824698 0.5918338891
| 19> H 1.7545070044 -1.8104301142 -0.035314639
| 20> H 0.9618063063 0.8259438949 -1.4547575677
| 21> H 2.3935261059 0.6563863609 -0.4454373771
| 22> H 1.2143858403 1.9197959782 -0.0907362406
| 23> *
| 24>
| 25>                          ****END OF INPUT****

CARTESIAN COORDINATES (ANGSTROEM)
---------------------------------
  C     -1.728565    0.349060   -0.588427
  C     -0.881831    0.341627    0.679911
  C      0.584359   -0.071106    0.481598
  C      0.711402   -1.502367   -0.037012
  C      1.332419    0.894956   -0.435337
  H     -2.744922    0.653476   -0.348628
  H     -1.769509   -0.639987   -1.036249
  H     -1.330788    1.047740   -1.319205
  H     -0.900552    1.341573    1.120743
  H     -1.336433   -0.341654    1.401741
  H      1.057405   -0.029278    1.470803
  H      0.338975   -1.579217   -1.055206
  H      0.149669   -2.189382    0.591834
  H      1.754507   -1.810430   -0.035315
  H      0.961806    0.825944   -1.454758
  H      2.393526    0.656386   -0.445437
  H      1.214386    1.919796   -0.090736

 Total Charge           Charge          ....    0
 Multiplicity           Mult            ....    1
 Number of Electrons    NEL             ....   42
 Basis Dimension        Dim             ....  155

ORBITAL ENERGIES
----------------

  NO   OCC          E(Eh)            E(eV)
   0   2.0000     -10.029479      -272.9160
   1   2.0000     -10.020135      -272.6617
   2   2.0000     -10.012868      -272.4640
   3   2.0000     -10.011900      -272.4376
   4   2.0000     -10.011896      -272.4375
   5   2.0000      -0.774959       -21.0877
   6   2.0000      -0.695706       -18.9311
   7   2.0000      -0.647151       -17.6099
   8   2.0000      -0.597546       -16.2601
   9   2.0000      -0.507105       -13.7990
  10   2.0000      -0.436113       -11.8672
  11   2.0000      -0.418774       -11.3954
  12   2.0000      -0.400951       -10.9104
  13   2.0000      -0.366769        -9.9803
  14   2.0000      -0.352463        -9.5910
  15   2.0000      -0.342323        -9.3151
  16   2.0000      -0.341708        -9.2984
  17   2.0000      -0.313085        -8.5195
  18   2.0000      -0.286983        -7.8092
  19   2.0000      -0.282726        -7.6934
  20   2.0000      -0.280828        -7.6417
  21   0.0000       0.081735         2.2241
  22   0.0000       0.117382         3.1941
  23   0.0000       0.129744         3.5305
  24   0.0000       0.131693         3.5836
  25   0.0000       0.143442         3.9033

MULLIKEN ATOMIC CHARGES
-----------------------
   0 C :   -0.505184
   1 C :   -0.237733
   2 C :   -0.008611
   3 C :   -0.504277
   4 C :   -0.504341
   5 H :    0.145198
   6 H :    0.151781
   7 H :    0.151760
   8 H :    0.139814
   9 H :    0.139902
  10 H :    0.144679
  11 H :    0.152704
  12 H :    0.145816
  13 H :    0.144984
  14 H :    0.152666
  15 H :    0.145002
  16 H :    0.145841
Sum of atomic charges:    0.0000000

LOEWDIN ATOMIC CHARGES
----------------------
   0 C :   -0.426118
   1 C :   -0.314409
   2 C :   -0.251789
   3 C :   -0.419445
   4 C :   -0.419467
   5 H :    0.151405
   6 H :    0.150627
   7 H :    0.150623
   8 H :    0.153267
   9 H :    0.153270
  10 H :    0.154432
  11 H :    0.151908
  12 H :    0.153551
  13 H :    0.153348
  14 H :    0.151895
  15 H :    0.153354
  16 H :    0.153548

  Mayer bond orders larger than 0.100000
B(  0-C ,  1-C ) :   0.8834 B(  0-C ,  5-H ) :   0.9671 B(  0-C ,  6-H ) :   0.9816
B(  0-C ,  7-H ) :   0.9817 B(  1-C ,  2-C ) :   0.9064 B(  1-C ,  8-H ) :   0.9756
B(  1-C ,  9-H ) :   0.9756 B(  2-C ,  3-C ) :   0.9118 B(  2-C ,  4-C ) :   0.9117
B(  2-C , 10-H ) :   0.9612 B(  3-C , 11-H ) :   0.9844 B(  3-C , 12-H ) :   0.9738
B(  3-C , 13-H ) :   0.9701 B(  4-C , 14-H ) :   0.9845 B(  4-C , 15-H ) :   0.9701
B(  4-C , 16-H ) :   0.9738

Dispersion correction           -0.003982487
FINAL SINGLE POINT ENERGY      -197.688514795340

DIPOLE MOMENT
-------------

Method             : SCF
Type of density    : Electron Density
Multiplicity       :   1
Irrep              :   0
Energy             :  -197.6927411586191567 Eh
Relativity type    :
Basis              : AO
                                X                 Y                 Z
Electronic contribution:      0.206044331       0.143632074       1.182892460
Nuclear contribution   :     -0.198823576      -0.136062922      -1.126179580
                        -----------------------------------------
Total Dipole Moment    :      0.007220755       0.007569151       0.056712880
                        -----------------------------------------
Magnitude (a.u.)       :      0.057669594
Magnitude (Debye)      :      0.146584460

Rotational constants in cm-1:             0.203302             0.126102             0.102582
Rotational constants in MHz :          6094.835122          3780.443900          3075.319243

                             ****ORCA TERMINATED NORMALLY****
TOTAL RUN TIME: 0 days 0 hours 0 minutes 13 seconds 339 msec
