                         Program Version 6.0.0  -   RELEASE  -
|  1> ! r2scan-3c def2/J RI DEFGRID2 scfconv6 printgap
|  2> %output
|  3>     printlevel normal
|  4> end
|  5> %cpcm
|  6>     smd true
|  7>     smdsolvent "water"
|  8> end
|  9> * xyz 0 1
| 10> C -1.7285649416 0.3490597773 -0.5884269328
| 11> C -0.8818310081 0.3416274082 0.6799108308
| 12> C 0.584359291 -0.0711057223 0.4815975583
| 13> C 0.7114017205 -1.5023668617 -0.0370121045
| 14> C 1.3324189145 0.8949556845 -0.4353370778
| 15> H -2.74492223 0.6534764718 -0.3486276919
| 16> H -1.7695089592 -0.6399867946 -1.0362491144
| 17> H -1.3307875504 1.0477402667 -1.319204637
| 18> H -0.9005517656 1.3415734064 1.1207432775
| 19> H -1.3364325735 -0.3416540026 1.4017405651
| 20> H 1.057404859 -0.0292778491 1.4708034857
| 21> H 0.3389748851 -1.5792167045 -1.0552060374
| 22> H 0.1496689791 -2.1893824698 0.5918338891
| 23> H 1.7545070044 -1.8104301142 -0.035314639
| 24> H 0.9618063063 0.8259438949 -1.4547575677
| 25> H 2.3935261059 0.6563863609 -0.4454373771
| 26> H 1.2143858403 1.9197959782 -0.0907362406
| 27> *
| 28>
| 29>                          ****END OF INPUT****

CARTESIAN COORDINATES (ANGSTROEM)
---------------------------------
  C     -1.728565    0.349060   -0.588427
  C     -0.881831    0.341627    0.679911
  C      0.584359   -0.071106    0.481598
  C      0.711402   -1.502367   -0.037012
  C      1.332419    0.894956   -0.435337
  H     -2.744922    0.653476   -0.348628
  H     -1.769509   -0.639987   -1.036249
  H     -1.330788    1.047740   -1.319205
  H     -0.900552    1.341573    1.120743
  H     -1.336433   -0.341654    1.401741
  H      1.057405   -0.029278    1.470803
  H      0.338975   -1.579217   -1.055206
  H      0.149669   -2.189382    0.591834
  H      1.754507   -1.810430   -0.035315
  H      0.961806    0.825944   -1.454758
  H      2.393526    0.656386   -0.445437
  H      1.214386    1.919796   -0.090736

 Total Charge           Charge          ....    0
 Multiplicity           Mult            ....    1
 Number of Electrons    NEL             ....   42
 Basis Dimension        Dim             ....  155

ORBITAL ENERGIES
----------------

  NO   OCC          E(Eh)            E(eV)
   0   2.0000     -10.022457      -272.7249
   1   2.0000     -10.012912      -272.4652
   2   2.0000     -10.005728      -272.2697
   3   2.0000     -10.004452      -272.2350
   4   2.0000     -10.004444      -272.2348
   5   2.0000      -0.767881       -20.8951
   6   2.0000      -0.688979       -18.7481
   7   2.0000      -0.640386       -17.4258
   8   2.0000      -0.590853       -16.0779
   9   2.0000      -0.500375       -13.6159
  10   2.0000      -0.428962       -11.6726
  11   2.0000      -0.411700       -11.2029
  12   2.0000      -0.393951       -10.7199
  13   2.0000      -0.359660        -9.7869
  14   2.0000      -0.345465        -9.4006
  15   2.0000      -0.335154        -9.1200
  16   2.0000      -0.334826        -9.1111
  17   2.0000      -0.305991        -8.3264
  18   2.0000      -0.279853        -7.6152
  19   2.0000      -0.275674        -7.5015
  20   2.0000      -0.273630        -7.4458
  21   0.0000       0.089606         2.4383
  22   0.0000       0.123455         3.3594
  23   0.0000       0.135903         3.6981
  24   0.0000       0.138215         3.7610
  25   0.0000       0.150178         4.0865

MULLIKEN ATOMIC CHARGES
-----------------------
   0 C :   -0.537247
   1 C :   -0.254606
   2 C :    0.007907
   3 C :   -0.544462
   4 C :   -0.544541
   5 H :    0.154336
   6 H :    0.161172
   7 H :    0.161229
   8 H :    0.147874
   9 H :    0.148038
  10 H :    0.150243
  11 H :    0.163649
  12 H :    0.155808
  13 H :    0.155523
  14 H :    0.163632
  15 H :    0.155559
  16 H :    0.155886
Sum of atomic charges:    0.0000000

LOEWDIN ATOMIC CHARGES
----------------------
   0 C :   -0.433891
   1 C :   -0.317362
   2 C :   -0.250080
   3 C :   -0.427811
   4 C :   -0.427862
   5 H :    0.153092
   6 H :    0.153028
   7 H :    0.153049
   8 H :    0.155062
   9 H :    0.155097
  10 H :    0.156077
  11 H :    0.154622
  12 H :    0.155811
  13 H :    0.155359
  14 H :    0.154610
  15 H :    0.155367
  16 H :    0.155830

  Mayer bond orders larger than 0.100000
B(  0-C ,  1-C ) :   0.8808 B(  0-C ,  5-H ) :   0.9653 B(  0-C ,  6-H ) :   0.9785
B(  0-C ,  7-H ) :   0.9785 B(  1-C ,  2-C ) :   0.9019 B(  1-C ,  8-H ) :   0.9757
B(  1-C ,  9-H ) :   0.9757 B(  2-C ,  3-C ) :   0.9057 B(  2-C ,  4-C ) :   0.9056
B(  2-C , 10-H ) :   0.9622 B(  3-C , 11-H ) :   0.9813 B(  3-C , 12-H ) :   0.9717
B(  3-C , 13-H ) :   0.9686 B(  4-C , 14-H ) :   0.9814 B(  4-C , 15-H ) :   0.9685
B(  4-C , 16-H ) :   0.9716

Dispersion correction           -0.003982487
FINAL SINGLE POINT ENERGY      -197.685379987330

DIPOLE MOMENT
-------------

Method             : SCF
Type of density    : Electron Density
Multiplicity       :   1
Irrep              :   0
Energy             :  -197.6896063506094663 Eh
Relativity type    :
Basis              : AO
                                X                 Y                 Z
Electronic contribution:      0.206623822       0.144745075       1.191193592
Nuclear contribution   :     -0.198823576      -0.136062922      -1.126179580
                        -----------------------------------------
Total Dipole Moment    :      0.007800247       0.008682152       0.065014012
                        -----------------------------------------
Magnitude (a.u.)       :      0.066053352
Magnitude (Debye)      :      0.167894279

Rotational constants in cm-1:             0.203302             0.126102             0.102582
Rotational constants in MHz :          6094.835122          3780.443900          3075.319243

                             ****ORCA TERMINATED NORMALLY****
TOTAL RUN TIME: 0 days 0 hours 0 minutes 16 seconds 608 msec
