                         Program Version 6.0.0  -   RELEASE  -
|  1> ! pbe def2-sv(p) def2/J RI DEFGRID1 loosescf d4 GCP(DFT/SV(P)) printgap
|  2> %output
|  3>     printlevel normal
|  4> end
|  5> * xyz 0 1
|  6> C -2.1897623711 -0.9125443564 -0.1844424198
|  7> C -1.1390139609 -0.3470710551 0.7947719753
|  8> H -1.6134432063 -0.3690805609 1.7841753505
|  9> C -0.7418540495 1.1171360341 0.5036185124
| 10> H -1.5994700057 1.6220679818 0.0366729514
| 11> C 0.4558999596 1.2476277471 -0.4530561627
| 12> H 0.8153395741 2.2838950986 -0.3868019855
| 13> C 1.6044246949 0.326920781 0.0125034181
| 14> H 2.4022015096 0.3441195558 -0.7393257673
| 15> C 1.0844456576 -1.1181782154 0.1200411273
| 16> H 1.8354839108 -1.7437595625 0.6222925814
| 17> O -0.0266793321 -1.2264351218 0.9722506887
| 18> O 0.8335799348 -1.66971984 -1.1454195789
| 19> O 2.1893525913 0.759110897 1.2100059863
| 20> O 0.1243707762 1.0044946617 -1.7972507453
| 21> O -0.3684072054 1.7828444012 1.6918695782
| 22> O -1.7917032559 -0.9319397003 -1.5340095651
| 23> H -3.0811487405 -0.2832606455 -0.1390184961
| 24> H -2.4476728644 -1.9217410654 0.1517134532
| 25> H 0.9063524326 -0.9763760007 -1.8260572617
| 26> H 1.4878006448 1.0382997233 1.8242048142
| 27> H -0.6864385497 0.4468085729 -1.8520521294
| 28> H -1.1355144221 1.8998242112 2.2702173256
| 29> H -1.0973354472 -1.6105639276 -1.6363557543
| 30> *
| 31>
| 32>                          ****END OF INPUT****

CARTESIAN COORDINATES (ANGSTROEM)
---------------------------------
  C     -2.189762   -0.912544   -0.184442
  C     -1.139014   -0.347071    0.794772
  H     -1.613443   -0.369081    1.784175
  C     -0.741854    1.117136    0.503619
  H     -1.599470    1.622068    0.036673
  C      0.455900    1.247628   -0.453056
  H      0.815340    2.283895   -0.386802
  C      1.604425    0.326921    0.012503
  H      2.402202    0.344120   -0.739326
  C      1.084446   -1.118178    0.120041
  H      1.835484   -1.743760    0.622293
  O     -0.026679   -1.226435    0.972251
  O      0.833580   -1.669720   -1.145420
  O      2.189353    0.759111    1.210006
  O      0.124371    1.004495   -1.797251
  O     -0.368407    1.782844    1.691870
  O     -1.791703   -0.931940   -1.534010
  H     -3.081149   -0.283261   -0.139018
  H     -2.447673   -1.921741    0.151713
  H      0.906352   -0.976376   -1.826057
  H      1.487801    1.038300    1.824205
  H     -0.686439    0.446809   -1.852052
  H     -1.135514    1.899824    2.270217
  H     -1.097335   -1.610564   -1.636356

 Total Charge           Charge          ....    0
 Multiplicity           Mult            ....    1
 Number of Electrons    NEL             ....   96
 Basis Dimension        Dim             ....  192

ORBITAL ENERGIES
----------------

  NO   OCC          E(Eh)            E(eV)
   0   2.0000     -18.785459      -511.1783
   1   2.0000     -18.779953      -511.0285
   2   2.0000     -18.771759      -510.8055
   3   2.0000     -18.770598      -510.7739
   4   2.0000     -18.756763      -510.3975
   5   2.0000     -18.740143      -509.9452
   6   2.0000      -9.983977      -271.6778
   7   2.0000      -9.967146      -271.2198
   8   2.0000      -9.960885      -271.0495
   9   2.0000      -9.953317      -270.8435
  10   2.0000      -9.950034      -270.7542
  11   2.0000      -9.940170      -270.4858
  12   2.0000      -0.987440       -26.8696
  13   2.0000      -0.960580       -26.1387
  14   2.0000      -0.950942       -25.8765
  15   2.0000      -0.932163       -25.3654
  16   2.0000      -0.920691       -25.0533
  17   2.0000      -0.914769       -24.8921
  18   2.0000      -0.717794       -19.5322
  19   2.0000      -0.689289       -18.7565
  20   2.0000      -0.636358       -17.3162
  21   2.0000      -0.602598       -16.3975
  22   2.0000      -0.582245       -15.8437
  23   2.0000      -0.528228       -14.3738
  24   2.0000      -0.507030       -13.7970
  25   2.0000      -0.499518       -13.5926
  26   2.0000      -0.483784       -13.1644
  27   2.0000      -0.475700       -12.9445
  28   2.0000      -0.450113       -12.2482
  29   2.0000      -0.443102       -12.0574
  30   2.0000      -0.426322       -11.6008
  31   2.0000      -0.419879       -11.4255
  32   2.0000      -0.397218       -10.8089
  33   2.0000      -0.386010       -10.5039
  34   2.0000      -0.369806       -10.0629
  35   2.0000      -0.358172        -9.7463
  36   2.0000      -0.341007        -9.2793
  37   2.0000      -0.326675        -8.8893
  38   2.0000      -0.317176        -8.6308
  39   2.0000      -0.305407        -8.3105
  40   2.0000      -0.291261        -7.9256
  41   2.0000      -0.276188        -7.5155
  42   2.0000      -0.272708        -7.4208
  43   2.0000      -0.257349        -7.0028
  44   2.0000      -0.249261        -6.7827
  45   2.0000      -0.237893        -6.4734
  46   2.0000      -0.221462        -6.0263
  47   2.0000      -0.200829        -5.4648
  48   0.0000      -0.004181        -0.1138
  49   0.0000       0.018462         0.5024
  50   0.0000       0.045808         1.2465
  51   0.0000       0.052870         1.4387
  52   0.0000       0.059413         1.6167

MULLIKEN ATOMIC CHARGES
-----------------------
   0 C :    0.040621
   1 C :    0.051661
   2 H :    0.059711
   3 C :   -0.010026
   4 H :    0.082555
   5 C :    0.050481
   6 H :    0.088582
   7 C :    0.007445
   8 H :    0.087316
   9 C :    0.214351
  10 H :    0.077563
  11 O :   -0.312434
  12 O :   -0.426829
  13 O :   -0.424501
  14 O :   -0.433464
  15 O :   -0.419481
  16 O :   -0.446223
  17 H :    0.089495
  18 H :    0.100599
  19 H :    0.300417
  20 H :    0.303976
  21 H :    0.294903
  22 H :    0.312713
  23 H :    0.310569
Sum of atomic charges:    0.0000000

LOEWDIN ATOMIC CHARGES
----------------------
   0 C :   -0.132411
   1 C :   -0.079606
   2 H :    0.118867
   3 C :   -0.076317
   4 H :    0.110861
   5 C :   -0.068370
   6 H :    0.119399
   7 C :   -0.093064
   8 H :    0.119731
   9 C :   -0.005626
  10 H :    0.110353
  11 O :   -0.143738
  12 O :   -0.316487
  13 O :   -0.316340
  14 O :   -0.328517
  15 O :   -0.305728
  16 O :   -0.325407
  17 H :    0.116972
  18 H :    0.115206
  19 H :    0.273304
  20 H :    0.273313
  21 H :    0.263383
  22 H :    0.292673
  23 H :    0.277549

  Mayer bond orders larger than 0.100000
B(  0-C ,  1-C ) :   1.0274 B(  0-C , 16-O ) :   1.0534 B(  0-C , 17-H ) :   0.9181
B(  0-C , 18-H ) :   0.9149 B(  1-C ,  2-H ) :   0.8820 B(  1-C ,  3-C ) :   0.9599
B(  1-C , 11-O ) :   1.0090 B(  3-C ,  4-H ) :   0.8975 B(  3-C ,  5-C ) :   1.0146
B(  3-C , 15-O ) :   1.0129 B(  5-C ,  6-H ) :   0.8973 B(  5-C ,  7-C ) :   0.9625
B(  5-C , 14-O ) :   1.0781 B(  7-C ,  8-H ) :   0.8972 B(  7-C ,  9-C ) :   0.9893
B(  7-C , 13-O ) :   1.0766 B(  9-C , 10-H ) :   0.9037 B(  9-C , 11-O ) :   1.0564
B(  9-C , 12-O ) :   1.0480 B( 12-O , 19-H ) :   0.7915 B( 12-O , 23-H ) :   0.1192
B( 13-O , 20-H ) :   0.8109 B( 14-O , 19-H ) :   0.1084 B( 14-O , 21-H ) :   0.7536
B( 15-O , 22-H ) :   0.8391 B( 16-O , 21-H ) :   0.1713 B( 16-O , 23-H ) :   0.7796

Dispersion correction           -0.026836574
FINAL SINGLE POINT ENERGY      -685.704709746677

DIPOLE MOMENT
-------------

Method             : SCF
Type of density    : Electron Density
Multiplicity       :   1
Irrep              :   0
Energy             :  -685.8422309223692537 Eh
Relativity type    :
Basis              : AO
                                X                 Y                 Z
Electronic contribution:      2.579552744      -0.459924796       0.459374002
Nuclear contribution   :     -3.939074096       0.680910714       0.093957977
                        -----------------------------------------
Total Dipole Moment    :     -1.359521352       0.220985918       0.553331979
                        -----------------------------------------
Magnitude (a.u.)       :      1.484354863
Magnitude (Debye)      :      3.772930223

Rotational constants in cm-1:             0.041035             0.031575             0.027382
Rotational constants in MHz :          1230.190971           946.591027           820.906532

                             ****ORCA TERMINATED NORMALLY****
TOTAL RUN TIME: 0 days 0 hours 0 minutes 12 seconds 584 msec
