                         Program Version 6.0.0  -   RELEASE  -
|  1> ! pbe def2-sv(p) def2/J RI DEFGRID1 loosescf d4 GCP(DFT/SV(P)) printgap
|  2> %output
|  3>     printlevel normal
|  4> end
|  5> * xyz 0 1
|  6> C -2.5640060143 -0.8825830928 0.2670398589
|  7> C -1.142839107 -0.4262338123 0.6262647124
|  8> H -1.0561521014 -0.3340476705 1.7195195767
|  9> C -0.8305011824 0.9397746131 0.0025791688
| 10> H -1.056805237 0.8917621334 -1.0745141891
| 11> C 0.6567580728 1.2844065331 0.2007730809
| 12> H 0.8308955468 1.4291571466 1.2755233678
| 13> C 1.5423141509 0.1385600813 -0.3090896114
| 14> H 1.4001063391 0.0003129668 -1.3869388179
| 15> C 1.1043001989 -1.1680412604 0.3840003141
| 16> H 1.2666276975 -1.0668267163 1.480123314
| 17> O -0.261467366 -1.4258451737 0.1486986842
| 18> O 1.8318147621 -2.2156105883 -0.1360957101
| 19> O 2.9065548793 0.4035461961 -0.1500327205
| 20> O 0.9700329091 2.5226629621 -0.3868809738
| 21> O -1.6484691266 1.8941843562 0.6314844351
| 22> O -2.7198384035 -1.0883243138 -1.1116780237
| 23> H -3.2630466138 -0.0949062716 0.5507423224
| 24> H -2.7928837533 -1.7985908304 0.8242967881
| 25> H 1.4542167667 -3.0590080029 0.1608001096
| 26> H 3.1221449222 0.5234752173 0.786245259
| 27> H 1.0960038179 2.4166541162 -1.3407180786
| 28> H -1.3349053369 2.7771146102 0.3787321012
| 29> H -2.083242435 -1.7635787962 -1.3897173859
| 30> *
| 31>
| 32>                          ****END OF INPUT****

CARTESIAN COORDINATES (ANGSTROEM)
---------------------------------
  C     -2.564006   -0.882583    0.267040
  C     -1.142839   -0.426234    0.626265
  H     -1.056152   -0.334048    1.719520
  C     -0.830501    0.939775    0.002579
  H     -1.056805    0.891762   -1.074514
  C      0.656758    1.284407    0.200773
  H      0.830896    1.429157    1.275523
  C      1.542314    0.138560   -0.309090
  H      1.400106    0.000313   -1.386939
  C      1.104300   -1.168041    0.384000
  H      1.266628   -1.066827    1.480123
  O     -0.261467   -1.425845    0.148699
  O      1.831815   -2.215611   -0.136096
  O      2.906555    0.403546   -0.150033
  O      0.970033    2.522663   -0.386881
  O     -1.648469    1.894184    0.631484
  O     -2.719838   -1.088324   -1.111678
  H     -3.263047   -0.094906    0.550742
  H     -2.792884   -1.798591    0.824297
  H      1.454217   -3.059008    0.160800
  H      3.122145    0.523475    0.786245
  H      1.096004    2.416654   -1.340718
  H     -1.334905    2.777115    0.378732
  H     -2.083242   -1.763579   -1.389717

 Total Charge           Charge          ....    0
 Multiplicity           Mult            ....    1
 Number of Electrons    NEL             ....   96
 Basis Dimension        Dim             ....  192

ORBITAL ENERGIES
----------------

  NO   OCC          E(Eh)            E(eV)
   0   2.0000     -18.784263      -511.1458
   1   2.0000     -18.766744      -510.6691
   2   2.0000     -18.762798      -510.5617
   3   2.0000     -18.755661      -510.3675
   4   2.0000     -18.752440      -510.2798
   5   2.0000     -18.748212      -510.1648
   6   2.0000      -9.996893      -272.0293
   7   2.0000      -9.948727      -270.7186
   8   2.0000      -9.947991      -270.6986
   9   2.0000      -9.947543      -270.6864
  10   2.0000      -9.941168      -270.5129
  11   2.0000      -9.930742      -270.2292
  12   2.0000      -0.993382       -27.0313
  13   2.0000      -0.951264       -25.8852
  14   2.0000      -0.939200       -25.5569
  15   2.0000      -0.927017       -25.2254
  16   2.0000      -0.919744       -25.0275
  17   2.0000      -0.915710       -24.9177
  18   2.0000      -0.706297       -19.2193
  19   2.0000      -0.696227       -18.9453
  20   2.0000      -0.621191       -16.9035
  21   2.0000      -0.585129       -15.9222
  22   2.0000      -0.573384       -15.6026
  23   2.0000      -0.541293       -14.7293
  24   2.0000      -0.509520       -13.8647
  25   2.0000      -0.497904       -13.5487
  26   2.0000      -0.465283       -12.6610
  27   2.0000      -0.457520       -12.4497
  28   2.0000      -0.449892       -12.2422
  29   2.0000      -0.441819       -12.0225
  30   2.0000      -0.429129       -11.6772
  31   2.0000      -0.415512       -11.3067
  32   2.0000      -0.381156       -10.3718
  33   2.0000      -0.373917       -10.1748
  34   2.0000      -0.367154        -9.9908
  35   2.0000      -0.352813        -9.6005
  36   2.0000      -0.331732        -9.0269
  37   2.0000      -0.315778        -8.5928
  38   2.0000      -0.303617        -8.2618
  39   2.0000      -0.293478        -7.9859
  40   2.0000      -0.288017        -7.8373
  41   2.0000      -0.276158        -7.5147
  42   2.0000      -0.256623        -6.9831
  43   2.0000      -0.253185        -6.8895
  44   2.0000      -0.244837        -6.6624
  45   2.0000      -0.219968        -5.9856
  46   2.0000      -0.215651        -5.8682
  47   2.0000      -0.207301        -5.6409
  48   0.0000       0.012779         0.3477
  49   0.0000       0.017777         0.4837
  50   0.0000       0.031881         0.8675
  51   0.0000       0.042051         1.1443
  52   0.0000       0.048336         1.3153

MULLIKEN ATOMIC CHARGES
-----------------------
   0 C :    0.096594
   1 C :   -0.015736
   2 H :    0.055829
   3 C :    0.069654
   4 H :    0.042226
   5 C :    0.055300
   6 H :    0.047188
   7 C :    0.051325
   8 H :    0.060727
   9 C :    0.178778
  10 H :    0.022119
  11 O :   -0.326107
  12 O :   -0.363600
  13 O :   -0.397165
  14 O :   -0.409996
  15 O :   -0.419201
  16 O :   -0.438555
  17 H :    0.100111
  18 H :    0.076140
  19 H :    0.306208
  20 H :    0.299267
  21 H :    0.304309
  22 H :    0.305841
  23 H :    0.298745
Sum of atomic charges:   -0.0000000

LOEWDIN ATOMIC CHARGES
----------------------
   0 C :   -0.121998
   1 C :   -0.072123
   2 H :    0.106377
   3 C :   -0.078833
   4 H :    0.099959
   5 C :   -0.090043
   6 H :    0.108918
   7 C :   -0.091650
   8 H :    0.118553
   9 C :   -0.001923
  10 H :    0.073245
  11 O :   -0.158601
  12 O :   -0.288374
  13 O :   -0.300692
  14 O :   -0.310301
  15 O :   -0.320111
  16 O :   -0.330318
  17 H :    0.125819
  18 H :    0.099087
  19 H :    0.290230
  20 H :    0.286964
  21 H :    0.289381
  22 H :    0.285971
  23 H :    0.280463

  Mayer bond orders larger than 0.100000
B(  0-C ,  1-C ) :   1.0433 B(  0-C , 16-O ) :   1.0634 B(  0-C , 17-H ) :   0.9134
B(  0-C , 18-H ) :   0.9172 B(  1-C ,  2-H ) :   0.8708 B(  1-C ,  3-C ) :   0.9998
B(  1-C , 11-O ) :   0.9861 B(  3-C ,  4-H ) :   0.8601 B(  3-C ,  5-C ) :   0.9955
B(  3-C , 15-O ) :   1.0627 B(  5-C ,  6-H ) :   0.8637 B(  5-C ,  7-C ) :   0.9918
B(  5-C , 14-O ) :   1.0637 B(  7-C ,  8-H ) :   0.8573 B(  7-C ,  9-C ) :   0.9673
B(  7-C , 13-O ) :   1.0652 B(  9-C , 10-H ) :   0.8818 B(  9-C , 11-O ) :   0.9990
B(  9-C , 12-O ) :   1.2024 B( 12-O , 19-H ) :   0.8395 B( 13-O , 20-H ) :   0.8480
B( 14-O , 21-H ) :   0.8460 B( 15-O , 22-H ) :   0.8311 B( 16-O , 23-H ) :   0.8417

Dispersion correction           -0.023934842
FINAL SINGLE POINT ENERGY      -685.698034193243

DIPOLE MOMENT
-------------

Method             : SCF
Type of density    : Electron Density
Multiplicity       :   1
Irrep              :   0
Energy             :  -685.8274688759832998 Eh
Relativity type    :
Basis              : AO
                                X                 Y                 Z
Electronic contribution:      2.518199771      -0.295867766      -1.346245678
Nuclear contribution   :     -2.251615745      -0.072287167       1.846536826
                        -----------------------------------------
Total Dipole Moment    :      0.266584025      -0.368154933       0.500291148
                        -----------------------------------------
Magnitude (a.u.)       :      0.675941070
Magnitude (Debye)      :      1.718105660

Rotational constants in cm-1:             0.038689             0.027243             0.017794
Rotational constants in MHz :          1159.855527           816.739366           533.449117

                             ****ORCA TERMINATED NORMALLY****
TOTAL RUN TIME: 0 days 0 hours 0 minutes 12 seconds 74 msec
