                         Program Version 6.0.0  -   RELEASE  -
|  1> ! r2scan-3c def2/J RI DEFGRID2 scfconv6 printgap
|  2> %output
|  3>     printlevel normal
|  4> end
|  5> * xyz 0 1
|  6> C 1.1968633125 -1.2562969673 0.0382557569
|  7> C 0.3997564113 -5.00259e-05 -0.3206843872
|  8> C 1.1958888835 1.2567961813 0.0382971286
|  9> C -0.9092958018 -0.0003069658 0.4105965427
| 10> C -2.0951687906 -0.000237227 -0.1679989911
| 11> H 0.6358725377 -2.1500763344 -0.2250131405
| 12> H 1.4037649527 -1.2805961488 1.1059760573
| 13> H 2.1429627349 -1.2693438137 -0.4975339821
| 14> H 0.2051357188 -0.0001592642 -1.3983239344
| 15> H 1.4033785407 1.2808819272 1.1059058058
| 16> H 2.1416727762 1.2710260116 -0.4979559894
| 17> H 0.6337366396 2.1500800084 -0.2242370206
| 18> H -0.829574522 -0.0003942323 1.4902850869
| 19> H -3.010066724 -0.0003182154 0.3999341116
| 20> H -2.2011911803 3.215e-05 -1.2407582711
| 21> *
| 22>
| 23>                          ****END OF INPUT****

CARTESIAN COORDINATES (ANGSTROEM)
---------------------------------
  C      1.196863   -1.256297    0.038256
  C      0.399756   -0.000050   -0.320684
  C      1.195889    1.256796    0.038297
  C     -0.909296   -0.000307    0.410597
  C     -2.095169   -0.000237   -0.167999
  H      0.635873   -2.150076   -0.225013
  H      1.403765   -1.280596    1.105976
  H      2.142963   -1.269344   -0.497534
  H      0.205136   -0.000159   -1.398324
  H      1.403379    1.280882    1.105906
  H      2.141673    1.271026   -0.497956
  H      0.633737    2.150080   -0.224237
  H     -0.829575   -0.000394    1.490285
  H     -3.010067   -0.000318    0.399934
  H     -2.201191    0.000032   -1.240758

 Total Charge           Charge          ....    0
 Multiplicity           Mult            ....    1
 Number of Electrons    NEL             ....   40
 Basis Dimension        Dim             ....  145

ORBITAL ENERGIES
----------------

  NO   OCC          E(Eh)            E(eV)
   0   2.0000     -10.039059      -273.1767
   1   2.0000     -10.030679      -272.9487
   2   2.0000     -10.018684      -272.6223
   3   2.0000     -10.018679      -272.6221
   4   2.0000     -10.016611      -272.5658
   5   2.0000      -0.783945       -21.3322
   6   2.0000      -0.706031       -19.2121
   7   2.0000      -0.651894       -17.7390
   8   2.0000      -0.572062       -15.5666
   9   2.0000      -0.519299       -14.1309
  10   2.0000      -0.432268       -11.7626
  11   2.0000      -0.423838       -11.5332
  12   2.0000      -0.390304       -10.6207
  13   2.0000      -0.381330       -10.3765
  14   2.0000      -0.355560        -9.6753
  15   2.0000      -0.347607        -9.4589
  16   2.0000      -0.313112        -8.5202
  17   2.0000      -0.302976        -8.2444
  18   2.0000      -0.293785        -7.9943
  19   2.0000      -0.236117        -6.4251
  20   0.0000      -0.010743        -0.2923
  21   0.0000       0.085859         2.3364
  22   0.0000       0.123404         3.3580
  23   0.0000       0.127108         3.4588
  24   0.0000       0.137304         3.7362

MULLIKEN ATOMIC CHARGES
-----------------------
   0 C :   -0.473540
   1 C :   -0.033496
   2 C :   -0.473585
   3 C :   -0.107226
   4 C :   -0.380368
   5 H :    0.154529
   6 H :    0.145772
   7 H :    0.143428
   8 H :    0.146202
   9 H :    0.145779
  10 H :    0.143446
  11 H :    0.154531
  12 H :    0.153653
  13 H :    0.140269
  14 H :    0.140604
Sum of atomic charges:   -0.0000000

LOEWDIN ATOMIC CHARGES
----------------------
   0 C :   -0.407545
   1 C :   -0.241654
   2 C :   -0.407543
   3 C :   -0.187944
   4 C :   -0.315263
   5 H :    0.157270
   6 H :    0.153476
   7 H :    0.153112
   8 H :    0.158372
   9 H :    0.153477
  10 H :    0.153105
  11 H :    0.157284
  12 H :    0.163318
  13 H :    0.155636
  14 H :    0.154898

  Mayer bond orders larger than 0.100000
B(  0-C ,  1-C ) :   0.9035 B(  0-C ,  5-H ) :   0.9728 B(  0-C ,  6-H ) :   0.9842
B(  0-C ,  7-H ) :   0.9705 B(  1-C ,  2-C ) :   0.9035 B(  1-C ,  3-C ) :   0.9436
B(  1-C ,  8-H ) :   0.9696 B(  2-C ,  9-H ) :   0.9842 B(  2-C , 10-H ) :   0.9705
B(  2-C , 11-H ) :   0.9728 B(  3-C ,  4-C ) :   1.9405 B(  3-C , 12-H ) :   0.9174
B(  4-C , 13-H ) :   0.9604 B(  4-C , 14-H ) :   0.9931

Dispersion correction           -0.003407765
FINAL SINGLE POINT ENERGY      -196.460211700359

DIPOLE MOMENT
-------------

Method             : SCF
Type of density    : Electron Density
Multiplicity       :   1
Irrep              :   0
Energy             :  -196.4627814195631004 Eh
Relativity type    :
Basis              : AO
                                X                 Y                 Z
Electronic contribution:     -2.212153970      -0.000948618      -0.036908860
Nuclear contribution   :      2.369531646       0.001062093       0.017148577
                        -----------------------------------------
Total Dipole Moment    :      0.157377677       0.000113475      -0.019760284
                        -----------------------------------------
Magnitude (a.u.)       :      0.158613413
Magnitude (Debye)      :      0.403163256

Rotational constants in cm-1:             0.253760             0.120093             0.092851
Rotational constants in MHz :          7607.521614          3600.286958          2783.606984

                             ****ORCA TERMINATED NORMALLY****
TOTAL RUN TIME: 0 days 0 hours 0 minutes 11 seconds 842 msec
