                         Program Version 6.0.0  -   RELEASE  -
|  1> ! r2scan-3c def2/J RI DEFGRID2 scfconv6 printgap
|  2> %output
|  3>     printlevel normal
|  4> end
|  5> %cpcm
|  6>     smd true
|  7>     smdsolvent "water"
|  8> end
|  9> * xyz 0 1
| 10> C 1.1968633125 -1.2562969673 0.0382557569
| 11> C 0.3997564113 -5.00259e-05 -0.3206843872
| 12> C 1.1958888835 1.2567961813 0.0382971286
| 13> C -0.9092958018 -0.0003069658 0.4105965427
| 14> C -2.0951687906 -0.000237227 -0.1679989911
| 15> H 0.6358725377 -2.1500763344 -0.2250131405
| 16> H 1.4037649527 -1.2805961488 1.1059760573
| 17> H 2.1429627349 -1.2693438137 -0.4975339821
| 18> H 0.2051357188 -0.0001592642 -1.3983239344
| 19> H 1.4033785407 1.2808819272 1.1059058058
| 20> H 2.1416727762 1.2710260116 -0.4979559894
| 21> H 0.6337366396 2.1500800084 -0.2242370206
| 22> H -0.829574522 -0.0003942323 1.4902850869
| 23> H -3.010066724 -0.0003182154 0.3999341116
| 24> H -2.2011911803 3.215e-05 -1.2407582711
| 25> *
| 26>
| 27>                          ****END OF INPUT****

CARTESIAN COORDINATES (ANGSTROEM)
---------------------------------
  C      1.196863   -1.256297    0.038256
  C      0.399756   -0.000050   -0.320684
  C      1.195889    1.256796    0.038297
  C     -0.909296   -0.000307    0.410597
  C     -2.095169   -0.000237   -0.167999
  H      0.635873   -2.150076   -0.225013
  H      1.403765   -1.280596    1.105976
  H      2.142963   -1.269344   -0.497534
  H      0.205136   -0.000159   -1.398324
  H      1.403379    1.280882    1.105906
  H      2.141673    1.271026   -0.497956
  H      0.633737    2.150080   -0.224237
  H     -0.829575   -0.000394    1.490285
  H     -3.010067   -0.000318    0.399934
  H     -2.201191    0.000032   -1.240758

 Total Charge           Charge          ....    0
 Multiplicity           Mult            ....    1
 Number of Electrons    NEL             ....   40
 Basis Dimension        Dim             ....  145

ORBITAL ENERGIES
----------------

  NO   OCC          E(Eh)            E(eV)
   0   2.0000     -10.032065      -272.9864
   1   2.0000     -10.028311      -272.8842
   2   2.0000     -10.013284      -272.4753
   3   2.0000     -10.010645      -272.4035
   4   2.0000     -10.010641      -272.4034
   5   2.0000      -0.778601       -21.1868
   6   2.0000      -0.702455       -19.1148
   7   2.0000      -0.644593       -17.5403
   8   2.0000      -0.566648       -15.4193
   9   2.0000      -0.513262       -13.9666
  10   2.0000      -0.426858       -11.6154
  11   2.0000      -0.417920       -11.3722
  12   2.0000      -0.384421       -10.4606
  13   2.0000      -0.374726       -10.1968
  14   2.0000      -0.346984        -9.4419
  15   2.0000      -0.341569        -9.2946
  16   2.0000      -0.306419        -8.3381
  17   2.0000      -0.294932        -8.0255
  18   2.0000      -0.287436        -7.8215
  19   2.0000      -0.237042        -6.4502
  20   0.0000      -0.010783        -0.2934
  21   0.0000       0.092831         2.5260
  22   0.0000       0.132507         3.6057
  23   0.0000       0.133764         3.6399
  24   0.0000       0.143436         3.9031

MULLIKEN ATOMIC CHARGES
-----------------------
   0 C :   -0.514592
   1 C :   -0.009259
   2 C :   -0.514621
   3 C :   -0.148839
   4 C :   -0.445607
   5 H :    0.159367
   6 H :    0.161954
   7 H :    0.158565
   8 H :    0.161222
   9 H :    0.161959
  10 H :    0.158584
  11 H :    0.159355
  12 H :    0.180647
  13 H :    0.164740
  14 H :    0.166523
Sum of atomic charges:   -0.0000000

LOEWDIN ATOMIC CHARGES
----------------------
   0 C :   -0.414558
   1 C :   -0.240961
   2 C :   -0.414553
   3 C :   -0.193675
   4 C :   -0.338993
   5 H :    0.157439
   6 H :    0.157750
   7 H :    0.157774
   8 H :    0.162539
   9 H :    0.157751
  10 H :    0.157766
  11 H :    0.157447
  12 H :    0.171147
  13 H :    0.161339
  14 H :    0.161789

  Mayer bond orders larger than 0.100000
B(  0-C ,  1-C ) :   0.8908 B(  0-C ,  5-H ) :   0.9708 B(  0-C ,  6-H ) :   0.9822
B(  0-C ,  7-H ) :   0.9675 B(  1-C ,  2-C ) :   0.8908 B(  1-C ,  3-C ) :   0.9319
B(  1-C ,  8-H ) :   0.9715 B(  2-C ,  9-H ) :   0.9822 B(  2-C , 10-H ) :   0.9675
B(  2-C , 11-H ) :   0.9708 B(  3-C ,  4-C ) :   1.9107 B(  3-C , 12-H ) :   0.9177
B(  4-C , 13-H ) :   0.9614 B(  4-C , 14-H ) :   0.9862

Dispersion correction           -0.003407765
FINAL SINGLE POINT ENERGY      -196.458079808640

DIPOLE MOMENT
-------------

Method             : SCF
Type of density    : Electron Density
Multiplicity       :   1
Irrep              :   0
Energy             :  -196.4606495278433158 Eh
Relativity type    :
Basis              : AO
                                X                 Y                 Z
Electronic contribution:     -2.121246146      -0.000889378      -0.028732412
Nuclear contribution   :      2.369531646       0.001062093       0.017148577
                        -----------------------------------------
Total Dipole Moment    :      0.248285500       0.000172715      -0.011583836
                        -----------------------------------------
Magnitude (a.u.)       :      0.248555637
Magnitude (Debye)      :      0.631778220

Rotational constants in cm-1:             0.253760             0.120093             0.092851
Rotational constants in MHz :          7607.521614          3600.286958          2783.606984

                             ****ORCA TERMINATED NORMALLY****
TOTAL RUN TIME: 0 days 0 hours 0 minutes 14 seconds 181 msec
