                         Program Version 6.0.0  -   RELEASE  -
|  1> ! pbe def2-sv(p) def2/J RI DEFGRID1 loosescf d4 GCP(DFT/SV(P)) printgap
|  2> %output
|  3>     printlevel normal
|  4> end
|  5> * xyz 0 1
|  6> C -2.5609699202 -0.6663382303 -0.358251055
|  7> C -1.1918128044 -0.2929852187 0.2179480488
|  8> H -1.2657941757 -0.2423229324 1.3149101454
|  9> C -0.7153191578 1.0684540862 -0.3054780467
| 10> H -0.7208770929 1.0413044498 -1.4082393411
| 11> C 0.7229326896 1.3331097063 0.1815094298
| 12> H 0.7043038788 1.4236534654 1.2752036406
| 13> C 1.6252716296 0.157767385 -0.2243026119
| 14> H 1.6397894953 0.0725812431 -1.3180051464
| 15> C 1.0171697611 -1.1429961065 0.3544351602
| 16> H 0.9835930127 -1.0738281475 1.4552316245
| 17> O -0.287953215 -1.317816938 -0.1570720384
| 18> O 1.7570934961 -2.2670086982 0.068267944
| 19> O 2.9634665083 0.3377593987 0.1450878463
| 20> O 1.1887433802 2.5769297717 -0.2787761903
| 21> O -1.5950139258 2.0590939558 0.1556389741
| 22> O -3.0908114774 -1.8209302921 0.2355706008
| 23> H -2.4601371525 -0.797925178 -1.442859641
| 24> H -3.2593682386 0.1456749415 -0.1521109092
| 25> H 1.7476220595 -2.4397261009 -0.8863891798
| 26> H 3.046186007 0.4004028902 1.1070991598
| 27> H 1.4950943986 2.5028627589 -1.1941381117
| 28> H -1.1618171438 2.9227114002 0.0545482035
| 29> H -2.4580615801 -2.5443965702 0.1150506511
| 30> *
| 31>
| 32>                          ****END OF INPUT****

CARTESIAN COORDINATES (ANGSTROEM)
---------------------------------
  C     -2.560970   -0.666338   -0.358251
  C     -1.191813   -0.292985    0.217948
  H     -1.265794   -0.242323    1.314910
  C     -0.715319    1.068454   -0.305478
  H     -0.720877    1.041304   -1.408239
  C      0.722933    1.333110    0.181509
  H      0.704304    1.423653    1.275204
  C      1.625272    0.157767   -0.224303
  H      1.639789    0.072581   -1.318005
  C      1.017170   -1.142996    0.354435
  H      0.983593   -1.073828    1.455232
  O     -0.287953   -1.317817   -0.157072
  O      1.757093   -2.267009    0.068268
  O      2.963467    0.337759    0.145088
  O      1.188743    2.576930   -0.278776
  O     -1.595014    2.059094    0.155639
  O     -3.090811   -1.820930    0.235571
  H     -2.460137   -0.797925   -1.442860
  H     -3.259368    0.145675   -0.152111
  H      1.747622   -2.439726   -0.886389
  H      3.046186    0.400403    1.107099
  H      1.495094    2.502863   -1.194138
  H     -1.161817    2.922711    0.054548
  H     -2.458062   -2.544397    0.115051

 Total Charge           Charge          ....    0
 Multiplicity           Mult            ....    1
 Number of Electrons    NEL             ....   96
 Basis Dimension        Dim             ....  192

ORBITAL ENERGIES
----------------

  NO   OCC          E(Eh)            E(eV)
   0   2.0000     -18.782679      -511.1027
   1   2.0000     -18.768912      -510.7281
   2   2.0000     -18.767999      -510.7032
   3   2.0000     -18.761907      -510.5374
   4   2.0000     -18.757527      -510.4182
   5   2.0000     -18.742442      -510.0078
   6   2.0000      -9.997019      -272.0327
   7   2.0000      -9.953726      -270.8547
   8   2.0000      -9.953363      -270.8448
   9   2.0000      -9.948398      -270.7097
  10   2.0000      -9.946932      -270.6698
  11   2.0000      -9.928854      -270.1779
  12   2.0000      -0.992784       -27.0150
  13   2.0000      -0.956709       -26.0334
  14   2.0000      -0.942058       -25.6347
  15   2.0000      -0.927894       -25.2493
  16   2.0000      -0.925119       -25.1738
  17   2.0000      -0.913951       -24.8699
  18   2.0000      -0.711409       -19.3584
  19   2.0000      -0.696651       -18.9568
  20   2.0000      -0.618650       -16.8343
  21   2.0000      -0.592754       -16.1296
  22   2.0000      -0.576934       -15.6992
  23   2.0000      -0.549263       -14.9462
  24   2.0000      -0.509819       -13.8729
  25   2.0000      -0.500243       -13.6123
  26   2.0000      -0.469019       -12.7627
  27   2.0000      -0.458413       -12.4740
  28   2.0000      -0.454535       -12.3685
  29   2.0000      -0.437748       -11.9117
  30   2.0000      -0.432329       -11.7643
  31   2.0000      -0.414400       -11.2764
  32   2.0000      -0.399579       -10.8731
  33   2.0000      -0.371338       -10.1046
  34   2.0000      -0.362438        -9.8624
  35   2.0000      -0.348876        -9.4934
  36   2.0000      -0.330162        -8.9842
  37   2.0000      -0.320174        -8.7124
  38   2.0000      -0.313477        -8.5302
  39   2.0000      -0.303237        -8.2515
  40   2.0000      -0.291578        -7.9342
  41   2.0000      -0.276167        -7.5149
  42   2.0000      -0.258859        -7.0439
  43   2.0000      -0.256392        -6.9768
  44   2.0000      -0.244069        -6.6415
  45   2.0000      -0.225031        -6.1234
  46   2.0000      -0.211899        -5.7661
  47   2.0000      -0.211216        -5.7475
  48   0.0000       0.006723         0.1830
  49   0.0000       0.017130         0.4661
  50   0.0000       0.024646         0.6707
  51   0.0000       0.043572         1.1857
  52   0.0000       0.052358         1.4247

MULLIKEN ATOMIC CHARGES
-----------------------
   0 C :    0.099507
   1 C :   -0.014210
   2 H :    0.062077
   3 C :    0.064198
   4 H :    0.034871
   5 C :    0.047826
   6 H :    0.053412
   7 C :    0.034464
   8 H :    0.041103
   9 C :    0.178901
  10 H :    0.044256
  11 O :   -0.316558
  12 O :   -0.362066
  13 O :   -0.395375
  14 O :   -0.407585
  15 O :   -0.413050
  16 O :   -0.432953
  17 H :    0.062304
  18 H :    0.102243
  19 H :    0.304953
  20 H :    0.302141
  21 H :    0.305101
  22 H :    0.305936
  23 H :    0.298504
Sum of atomic charges:    0.0000000

LOEWDIN ATOMIC CHARGES
----------------------
   0 C :   -0.123781
   1 C :   -0.071401
   2 H :    0.109320
   3 C :   -0.077254
   4 H :    0.094605
   5 C :   -0.091604
   6 H :    0.112324
   7 C :   -0.104131
   8 H :    0.108357
   9 C :   -0.005307
  10 H :    0.095053
  11 O :   -0.160078
  12 O :   -0.280382
  13 O :   -0.304237
  14 O :   -0.309514
  15 O :   -0.317925
  16 O :   -0.334252
  17 H :    0.098238
  18 H :    0.125377
  19 H :    0.290628
  20 H :    0.289351
  21 H :    0.289434
  22 H :    0.285393
  23 H :    0.281786

  Mayer bond orders larger than 0.100000
B(  0-C ,  1-C ) :   1.0579 B(  0-C , 16-O ) :   1.0823 B(  0-C , 17-H ) :   0.9041
B(  0-C , 18-H ) :   0.9131 B(  1-C ,  2-H ) :   0.8676 B(  1-C ,  3-C ) :   0.9951
B(  1-C , 11-O ) :   0.9790 B(  3-C ,  4-H ) :   0.8623 B(  3-C ,  5-C ) :   0.9966
B(  3-C , 15-O ) :   1.0763 B(  5-C ,  6-H ) :   0.8669 B(  5-C ,  7-C ) :   0.9935
B(  5-C , 14-O ) :   1.0598 B(  7-C ,  8-H ) :   0.8529 B(  7-C ,  9-C ) :   0.9607
B(  7-C , 13-O ) :   1.0763 B(  9-C , 10-H ) :   0.8782 B(  9-C , 11-O ) :   0.9969
B(  9-C , 12-O ) :   1.1726 B( 12-O , 19-H ) :   0.8421 B( 13-O , 20-H ) :   0.8477
B( 14-O , 21-H ) :   0.8459 B( 15-O , 22-H ) :   0.8285 B( 16-O , 23-H ) :   0.8464

Dispersion correction           -0.023651650
FINAL SINGLE POINT ENERGY      -685.697829049285

DIPOLE MOMENT
-------------

Method             : SCF
Type of density    : Electron Density
Multiplicity       :   1
Irrep              :   0
Energy             :  -685.8271996709358973 Eh
Relativity type    :
Basis              : AO
                                X                 Y                 Z
Electronic contribution:      2.298912907      -0.993650652       0.401268281
Nuclear contribution   :     -1.589911094       1.317351280      -1.010441790
                        -----------------------------------------
Total Dipole Moment    :      0.709001812       0.323700628      -0.609173509
                        -----------------------------------------
Magnitude (a.u.)       :      0.989220921
Magnitude (Debye)      :      2.514399758

Rotational constants in cm-1:             0.039105             0.025932             0.016290
Rotational constants in MHz :          1172.345091           777.408223           488.361724

                             ****ORCA TERMINATED NORMALLY****
TOTAL RUN TIME: 0 days 0 hours 0 minutes 11 seconds 877 msec
