                         Program Version 6.0.0  -   RELEASE  -
|  1> ! r2scan-3c def2/J RI DEFGRID2 scfconv6 printgap
|  2> %output
|  3>     printlevel normal
|  4> end
|  5> * xyz 0 1
|  6> C -2.5356774911 1.0548354029 -0.3515582805
|  7> C -1.7782275739 -0.1736701471 0.0510301517
|  8> O -2.330656783 -1.2544433598 0.1552333311
|  9> C -0.2958849276 -0.0359796965 0.3482355109
| 10> C 0.3427605621 1.3003007419 -0.0237533284
| 11> C 1.815146629 1.3090074023 0.3865488699
| 12> C 2.572428277 0.1664067991 -0.2827574189
| 13> C 1.936151057 -1.1726611084 0.0775247469
| 14> C 0.4661670432 -1.1871677295 -0.3257594559
| 15> H -3.5782428904 0.8011312315 -0.523080636
| 16> H -2.464940701 1.8034157337 0.433089769
| 17> H -2.1042452851 1.4731432161 -1.2567494401
| 18> H -0.2084191504 -0.1763606838 1.4342004705
| 19> H 0.2746231615 1.4516590148 -1.1025715768
| 20> H -0.1700090566 2.1234304414 0.4737597229
| 21> H 2.2650603391 2.2641185554 0.1102332818
| 22> H 1.8902097801 1.2048898735 1.4712714063
| 23> H 2.5462701072 0.2988783446 -1.3665520771
| 24> H 3.6175199277 0.1779589067 0.0313472114
| 25> H 2.4611990905 -1.9851562826 -0.4278160324
| 26> H 2.0193773007 -1.3380475598 1.1539582558
| 27> H 0.3829883677 -1.0788614204 -1.4100802831
| 28> H 0.0008401113 -2.1351816851 -0.0493306635
| 29> *
| 30>
| 31>                          ****END OF INPUT****

CARTESIAN COORDINATES (ANGSTROEM)
---------------------------------
  C     -2.535677    1.054835   -0.351558
  C     -1.778228   -0.173670    0.051030
  O     -2.330657   -1.254443    0.155233
  C     -0.295885   -0.035980    0.348236
  C      0.342761    1.300301   -0.023753
  C      1.815147    1.309007    0.386549
  C      2.572428    0.166407   -0.282757
  C      1.936151   -1.172661    0.077525
  C      0.466167   -1.187168   -0.325759
  H     -3.578243    0.801131   -0.523081
  H     -2.464941    1.803416    0.433090
  H     -2.104245    1.473143   -1.256749
  H     -0.208419   -0.176361    1.434200
  H      0.274623    1.451659   -1.102572
  H     -0.170009    2.123430    0.473760
  H      2.265060    2.264119    0.110233
  H      1.890210    1.204890    1.471271
  H      2.546270    0.298878   -1.366552
  H      3.617520    0.177959    0.031347
  H      2.461199   -1.985156   -0.427816
  H      2.019377   -1.338048    1.153958
  H      0.382988   -1.078861   -1.410080
  H      0.000840   -2.135182   -0.049331

 Total Charge           Charge          ....    0
 Multiplicity           Mult            ....    1
 Number of Electrons    NEL             ....   70
 Basis Dimension        Dim             ....  246

ORBITAL ENERGIES
----------------

  NO   OCC          E(Eh)            E(eV)
   0   2.0000     -18.931468      -515.1514
   1   2.0000     -10.115549      -275.2581
   2   2.0000     -10.042077      -273.2588
   3   2.0000     -10.034792      -273.0606
   4   2.0000     -10.032624      -273.0016
   5   2.0000     -10.030410      -272.9413
   6   2.0000     -10.027101      -272.8513
   7   2.0000     -10.026571      -272.8369
   8   2.0000     -10.025974      -272.8206
   9   2.0000      -0.998695       -27.1759
  10   2.0000      -0.810869       -22.0649
  11   2.0000      -0.738994       -20.1091
  12   2.0000      -0.714853       -19.4521
  13   2.0000      -0.698286       -19.0013
  14   2.0000      -0.599117       -16.3028
  15   2.0000      -0.579062       -15.7571
  16   2.0000      -0.533883       -14.5277
  17   2.0000      -0.499068       -13.5803
  18   2.0000      -0.456859       -12.4318
  19   2.0000      -0.434270       -11.8171
  20   2.0000      -0.420263       -11.4359
  21   2.0000      -0.414256       -11.2725
  22   2.0000      -0.403003       -10.9663
  23   2.0000      -0.395093       -10.7510
  24   2.0000      -0.384909       -10.4739
  25   2.0000      -0.355168        -9.6646
  26   2.0000      -0.349831        -9.5194
  27   2.0000      -0.344830        -9.3833
  28   2.0000      -0.332942        -9.0598
  29   2.0000      -0.318258        -8.6602
  30   2.0000      -0.308296        -8.3892
  31   2.0000      -0.297234        -8.0882
  32   2.0000      -0.281818        -7.6687
  33   2.0000      -0.271736        -7.3943
  34   2.0000      -0.208374        -5.6701
  35   0.0000      -0.044569        -1.2128
  36   0.0000       0.076731         2.0880
  37   0.0000       0.096990         2.6392
  38   0.0000       0.103708         2.8220
  39   0.0000       0.113739         3.0950

MULLIKEN ATOMIC CHARGES
-----------------------
   0 C :   -0.484629
   1 C :    0.247787
   2 O :   -0.351441
   3 C :   -0.048879
   4 C :   -0.376447
   5 C :   -0.298347
   6 C :   -0.273996
   7 C :   -0.302187
   8 C :   -0.333100
   9 H :    0.179466
  10 H :    0.171028
  11 H :    0.156477
  12 H :    0.181679
  13 H :    0.168514
  14 H :    0.142530
  15 H :    0.147753
  16 H :    0.148219
  17 H :    0.139718
  18 H :    0.147613
  19 H :    0.149277
  20 H :    0.149020
  21 H :    0.155562
  22 H :    0.184383
Sum of atomic charges:   -0.0000000

LOEWDIN ATOMIC CHARGES
----------------------
   0 C :   -0.381019
   1 C :    0.230026
   2 O :   -0.474128
   3 C :   -0.203048
   4 C :   -0.294887
   5 C :   -0.300393
   6 C :   -0.304284
   7 C :   -0.301010
   8 C :   -0.270472
   9 H :    0.174649
  10 H :    0.173890
  11 H :    0.173987
  12 H :    0.187254
  13 H :    0.159338
  14 H :    0.158797
  15 H :    0.155668
  16 H :    0.156265
  17 H :    0.154511
  18 H :    0.155399
  19 H :    0.156835
  20 H :    0.155555
  21 H :    0.159757
  22 H :    0.177309

  Mayer bond orders larger than 0.100000
B(  0-C ,  1-C ) :   0.9165 B(  0-C ,  9-H ) :   0.9818 B(  0-C , 10-H ) :   0.9635
B(  0-C , 11-H ) :   0.9376 B(  1-C ,  2-O ) :   1.9315 B(  1-C ,  3-C ) :   0.8575
B(  3-C ,  4-C ) :   0.8731 B(  3-C ,  8-C ) :   0.9097 B(  3-C , 12-H ) :   0.9358
B(  4-C ,  5-C ) :   0.9085 B(  4-C , 13-H ) :   1.0170 B(  4-C , 14-H ) :   0.9280
B(  5-C ,  6-C ) :   0.9247 B(  5-C , 15-H ) :   0.9416 B(  5-C , 16-H ) :   0.9990
B(  6-C ,  7-C ) :   0.9142 B(  6-C , 17-H ) :   0.9853 B(  6-C , 18-H ) :   0.9475
B(  7-C ,  8-C ) :   0.8833 B(  7-C , 19-H ) :   0.9454 B(  7-C , 20-H ) :   1.0046
B(  8-C , 21-H ) :   0.9984 B(  8-C , 22-H ) :   0.9417

Dispersion correction           -0.007325472
FINAL SINGLE POINT ENERGY      -388.406144175623

DIPOLE MOMENT
-------------

Method             : SCF
Type of density    : Electron Density
Multiplicity       :   1
Irrep              :   0
Energy             :  -388.4087122874225315 Eh
Relativity type    :
Basis              : AO
                                X                 Y                 Z
Electronic contribution:     -5.817390798      -3.591880734       0.882541158
Nuclear contribution   :      6.469017588       4.564352868      -0.962433151
                        -----------------------------------------
Total Dipole Moment    :      0.651626790       0.972472134      -0.079891993
                        -----------------------------------------
Magnitude (a.u.)       :      1.173329560
Magnitude (Debye)      :      2.982366728

Rotational constants in cm-1:             0.102410             0.037041             0.029138
Rotational constants in MHz :          3070.178519          1110.474389           873.535612

                             ****ORCA TERMINATED NORMALLY****
TOTAL RUN TIME: 0 days 0 hours 0 minutes 37 seconds 361 msec
