                         Program Version 6.0.0  -   RELEASE  -
|  1> ! r2scan-3c def2/J RI DEFGRID2 scfconv6 printgap
|  2> %output
|  3>     printlevel normal
|  4> end
|  5> %cpcm
|  6>     smd true
|  7>     smdsolvent "water"
|  8> end
|  9> * xyz 0 1
| 10> C -2.5356774911 1.0548354029 -0.3515582805
| 11> C -1.7782275739 -0.1736701471 0.0510301517
| 12> O -2.330656783 -1.2544433598 0.1552333311
| 13> C -0.2958849276 -0.0359796965 0.3482355109
| 14> C 0.3427605621 1.3003007419 -0.0237533284
| 15> C 1.815146629 1.3090074023 0.3865488699
| 16> C 2.572428277 0.1664067991 -0.2827574189
| 17> C 1.936151057 -1.1726611084 0.0775247469
| 18> C 0.4661670432 -1.1871677295 -0.3257594559
| 19> H -3.5782428904 0.8011312315 -0.523080636
| 20> H -2.464940701 1.8034157337 0.433089769
| 21> H -2.1042452851 1.4731432161 -1.2567494401
| 22> H -0.2084191504 -0.1763606838 1.4342004705
| 23> H 0.2746231615 1.4516590148 -1.1025715768
| 24> H -0.1700090566 2.1234304414 0.4737597229
| 25> H 2.2650603391 2.2641185554 0.1102332818
| 26> H 1.8902097801 1.2048898735 1.4712714063
| 27> H 2.5462701072 0.2988783446 -1.3665520771
| 28> H 3.6175199277 0.1779589067 0.0313472114
| 29> H 2.4611990905 -1.9851562826 -0.4278160324
| 30> H 2.0193773007 -1.3380475598 1.1539582558
| 31> H 0.3829883677 -1.0788614204 -1.4100802831
| 32> H 0.0008401113 -2.1351816851 -0.0493306635
| 33> *
| 34>
| 35>                          ****END OF INPUT****

CARTESIAN COORDINATES (ANGSTROEM)
---------------------------------
  C     -2.535677    1.054835   -0.351558
  C     -1.778228   -0.173670    0.051030
  O     -2.330657   -1.254443    0.155233
  C     -0.295885   -0.035980    0.348236
  C      0.342761    1.300301   -0.023753
  C      1.815147    1.309007    0.386549
  C      2.572428    0.166407   -0.282757
  C      1.936151   -1.172661    0.077525
  C      0.466167   -1.187168   -0.325759
  H     -3.578243    0.801131   -0.523081
  H     -2.464941    1.803416    0.433090
  H     -2.104245    1.473143   -1.256749
  H     -0.208419   -0.176361    1.434200
  H      0.274623    1.451659   -1.102572
  H     -0.170009    2.123430    0.473760
  H      2.265060    2.264119    0.110233
  H      1.890210    1.204890    1.471271
  H      2.546270    0.298878   -1.366552
  H      3.617520    0.177959    0.031347
  H      2.461199   -1.985156   -0.427816
  H      2.019377   -1.338048    1.153958
  H      0.382988   -1.078861   -1.410080
  H      0.000840   -2.135182   -0.049331

 Total Charge           Charge          ....    0
 Multiplicity           Mult            ....    1
 Number of Electrons    NEL             ....   70
 Basis Dimension        Dim             ....  246

ORBITAL ENERGIES
----------------

  NO   OCC          E(Eh)            E(eV)
   0   2.0000     -18.943263      -515.4724
   1   2.0000     -10.122318      -275.4423
   2   2.0000     -10.033409      -273.0229
   3   2.0000     -10.021625      -272.7023
   4   2.0000     -10.020007      -272.6583
   5   2.0000     -10.018364      -272.6135
   6   2.0000     -10.015308      -272.5304
   7   2.0000     -10.015243      -272.5286
   8   2.0000     -10.013424      -272.4791
   9   2.0000      -1.012173       -27.5426
  10   2.0000      -0.799506       -21.7557
  11   2.0000      -0.729927       -19.8623
  12   2.0000      -0.703382       -19.1400
  13   2.0000      -0.688160       -18.7258
  14   2.0000      -0.590020       -16.0553
  15   2.0000      -0.567435       -15.4407
  16   2.0000      -0.521707       -14.1964
  17   2.0000      -0.494063       -13.4441
  18   2.0000      -0.451303       -12.2806
  19   2.0000      -0.427420       -11.6307
  20   2.0000      -0.414026       -11.2662
  21   2.0000      -0.407874       -11.0988
  22   2.0000      -0.394921       -10.7463
  23   2.0000      -0.391375       -10.6498
  24   2.0000      -0.373568       -10.1653
  25   2.0000      -0.349002        -9.4968
  26   2.0000      -0.341378        -9.2894
  27   2.0000      -0.338719        -9.2170
  28   2.0000      -0.324137        -8.8202
  29   2.0000      -0.305449        -8.3117
  30   2.0000      -0.302591        -8.2339
  31   2.0000      -0.284766        -7.7489
  32   2.0000      -0.273493        -7.4421
  33   2.0000      -0.260822        -7.0973
  34   2.0000      -0.218715        -5.9515
  35   0.0000      -0.047612        -1.2956
  36   0.0000       0.088875         2.4184
  37   0.0000       0.108308         2.9472
  38   0.0000       0.118105         3.2138
  39   0.0000       0.125808         3.4234

MULLIKEN ATOMIC CHARGES
-----------------------
   0 C :   -0.527563
   1 C :    0.294077
   2 O :   -0.461044
   3 C :   -0.031784
   4 C :   -0.399073
   5 C :   -0.314920
   6 C :   -0.289303
   7 C :   -0.324119
   8 C :   -0.341274
   9 H :    0.178614
  10 H :    0.206358
  11 H :    0.190536
  12 H :    0.205295
  13 H :    0.185874
  14 H :    0.159394
  15 H :    0.154830
  16 H :    0.157879
  17 H :    0.149150
  18 H :    0.153603
  19 H :    0.155220
  20 H :    0.159125
  21 H :    0.173981
  22 H :    0.165144
Sum of atomic charges:   -0.0000000

LOEWDIN ATOMIC CHARGES
----------------------
   0 C :   -0.379907
   1 C :    0.249444
   2 O :   -0.554049
   3 C :   -0.197293
   4 C :   -0.291919
   5 C :   -0.302471
   6 C :   -0.307042
   7 C :   -0.302843
   8 C :   -0.273925
   9 H :    0.173797
  10 H :    0.189278
  11 H :    0.188245
  12 H :    0.196948
  13 H :    0.165620
  14 H :    0.165090
  15 H :    0.157647
  16 H :    0.158921
  17 H :    0.157237
  18 H :    0.156523
  19 H :    0.158031
  20 H :    0.158557
  21 H :    0.165110
  22 H :    0.169002

  Mayer bond orders larger than 0.100000
B(  0-C ,  1-C ) :   0.9293 B(  0-C ,  9-H ) :   0.9777 B(  0-C , 10-H ) :   0.9463
B(  0-C , 11-H ) :   0.9264 B(  1-C ,  2-O ) :   1.8579 B(  1-C ,  3-C ) :   0.8719
B(  3-C ,  4-C ) :   0.8746 B(  3-C ,  8-C ) :   0.8918 B(  3-C , 12-H ) :   0.9236
B(  4-C ,  5-C ) :   0.9010 B(  4-C , 13-H ) :   1.0141 B(  4-C , 14-H ) :   0.9276
B(  5-C ,  6-C ) :   0.9211 B(  5-C , 15-H ) :   0.9408 B(  5-C , 16-H ) :   0.9978
B(  6-C ,  7-C ) :   0.9168 B(  6-C , 17-H ) :   0.9830 B(  6-C , 18-H ) :   0.9472
B(  7-C ,  8-C ) :   0.8945 B(  7-C , 19-H ) :   0.9440 B(  7-C , 20-H ) :   1.0035
B(  8-C , 21-H ) :   0.9911 B(  8-C , 22-H ) :   0.9427

Dispersion correction           -0.007325472
FINAL SINGLE POINT ENERGY      -388.413352248728

DIPOLE MOMENT
-------------

Method             : SCF
Type of density    : Electron Density
Multiplicity       :   1
Irrep              :   0
Energy             :  -388.4159203605272523 Eh
Relativity type    :
Basis              : AO
                                X                 Y                 Z
Electronic contribution:     -5.568521559      -3.055653000       0.849104692
Nuclear contribution   :      6.469017588       4.564352868      -0.962433151
                        -----------------------------------------
Total Dipole Moment    :      0.900496029       1.508699868      -0.113328459
                        -----------------------------------------
Magnitude (a.u.)       :      1.760656619
Magnitude (Debye)      :      4.475233472

Rotational constants in cm-1:             0.102410             0.037041             0.029138
Rotational constants in MHz :          3070.178519          1110.474389           873.535612

                             ****ORCA TERMINATED NORMALLY****
TOTAL RUN TIME: 0 days 0 hours 0 minutes 38 seconds 245 msec
