                         Program Version 6.0.0  -   RELEASE  -
|  1> ! wb97x-v def2-tzvp def2/J RIJCOSX DEFGRID2 scfconv7 GCP(DFT/TZ) printgap
|  2> %output
|  3>     printlevel normal
|  4> end
|  5> * xyz 0 1
|  6> C -3.407643390263457 0.5434832163140138 -0.03856456006187884
|  7> C -1.9238913806660203 0.538697490041325 0.29339707686099464
|  8> H -1.7622300798504713 0.9484139307093928 1.3023460811756356
|  9> C -1.1020970928847527 1.4103733572417068 -0.6836873982864944
| 10> C 0.389661562246779 1.3983285751231098 -0.3622374969614062
| 11> C 0.9435359095543766 -0.034586035382436986 -0.38358530171685795
| 12> H 0.7734654194923858 -0.4398686497250578 -1.3898391625269362
| 13> C 0.1495616506116496 -0.9089288463931549 0.617946890005792
| 14> C -1.3226899065055977 -0.846879758614897 0.31635902653537795
| 15> O -1.9778388180330468 -1.857937004862683 0.07715871422472638
| 16> C 2.4309599752168785 -0.08579893692926473 -0.11349090098868198
| 17> C 3.288796100412115 -0.372127907050266 -1.0979997944445758
| 18> C 2.8987660939441966 0.20585854007012372 1.282714201374322
| 19> H -3.583673163588498 0.14043827634845943 -1.0412019779574135
| 20> H -3.980046418729509 -0.057798191781260555 0.6734175430210081
| 21> H -3.79305279312354 1.566870444079881 -0.010305499502692144
| 22> H -1.26525451098131 1.0382449922705663 -1.7041061249442386
| 23> H -1.4929118074843055 2.432770878034122 -0.6460281717136921
| 24> H 0.9325334211933329 2.005331935602569 -1.095317967834965
| 25> H 0.5558592158023439 1.8473314715716593 0.6248816648480804
| 26> H 0.4867689185741788 -1.948807449189327 0.5921333865445791
| 27> H 0.2989726814346031 -0.5114665587825518 1.630467928850312
| 28> H 4.362212498685918 -0.3861946397662144 -0.9265122178824334
| 29> H 2.9395560200387916 -0.5998631326842749 -2.102225191895451
| 30> H 2.588707705306501 -0.5880129134444025 1.9729840341302538
| 31> H 3.9883233907819333 0.2802872519483354 1.3218004925014952
| 32> H 2.471665146531671 1.13962871834661 1.6656088181204816
| 33> *
| 34>
| 35>                          ****END OF INPUT****

CARTESIAN COORDINATES (ANGSTROEM)
---------------------------------
  C     -3.407643    0.543483   -0.038565
  C     -1.923891    0.538697    0.293397
  H     -1.762230    0.948414    1.302346
  C     -1.102097    1.410373   -0.683687
  C      0.389662    1.398329   -0.362237
  C      0.943536   -0.034586   -0.383585
  H      0.773465   -0.439869   -1.389839
  C      0.149562   -0.908929    0.617947
  C     -1.322690   -0.846880    0.316359
  O     -1.977839   -1.857937    0.077159
  C      2.430960   -0.085799   -0.113491
  C      3.288796   -0.372128   -1.098000
  C      2.898766    0.205859    1.282714
  H     -3.583673    0.140438   -1.041202
  H     -3.980046   -0.057798    0.673418
  H     -3.793053    1.566870   -0.010305
  H     -1.265255    1.038245   -1.704106
  H     -1.492912    2.432771   -0.646028
  H      0.932533    2.005332   -1.095318
  H      0.555859    1.847331    0.624882
  H      0.486769   -1.948807    0.592133
  H      0.298973   -0.511467    1.630468
  H      4.362212   -0.386195   -0.926512
  H      2.939556   -0.599863   -2.102225
  H      2.588708   -0.588013    1.972984
  H      3.988323    0.280287    1.321800
  H      2.471665    1.139629    1.665609

 Total Charge           Charge          ....    0
 Multiplicity           Mult            ....    1
 Number of Electrons    NEL             ....   84
 Basis Dimension        Dim             ....  437

ORBITAL ENERGIES
----------------

  NO   OCC          E(Eh)            E(eV)
   0   2.0000     -21.657582      -589.3328
   1   2.0000     -12.131911      -330.1261
   2   2.0000     -12.067373      -328.3699
   3   2.0000     -12.063898      -328.2754
   4   2.0000     -12.061717      -328.2160
   5   2.0000     -12.057319      -328.0963
   6   2.0000     -12.054681      -328.0246
   7   2.0000     -12.054257      -328.0130
   8   2.0000     -12.048645      -327.8603
   9   2.0000     -12.037992      -327.5704
  10   2.0000     -12.035589      -327.5050
  11   2.0000      -1.699120       -46.2354
  12   2.0000      -1.369357       -37.2621
  13   2.0000      -1.328891       -36.1610
  14   2.0000      -1.276498       -34.7353
  15   2.0000      -1.255492       -34.1637
  16   2.0000      -1.195863       -32.5411
  17   2.0000      -1.181375       -32.1469
  18   2.0000      -1.113678       -30.3047
  19   2.0000      -1.099809       -29.9273
  20   2.0000      -1.053965       -28.6798
  21   2.0000      -0.999653       -27.2020
  22   2.0000      -0.964168       -26.2363
  23   2.0000      -0.960842       -26.1458
  24   2.0000      -0.919622       -25.0242
  25   2.0000      -0.911588       -24.8056
  26   2.0000      -0.900848       -24.5133
  27   2.0000      -0.889745       -24.2112
  28   2.0000      -0.878433       -23.9034
  29   2.0000      -0.854234       -23.2449
  30   2.0000      -0.851293       -23.1649
  31   2.0000      -0.841418       -22.8961
  32   2.0000      -0.836360       -22.7585
  33   2.0000      -0.818887       -22.2831
  34   2.0000      -0.812896       -22.1200
  35   2.0000      -0.806949       -21.9582
  36   2.0000      -0.804436       -21.8898
  37   2.0000      -0.785742       -21.3811
  38   2.0000      -0.774528       -21.0760
  39   2.0000      -0.763471       -20.7751
  40   2.0000      -0.759115       -20.6566
  41   2.0000      -0.651177       -17.7194
  42   0.0000      -0.312624        -8.5069
  43   0.0000      -0.207678        -5.6512
  44   0.0000      -0.062546        -1.7020
  45   0.0000      -0.056268        -1.5311
  46   0.0000      -0.053389        -1.4528

MULLIKEN ATOMIC CHARGES
-----------------------
   0 C :   -0.331293
   1 C :   -0.008930
   2 H :    0.083088
   3 C :   -0.216492
   4 C :   -0.210686
   5 C :   -0.013479
   6 H :    0.088208
   7 C :   -0.191968
   8 C :    0.111400
   9 O :   -0.302657
  10 C :    0.048681
  11 C :   -0.284029
  12 C :   -0.395514
  13 H :    0.115430
  14 H :    0.125494
  15 H :    0.110033
  16 H :    0.110036
  17 H :    0.108748
  18 H :    0.116387
  19 H :    0.093584
  20 H :    0.122833
  21 H :    0.118919
  22 H :    0.110624
  23 H :    0.115098
  24 H :    0.135498
  25 H :    0.120255
  26 H :    0.120731
Sum of atomic charges:   -0.0000000

LOEWDIN ATOMIC CHARGES
----------------------
   0 C :   -0.270763
   1 C :   -0.247539
   2 H :    0.162308
   3 C :   -0.220939
   4 C :   -0.222837
   5 C :   -0.205848
   6 H :    0.161932
   7 C :   -0.180527
   8 C :   -0.285502
   9 O :    0.112628
  10 C :   -0.206268
  11 C :   -0.187325
  12 C :   -0.254244
  13 H :    0.125547
  14 H :    0.125298
  15 H :    0.118686
  16 H :    0.141400
  17 H :    0.137443
  18 H :    0.141276
  19 H :    0.135765
  20 H :    0.148753
  21 H :    0.151204
  22 H :    0.119622
  23 H :    0.121168
  24 H :    0.128058
  25 H :    0.127045
  26 H :    0.123661

  Mayer bond orders larger than 0.100000
B(  0-C ,  1-C ) :   0.9844 B(  0-C , 13-H ) :   0.9693 B(  0-C , 14-H ) :   0.9793
B(  0-C , 15-H ) :   0.9851 B(  1-C ,  2-H ) :   0.9440 B(  1-C ,  3-C ) :   0.9505
B(  1-C ,  8-C ) :   0.9292 B(  3-C ,  4-C ) :   0.9837 B(  3-C , 16-H ) :   0.9691
B(  3-C , 17-H ) :   0.9723 B(  4-C ,  5-C ) :   0.9771 B(  4-C , 18-H ) :   0.9714
B(  4-C , 19-H ) :   0.9665 B(  5-C ,  6-H ) :   0.9764 B(  5-C ,  7-C ) :   0.9397
B(  5-C , 10-C ) :   0.9077 B(  7-C ,  8-C ) :   1.0178 B(  7-C , 20-H ) :   0.9484
B(  7-C , 21-H ) :   0.9548 B(  8-C ,  9-O ) :   2.1863 B( 10-C , 11-C ) :   1.9252
B( 10-C , 12-C ) :   0.9439 B( 11-C , 22-H ) :   0.9656 B( 11-C , 23-H ) :   0.9706
B( 12-C , 24-H ) :   0.9728 B( 12-C , 25-H ) :   0.9811 B( 12-C , 26-H ) :   0.9781

FINAL SINGLE POINT ENERGY      -465.944554848454

DIPOLE MOMENT
-------------

Method             : SCF
Type of density    : Electron Density
Multiplicity       :   1
Irrep              :   0
Energy             :  -465.9625546550540207 Eh
Relativity type    :
Basis              : AO
                                X                 Y                 Z
Electronic contribution:     -2.651738433      -5.367276558      -0.528125160
Nuclear contribution   :      3.266969864       6.474636640       0.807889704
                        -----------------------------------------
Total Dipole Moment    :      0.615231430       1.107360083       0.279764544
                        -----------------------------------------
Magnitude (a.u.)       :      1.297314251
Magnitude (Debye)      :      3.297510768

Rotational constants in cm-1:             0.072609             0.021679             0.019448
Rotational constants in MHz :          2176.755849           649.914177           583.022403

                             ****ORCA TERMINATED NORMALLY****
TOTAL RUN TIME: 0 days 0 hours 6 minutes 48 seconds 204 msec
