                         Program Version 6.0.0  -   RELEASE  -
|  1> ! wb97x-v def2-tzvp def2/J RIJCOSX DEFGRID2 scfconv7 GCP(DFT/TZ) printgap
|  2> %output
|  3>     printlevel normal
|  4> end
|  5> %cpcm
|  6>     smd true
|  7>     smdsolvent "water"
|  8> end
|  9> * xyz 0 1
| 10> C -3.407643390263457 0.5434832163140138 -0.03856456006187884
| 11> C -1.9238913806660203 0.538697490041325 0.29339707686099464
| 12> H -1.7622300798504713 0.9484139307093928 1.3023460811756356
| 13> C -1.1020970928847527 1.4103733572417068 -0.6836873982864944
| 14> C 0.389661562246779 1.3983285751231098 -0.3622374969614062
| 15> C 0.9435359095543766 -0.034586035382436986 -0.38358530171685795
| 16> H 0.7734654194923858 -0.4398686497250578 -1.3898391625269362
| 17> C 0.1495616506116496 -0.9089288463931549 0.617946890005792
| 18> C -1.3226899065055977 -0.846879758614897 0.31635902653537795
| 19> O -1.9778388180330468 -1.857937004862683 0.07715871422472638
| 20> C 2.4309599752168785 -0.08579893692926473 -0.11349090098868198
| 21> C 3.288796100412115 -0.372127907050266 -1.0979997944445758
| 22> C 2.8987660939441966 0.20585854007012372 1.282714201374322
| 23> H -3.583673163588498 0.14043827634845943 -1.0412019779574135
| 24> H -3.980046418729509 -0.057798191781260555 0.6734175430210081
| 25> H -3.79305279312354 1.566870444079881 -0.010305499502692144
| 26> H -1.26525451098131 1.0382449922705663 -1.7041061249442386
| 27> H -1.4929118074843055 2.432770878034122 -0.6460281717136921
| 28> H 0.9325334211933329 2.005331935602569 -1.095317967834965
| 29> H 0.5558592158023439 1.8473314715716593 0.6248816648480804
| 30> H 0.4867689185741788 -1.948807449189327 0.5921333865445791
| 31> H 0.2989726814346031 -0.5114665587825518 1.630467928850312
| 32> H 4.362212498685918 -0.3861946397662144 -0.9265122178824334
| 33> H 2.9395560200387916 -0.5998631326842749 -2.102225191895451
| 34> H 2.588707705306501 -0.5880129134444025 1.9729840341302538
| 35> H 3.9883233907819333 0.2802872519483354 1.3218004925014952
| 36> H 2.471665146531671 1.13962871834661 1.6656088181204816
| 37> *
| 38>
| 39>                          ****END OF INPUT****

CARTESIAN COORDINATES (ANGSTROEM)
---------------------------------
  C     -3.407643    0.543483   -0.038565
  C     -1.923891    0.538697    0.293397
  H     -1.762230    0.948414    1.302346
  C     -1.102097    1.410373   -0.683687
  C      0.389662    1.398329   -0.362237
  C      0.943536   -0.034586   -0.383585
  H      0.773465   -0.439869   -1.389839
  C      0.149562   -0.908929    0.617947
  C     -1.322690   -0.846880    0.316359
  O     -1.977839   -1.857937    0.077159
  C      2.430960   -0.085799   -0.113491
  C      3.288796   -0.372128   -1.098000
  C      2.898766    0.205859    1.282714
  H     -3.583673    0.140438   -1.041202
  H     -3.980046   -0.057798    0.673418
  H     -3.793053    1.566870   -0.010305
  H     -1.265255    1.038245   -1.704106
  H     -1.492912    2.432771   -0.646028
  H      0.932533    2.005332   -1.095318
  H      0.555859    1.847331    0.624882
  H      0.486769   -1.948807    0.592133
  H      0.298973   -0.511467    1.630468
  H      4.362212   -0.386195   -0.926512
  H      2.939556   -0.599863   -2.102225
  H      2.588708   -0.588013    1.972984
  H      3.988323    0.280287    1.321800
  H      2.471665    1.139629    1.665609

 Total Charge           Charge          ....    0
 Multiplicity           Mult            ....    1
 Number of Electrons    NEL             ....   84
 Basis Dimension        Dim             ....  437

ORBITAL ENERGIES
----------------

  NO   OCC          E(Eh)            E(eV)
   0   2.0000     -21.668312      -589.6247
   1   2.0000     -12.139372      -330.3291
   2   2.0000     -12.055731      -328.0531
   3   2.0000     -12.053525      -327.9931
   4   2.0000     -12.051325      -327.9332
   5   2.0000     -12.044424      -327.7455
   6   2.0000     -12.041224      -327.6584
   7   2.0000     -12.036514      -327.5302
   8   2.0000     -12.031438      -327.3921
   9   2.0000     -12.028260      -327.3056
  10   2.0000     -12.027005      -327.2714
  11   2.0000      -1.713418       -46.6245
  12   2.0000      -1.357568       -36.9413
  13   2.0000      -1.318794       -35.8862
  14   2.0000      -1.266362       -34.4595
  15   2.0000      -1.244471       -33.8638
  16   2.0000      -1.182088       -32.1663
  17   2.0000      -1.173219       -31.9249
  18   2.0000      -1.109055       -30.1789
  19   2.0000      -1.093954       -29.7680
  20   2.0000      -1.054641       -28.6982
  21   2.0000      -0.987290       -26.8655
  22   2.0000      -0.964732       -26.2517
  23   2.0000      -0.956318       -26.0227
  24   2.0000      -0.918536       -24.9946
  25   2.0000      -0.900640       -24.5077
  26   2.0000      -0.899310       -24.4715
  27   2.0000      -0.877237       -23.8708
  28   2.0000      -0.866463       -23.5777
  29   2.0000      -0.845499       -23.0072
  30   2.0000      -0.843341       -22.9485
  31   2.0000      -0.830569       -22.6009
  32   2.0000      -0.823665       -22.4131
  33   2.0000      -0.808461       -21.9993
  34   2.0000      -0.799005       -21.7420
  35   2.0000      -0.795987       -21.6599
  36   2.0000      -0.793921       -21.6037
  37   2.0000      -0.773455       -21.0468
  38   2.0000      -0.762065       -20.7368
  39   2.0000      -0.753986       -20.5170
  40   2.0000      -0.745734       -20.2925
  41   2.0000      -0.642603       -17.4861
  42   0.0000      -0.310564        -8.4509
  43   0.0000      -0.199421        -5.4265
  44   0.0000      -0.056678        -1.5423
  45   0.0000      -0.044841        -1.2202
  46   0.0000      -0.040257        -1.0954

MULLIKEN ATOMIC CHARGES
-----------------------
   0 C :   -0.411842
   1 C :    0.013574
   2 H :    0.115480
   3 C :   -0.232253
   4 C :   -0.233583
   5 C :    0.023476
   6 H :    0.103264
   7 C :   -0.212647
   8 C :    0.198783
   9 O :   -0.446791
  10 C :   -0.004498
  11 C :   -0.379544
  12 C :   -0.429924
  13 H :    0.127470
  14 H :    0.134826
  15 H :    0.136758
  16 H :    0.118789
  17 H :    0.126121
  18 H :    0.121359
  19 H :    0.117934
  20 H :    0.123840
  21 H :    0.153172
  22 H :    0.149093
  23 H :    0.150703
  24 H :    0.151979
  25 H :    0.139528
  26 H :    0.144934
Sum of atomic charges:   -0.0000000

LOEWDIN ATOMIC CHARGES
----------------------
   0 C :   -0.280839
   1 C :   -0.239746
   2 H :    0.175804
   3 C :   -0.216878
   4 C :   -0.220467
   5 C :   -0.201839
   6 H :    0.166338
   7 C :   -0.175697
   8 C :   -0.262799
   9 O :    0.032222
  10 C :   -0.209573
  11 C :   -0.212815
  12 C :   -0.256589
  13 H :    0.124273
  14 H :    0.123026
  15 H :    0.125891
  16 H :    0.144267
  17 H :    0.142557
  18 H :    0.142274
  19 H :    0.143205
  20 H :    0.147758
  21 H :    0.165256
  22 H :    0.124563
  23 H :    0.126067
  24 H :    0.133374
  25 H :    0.129476
  26 H :    0.130894

  Mayer bond orders larger than 0.100000
B(  0-C ,  1-C ) :   0.9472 B(  0-C , 13-H ) :   0.9708 B(  0-C , 14-H ) :   0.9822
B(  0-C , 15-H ) :   0.9824 B(  1-C ,  2-H ) :   0.9323 B(  1-C ,  3-C ) :   0.9494
B(  1-C ,  8-C ) :   0.9506 B(  3-C ,  4-C ) :   0.9948 B(  3-C , 16-H ) :   0.9657
B(  3-C , 17-H ) :   0.9669 B(  4-C ,  5-C ) :   0.9836 B(  4-C , 18-H ) :   0.9659
B(  4-C , 19-H ) :   0.9634 B(  5-C ,  6-H ) :   0.9779 B(  5-C ,  7-C ) :   0.9327
B(  5-C , 10-C ) :   0.8922 B(  7-C ,  8-C ) :   1.0403 B(  7-C , 20-H ) :   0.9538
B(  7-C , 21-H ) :   0.9367 B(  8-C ,  9-O ) :   2.0215 B( 10-C , 11-C ) :   1.9110
B( 10-C , 12-C ) :   0.9596 B( 11-C , 22-H ) :   0.9680 B( 11-C , 23-H ) :   0.9673
B( 12-C , 24-H ) :   0.9648 B( 12-C , 25-H ) :   0.9784 B( 12-C , 26-H ) :   0.9711

FINAL SINGLE POINT ENERGY      -465.952449474287

DIPOLE MOMENT
-------------

Method             : SCF
Type of density    : Electron Density
Multiplicity       :   1
Irrep              :   0
Energy             :  -465.9704492808867826 Eh
Relativity type    :
Basis              : AO
                                X                 Y                 Z
Electronic contribution:     -2.440922784      -4.795015713      -0.285017981
Nuclear contribution   :      3.266969864       6.474636640       0.807889704
                        -----------------------------------------
Total Dipole Moment    :      0.826047080       1.679620928       0.522871723
                        -----------------------------------------
Magnitude (a.u.)       :      1.943418400
Magnitude (Debye)      :      4.939777003

Rotational constants in cm-1:             0.072609             0.021679             0.019448
Rotational constants in MHz :          2176.755849           649.914177           583.022403

                             ****ORCA TERMINATED NORMALLY****
TOTAL RUN TIME: 0 days 0 hours 6 minutes 49 seconds 567 msec
