                         Program Version 6.0.0  -   RELEASE  -
|  1> ! r2scan-3c def2/J RI DEFGRID2 scfconv6 printgap
|  2> %output
|  3>     printlevel normal
|  4> end
|  5> * xyz 0 1
|  6> C -3.4487077118 0.5928656242 -0.0565388327
|  7> C -1.950048795 0.5165442558 -0.0419893328
|  8> C -1.18206723 1.4090658477 -0.6517097657
|  9> C 0.3136921482 1.3891954574 -0.6550339004
| 10> C 0.8567041906 0.0190470101 -0.2548974282
| 11> H 0.5798957311 -0.7014225189 -1.0354269556
| 12> C 0.1283257147 -0.4203240316 1.0211487629
| 13> C -1.3512671221 -0.6495823402 0.7142202928
| 14> H -1.8980616649 -0.7773645652 1.6649389132
| 15> O -1.4417022676 -1.8654135521 -0.0245577645
| 16> C 2.3561498694 -0.0426884853 -0.0969217279
| 17> C 3.1643694554 1.0011148827 -0.2004922473
| 18> C 2.9083272893 -1.4132203212 0.1798479236
| 19> H -3.8797559139 -0.2637593437 -0.5736829072
| 20> H -3.7796628116 1.4960873822 -0.5613469305
| 21> H -3.8348896134 0.5972681974 0.9621944739
| 22> H -1.6392099754 2.2405835354 -1.1725888087
| 23> H 0.6804534722 1.6669755445 -1.6454173454
| 24> H 0.6641199074 2.1475222323 0.052596431
| 25> H 0.5374844865 -1.3561920349 1.3993270109
| 26> H 0.2274212987 0.3479792754 1.788887529
| 27> H -2.3623695289 -2.0182162716 -0.2718166999
| 28> H 4.2306880504 0.8889311166 -0.0930407896
| 29> H 2.8206747058 2.0007385851 -0.3938468245
| 30> H 2.8511529792 -1.634794025 1.2450127848
| 31> H 2.3396950698 -2.1723825677 -0.3525100377
| 32> H 3.9514870324 -1.4748917459 -0.1185773978
| 33> *
| 34>
| 35>                          ****END OF INPUT****

CARTESIAN COORDINATES (ANGSTROEM)
---------------------------------
  C     -3.448708    0.592866   -0.056539
  C     -1.950049    0.516544   -0.041989
  C     -1.182067    1.409066   -0.651710
  C      0.313692    1.389195   -0.655034
  C      0.856704    0.019047   -0.254897
  H      0.579896   -0.701423   -1.035427
  C      0.128326   -0.420324    1.021149
  C     -1.351267   -0.649582    0.714220
  H     -1.898062   -0.777365    1.664939
  O     -1.441702   -1.865414   -0.024558
  C      2.356150   -0.042688   -0.096922
  C      3.164369    1.001115   -0.200492
  C      2.908327   -1.413220    0.179848
  H     -3.879756   -0.263759   -0.573683
  H     -3.779663    1.496087   -0.561347
  H     -3.834890    0.597268    0.962194
  H     -1.639210    2.240584   -1.172589
  H      0.680453    1.666976   -1.645417
  H      0.664120    2.147522    0.052596
  H      0.537484   -1.356192    1.399327
  H      0.227421    0.347979    1.788888
  H     -2.362370   -2.018216   -0.271817
  H      4.230688    0.888931   -0.093041
  H      2.820675    2.000739   -0.393847
  H      2.851153   -1.634794    1.245013
  H      2.339695   -2.172383   -0.352510
  H      3.951487   -1.474892   -0.118577

 Total Charge           Charge          ....    0
 Multiplicity           Mult            ....    1
 Number of Electrons    NEL             ....   84
 Basis Dimension        Dim             ....  294

ORBITAL ENERGIES
----------------

  NO   OCC          E(Eh)            E(eV)
   0   2.0000     -18.949486      -515.6417
   1   2.0000     -10.083615      -274.3891
   2   2.0000     -10.035042      -273.0674
   3   2.0000     -10.033541      -273.0265
   4   2.0000     -10.032314      -272.9931
   5   2.0000     -10.030546      -272.9450
   6   2.0000     -10.027978      -272.8751
   7   2.0000     -10.026106      -272.8242
   8   2.0000     -10.026088      -272.8237
   9   2.0000     -10.018436      -272.6155
  10   2.0000     -10.006165      -272.2816
  11   2.0000      -0.986366       -26.8404
  12   2.0000      -0.811738       -22.0885
  13   2.0000      -0.769770       -20.9465
  14   2.0000      -0.722336       -19.6558
  15   2.0000      -0.705417       -19.1954
  16   2.0000      -0.651573       -17.7302
  17   2.0000      -0.644552       -17.5392
  18   2.0000      -0.585474       -15.9316
  19   2.0000      -0.568776       -15.4772
  20   2.0000      -0.511808       -13.9270
  21   2.0000      -0.495061       -13.4713
  22   2.0000      -0.451344       -12.2817
  23   2.0000      -0.445842       -12.1320
  24   2.0000      -0.421362       -11.4658
  25   2.0000      -0.414881       -11.2895
  26   2.0000      -0.397877       -10.8268
  27   2.0000      -0.396409       -10.7868
  28   2.0000      -0.382382       -10.4051
  29   2.0000      -0.380813       -10.3624
  30   2.0000      -0.369173       -10.0457
  31   2.0000      -0.359617        -9.7857
  32   2.0000      -0.349862        -9.5202
  33   2.0000      -0.338611        -9.2141
  34   2.0000      -0.323511        -8.8032
  35   2.0000      -0.313232        -8.5235
  36   2.0000      -0.307431        -8.3656
  37   2.0000      -0.288583        -7.8528
  38   2.0000      -0.271236        -7.3807
  39   2.0000      -0.241404        -6.5689
  40   2.0000      -0.220468        -5.9992
  41   2.0000      -0.216900        -5.9021
  42   0.0000      -0.011102        -0.3021
  43   0.0000      -0.002767        -0.0753
  44   0.0000       0.054213         1.4752
  45   0.0000       0.086147         2.3442
  46   0.0000       0.095999         2.6123

MULLIKEN ATOMIC CHARGES
-----------------------
   0 C :   -0.515990
   1 C :    0.055972
   2 C :   -0.202278
   3 C :   -0.419384
   4 C :   -0.053185
   5 H :    0.222224
   6 C :   -0.351724
   7 C :    0.054723
   8 H :    0.147522
   9 O :   -0.423478
  10 C :    0.074532
  11 C :   -0.339084
  12 C :   -0.572577
  13 H :    0.143416
  14 H :    0.155821
  15 H :    0.156956
  16 H :    0.148457
  17 H :    0.167622
  18 H :    0.171315
  19 H :    0.165345
  20 H :    0.168613
  21 H :    0.284574
  22 H :    0.134883
  23 H :    0.137599
  24 H :    0.169378
  25 H :    0.166155
  26 H :    0.152592
Sum of atomic charges:   -0.0000000

LOEWDIN ATOMIC CHARGES
----------------------
   0 C :   -0.390663
   1 C :   -0.117795
   2 C :   -0.172558
   3 C :   -0.275397
   4 C :   -0.191942
   5 H :    0.187290
   6 C :   -0.232963
   7 C :    0.080601
   8 H :    0.170718
   9 O :   -0.608013
  10 C :   -0.114561
  11 C :   -0.329874
  12 C :   -0.399216
  13 H :    0.153163
  14 H :    0.161743
  15 H :    0.160516
  16 H :    0.162958
  17 H :    0.169277
  18 H :    0.171563
  19 H :    0.175375
  20 H :    0.170616
  21 H :    0.268650
  22 H :    0.156166
  23 H :    0.157626
  24 H :    0.163714
  25 H :    0.162318
  26 H :    0.160688

  Mayer bond orders larger than 0.100000
B(  0-C ,  1-C ) :   0.8332 B(  0-C , 13-H ) :   0.9677 B(  0-C , 14-H ) :   0.9928
B(  0-C , 15-H ) :   0.9770 B(  1-C ,  2-C ) :   1.8857 B(  1-C ,  7-C ) :   0.9033
B(  2-C ,  3-C ) :   0.9554 B(  2-C , 16-H ) :   0.9274 B(  3-C ,  4-C ) :   0.9046
B(  3-C , 17-H ) :   0.9583 B(  3-C , 18-H ) :   0.9868 B(  4-C ,  5-H ) :   1.0215
B(  4-C ,  6-C ) :   0.7983 B(  4-C , 10-C ) :   0.8751 B(  6-C ,  7-C ) :   0.9671
B(  6-C , 19-H ) :   0.9609 B(  6-C , 20-H ) :   0.9896 B(  7-C ,  8-H ) :   0.9871
B(  7-C ,  9-O ) :   0.8768 B(  9-O , 21-H ) :   0.9033 B( 10-C , 11-C ) :   1.8581
B( 10-C , 12-C ) :   0.8406 B( 11-C , 22-H ) :   0.9723 B( 11-C , 23-H ) :   0.9667
B( 12-C , 24-H ) :   0.9703 B( 12-C , 25-H ) :   0.9822 B( 12-C , 26-H ) :   0.9810

Dispersion correction           -0.009577137
FINAL SINGLE POINT ENERGY      -465.757113771154

DIPOLE MOMENT
-------------

Method             : SCF
Type of density    : Electron Density
Multiplicity       :   1
Irrep              :   0
Energy             :  -465.7592834855558976 Eh
Relativity type    :
Basis              : AO
                                X                 Y                 Z
Electronic contribution:     -1.962120459      -0.738798652      -0.721804471
Nuclear contribution   :      1.375666912       0.898367492       0.839015742
                        -----------------------------------------
Total Dipole Moment    :     -0.586453547       0.159568840       0.117211271
                        -----------------------------------------
Magnitude (a.u.)       :      0.618973715
Magnitude (Debye)      :      1.573306151

Rotational constants in cm-1:             0.071178             0.023849             0.019220
Rotational constants in MHz :          2133.857879           714.987307           576.198576

                             ****ORCA TERMINATED NORMALLY****
TOTAL RUN TIME: 0 days 0 hours 0 minutes 43 seconds 584 msec
