                         Program Version 6.0.0  -   RELEASE  -
|  1> ! r2scan-3c def2/J RI DEFGRID2 scfconv6 printgap
|  2> %output
|  3>     printlevel normal
|  4> end
|  5> %cpcm
|  6>     smd true
|  7>     smdsolvent "water"
|  8> end
|  9> * xyz 0 1
| 10> C -3.4487077118 0.5928656242 -0.0565388327
| 11> C -1.950048795 0.5165442558 -0.0419893328
| 12> C -1.18206723 1.4090658477 -0.6517097657
| 13> C 0.3136921482 1.3891954574 -0.6550339004
| 14> C 0.8567041906 0.0190470101 -0.2548974282
| 15> H 0.5798957311 -0.7014225189 -1.0354269556
| 16> C 0.1283257147 -0.4203240316 1.0211487629
| 17> C -1.3512671221 -0.6495823402 0.7142202928
| 18> H -1.8980616649 -0.7773645652 1.6649389132
| 19> O -1.4417022676 -1.8654135521 -0.0245577645
| 20> C 2.3561498694 -0.0426884853 -0.0969217279
| 21> C 3.1643694554 1.0011148827 -0.2004922473
| 22> C 2.9083272893 -1.4132203212 0.1798479236
| 23> H -3.8797559139 -0.2637593437 -0.5736829072
| 24> H -3.7796628116 1.4960873822 -0.5613469305
| 25> H -3.8348896134 0.5972681974 0.9621944739
| 26> H -1.6392099754 2.2405835354 -1.1725888087
| 27> H 0.6804534722 1.6669755445 -1.6454173454
| 28> H 0.6641199074 2.1475222323 0.052596431
| 29> H 0.5374844865 -1.3561920349 1.3993270109
| 30> H 0.2274212987 0.3479792754 1.788887529
| 31> H -2.3623695289 -2.0182162716 -0.2718166999
| 32> H 4.2306880504 0.8889311166 -0.0930407896
| 33> H 2.8206747058 2.0007385851 -0.3938468245
| 34> H 2.8511529792 -1.634794025 1.2450127848
| 35> H 2.3396950698 -2.1723825677 -0.3525100377
| 36> H 3.9514870324 -1.4748917459 -0.1185773978
| 37> *
| 38>
| 39>                          ****END OF INPUT****

CARTESIAN COORDINATES (ANGSTROEM)
---------------------------------
  C     -3.448708    0.592866   -0.056539
  C     -1.950049    0.516544   -0.041989
  C     -1.182067    1.409066   -0.651710
  C      0.313692    1.389195   -0.655034
  C      0.856704    0.019047   -0.254897
  H      0.579896   -0.701423   -1.035427
  C      0.128326   -0.420324    1.021149
  C     -1.351267   -0.649582    0.714220
  H     -1.898062   -0.777365    1.664939
  O     -1.441702   -1.865414   -0.024558
  C      2.356150   -0.042688   -0.096922
  C      3.164369    1.001115   -0.200492
  C      2.908327   -1.413220    0.179848
  H     -3.879756   -0.263759   -0.573683
  H     -3.779663    1.496087   -0.561347
  H     -3.834890    0.597268    0.962194
  H     -1.639210    2.240584   -1.172589
  H      0.680453    1.666976   -1.645417
  H      0.664120    2.147522    0.052596
  H      0.537484   -1.356192    1.399327
  H      0.227421    0.347979    1.788888
  H     -2.362370   -2.018216   -0.271817
  H      4.230688    0.888931   -0.093041
  H      2.820675    2.000739   -0.393847
  H      2.851153   -1.634794    1.245013
  H      2.339695   -2.172383   -0.352510
  H      3.951487   -1.474892   -0.118577

 Total Charge           Charge          ....    0
 Multiplicity           Mult            ....    1
 Number of Electrons    NEL             ....   84
 Basis Dimension        Dim             ....  294

ORBITAL ENERGIES
----------------

  NO   OCC          E(Eh)            E(eV)
   0   2.0000     -18.951134      -515.6866
   1   2.0000     -10.078987      -274.2632
   2   2.0000     -10.037829      -273.1432
   3   2.0000     -10.031666      -272.9755
   4   2.0000     -10.027967      -272.8748
   5   2.0000     -10.021837      -272.7080
   6   2.0000     -10.021366      -272.6952
   7   2.0000     -10.020305      -272.6664
   8   2.0000     -10.015850      -272.5451
   9   2.0000     -10.013999      -272.4948
  10   2.0000     -10.005285      -272.2576
  11   2.0000      -0.987435       -26.8695
  12   2.0000      -0.808830       -22.0094
  13   2.0000      -0.767070       -20.8730
  14   2.0000      -0.717320       -19.5193
  15   2.0000      -0.700678       -19.0664
  16   2.0000      -0.646729       -17.5984
  17   2.0000      -0.640379       -17.4256
  18   2.0000      -0.580390       -15.7932
  19   2.0000      -0.564544       -15.3620
  20   2.0000      -0.508319       -13.8321
  21   2.0000      -0.492881       -13.4120
  22   2.0000      -0.448171       -12.1954
  23   2.0000      -0.441245       -12.0069
  24   2.0000      -0.415848       -11.3158
  25   2.0000      -0.410619       -11.1735
  26   2.0000      -0.393678       -10.7125
  27   2.0000      -0.389616       -10.6020
  28   2.0000      -0.377056       -10.2602
  29   2.0000      -0.374654       -10.1949
  30   2.0000      -0.362190        -9.8557
  31   2.0000      -0.354073        -9.6348
  32   2.0000      -0.346891        -9.4394
  33   2.0000      -0.333595        -9.0776
  34   2.0000      -0.318651        -8.6709
  35   2.0000      -0.310199        -8.4410
  36   2.0000      -0.305812        -8.3216
  37   2.0000      -0.285220        -7.7612
  38   2.0000      -0.268314        -7.3012
  39   2.0000      -0.243217        -6.6183
  40   2.0000      -0.222686        -6.0596
  41   2.0000      -0.215501        -5.8641
  42   0.0000      -0.007342        -0.1998
  43   0.0000      -0.005581        -0.1519
  44   0.0000       0.070947         1.9306
  45   0.0000       0.097099         2.6422
  46   0.0000       0.100558         2.7363

MULLIKEN ATOMIC CHARGES
-----------------------
   0 C :   -0.548596
   1 C :    0.010759
   2 C :   -0.242106
   3 C :   -0.404439
   4 C :   -0.042932
   5 H :    0.220278
   6 C :   -0.368351
   7 C :    0.071758
   8 H :    0.166473
   9 O :   -0.507978
  10 C :    0.038207
  11 C :   -0.412870
  12 C :   -0.594244
  13 H :    0.173145
  14 H :    0.169141
  15 H :    0.171016
  16 H :    0.173477
  17 H :    0.179258
  18 H :    0.187690
  19 H :    0.177546
  20 H :    0.184644
  21 H :    0.341580
  22 H :    0.160928
  23 H :    0.162895
  24 H :    0.187823
  25 H :    0.176831
  26 H :    0.168067
Sum of atomic charges:    0.0000000

LOEWDIN ATOMIC CHARGES
----------------------
   0 C :   -0.396286
   1 C :   -0.121933
   2 C :   -0.184938
   3 C :   -0.277288
   4 C :   -0.195434
   5 H :    0.184999
   6 C :   -0.236616
   7 C :    0.081530
   8 H :    0.180569
   9 O :   -0.641074
  10 C :   -0.118101
  11 C :   -0.354452
  12 C :   -0.405623
  13 H :    0.165193
  14 H :    0.164255
  15 H :    0.166287
  16 H :    0.171214
  17 H :    0.172476
  18 H :    0.176871
  19 H :    0.176982
  20 H :    0.176012
  21 H :    0.287082
  22 H :    0.162417
  23 H :    0.164338
  24 H :    0.170685
  25 H :    0.165674
  26 H :    0.165161

  Mayer bond orders larger than 0.100000
B(  0-C ,  1-C ) :   0.8433 B(  0-C , 13-H ) :   0.9590 B(  0-C , 14-H ) :   0.9901
B(  0-C , 15-H ) :   0.9698 B(  1-C ,  2-C ) :   1.8702 B(  1-C ,  7-C ) :   0.9036
B(  2-C ,  3-C ) :   0.9278 B(  2-C , 16-H ) :   0.9356 B(  3-C ,  4-C ) :   0.8936
B(  3-C , 17-H ) :   0.9570 B(  3-C , 18-H ) :   0.9837 B(  4-C ,  5-H ) :   1.0183
B(  4-C ,  6-C ) :   0.7896 B(  4-C , 10-C ) :   0.8525 B(  6-C ,  7-C ) :   0.9498
B(  6-C , 19-H ) :   0.9642 B(  6-C , 20-H ) :   0.9852 B(  7-C ,  8-H ) :   0.9817
B(  7-C ,  9-O ) :   0.8696 B(  9-O , 21-H ) :   0.8770 B( 10-C , 11-C ) :   1.8415
B( 10-C , 12-C ) :   0.8443 B( 11-C , 22-H ) :   0.9727 B( 11-C , 23-H ) :   0.9698
B( 12-C , 24-H ) :   0.9622 B( 12-C , 25-H ) :   0.9800 B( 12-C , 26-H ) :   0.9750

Dispersion correction           -0.009577137
FINAL SINGLE POINT ENERGY      -465.764590122040

DIPOLE MOMENT
-------------

Method             : SCF
Type of density    : Electron Density
Multiplicity       :   1
Irrep              :   0
Energy             :  -465.7667598364415653 Eh
Relativity type    :
Basis              : AO
                                X                 Y                 Z
Electronic contribution:     -2.238759565      -0.667728819      -0.594895472
Nuclear contribution   :      1.375666912       0.898367492       0.839015742
                        -----------------------------------------
Total Dipole Moment    :     -0.863092654       0.230638673       0.244120270
                        -----------------------------------------
Magnitude (a.u.)       :      0.926130570
Magnitude (Debye)      :      2.354036830

Rotational constants in cm-1:             0.071178             0.023849             0.019220
Rotational constants in MHz :          2133.857879           714.987307           576.198576

                             ****ORCA TERMINATED NORMALLY****
TOTAL RUN TIME: 0 days 0 hours 0 minutes 57 seconds 715 msec
