                         Program Version 6.0.0  -   RELEASE  -
|  1> ! pbe def2-sv(p) def2/J RI DEFGRID1 loosescf d4 GCP(DFT/SV(P)) printgap
|  2> %output
|  3>     printlevel normal
|  4> end
|  5> * xyz 0 1
|  6> C -2.4223324694 -1.1000277141 -0.3615260789
|  7> C -1.0822963257 -0.601071421 0.1978551981
|  8> H -1.1494045569 -0.5831353708 1.2972699124
|  9> C -0.7495254143 0.8158015253 -0.2963994719
| 10> H -0.7319962652 0.8041204085 -1.399491889
| 11> C 0.64315049 1.2255077184 0.2177601212
| 12> H 0.6065717376 1.2761530188 1.3137613843
| 13> C 1.6701284705 0.170101497 -0.2182177488
| 14> H 1.7025313564 0.1269225112 -1.3139237724
| 15> C 1.2016889458 -1.2102384994 0.3073491117
| 16> H 1.1632986376 -1.1860184307 1.4101393738
| 17> O -0.0792623228 -1.5071497025 -0.2140082781
| 18> O 2.0590077655 -2.2350905433 -0.0195549671
| 19> O 2.9776581133 0.4803810649 0.1732626894
| 20> O 0.9666798136 2.5288217418 -0.1998147629
| 21> O -1.7385404786 1.7044946462 0.15668687
| 22> O -3.5213533025 -0.5087940543 0.2752040932
| 23> H -2.4935363667 -2.174818045 -0.1825601707
| 24> H -2.4494540073 -0.9221972121 -1.44474879
| 25> H 2.0238031148 -2.4066495946 -0.9737034551
| 26> H 3.0533519078 0.4841665762 1.137897541
| 27> H 1.3391940742 2.5130225456 -1.0931135782
| 28> H -1.3903168634 2.608971493 0.096169707
| 29> H -3.4086079218 0.4560779117 0.2509485859
| 30> *
| 31>
| 32>                          ****END OF INPUT****

CARTESIAN COORDINATES (ANGSTROEM)
---------------------------------
  C     -2.422332   -1.100028   -0.361526
  C     -1.082296   -0.601071    0.197855
  H     -1.149405   -0.583135    1.297270
  C     -0.749525    0.815802   -0.296399
  H     -0.731996    0.804120   -1.399492
  C      0.643150    1.225508    0.217760
  H      0.606572    1.276153    1.313761
  C      1.670128    0.170101   -0.218218
  H      1.702531    0.126923   -1.313924
  C      1.201689   -1.210238    0.307349
  H      1.163299   -1.186018    1.410139
  O     -0.079262   -1.507150   -0.214008
  O      2.059008   -2.235091   -0.019555
  O      2.977658    0.480381    0.173263
  O      0.966680    2.528822   -0.199815
  O     -1.738540    1.704495    0.156687
  O     -3.521353   -0.508794    0.275204
  H     -2.493536   -2.174818   -0.182560
  H     -2.449454   -0.922197   -1.444749
  H      2.023803   -2.406650   -0.973703
  H      3.053352    0.484167    1.137898
  H      1.339194    2.513023   -1.093114
  H     -1.390317    2.608971    0.096170
  H     -3.408608    0.456078    0.250949

 Total Charge           Charge          ....    0
 Multiplicity           Mult            ....    1
 Number of Electrons    NEL             ....   96
 Basis Dimension        Dim             ....  192

ORBITAL ENERGIES
----------------

  NO   OCC          E(Eh)            E(eV)
   0   2.0000     -18.780459      -511.0423
   1   2.0000     -18.772839      -510.8349
   2   2.0000     -18.772333      -510.8211
   3   2.0000     -18.766458      -510.6613
   4   2.0000     -18.763193      -510.5724
   5   2.0000     -18.734720      -509.7976
   6   2.0000      -9.996966      -272.0313
   7   2.0000      -9.956421      -270.9280
   8   2.0000      -9.955219      -270.8953
   9   2.0000      -9.953384      -270.8453
  10   2.0000      -9.948589      -270.7149
  11   2.0000      -9.927660      -270.1454
  12   2.0000      -0.991709       -26.9858
  13   2.0000      -0.961964       -26.1764
  14   2.0000      -0.946885       -25.7660
  15   2.0000      -0.931537       -25.3484
  16   2.0000      -0.924607       -25.1598
  17   2.0000      -0.910465       -24.7750
  18   2.0000      -0.714192       -19.4342
  19   2.0000      -0.696067       -18.9410
  20   2.0000      -0.616857       -16.7855
  21   2.0000      -0.596039       -16.2191
  22   2.0000      -0.580875       -15.8064
  23   2.0000      -0.547486       -14.8979
  24   2.0000      -0.511418       -13.9164
  25   2.0000      -0.501212       -13.6387
  26   2.0000      -0.472938       -12.8693
  27   2.0000      -0.462615       -12.5884
  28   2.0000      -0.456559       -12.4236
  29   2.0000      -0.438734       -11.9386
  30   2.0000      -0.433659       -11.8005
  31   2.0000      -0.416497       -11.3335
  32   2.0000      -0.399758       -10.8780
  33   2.0000      -0.366585        -9.9753
  34   2.0000      -0.363748        -9.8981
  35   2.0000      -0.351785        -9.5725
  36   2.0000      -0.333896        -9.0858
  37   2.0000      -0.327270        -8.9055
  38   2.0000      -0.318397        -8.6640
  39   2.0000      -0.307413        -8.3651
  40   2.0000      -0.291852        -7.9417
  41   2.0000      -0.271417        -7.3856
  42   2.0000      -0.259466        -7.0604
  43   2.0000      -0.256677        -6.9845
  44   2.0000      -0.246171        -6.6986
  45   2.0000      -0.227851        -6.2001
  46   2.0000      -0.215245        -5.8571
  47   2.0000      -0.205935        -5.6038
  48   0.0000       0.002711         0.0738
  49   0.0000       0.015031         0.4090
  50   0.0000       0.024186         0.6581
  51   0.0000       0.041129         1.1192
  52   0.0000       0.050757         1.3812

MULLIKEN ATOMIC CHARGES
-----------------------
   0 C :    0.113445
   1 C :   -0.028554
   2 H :    0.065052
   3 C :    0.067831
   4 H :    0.040832
   5 C :    0.049342
   6 H :    0.054850
   7 C :    0.033208
   8 H :    0.042519
   9 C :    0.177425
  10 H :    0.043404
  11 O :   -0.301979
  12 O :   -0.362155
  13 O :   -0.394916
  14 O :   -0.408989
  15 O :   -0.427671
  16 O :   -0.447535
  17 H :    0.092648
  18 H :    0.059859
  19 H :    0.305899
  20 H :    0.302368
  21 H :    0.307204
  22 H :    0.313167
  23 H :    0.302749
Sum of atomic charges:   -0.0000000

LOEWDIN ATOMIC CHARGES
----------------------
   0 C :   -0.116923
   1 C :   -0.069717
   2 H :    0.107721
   3 C :   -0.079954
   4 H :    0.096777
   5 C :   -0.091181
   6 H :    0.112345
   7 C :   -0.104015
   8 H :    0.109145
   9 C :   -0.003543
  10 H :    0.094459
  11 O :   -0.151241
  12 O :   -0.280111
  13 O :   -0.303804
  14 O :   -0.310222
  15 O :   -0.316398
  16 O :   -0.340149
  17 H :    0.116898
  18 H :    0.095207
  19 H :    0.291479
  20 H :    0.289472
  21 H :    0.290707
  22 H :    0.288805
  23 H :    0.274240

  Mayer bond orders larger than 0.100000
B(  0-C ,  1-C ) :   1.0338 B(  0-C , 16-O ) :   1.0914 B(  0-C , 17-H ) :   0.9201
B(  0-C , 18-H ) :   0.9051 B(  1-C ,  2-H ) :   0.8772 B(  1-C ,  3-C ) :   1.0105
B(  1-C , 11-O ) :   0.9869 B(  3-C ,  4-H ) :   0.8627 B(  3-C ,  5-C ) :   0.9942
B(  3-C , 15-O ) :   1.0445 B(  5-C ,  6-H ) :   0.8686 B(  5-C ,  7-C ) :   0.9956
B(  5-C , 14-O ) :   1.0615 B(  7-C ,  8-H ) :   0.8525 B(  7-C ,  9-C ) :   0.9600
B(  7-C , 13-O ) :   1.0765 B(  9-C , 10-H ) :   0.8777 B(  9-C , 11-O ) :   1.0030
B(  9-C , 12-O ) :   1.1719 B( 12-O , 19-H ) :   0.8417 B( 13-O , 20-H ) :   0.8473
B( 14-O , 21-H ) :   0.8447 B( 15-O , 22-H ) :   0.8205 B( 16-O , 23-H ) :   0.8218

Dispersion correction           -0.023873666
FINAL SINGLE POINT ENERGY      -685.698014245815

DIPOLE MOMENT
-------------

Method             : SCF
Type of density    : Electron Density
Multiplicity       :   1
Irrep              :   0
Energy             :  -685.8285319583658293 Eh
Relativity type    :
Basis              : AO
                                X                 Y                 Z
Electronic contribution:      2.290307373      -0.197461217       0.314689647
Nuclear contribution   :     -1.617477563       0.941849293      -0.843079700
                        -----------------------------------------
Total Dipole Moment    :      0.672829810       0.744388076      -0.528390053
                        -----------------------------------------
Magnitude (a.u.)       :      1.134023637
Magnitude (Debye)      :      2.882459011

Rotational constants in cm-1:             0.043380             0.024428             0.016345
Rotational constants in MHz :          1300.501936           732.330945           490.007171

                             ****ORCA TERMINATED NORMALLY****
TOTAL RUN TIME: 0 days 0 hours 0 minutes 12 seconds 20 msec
