                         Program Version 6.0.0  -   RELEASE  -
|  1> ! wb97x-v def2-tzvp def2/J RIJCOSX DEFGRID2 scfconv7 GCP(DFT/TZ) printgap
|  2> %output
|  3>     printlevel normal
|  4> end
|  5> * xyz 0 1
|  6> C 1.9989748809624956 0.023372649153553582 -0.6526809530669182
|  7> C 1.268854082712024 -0.3024820030901119 0.6450144536116228
|  8> C -0.22395159629301767 -0.5533674666758934 0.5137229743919073
|  9> H -0.6472815310731953 -0.7818249782457278 1.494221688808151
| 10> C -0.614532426674569 -1.606483307240845 -0.49667267097028633
| 11> Cl -1.0829678610954097 1.0507204119698779 0.052310146078607525
| 12> H 1.5622338441060053 0.8973195011111528 -1.1459862696759275
| 13> H 1.9720047718810156 -0.8148386971730911 -1.3549288417460204
| 14> H 3.0492898815628107 0.24720857914043018 -0.44496477703846243
| 15> H 1.430700248078237 0.4909120671101198 1.3819712712814427
| 16> H 1.6841147741907019 -1.2218402921102216 1.0806493670050883
| 17> H -0.10869013955824344 -2.542769722526791 -0.23229180762764778
| 18> H -1.6922342627847289 -1.784336185418959 -0.48577290897684944
| 19> H -0.3137640217162474 -1.328410996301237 -1.5095684387696642
| 20> *
| 21>
| 22>                          ****END OF INPUT****

CARTESIAN COORDINATES (ANGSTROEM)
---------------------------------
  C      1.998975    0.023373   -0.652681
  C      1.268854   -0.302482    0.645014
  C     -0.223952   -0.553367    0.513723
  H     -0.647282   -0.781825    1.494222
  C     -0.614532   -1.606483   -0.496673
  Cl    -1.082968    1.050720    0.052310
  H      1.562234    0.897320   -1.145986
  H      1.972005   -0.814839   -1.354929
  H      3.049290    0.247209   -0.444965
  H      1.430700    0.490912    1.381971
  H      1.684115   -1.221840    1.080649
  H     -0.108690   -2.542770   -0.232292
  H     -1.692234   -1.784336   -0.485773
  H     -0.313764   -1.328411   -1.509568

 Total Charge           Charge          ....    0
 Multiplicity           Mult            ....    1
 Number of Electrons    NEL             ....   50
 Basis Dimension        Dim             ....  215

ORBITAL ENERGIES
----------------

  NO   OCC          E(Eh)            E(eV)
   0   2.0000    -107.115643     -2914.7648
   1   2.0000     -12.117429      -329.7320
   2   2.0000     -12.057616      -328.1044
   3   2.0000     -12.050830      -327.9198
   4   2.0000     -12.039915      -327.6228
   5   2.0000     -11.268849      -306.6410
   6   2.0000      -9.060170      -246.5398
   7   2.0000      -9.057723      -246.4732
   8   2.0000      -9.057628      -246.4706
   9   2.0000      -1.384073       -37.6625
  10   2.0000      -1.300144       -35.3787
  11   2.0000      -1.237932       -33.6858
  12   2.0000      -1.145607       -31.1735
  13   2.0000      -1.044934       -28.4341
  14   2.0000      -0.917579       -24.9686
  15   2.0000      -0.904189       -24.6042
  16   2.0000      -0.881961       -23.9994
  17   2.0000      -0.849229       -23.1087
  18   2.0000      -0.829421       -22.5697
  19   2.0000      -0.818461       -22.2714
  20   2.0000      -0.798221       -21.7207
  21   2.0000      -0.787765       -21.4362
  22   2.0000      -0.773837       -21.0572
  23   2.0000      -0.757431       -20.6107
  24   2.0000      -0.753750       -20.5106
  25   0.0000      -0.265047        -7.2123
  26   0.0000      -0.035290        -0.9603
  27   0.0000      -0.028815        -0.7841
  28   0.0000      -0.023374        -0.6360
  29   0.0000       0.004646         0.1264

MULLIKEN ATOMIC CHARGES
-----------------------
   0 C :   -0.378437
   1 C :   -0.159536
   2 C :    0.048476
   3 H :    0.117610
   4 C :   -0.365386
   5 Cl:   -0.211086
   6 H :    0.129966
   7 H :    0.113108
   8 H :    0.118695
   9 H :    0.113917
  10 H :    0.097224
  11 H :    0.110787
  12 H :    0.131516
  13 H :    0.133145
Sum of atomic charges:   -0.0000000

LOEWDIN ATOMIC CHARGES
----------------------
   0 C :   -0.307511
   1 C :   -0.299104
   2 C :   -0.439001
   3 H :    0.138400
   4 C :   -0.306162
   5 Cl:    0.203502
   6 H :    0.120475
   7 H :    0.116092
   8 H :    0.119379
   9 H :    0.138487
  10 H :    0.141146
  11 H :    0.126881
  12 H :    0.123549
  13 H :    0.123869

  Mayer bond orders larger than 0.100000
B(  0-C ,  1-C ) :   0.9757 B(  0-C ,  6-H ) :   0.9723 B(  0-C ,  7-H ) :   0.9809
B(  0-C ,  8-H ) :   0.9790 B(  1-C ,  2-C ) :   0.9914 B(  1-C ,  9-H ) :   0.9729
B(  1-C , 10-H ) :   0.9592 B(  2-C ,  3-H ) :   0.9718 B(  2-C ,  4-C ) :   0.9870
B(  2-C ,  5-Cl) :   0.9985 B(  4-C , 11-H ) :   0.9612 B(  4-C , 12-H ) :   0.9759
B(  4-C , 13-H ) :   0.9754

FINAL SINGLE POINT ENERGY      -618.003655513209

DIPOLE MOMENT
-------------

Method             : SCF
Type of density    : Electron Density
Multiplicity       :   1
Irrep              :   0
Energy             :  -618.0133845018087868 Eh
Relativity type    :
Basis              : AO
                                X                 Y                 Z
Electronic contribution:     -7.634892571       7.110226905       1.449410987
Nuclear contribution   :      8.131702080      -7.907669676      -1.268497234
                        -----------------------------------------
Total Dipole Moment    :      0.496809509      -0.797442771       0.180913752
                        -----------------------------------------
Magnitude (a.u.)       :      0.956799063
Magnitude (Debye)      :      2.431989945

Rotational constants in cm-1:             0.161110             0.094653             0.073486
Rotational constants in MHz :          4829.952699          2837.623759          2203.044949

                             ****ORCA TERMINATED NORMALLY****
TOTAL RUN TIME: 0 days 0 hours 1 minutes 6 seconds 616 msec
