                         Program Version 6.0.0  -   RELEASE  -
|  1> ! wb97x-v def2-tzvp def2/J RIJCOSX DEFGRID2 scfconv7 GCP(DFT/TZ) printgap
|  2> %output
|  3>     printlevel normal
|  4> end
|  5> %cpcm
|  6>     smd true
|  7>     smdsolvent "water"
|  8> end
|  9> * xyz 0 1
| 10> C 1.9989748809624956 0.023372649153553582 -0.6526809530669182
| 11> C 1.268854082712024 -0.3024820030901119 0.6450144536116228
| 12> C -0.22395159629301767 -0.5533674666758934 0.5137229743919073
| 13> H -0.6472815310731953 -0.7818249782457278 1.494221688808151
| 14> C -0.614532426674569 -1.606483307240845 -0.49667267097028633
| 15> Cl -1.0829678610954097 1.0507204119698779 0.052310146078607525
| 16> H 1.5622338441060053 0.8973195011111528 -1.1459862696759275
| 17> H 1.9720047718810156 -0.8148386971730911 -1.3549288417460204
| 18> H 3.0492898815628107 0.24720857914043018 -0.44496477703846243
| 19> H 1.430700248078237 0.4909120671101198 1.3819712712814427
| 20> H 1.6841147741907019 -1.2218402921102216 1.0806493670050883
| 21> H -0.10869013955824344 -2.542769722526791 -0.23229180762764778
| 22> H -1.6922342627847289 -1.784336185418959 -0.48577290897684944
| 23> H -0.3137640217162474 -1.328410996301237 -1.5095684387696642
| 24> *
| 25>
| 26>                          ****END OF INPUT****

CARTESIAN COORDINATES (ANGSTROEM)
---------------------------------
  C      1.998975    0.023373   -0.652681
  C      1.268854   -0.302482    0.645014
  C     -0.223952   -0.553367    0.513723
  H     -0.647282   -0.781825    1.494222
  C     -0.614532   -1.606483   -0.496673
  Cl    -1.082968    1.050720    0.052310
  H      1.562234    0.897320   -1.145986
  H      1.972005   -0.814839   -1.354929
  H      3.049290    0.247209   -0.444965
  H      1.430700    0.490912    1.381971
  H      1.684115   -1.221840    1.080649
  H     -0.108690   -2.542770   -0.232292
  H     -1.692234   -1.784336   -0.485773
  H     -0.313764   -1.328411   -1.509568

 Total Charge           Charge          ....    0
 Multiplicity           Mult            ....    1
 Number of Electrons    NEL             ....   50
 Basis Dimension        Dim             ....  215

ORBITAL ENERGIES
----------------

  NO   OCC          E(Eh)            E(eV)
   0   2.0000    -107.116724     -2914.7942
   1   2.0000     -12.106979      -329.4477
   2   2.0000     -12.042997      -327.7066
   3   2.0000     -12.035223      -327.4951
   4   2.0000     -12.027205      -327.2769
   5   2.0000     -11.270182      -306.6773
   6   2.0000      -9.061439      -246.5743
   7   2.0000      -9.059163      -246.5124
   8   2.0000      -9.059072      -246.5099
   9   2.0000      -1.381764       -37.5997
  10   2.0000      -1.290554       -35.1178
  11   2.0000      -1.224750       -33.3272
  12   2.0000      -1.132598       -30.8196
  13   2.0000      -1.032596       -28.0984
  14   2.0000      -0.904915       -24.6240
  15   2.0000      -0.893701       -24.3188
  16   2.0000      -0.870067       -23.6757
  17   2.0000      -0.837171       -22.7806
  18   2.0000      -0.815852       -22.2005
  19   2.0000      -0.806475       -21.9453
  20   2.0000      -0.788200       -21.4480
  21   2.0000      -0.777249       -21.1500
  22   2.0000      -0.761107       -20.7108
  23   2.0000      -0.756633       -20.5890
  24   2.0000      -0.751826       -20.4582
  25   0.0000      -0.258359        -7.0303
  26   0.0000      -0.020740        -0.5644
  27   0.0000      -0.015590        -0.4242
  28   0.0000      -0.008653        -0.2355
  29   0.0000       0.021115         0.5746

MULLIKEN ATOMIC CHARGES
-----------------------
   0 C :   -0.415439
   1 C :   -0.173388
   2 C :    0.059236
   3 H :    0.146313
   4 C :   -0.405148
   5 Cl:   -0.267728
   6 H :    0.119652
   7 H :    0.134154
   8 H :    0.135878
   9 H :    0.121116
  10 H :    0.122396
  11 H :    0.138357
  12 H :    0.141461
  13 H :    0.143141
Sum of atomic charges:   -0.0000000

LOEWDIN ATOMIC CHARGES
----------------------
   0 C :   -0.313570
   1 C :   -0.296578
   2 C :   -0.428694
   3 H :    0.146598
   4 C :   -0.307376
   5 Cl:    0.166422
   6 H :    0.115961
   7 H :    0.120613
   8 H :    0.122061
   9 H :    0.139247
  10 H :    0.150013
  11 H :    0.135717
  12 H :    0.124385
  13 H :    0.125199

  Mayer bond orders larger than 0.100000
B(  0-C ,  1-C ) :   0.9697 B(  0-C ,  6-H ) :   0.9728 B(  0-C ,  7-H ) :   0.9776
B(  0-C ,  8-H ) :   0.9769 B(  1-C ,  2-C ) :   0.9925 B(  1-C ,  9-H ) :   0.9723
B(  1-C , 10-H ) :   0.9559 B(  2-C ,  3-H ) :   0.9661 B(  2-C ,  4-C ) :   0.9943
B(  2-C ,  5-Cl) :   0.9380 B(  4-C , 11-H ) :   0.9589 B(  4-C , 12-H ) :   0.9721
B(  4-C , 13-H ) :   0.9699

FINAL SINGLE POINT ENERGY      -618.005618107313

DIPOLE MOMENT
-------------

Method             : SCF
Type of density    : Electron Density
Multiplicity       :   1
Irrep              :   0
Energy             :  -618.0153470959135120 Eh
Relativity type    :
Basis              : AO
                                X                 Y                 Z
Electronic contribution:     -7.472094750       6.779693432       1.565673216
Nuclear contribution   :      8.131702080      -7.907669676      -1.268497234
                        -----------------------------------------
Total Dipole Moment    :      0.659607330      -1.127976244       0.297175981
                        -----------------------------------------
Magnitude (a.u.)       :      1.340046940
Magnitude (Debye)      :      3.406128632

Rotational constants in cm-1:             0.161110             0.094653             0.073486
Rotational constants in MHz :          4829.952699          2837.623759          2203.044949

                             ****ORCA TERMINATED NORMALLY****
TOTAL RUN TIME: 0 days 0 hours 1 minutes 8 seconds 817 msec
