                         Program Version 6.0.0  -   RELEASE  -
|  1> ! r2scan-3c def2/J RI DEFGRID2 scfconv6 printgap
|  2> %output
|  3>     printlevel normal
|  4> end
|  5> * xyz 0 1
|  6> C -4.3916743818 -0.0007015841 0.0005257969
|  7> C -3.6976757335 -0.567513037 1.0566716822
|  8> C -2.3144170606 -0.570635923 1.0573597456
|  9> C -1.6150833826 0.0006500969 1.48158e-05
| 10> C -2.3153192784 0.5715547206 -1.0569172098
| 11> C -3.6986124799 0.5670175096 -1.0557218989
| 12> C -0.1376687114 0.0005251648 -0.0002214184
| 13> C 0.5914447189 1.1878865651 0.0615108314
| 14> C 1.9761802507 1.2054339692 0.0639934686
| 15> C 2.6548147764 -0.0004940004 -1.30808e-05
| 16> C 1.9753111309 -1.2059451984 -0.0641104992
| 17> C 0.5906063943 -1.1874048922 -0.0619115996
| 18> Cl -0.2562339145 -2.691935714 -0.1702017252
| 19> Cl 4.3823372603 -0.0011488057 0.0003036179
| 20> Cl -0.2544263326 2.6930153176 0.1694372711
| 21> H -5.4709088269 -0.0015376329 0.0005708134
| 22> H -4.2341475737 -1.0090599012 1.8826263751
| 23> H -1.7703161856 -1.0059861127 1.8821931248
| 24> H -1.771999918 1.0075120424 -1.8819165913
| 25> H -4.2358331872 1.0079559545 -1.8815045474
| 26> H 2.5100185212 2.1392944874 0.1170624322
| 27> H 2.508421785 -2.1401942966 -0.1168910834
| 28> *
| 29>
| 30>                          ****END OF INPUT****

CARTESIAN COORDINATES (ANGSTROEM)
---------------------------------
  C     -4.391674   -0.000702    0.000526
  C     -3.697676   -0.567513    1.056672
  C     -2.314417   -0.570636    1.057360
  C     -1.615083    0.000650    0.000015
  C     -2.315319    0.571555   -1.056917
  C     -3.698612    0.567018   -1.055722
  C     -0.137669    0.000525   -0.000221
  C      0.591445    1.187887    0.061511
  C      1.976180    1.205434    0.063993
  C      2.654815   -0.000494   -0.000013
  C      1.975311   -1.205945   -0.064110
  C      0.590606   -1.187405   -0.061912
  Cl    -0.256234   -2.691936   -0.170202
  Cl     4.382337   -0.001149    0.000304
  Cl    -0.254426    2.693015    0.169437
  H     -5.470909   -0.001538    0.000571
  H     -4.234148   -1.009060    1.882626
  H     -1.770316   -1.005986    1.882193
  H     -1.772000    1.007512   -1.881917
  H     -4.235833    1.007956   -1.881505
  H      2.510019    2.139294    0.117062
  H      2.508422   -2.140194   -0.116891

 Total Charge           Charge          ....    0
 Multiplicity           Mult            ....    1
 Number of Electrons    NEL             ....  130
 Basis Dimension        Dim             ....  344

ORBITAL ENERGIES
----------------

  NO   OCC          E(Eh)            E(eV)
   0   2.0000    -101.235151     -2754.7485
   1   2.0000    -101.232488     -2754.6761
   2   2.0000    -101.232484     -2754.6759
   3   2.0000     -10.123865      -275.4844
   4   2.0000     -10.123858      -275.4842
   5   2.0000     -10.123459      -275.4733
   6   2.0000     -10.078674      -274.2547
   7   2.0000     -10.068124      -273.9676
   8   2.0000     -10.068114      -273.9673
   9   2.0000     -10.058649      -273.7098
  10   2.0000     -10.044678      -273.3296
  11   2.0000     -10.044661      -273.3291
  12   2.0000     -10.042972      -273.2831
  13   2.0000     -10.042555      -273.2718
  14   2.0000     -10.042299      -273.2649
  15   2.0000      -9.391076      -255.5442
  16   2.0000      -9.388440      -255.4724
  17   2.0000      -9.388437      -255.4724
  18   2.0000      -7.137392      -194.2183
  19   2.0000      -7.134817      -194.1482
  20   2.0000      -7.134814      -194.1482
  21   2.0000      -7.127312      -193.9440
  22   2.0000      -7.126798      -193.9300
  23   2.0000      -7.124790      -193.8754
  24   2.0000      -7.124787      -193.8753
  25   2.0000      -7.123968      -193.8530
  26   2.0000      -7.123965      -193.8529
  27   2.0000      -0.903968       -24.5982
  28   2.0000      -0.860963       -23.4280
  29   2.0000      -0.856243       -23.2995
  30   2.0000      -0.834905       -22.7189
  31   2.0000      -0.789371       -21.4799
  32   2.0000      -0.756795       -20.5934
  33   2.0000      -0.726031       -19.7563
  34   2.0000      -0.721990       -19.6463
  35   2.0000      -0.698868       -19.0172
  36   2.0000      -0.605219       -16.4689
  37   2.0000      -0.597745       -16.2655
  38   2.0000      -0.583217       -15.8701
  39   2.0000      -0.566875       -15.4255
  40   2.0000      -0.514981       -14.0134
  41   2.0000      -0.491043       -13.3620
  42   2.0000      -0.484157       -13.1746
  43   2.0000      -0.454557       -12.3691
  44   2.0000      -0.437769       -11.9123
  45   2.0000      -0.435949       -11.8628
  46   2.0000      -0.428456       -11.6589
  47   2.0000      -0.412413       -11.2223
  48   2.0000      -0.407275       -11.0825
  49   2.0000      -0.397946       -10.8286
  50   2.0000      -0.379643       -10.3306
  51   2.0000      -0.377357       -10.2684
  52   2.0000      -0.353709        -9.6249
  53   2.0000      -0.353557        -9.6208
  54   2.0000      -0.349480        -9.5098
  55   2.0000      -0.326773        -8.8920
  56   2.0000      -0.323692        -8.8081
  57   2.0000      -0.305270        -8.3068
  58   2.0000      -0.302443        -8.2299
  59   2.0000      -0.291609        -7.9351
  60   2.0000      -0.290815        -7.9135
  61   2.0000      -0.253364        -6.8944
  62   2.0000      -0.246430        -6.7057
  63   2.0000      -0.241874        -6.5817
  64   2.0000      -0.229531        -6.2459
  65   0.0000      -0.069433        -1.8894
  66   0.0000      -0.065278        -1.7763
  67   0.0000      -0.039673        -1.0796
  68   0.0000      -0.034312        -0.9337
  69   0.0000      -0.032477        -0.8837

MULLIKEN ATOMIC CHARGES
-----------------------
   0 C :   -0.126998
   1 C :   -0.168860
   2 C :   -0.164524
   3 C :    0.099814
   4 C :   -0.164467
   5 C :   -0.168826
   6 C :    0.045893
   7 C :    0.150112
   8 C :   -0.360534
   9 C :    0.284916
  10 C :   -0.360506
  11 C :    0.149973
  12 Cl:   -0.099736
  13 Cl:   -0.123669
  14 Cl:   -0.099786
  15 H :    0.147970
  16 H :    0.146802
  17 H :    0.156117
  18 H :    0.156109
  19 H :    0.146800
  20 H :    0.176703
  21 H :    0.176697
Sum of atomic charges:   -0.0000000

LOEWDIN ATOMIC CHARGES
----------------------
   0 C :   -0.157989
   1 C :   -0.158401
   2 C :   -0.140955
   3 C :   -0.093972
   4 C :   -0.140933
   5 C :   -0.158394
   6 C :   -0.095483
   7 C :   -0.134582
   8 C :   -0.183203
   9 C :   -0.157801
  10 C :   -0.183197
  11 C :   -0.134592
  12 Cl:    0.176447
  13 Cl:    0.149010
  14 Cl:    0.176381
  15 H :    0.168199
  16 H :    0.169091
  17 H :    0.176053
  18 H :    0.176045
  19 H :    0.169089
  20 H :    0.189598
  21 H :    0.189589

  Mayer bond orders larger than 0.100000
B(  0-C ,  1-C ) :   1.4186 B(  0-C ,  5-C ) :   1.4187 B(  0-C , 15-H ) :   0.9452
B(  1-C ,  2-C ) :   1.4384 B(  1-C , 16-H ) :   0.9487 B(  2-C ,  3-C ) :   1.4117
B(  2-C , 17-H ) :   0.9414 B(  3-C ,  4-C ) :   1.4118 B(  3-C ,  6-C ) :   0.7960
B(  4-C ,  5-C ) :   1.4383 B(  4-C , 18-H ) :   0.9414 B(  5-C , 19-H ) :   0.9487
B(  6-C ,  7-C ) :   1.3436 B(  6-C , 11-C ) :   1.3436 B(  7-C ,  8-C ) :   1.3450
B(  7-C , 14-Cl) :   1.0246 B(  8-C ,  9-C ) :   1.3546 B(  8-C , 20-H ) :   0.9241
B(  9-C , 10-C ) :   1.3545 B(  9-C , 13-Cl) :   0.9179 B( 10-C , 11-C ) :   1.3451
B( 10-C , 21-H ) :   0.9241 B( 11-C , 12-Cl) :   1.0247

Dispersion correction           -0.011930271
FINAL SINGLE POINT ENERGY     -1841.911459218499

DIPOLE MOMENT
-------------

Method             : SCF
Type of density    : Electron Density
Multiplicity       :   1
Irrep              :   0
Energy             : -1841.9077644717954172 Eh
Relativity type    :
Basis              : AO
                                X                 Y                 Z
Electronic contribution:     16.534884101       0.001426767      -0.002549888
Nuclear contribution   :    -16.890730344      -0.001797971       0.002626724
                        -----------------------------------------
Total Dipole Moment    :     -0.355846243      -0.000371204       0.000076836
                        -----------------------------------------
Magnitude (a.u.)       :      0.355846445
Magnitude (Debye)      :      0.904489783

Rotational constants in cm-1:             0.024721             0.009642             0.007362
Rotational constants in MHz :           741.125621           289.067304           220.704846

                             ****ORCA TERMINATED NORMALLY****
TOTAL RUN TIME: 0 days 0 hours 0 minutes 41 seconds 867 msec
