                         Program Version 6.0.0  -   RELEASE  -
|  1> ! r2scan-3c def2/J RI DEFGRID2 scfconv6 printgap
|  2> %output
|  3>     printlevel normal
|  4> end
|  5> %cpcm
|  6>     smd true
|  7>     smdsolvent "water"
|  8> end
|  9> * xyz 0 1
| 10> C -4.3916743818 -0.0007015841 0.0005257969
| 11> C -3.6976757335 -0.567513037 1.0566716822
| 12> C -2.3144170606 -0.570635923 1.0573597456
| 13> C -1.6150833826 0.0006500969 1.48158e-05
| 14> C -2.3153192784 0.5715547206 -1.0569172098
| 15> C -3.6986124799 0.5670175096 -1.0557218989
| 16> C -0.1376687114 0.0005251648 -0.0002214184
| 17> C 0.5914447189 1.1878865651 0.0615108314
| 18> C 1.9761802507 1.2054339692 0.0639934686
| 19> C 2.6548147764 -0.0004940004 -1.30808e-05
| 20> C 1.9753111309 -1.2059451984 -0.0641104992
| 21> C 0.5906063943 -1.1874048922 -0.0619115996
| 22> Cl -0.2562339145 -2.691935714 -0.1702017252
| 23> Cl 4.3823372603 -0.0011488057 0.0003036179
| 24> Cl -0.2544263326 2.6930153176 0.1694372711
| 25> H -5.4709088269 -0.0015376329 0.0005708134
| 26> H -4.2341475737 -1.0090599012 1.8826263751
| 27> H -1.7703161856 -1.0059861127 1.8821931248
| 28> H -1.771999918 1.0075120424 -1.8819165913
| 29> H -4.2358331872 1.0079559545 -1.8815045474
| 30> H 2.5100185212 2.1392944874 0.1170624322
| 31> H 2.508421785 -2.1401942966 -0.1168910834
| 32> *
| 33>
| 34>                          ****END OF INPUT****

CARTESIAN COORDINATES (ANGSTROEM)
---------------------------------
  C     -4.391674   -0.000702    0.000526
  C     -3.697676   -0.567513    1.056672
  C     -2.314417   -0.570636    1.057360
  C     -1.615083    0.000650    0.000015
  C     -2.315319    0.571555   -1.056917
  C     -3.698612    0.567018   -1.055722
  C     -0.137669    0.000525   -0.000221
  C      0.591445    1.187887    0.061511
  C      1.976180    1.205434    0.063993
  C      2.654815   -0.000494   -0.000013
  C      1.975311   -1.205945   -0.064110
  C      0.590606   -1.187405   -0.061912
  Cl    -0.256234   -2.691936   -0.170202
  Cl     4.382337   -0.001149    0.000304
  Cl    -0.254426    2.693015    0.169437
  H     -5.470909   -0.001538    0.000571
  H     -4.234148   -1.009060    1.882626
  H     -1.770316   -1.005986    1.882193
  H     -1.772000    1.007512   -1.881917
  H     -4.235833    1.007956   -1.881505
  H      2.510019    2.139294    0.117062
  H      2.508422   -2.140194   -0.116891

 Total Charge           Charge          ....    0
 Multiplicity           Mult            ....    1
 Number of Electrons    NEL             ....  130
 Basis Dimension        Dim             ....  344

ORBITAL ENERGIES
----------------

  NO   OCC          E(Eh)            E(eV)
   0   2.0000    -101.233327     -2754.6989
   1   2.0000    -101.232057     -2754.6643
   2   2.0000    -101.232052     -2754.6642
   3   2.0000     -10.119701      -275.3711
   4   2.0000     -10.119694      -275.3709
   5   2.0000     -10.118475      -275.3377
   6   2.0000     -10.075325      -274.1635
   7   2.0000     -10.062020      -273.8015
   8   2.0000     -10.062010      -273.8012
   9   2.0000     -10.055280      -273.6181
  10   2.0000     -10.039491      -273.1884
  11   2.0000     -10.039474      -273.1880
  12   2.0000     -10.036816      -273.1156
  13   2.0000     -10.036523      -273.1077
  14   2.0000     -10.036159      -273.0978
  15   2.0000      -9.389333      -255.4967
  16   2.0000      -9.388104      -255.4633
  17   2.0000      -9.388100      -255.4632
  18   2.0000      -7.135571      -194.1688
  19   2.0000      -7.134389      -194.1366
  20   2.0000      -7.134385      -194.1365
  21   2.0000      -7.125626      -193.8981
  22   2.0000      -7.125063      -193.8828
  23   2.0000      -7.124476      -193.8669
  24   2.0000      -7.124473      -193.8668
  25   2.0000      -7.123683      -193.8453
  26   2.0000      -7.123679      -193.8452
  27   2.0000      -0.900408       -24.5013
  28   2.0000      -0.858363       -23.3572
  29   2.0000      -0.854683       -23.2571
  30   2.0000      -0.831778       -22.6338
  31   2.0000      -0.787342       -21.4247
  32   2.0000      -0.752780       -20.4842
  33   2.0000      -0.721213       -19.6252
  34   2.0000      -0.717398       -19.5214
  35   2.0000      -0.694636       -18.9020
  36   2.0000      -0.600771       -16.3478
  37   2.0000      -0.593325       -16.1452
  38   2.0000      -0.577418       -15.7124
  39   2.0000      -0.561191       -15.2708
  40   2.0000      -0.508449       -13.8356
  41   2.0000      -0.486795       -13.2464
  42   2.0000      -0.479034       -13.0352
  43   2.0000      -0.449117       -12.2211
  44   2.0000      -0.433017       -11.7830
  45   2.0000      -0.429329       -11.6826
  46   2.0000      -0.424119       -11.5409
  47   2.0000      -0.406642       -11.0653
  48   2.0000      -0.402960       -10.9651
  49   2.0000      -0.390696       -10.6314
  50   2.0000      -0.374261       -10.1842
  51   2.0000      -0.372169       -10.1272
  52   2.0000      -0.352335        -9.5875
  53   2.0000      -0.351362        -9.5611
  54   2.0000      -0.348002        -9.4696
  55   2.0000      -0.320835        -8.7304
  56   2.0000      -0.316206        -8.6044
  57   2.0000      -0.303883        -8.2691
  58   2.0000      -0.301521        -8.2048
  59   2.0000      -0.290864        -7.9148
  60   2.0000      -0.289812        -7.8862
  61   2.0000      -0.250927        -6.8281
  62   2.0000      -0.244092        -6.6421
  63   2.0000      -0.239355        -6.5132
  64   2.0000      -0.227128        -6.1805
  65   0.0000      -0.065933        -1.7941
  66   0.0000      -0.060684        -1.6513
  67   0.0000      -0.036977        -1.0062
  68   0.0000      -0.031420        -0.8550
  69   0.0000      -0.029824        -0.8116

MULLIKEN ATOMIC CHARGES
-----------------------
   0 C :   -0.153967
   1 C :   -0.210402
   2 C :   -0.185973
   3 C :    0.039850
   4 C :   -0.185948
   5 C :   -0.210368
   6 C :    0.121492
   7 C :    0.125508
   8 C :   -0.343152
   9 C :    0.251312
  10 C :   -0.343119
  11 C :    0.125367
  12 Cl:   -0.116678
  13 Cl:   -0.135467
  14 Cl:   -0.116720
  15 H :    0.182052
  16 H :    0.180303
  17 H :    0.188699
  18 H :    0.188689
  19 H :    0.180303
  20 H :    0.209115
  21 H :    0.209104
Sum of atomic charges:   -0.0000000

LOEWDIN ATOMIC CHARGES
----------------------
   0 C :   -0.166370
   1 C :   -0.167448
   2 C :   -0.149608
   3 C :   -0.104210
   4 C :   -0.149595
   5 C :   -0.167441
   6 C :   -0.090187
   7 C :   -0.136620
   8 C :   -0.176675
   9 C :   -0.161482
  10 C :   -0.176668
  11 C :   -0.136625
  12 Cl:    0.165116
  13 Cl:    0.139816
  14 Cl:    0.165050
  15 H :    0.179161
  16 H :    0.180153
  17 H :    0.185744
  18 H :    0.185736
  19 H :    0.180151
  20 H :    0.201007
  21 H :    0.200996

  Mayer bond orders larger than 0.100000
B(  0-C ,  1-C ) :   1.3841 B(  0-C ,  5-C ) :   1.3842 B(  0-C , 15-H ) :   0.9504
B(  1-C ,  2-C ) :   1.4121 B(  1-C , 16-H ) :   0.9571 B(  2-C ,  3-C ) :   1.3855
B(  2-C , 17-H ) :   0.9462 B(  3-C ,  4-C ) :   1.3857 B(  3-C ,  6-C ) :   0.7689
B(  4-C ,  5-C ) :   1.4120 B(  4-C , 18-H ) :   0.9462 B(  5-C , 19-H ) :   0.9571
B(  6-C ,  7-C ) :   1.3361 B(  6-C , 11-C ) :   1.3361 B(  7-C ,  8-C ) :   1.3581
B(  7-C , 14-Cl) :   1.0135 B(  8-C ,  9-C ) :   1.3563 B(  8-C , 20-H ) :   0.9090
B(  9-C , 10-C ) :   1.3563 B(  9-C , 13-Cl) :   0.9252 B( 10-C , 11-C ) :   1.3582
B( 10-C , 21-H ) :   0.9091 B( 11-C , 12-Cl) :   1.0136

Dispersion correction           -0.011930271
FINAL SINGLE POINT ENERGY     -1841.914040277743

DIPOLE MOMENT
-------------

Method             : SCF
Type of density    : Electron Density
Multiplicity       :   1
Irrep              :   0
Energy             : -1841.9103455310394111 Eh
Relativity type    :
Basis              : AO
                                X                 Y                 Z
Electronic contribution:     16.579566680       0.001245989      -0.002478379
Nuclear contribution   :    -16.890730344      -0.001797971       0.002626724
                        -----------------------------------------
Total Dipole Moment    :     -0.311163664      -0.000551981       0.000148346
                        -----------------------------------------
Magnitude (a.u.)       :      0.311164189
Magnitude (Debye)      :      0.790916513

Rotational constants in cm-1:             0.024721             0.009642             0.007362
Rotational constants in MHz :           741.125621           289.067304           220.704846

                             ****ORCA TERMINATED NORMALLY****
TOTAL RUN TIME: 0 days 0 hours 0 minutes 44 seconds 592 msec
