                         Program Version 6.0.0  -   RELEASE  -
|  1> ! pbe def2-sv(p) def2/J RI DEFGRID1 loosescf d4 GCP(DFT/SV(P)) printgap
|  2> %output
|  3>     printlevel normal
|  4> end
|  5> * xyz 0 1
|  6> C -2.4877584574 -0.4745085498 -0.2032480357
|  7> C -1.0487607927 -0.1968869902 0.2375766627
|  8> H -0.9635371575 -0.3871851998 1.3186713963
|  9> C -0.6325842523 1.2625127952 -0.0473936109
| 10> H -1.2239653984 1.6649370075 -0.877171445
| 11> C 0.8578631029 1.3100380657 -0.4669522433
| 12> H 1.2276980433 2.3216505275 -0.2666047954
| 13> C 1.6548172542 0.2917268986 0.3724617471
| 14> H 2.6971543178 0.2859641473 0.0394073875
| 15> C 1.1057109676 -1.1288126046 0.1078513846
| 16> H 1.063811676 -1.6571646465 1.0826188997
| 17> O -0.1945318355 -1.1023431761 -0.4481409736
| 18> O 1.9438053391 -1.7625284358 -0.7860378894
| 19> O 1.5322892526 0.5830040579 1.7467748251
| 20> O 1.0389966642 1.107008379 -1.8417505883
| 21> O -0.8956140539 2.0965619211 1.0481667105
| 22> O -2.9535485922 -1.7275453145 0.2259292815
| 23> H -2.5471668648 -0.3889623039 -1.2949320413
| 24> H -3.1394022385 0.2717956439 0.2541799162
| 25> H 1.5997157602 -2.6430847813 -1.0036061634
| 26> H 2.3140900927 1.0583252631 2.0589995167
| 27> H 0.7989713491 0.1942017266 -2.0638469953
| 28> H -0.3463319941 1.8064518237 1.7953630366
| 29> H -2.4012296518 -2.4153532149 -0.1726044549
| 30> *
| 31>
| 32>                          ****END OF INPUT****

CARTESIAN COORDINATES (ANGSTROEM)
---------------------------------
  C     -2.487758   -0.474509   -0.203248
  C     -1.048761   -0.196887    0.237577
  H     -0.963537   -0.387185    1.318671
  C     -0.632584    1.262513   -0.047394
  H     -1.223965    1.664937   -0.877171
  C      0.857863    1.310038   -0.466952
  H      1.227698    2.321651   -0.266605
  C      1.654817    0.291727    0.372462
  H      2.697154    0.285964    0.039407
  C      1.105711   -1.128813    0.107851
  H      1.063812   -1.657165    1.082619
  O     -0.194532   -1.102343   -0.448141
  O      1.943805   -1.762528   -0.786038
  O      1.532289    0.583004    1.746775
  O      1.038997    1.107008   -1.841751
  O     -0.895614    2.096562    1.048167
  O     -2.953549   -1.727545    0.225929
  H     -2.547167   -0.388962   -1.294932
  H     -3.139402    0.271796    0.254180
  H      1.599716   -2.643085   -1.003606
  H      2.314090    1.058325    2.059000
  H      0.798971    0.194202   -2.063847
  H     -0.346332    1.806452    1.795363
  H     -2.401230   -2.415353   -0.172604

 Total Charge           Charge          ....    0
 Multiplicity           Mult            ....    1
 Number of Electrons    NEL             ....   96
 Basis Dimension        Dim             ....  192

ORBITAL ENERGIES
----------------

  NO   OCC          E(Eh)            E(eV)
   0   2.0000     -18.783938      -511.1369
   1   2.0000     -18.783068      -511.1133
   2   2.0000     -18.779086      -511.0049
   3   2.0000     -18.744530      -510.0646
   4   2.0000     -18.744405      -510.0612
   5   2.0000     -18.742030      -509.9966
   6   2.0000      -9.998761      -272.0801
   7   2.0000      -9.952610      -270.8243
   8   2.0000      -9.942049      -270.5369
   9   2.0000      -9.938425      -270.4383
  10   2.0000      -9.935174      -270.3498
  11   2.0000      -9.932484      -270.2766
  12   2.0000      -0.998340       -27.1662
  13   2.0000      -0.955930       -26.0122
  14   2.0000      -0.938260       -25.5314
  15   2.0000      -0.925289       -25.1784
  16   2.0000      -0.917342       -24.9621
  17   2.0000      -0.916427       -24.9372
  18   2.0000      -0.696967       -18.9654
  19   2.0000      -0.695397       -18.9227
  20   2.0000      -0.624484       -16.9931
  21   2.0000      -0.582890       -15.8613
  22   2.0000      -0.570545       -15.5253
  23   2.0000      -0.530819       -14.4443
  24   2.0000      -0.519356       -14.1324
  25   2.0000      -0.495828       -13.4922
  26   2.0000      -0.479946       -13.0600
  27   2.0000      -0.461177       -12.5493
  28   2.0000      -0.457030       -12.4364
  29   2.0000      -0.439008       -11.9460
  30   2.0000      -0.416191       -11.3251
  31   2.0000      -0.391676       -10.6580
  32   2.0000      -0.383423       -10.4335
  33   2.0000      -0.375885       -10.2284
  34   2.0000      -0.357389        -9.7250
  35   2.0000      -0.354424        -9.6444
  36   2.0000      -0.339705        -9.2439
  37   2.0000      -0.324290        -8.8244
  38   2.0000      -0.308883        -8.4051
  39   2.0000      -0.292453        -7.9580
  40   2.0000      -0.283208        -7.7065
  41   2.0000      -0.273723        -7.4484
  42   2.0000      -0.268014        -7.2930
  43   2.0000      -0.256697        -6.9851
  44   2.0000      -0.248767        -6.7693
  45   2.0000      -0.224220        -6.1013
  46   2.0000      -0.212860        -5.7922
  47   2.0000      -0.192929        -5.2499
  48   0.0000      -0.003172        -0.0863
  49   0.0000       0.016454         0.4477
  50   0.0000       0.038303         1.0423
  51   0.0000       0.053075         1.4442
  52   0.0000       0.058684         1.5969

MULLIKEN ATOMIC CHARGES
-----------------------
   0 C :    0.069183
   1 C :   -0.011921
   2 H :    0.061178
   3 C :    0.082096
   4 H :    0.067968
   5 C :    0.053081
   6 H :    0.065825
   7 C :   -0.014276
   8 H :    0.093981
   9 C :    0.180004
  10 H :    0.064187
  11 O :   -0.331244
  12 O :   -0.378069
  13 O :   -0.416789
  14 O :   -0.414419
  15 O :   -0.428711
  16 O :   -0.432496
  17 H :    0.074191
  18 H :    0.102365
  19 H :    0.308886
  20 H :    0.318669
  21 H :    0.296931
  22 H :    0.295505
  23 H :    0.293874
Sum of atomic charges:    0.0000000

LOEWDIN ATOMIC CHARGES
----------------------
   0 C :   -0.125511
   1 C :   -0.082237
   2 H :    0.107550
   3 C :   -0.073404
   4 H :    0.117370
   5 C :   -0.078433
   6 H :    0.114459
   7 C :   -0.090670
   8 H :    0.120613
   9 C :   -0.002086
  10 H :    0.089415
  11 O :   -0.170752
  12 O :   -0.289769
  13 O :   -0.312724
  14 O :   -0.312770
  15 O :   -0.316520
  16 O :   -0.335710
  17 H :    0.101050
  18 H :    0.125375
  19 H :    0.291666
  20 H :    0.300099
  21 H :    0.271987
  22 H :    0.271150
  23 H :    0.279852

  Mayer bond orders larger than 0.100000
B(  0-C ,  1-C ) :   1.0535 B(  0-C , 16-O ) :   1.0757 B(  0-C , 17-H ) :   0.9076
B(  0-C , 18-H ) :   0.9175 B(  1-C ,  2-H ) :   0.8641 B(  1-C ,  3-C ) :   0.9704
B(  1-C , 11-O ) :   0.9893 B(  3-C ,  4-H ) :   0.8867 B(  3-C ,  5-C ) :   0.9623
B(  3-C , 15-O ) :   1.0363 B(  5-C ,  6-H ) :   0.8889 B(  5-C ,  7-C ) :   0.9926
B(  5-C , 14-O ) :   1.0627 B(  7-C ,  8-H ) :   0.8974 B(  7-C ,  9-C ) :   0.9465
B(  7-C , 13-O ) :   1.0507 B(  9-C , 10-H ) :   0.9000 B(  9-C , 11-O ) :   1.0092
B(  9-C , 12-O ) :   1.1644 B( 12-O , 19-H ) :   0.8381 B( 13-O , 20-H ) :   0.8425
B( 14-O , 21-H ) :   0.8330 B( 15-O , 22-H ) :   0.8275 B( 16-O , 23-H ) :   0.8497

Dispersion correction           -0.024778994
FINAL SINGLE POINT ENERGY      -685.694601428042

DIPOLE MOMENT
-------------

Method             : SCF
Type of density    : Electron Density
Multiplicity       :   1
Irrep              :   0
Energy             :  -685.8259397979555843 Eh
Relativity type    :
Basis              : AO
                                X                 Y                 Z
Electronic contribution:      1.888322544      -0.900235371      -0.462261630
Nuclear contribution   :     -0.856313196       0.092739115       0.815837271
                        -----------------------------------------
Total Dipole Moment    :      1.032009348      -0.807496256       0.353575642
                        -----------------------------------------
Magnitude (a.u.)       :      1.357243248
Magnitude (Debye)      :      3.449838172

Rotational constants in cm-1:             0.037881             0.027247             0.021745
Rotational constants in MHz :          1135.651489           816.850581           651.891700

                             ****ORCA TERMINATED NORMALLY****
TOTAL RUN TIME: 0 days 0 hours 0 minutes 12 seconds 306 msec
