                         Program Version 6.0.0  -   RELEASE  -
|  1> ! pbe def2-sv(p) def2/J RI DEFGRID1 loosescf d4 GCP(DFT/SV(P)) printgap
|  2> %output
|  3>     printlevel normal
|  4> end
|  5> * xyz 0 1
|  6> C -2.6822204688 0.8689517949 0.0180738203
|  7> C -1.663359501 -0.1100881243 -0.5562984348
|  8> C -0.5893208348 -0.5033114903 0.4725440059
|  9> C 0.864305999 -0.1604675556 0.0961914537
| 10> C 1.2841943796 -0.8993346639 -1.1768250379
| 11> C 1.0355848085 1.348402967 -0.09405911
| 12> C 1.770660645 -0.6142939004 1.2465102113
| 13> H -2.190998343 1.7843491567 0.3399734011
| 14> H -3.4292670928 1.1253094946 -0.7302125889
| 15> H -3.1920302591 0.4320503174 0.874044355
| 16> H -2.1882050316 -1.0032207247 -0.9002979648
| 17> H -1.2032287372 0.3445418006 -1.4334396321
| 18> H -0.641255658 -1.5785236882 0.6564719745
| 19> H -0.8135517491 -0.0081620507 1.4198666626
| 20> H 0.6872645832 -0.5891940578 -2.0302158929
| 21> H 2.3286167779 -0.6956052851 -1.4027752536
| 22> H 1.1642206423 -1.9728413969 -1.0488578639
| 23> H 0.7483409294 1.8793819998 0.810898149
| 24> H 0.4261860033 1.7160976496 -0.9150985096
| 25> H 2.0747364498 1.583796147 -0.3135271312
| 26> H 1.5050434181 -0.1028602395 2.1691922346
| 27> H 1.6760795701 -1.6856417468 1.4098978865
| 28> H 2.811558147 -0.3936174464 1.0209475144
| 29> *
| 30>
| 31>                          ****END OF INPUT****

CARTESIAN COORDINATES (ANGSTROEM)
---------------------------------
  C     -2.682220    0.868952    0.018074
  C     -1.663360   -0.110088   -0.556298
  C     -0.589321   -0.503311    0.472544
  C      0.864306   -0.160468    0.096191
  C      1.284194   -0.899335   -1.176825
  C      1.035585    1.348403   -0.094059
  C      1.770661   -0.614294    1.246510
  H     -2.190998    1.784349    0.339973
  H     -3.429267    1.125309   -0.730213
  H     -3.192030    0.432050    0.874044
  H     -2.188205   -1.003221   -0.900298
  H     -1.203229    0.344542   -1.433440
  H     -0.641256   -1.578524    0.656472
  H     -0.813552   -0.008162    1.419867
  H      0.687265   -0.589194   -2.030216
  H      2.328617   -0.695605   -1.402775
  H      1.164221   -1.972841   -1.048858
  H      0.748341    1.879382    0.810898
  H      0.426186    1.716098   -0.915099
  H      2.074736    1.583796   -0.313527
  H      1.505043   -0.102860    2.169192
  H      1.676080   -1.685642    1.409898
  H      2.811558   -0.393617    1.020948

 Total Charge           Charge          ....    0
 Multiplicity           Mult            ....    1
 Number of Electrons    NEL             ....   58
 Basis Dimension        Dim             ....  130

ORBITAL ENERGIES
----------------

  NO   OCC          E(Eh)            E(eV)
   0   2.0000      -9.901740      -269.4401
   1   2.0000      -9.878315      -268.8026
   2   2.0000      -9.875600      -268.7287
   3   2.0000      -9.869606      -268.5656
   4   2.0000      -9.868538      -268.5366
   5   2.0000      -9.867802      -268.5165
   6   2.0000      -9.867333      -268.5038
   7   2.0000      -0.745136       -20.2762
   8   2.0000      -0.686626       -18.6840
   9   2.0000      -0.610155       -16.6032
  10   2.0000      -0.608754       -16.5650
  11   2.0000      -0.600147       -16.3308
  12   2.0000      -0.523882       -14.2555
  13   2.0000      -0.466348       -12.6900
  14   2.0000      -0.418364       -11.3843
  15   2.0000      -0.408687       -11.1209
  16   2.0000      -0.391986       -10.6665
  17   2.0000      -0.378160       -10.2902
  18   2.0000      -0.363303        -9.8860
  19   2.0000      -0.353204        -9.6112
  20   2.0000      -0.337073        -9.1722
  21   2.0000      -0.325794        -8.8653
  22   2.0000      -0.316867        -8.6224
  23   2.0000      -0.308290        -8.3890
  24   2.0000      -0.300847        -8.1865
  25   2.0000      -0.290651        -7.9090
  26   2.0000      -0.272039        -7.4026
  27   2.0000      -0.266015        -7.2386
  28   2.0000      -0.262774        -7.1504
  29   0.0000       0.028905         0.7865
  30   0.0000       0.058852         1.6015
  31   0.0000       0.066858         1.8193
  32   0.0000       0.069388         1.8881
  33   0.0000       0.084454         2.2981

MULLIKEN ATOMIC CHARGES
-----------------------
   0 C :   -0.294514
   1 C :   -0.170205
   2 C :   -0.098014
   3 C :   -0.279671
   4 C :   -0.207183
   5 C :   -0.213497
   6 C :   -0.203901
   7 H :    0.102274
   8 H :    0.098359
   9 H :    0.102911
  10 H :    0.081457
  11 H :    0.096313
  12 H :    0.071733
  13 H :    0.075362
  14 H :    0.098168
  15 H :    0.092146
  16 H :    0.090392
  17 H :    0.093072
  18 H :    0.098209
  19 H :    0.092866
  20 H :    0.091350
  21 H :    0.090901
  22 H :    0.091471
Sum of atomic charges:   -0.0000000

LOEWDIN ATOMIC CHARGES
----------------------
   0 C :   -0.339994
   1 C :   -0.237490
   2 C :   -0.208033
   3 C :   -0.106701
   4 C :   -0.316877
   5 C :   -0.317731
   6 C :   -0.315435
   7 H :    0.115495
   8 H :    0.116464
   9 H :    0.116363
  10 H :    0.116425
  11 H :    0.112799
  12 H :    0.113978
  13 H :    0.112614
  14 H :    0.115273
  15 H :    0.115971
  16 H :    0.115693
  17 H :    0.115550
  18 H :    0.115373
  19 H :    0.116720
  20 H :    0.114521
  21 H :    0.114526
  22 H :    0.114496

  Mayer bond orders larger than 0.100000
B(  0-C ,  1-C ) :   1.1595 B(  0-C ,  7-H ) :   0.9538 B(  0-C ,  8-H ) :   0.9513
B(  0-C ,  9-H ) :   0.9539 B(  1-C ,  2-C ) :   1.0864 B(  1-C , 10-H ) :   0.9272
B(  1-C , 11-H ) :   0.9244 B(  2-C ,  3-C ) :   1.0559 B(  2-C , 12-H ) :   0.9164
B(  2-C , 13-H ) :   0.9273 B(  3-C ,  4-C ) :   1.0732 B(  3-C ,  5-C ) :   1.0735
B(  3-C ,  6-C ) :   1.0762 B(  4-C , 14-H ) :   0.9414 B(  4-C , 15-H ) :   0.9485
B(  4-C , 16-H ) :   0.9490 B(  5-C , 17-H ) :   0.9470 B(  5-C , 18-H ) :   0.9408
B(  5-C , 19-H ) :   0.9473 B(  6-C , 20-H ) :   0.9464 B(  6-C , 21-H ) :   0.9471
B(  6-C , 22-H ) :   0.9478

Dispersion correction           -0.019268278
FINAL SINGLE POINT ENERGY      -275.658910295974

DIPOLE MOMENT
-------------

Method             : SCF
Type of density    : Electron Density
Multiplicity       :   1
Irrep              :   0
Energy             :  -275.7359987905629737 Eh
Relativity type    :
Basis              : AO
                                X                 Y                 Z
Electronic contribution:      0.217310600      -0.800673502       0.044807822
Nuclear contribution   :     -0.221866126       0.784171552      -0.068610241
                        -----------------------------------------
Total Dipole Moment    :     -0.004555526      -0.016501950      -0.023802418
                        -----------------------------------------
Magnitude (a.u.)       :      0.029319316
Magnitude (Debye)      :      0.074523778

Rotational constants in cm-1:             0.131635             0.050472             0.049269
Rotational constants in MHz :          3946.308788          1513.119828          1477.043021

                             ****ORCA TERMINATED NORMALLY****
TOTAL RUN TIME: 0 days 0 hours 0 minutes 8 seconds 193 msec
