                         Program Version 6.0.0  -   RELEASE  -
|  1> ! pbe def2-sv(p) def2/J RI DEFGRID1 loosescf d4 GCP(DFT/SV(P)) printgap
|  2> %output
|  3>     printlevel normal
|  4> end
|  5> * xyz 0 1
|  6> C -1.3822967984 -0.8727752835 0.2330250514
|  7> S 0.002886907 0.1532599749 -0.433966816
|  8> O 0.0027850645 1.3998367843 0.3891658785
|  9> C 1.3747634718 -0.8708096382 0.2316376315
| 10> H -2.0258874784 -1.129571874 -0.6000278783
| 11> H -1.9214593002 -0.2577438 0.9446480956
| 12> H -1.0076075611 -1.7692717308 0.7086185545
| 13> H 1.3300707244 -1.8364882751 -0.2557465407
| 14> H 1.2738984777 -0.9570635069 1.3073661628
| 15> H 2.3047059922 -0.3687501268 -0.0137727234
| 16> *
| 17>
| 18>                          ****END OF INPUT****

CARTESIAN COORDINATES (ANGSTROEM)
---------------------------------
  C     -1.382297   -0.872775    0.233025
  S      0.002887    0.153260   -0.433967
  O      0.002785    1.399837    0.389166
  C      1.374763   -0.870810    0.231638
  H     -2.025887   -1.129572   -0.600028
  H     -1.921459   -0.257744    0.944648
  H     -1.007608   -1.769272    0.708619
  H      1.330071   -1.836488   -0.255747
  H      1.273898   -0.957064    1.307366
  H      2.304706   -0.368750   -0.013773

 Total Charge           Charge          ....    0
 Multiplicity           Mult            ....    1
 Number of Electrons    NEL             ....   42
 Basis Dimension        Dim             ....   72

ORBITAL ENERGIES
----------------

  NO   OCC          E(Eh)            E(eV)
   0   2.0000     -88.124813     -2397.9981
   1   2.0000     -18.703872      -508.9582
   2   2.0000      -9.904752      -269.5220
   3   2.0000      -9.903004      -269.4745
   4   2.0000      -7.757939      -211.1043
   5   2.0000      -5.785261      -157.4249
   6   2.0000      -5.784010      -157.3909
   7   2.0000      -5.776712      -157.1923
   8   2.0000      -0.914042       -24.8724
   9   2.0000      -0.707919       -19.2635
  10   2.0000      -0.646753       -17.5990
  11   2.0000      -0.538538       -14.6544
  12   2.0000      -0.417896       -11.3715
  13   2.0000      -0.409893       -11.1538
  14   2.0000      -0.406221       -11.0538
  15   2.0000      -0.382446       -10.4069
  16   2.0000      -0.352852        -9.6016
  17   2.0000      -0.347285        -9.4501
  18   2.0000      -0.306613        -8.3434
  19   2.0000      -0.216972        -5.9041
  20   2.0000      -0.180225        -4.9042
  21   0.0000       0.007843         0.2134
  22   0.0000       0.017399         0.4734
  23   0.0000       0.035077         0.9545
  24   0.0000       0.063386         1.7248
  25   0.0000       0.080209         2.1826

MULLIKEN ATOMIC CHARGES
-----------------------
   0 C :   -0.382922
   1 S :    0.421843
   2 O :   -0.528899
   3 C :   -0.384374
   4 H :    0.143937
   5 H :    0.157981
   6 H :    0.139626
   7 H :    0.130325
   8 H :    0.147358
   9 H :    0.155125
Sum of atomic charges:   -0.0000000

LOEWDIN ATOMIC CHARGES
----------------------
   0 C :   -0.494793
   1 S :    0.764643
   2 O :   -0.572206
   3 C :   -0.492093
   4 H :    0.129234
   5 H :    0.143021
   6 H :    0.130846
   7 H :    0.125041
   8 H :    0.131775
   9 H :    0.134532

  Mayer bond orders larger than 0.100000
B(  0-C ,  1-S ) :   0.8643 B(  0-C ,  4-H ) :   0.9441 B(  0-C ,  5-H ) :   0.9345
B(  0-C ,  6-H ) :   0.9406 B(  1-S ,  2-O ) :   1.5770 B(  1-S ,  3-C ) :   0.8974
B(  3-C ,  7-H ) :   0.9300 B(  3-C ,  8-H ) :   0.9336 B(  3-C ,  9-H ) :   0.9431

Dispersion correction           -0.006777983
FINAL SINGLE POINT ENERGY      -552.525401771554

DIPOLE MOMENT
-------------

Method             : SCF
Type of density    : Electron Density
Multiplicity       :   1
Irrep              :   0
Energy             :  -552.5593207532157294 Eh
Relativity type    :
Basis              : AO
                                X                 Y                 Z
Electronic contribution:      0.025767283       4.533400472      -2.206800105
Nuclear contribution   :     -0.043458973      -5.911813626       1.979970063
                        -----------------------------------------
Total Dipole Moment    :     -0.017691691      -1.378413154      -0.226830042
                        -----------------------------------------
Magnitude (a.u.)       :      1.397063952
Magnitude (Debye)      :      3.551054360

Rotational constants in cm-1:             0.232104             0.219971             0.137461
Rotational constants in MHz :          6958.305491          6594.578609          4120.972167

                             ****ORCA TERMINATED NORMALLY****
TOTAL RUN TIME: 0 days 0 hours 0 minutes 4 seconds 485 msec
