                         Program Version 6.0.0  -   RELEASE  -
|  1> ! r2scan-3c def2/J RI DEFGRID2 scfconv6 printgap
|  2> %output
|  3>     printlevel normal
|  4> end
|  5> * xyz 0 1
|  6> C -2.0549428881 0.0500802185 -0.0007171002
|  7> C -0.7050033619 0.6970179358 0.0024253525
|  8> C 0.452885462 0.0470441383 -0.000692125
|  9> C 1.7685200898 0.7660187053 -2.99913e-05
| 10> C 0.5333549082 -1.4547854384 0.0010381112
| 11> H -2.3714138088 -0.1636329754 -1.0227645037
| 12> H -2.0435445332 -0.8875891056 0.5496733702
| 13> H -2.7933278392 0.7105957129 0.4471519853
| 14> H -0.7042855735 1.7791705069 -0.0114398779
| 15> H 1.6284278215 1.8437307018 0.0203869719
| 16> H 2.355164819 0.4722068028 0.869787896
| 17> H 2.3398195802 0.5045507169 -0.8902406698
| 18> H 0.1470006523 -1.8578067959 0.9369157868
| 19> H -0.0584754239 -1.8735943107 -0.8106234964
| 20> H 1.5624287658 -1.7832983313 -0.1129686196
| 21> *
| 22>
| 23>                          ****END OF INPUT****

CARTESIAN COORDINATES (ANGSTROEM)
---------------------------------
  C     -2.054943    0.050080   -0.000717
  C     -0.705003    0.697018    0.002425
  C      0.452885    0.047044   -0.000692
  C      1.768520    0.766019   -0.000030
  C      0.533355   -1.454785    0.001038
  H     -2.371414   -0.163633   -1.022765
  H     -2.043545   -0.887589    0.549673
  H     -2.793328    0.710596    0.447152
  H     -0.704286    1.779171   -0.011440
  H      1.628428    1.843731    0.020387
  H      2.355165    0.472207    0.869788
  H      2.339820    0.504551   -0.890241
  H      0.147001   -1.857807    0.936916
  H     -0.058475   -1.873594   -0.810623
  H      1.562429   -1.783298   -0.112969

 Total Charge           Charge          ....    0
 Multiplicity           Mult            ....    1
 Number of Electrons    NEL             ....   40
 Basis Dimension        Dim             ....  145

ORBITAL ENERGIES
----------------

  NO   OCC          E(Eh)            E(eV)
   0   2.0000     -10.029303      -272.9112
   1   2.0000     -10.020856      -272.6813
   2   2.0000     -10.019013      -272.6312
   3   2.0000     -10.017800      -272.5982
   4   2.0000     -10.011987      -272.4400
   5   2.0000      -0.778186       -21.1755
   6   2.0000      -0.697890       -18.9905
   7   2.0000      -0.657958       -17.9039
   8   2.0000      -0.599807       -16.3216
   9   2.0000      -0.477686       -12.9985
  10   2.0000      -0.427704       -11.6384
  11   2.0000      -0.403062       -10.9679
  12   2.0000      -0.400323       -10.8933
  13   2.0000      -0.370877       -10.0921
  14   2.0000      -0.357551        -9.7295
  15   2.0000      -0.353851        -9.6288
  16   2.0000      -0.332563        -9.0495
  17   2.0000      -0.319646        -8.6980
  18   2.0000      -0.294844        -8.0231
  19   2.0000      -0.204381        -5.5615
  20   0.0000       0.004359         0.1186
  21   0.0000       0.090730         2.4689
  22   0.0000       0.117967         3.2100
  23   0.0000       0.120045         3.2666
  24   0.0000       0.137434         3.7398

MULLIKEN ATOMIC CHARGES
-----------------------
   0 C :   -0.485364
   1 C :   -0.161128
   2 C :    0.158040
   3 C :   -0.501237
   4 C :   -0.552673
   5 H :    0.163276
   6 H :    0.148470
   7 H :    0.143960
   8 H :    0.151188
   9 H :    0.147276
  10 H :    0.150863
  11 H :    0.151670
  12 H :    0.171524
  13 H :    0.164094
  14 H :    0.150040
Sum of atomic charges:    0.0000000

LOEWDIN ATOMIC CHARGES
----------------------
   0 C :   -0.412394
   1 C :   -0.230962
   2 C :   -0.148711
   3 C :   -0.396620
   4 C :   -0.405789
   5 H :    0.160868
   6 H :    0.157421
   7 H :    0.155695
   8 H :    0.159818
   9 H :    0.157239
  10 H :    0.157833
  11 H :    0.157551
  12 H :    0.165470
  13 H :    0.164623
  14 H :    0.157958

  Mayer bond orders larger than 0.100000
B(  0-C ,  1-C ) :   0.9155 B(  0-C ,  5-H ) :   0.9725 B(  0-C ,  6-H ) :   0.9830
B(  0-C ,  7-H ) :   0.9738 B(  1-C ,  2-C ) :   1.8940 B(  1-C ,  8-H ) :   0.9528
B(  2-C ,  3-C ) :   0.8529 B(  2-C ,  4-C ) :   0.8241 B(  3-C ,  9-H ) :   1.0001
B(  3-C , 10-H ) :   0.9710 B(  3-C , 11-H ) :   0.9708 B(  4-C , 12-H ) :   0.9857
B(  4-C , 13-H ) :   0.9824 B(  4-C , 14-H ) :   0.9792

Dispersion correction           -0.003368838
FINAL SINGLE POINT ENERGY      -196.463835681649

DIPOLE MOMENT
-------------

Method             : SCF
Type of density    : Electron Density
Multiplicity       :   1
Irrep              :   0
Energy             :  -196.4670703390194433 Eh
Relativity type    :
Basis              : AO
                                X                 Y                 Z
Electronic contribution:     -0.021196225       1.054919802       0.009675741
Nuclear contribution   :      0.057973799      -1.178031010      -0.022629781
                        -----------------------------------------
Total Dipole Moment    :      0.036777574      -0.123111208      -0.012954040
                        -----------------------------------------
Magnitude (a.u.)       :      0.129138556
Magnitude (Debye)      :      0.328244122

Rotational constants in cm-1:             0.273354             0.120968             0.087956
Rotational constants in MHz :          8194.943107          3626.543295          2636.852019

                             ****ORCA TERMINATED NORMALLY****
TOTAL RUN TIME: 0 days 0 hours 0 minutes 8 seconds 183 msec
