                         Program Version 6.0.0  -   RELEASE  -
|  1> ! pbe def2-sv(p) def2/J RI DEFGRID1 loosescf d4 GCP(DFT/SV(P)) printgap
|  2> %output
|  3>     printlevel normal
|  4> end
|  5> * xyz 0 1
|  6> C -3.3890729488 0.5451419674 -0.0512373371
|  7> C -1.905375859 0.5542313221 0.299775769
|  8> H -1.7724587571 0.9704372909 1.3041077332
|  9> C -1.0931902016 1.4078022797 -0.6883122801
| 10> C 0.3915164964 1.3927676687 -0.3457706252
| 11> C 0.9273322316 -0.0426670619 -0.3669037278
| 12> H 0.7403988185 -0.4587919755 -1.3634781334
| 13> C 0.1425925996 -0.8879563556 0.6528304482
| 14> C -1.3218799004 -0.8407869081 0.3120031576
| 15> O -1.9652506954 -1.8359777639 0.0420464682
| 16> C 2.4160356848 -0.0892165095 -0.115592024
| 17> C 3.2590550147 -0.355598066 -1.1016587408
| 18> C 2.8944524732 0.189581054 1.2764850111
| 19> H -3.5381558892 0.1186784256 -1.040761581
| 20> H -3.940681621 -0.0640383059 0.6608226611
| 21> H -3.7886550162 1.5552479462 -0.0382764816
| 22> H -1.2431952933 1.0168505183 -1.6973761385
| 23> H -1.4730795742 2.4301389533 -0.6660886123
| 24> H 0.9428030564 1.9927870637 -1.0715083802
| 25> H 0.5417324032 1.8319035943 0.6414266014
| 26> H 0.486496442 -1.9234655038 0.6371381099
| 27> H 0.2821971603 -0.4755974337 1.652211702
| 28> H 4.3249508598 -0.3715809407 -0.9502499836
| 29> H 2.9203335403 -0.5686053589 -2.1016891329
| 30> H 2.6391435305 -0.6385318224 1.9357837104
| 31> H 3.9735985332 0.3124162257 1.2877286184
| 32> H 2.4363792974 1.0926133276 1.6726541044
| 33> *
| 34>
| 35>                          ****END OF INPUT****

CARTESIAN COORDINATES (ANGSTROEM)
---------------------------------
  C     -3.389073    0.545142   -0.051237
  C     -1.905376    0.554231    0.299776
  H     -1.772459    0.970437    1.304108
  C     -1.093190    1.407802   -0.688312
  C      0.391516    1.392768   -0.345771
  C      0.927332   -0.042667   -0.366904
  H      0.740399   -0.458792   -1.363478
  C      0.142593   -0.887956    0.652830
  C     -1.321880   -0.840787    0.312003
  O     -1.965251   -1.835978    0.042046
  C      2.416036   -0.089217   -0.115592
  C      3.259055   -0.355598   -1.101659
  C      2.894452    0.189581    1.276485
  H     -3.538156    0.118678   -1.040762
  H     -3.940682   -0.064038    0.660823
  H     -3.788655    1.555248   -0.038276
  H     -1.243195    1.016851   -1.697376
  H     -1.473080    2.430139   -0.666089
  H      0.942803    1.992787   -1.071508
  H      0.541732    1.831904    0.641427
  H      0.486496   -1.923466    0.637138
  H      0.282197   -0.475597    1.652212
  H      4.324951   -0.371581   -0.950250
  H      2.920334   -0.568605   -2.101689
  H      2.639144   -0.638532    1.935784
  H      3.973599    0.312416    1.287729
  H      2.436379    1.092613    1.672654

 Total Charge           Charge          ....    0
 Multiplicity           Mult            ....    1
 Number of Electrons    NEL             ....   84
 Basis Dimension        Dim             ....  186

ORBITAL ENERGIES
----------------

  NO   OCC          E(Eh)            E(eV)
   0   2.0000     -18.740469      -509.9541
   1   2.0000      -9.969749      -271.2907
   2   2.0000      -9.910296      -269.6729
   3   2.0000      -9.905118      -269.5320
   4   2.0000      -9.902979      -269.4738
   5   2.0000      -9.898541      -269.3530
   6   2.0000      -9.896150      -269.2879
   7   2.0000      -9.894348      -269.2389
   8   2.0000      -9.888047      -269.0674
   9   2.0000      -9.877467      -268.7795
  10   2.0000      -9.875129      -268.7159
  11   2.0000      -0.935513       -25.4566
  12   2.0000      -0.775589       -21.1049
  13   2.0000      -0.731335       -19.9006
  14   2.0000      -0.685547       -18.6547
  15   2.0000      -0.663527       -18.0555
  16   2.0000      -0.622829       -16.9480
  17   2.0000      -0.603975       -16.4350
  18   2.0000      -0.548560       -14.9271
  19   2.0000      -0.536756       -14.6059
  20   2.0000      -0.487853       -13.2751
  21   2.0000      -0.461880       -12.5684
  22   2.0000      -0.435942       -11.8626
  23   2.0000      -0.427159       -11.6236
  24   2.0000      -0.408914       -11.1271
  25   2.0000      -0.399996       -10.8844
  26   2.0000      -0.394446       -10.7334
  27   2.0000      -0.386094       -10.5062
  28   2.0000      -0.373320       -10.1586
  29   2.0000      -0.365557        -9.9473
  30   2.0000      -0.354785        -9.6542
  31   2.0000      -0.339521        -9.2388
  32   2.0000      -0.334081        -9.0908
  33   2.0000      -0.330488        -8.9930
  34   2.0000      -0.319499        -8.6940
  35   2.0000      -0.314380        -8.5547
  36   2.0000      -0.303360        -8.2549
  37   2.0000      -0.296515        -8.0686
  38   2.0000      -0.286728        -7.8023
  39   2.0000      -0.278514        -7.5787
  40   2.0000      -0.223499        -6.0817
  41   2.0000      -0.192999        -5.2518
  42   0.0000      -0.053021        -1.4428
  43   0.0000      -0.015488        -0.4215
  44   0.0000       0.034984         0.9520
  45   0.0000       0.042289         1.1507
  46   0.0000       0.047645         1.2965

MULLIKEN ATOMIC CHARGES
-----------------------
   0 C :   -0.190656
   1 C :   -0.205340
   2 H :    0.081867
   3 C :   -0.107053
   4 C :   -0.108407
   5 C :   -0.200207
   6 H :    0.066892
   7 C :   -0.046067
   8 C :    0.002531
   9 O :   -0.158702
  10 C :   -0.001541
  11 C :   -0.231102
  12 C :   -0.229627
  13 H :    0.100901
  14 H :    0.106837
  15 H :    0.091890
  16 H :    0.081749
  17 H :    0.092172
  18 H :    0.091386
  19 H :    0.078416
  20 H :    0.090553
  21 H :    0.090995
  22 H :    0.081464
  23 H :    0.086555
  24 H :    0.122682
  25 H :    0.100828
  26 H :    0.110986
Sum of atomic charges:    0.0000000

LOEWDIN ATOMIC CHARGES
----------------------
   0 C :   -0.325928
   1 C :   -0.177201
   2 H :    0.130516
   3 C :   -0.206512
   4 C :   -0.213346
   5 C :   -0.124131
   6 H :    0.124136
   7 C :   -0.230994
   8 C :    0.053681
   9 O :   -0.125401
  10 C :   -0.048765
  11 C :   -0.262351
  12 C :   -0.324523
  13 H :    0.123928
  14 H :    0.125159
  15 H :    0.117291
  16 H :    0.120527
  17 H :    0.121444
  18 H :    0.124258
  19 H :    0.115266
  20 H :    0.130860
  21 H :    0.131748
  22 H :    0.117299
  23 H :    0.117866
  24 H :    0.132575
  25 H :    0.127821
  26 H :    0.124778

  Mayer bond orders larger than 0.100000
B(  0-C ,  1-C ) :   1.1218 B(  0-C , 13-H ) :   0.9442 B(  0-C , 14-H ) :   0.9459
B(  0-C , 15-H ) :   0.9446 B(  1-C ,  2-H ) :   0.8671 B(  1-C ,  3-C ) :   1.0794
B(  1-C ,  8-C ) :   0.9371 B(  3-C ,  4-C ) :   1.1301 B(  3-C , 16-H ) :   0.9039
B(  3-C , 17-H ) :   0.9144 B(  4-C ,  5-C ) :   1.0736 B(  4-C , 18-H ) :   0.9102
B(  4-C , 19-H ) :   0.9000 B(  5-C ,  6-H ) :   0.8784 B(  5-C ,  7-C ) :   1.0569
B(  5-C , 10-C ) :   1.0059 B(  7-C ,  8-C ) :   1.0500 B(  7-C , 20-H ) :   0.8929
B(  7-C , 21-H ) :   0.8675 B(  8-C ,  9-O ) :   2.2092 B( 10-C , 11-C ) :   2.0378
B( 10-C , 12-C ) :   1.1108 B( 11-C , 22-H ) :   0.9032 B( 11-C , 23-H ) :   0.9102
B( 12-C , 24-H ) :   0.9218 B( 12-C , 25-H ) :   0.9337 B( 12-C , 26-H ) :   0.9298

Dispersion correction           -0.028182676
FINAL SINGLE POINT ENERGY      -464.832193362711

DIPOLE MOMENT
-------------

Method             : SCF
Type of density    : Electron Density
Multiplicity       :   1
Irrep              :   0
Energy             :  -464.9183312382583608 Eh
Relativity type    :
Basis              : AO
                                X                 Y                 Z
Electronic contribution:     -2.757185002      -5.432547092      -0.522334347
Nuclear contribution   :      3.284281371       6.371503978       0.809740355
                        -----------------------------------------
Total Dipole Moment    :      0.527096369       0.938956887       0.287406008
                        -----------------------------------------
Magnitude (a.u.)       :      1.114483213
Magnitude (Debye)      :      2.832791201

Rotational constants in cm-1:             0.073373             0.021916             0.019703
Rotational constants in MHz :          2199.673805           657.018322           590.669005

                             ****ORCA TERMINATED NORMALLY****
TOTAL RUN TIME: 0 days 0 hours 0 minutes 16 seconds 928 msec
