                         Program Version 6.0.0  -   RELEASE  -
|  1> ! pbe def2-sv(p) def2/J RI DEFGRID1 loosescf d4 GCP(DFT/SV(P)) printgap
|  2> %output
|  3>     printlevel normal
|  4> end
|  5> * xyz 0 1
|  6> C -2.5437816547 -0.9063573001 0.2923628481
|  7> C -1.115679426 -0.4696851156 0.6276985806
|  8> H -1.0074791595 -0.4184798667 1.7248800155
|  9> C -0.8249384175 0.9272196262 0.0369956937
| 10> H -1.0640806861 0.9113490493 -1.0311292442
| 11> C 0.6577256489 1.2739511441 0.2121923783
| 12> H 0.8771145348 1.3881376219 1.2894417804
| 13> C 1.5330707313 0.1351865151 -0.3199507554
| 14> H 1.372313542 0.0296646939 -1.4028120474
| 15> C 1.1183983154 -1.1849859924 0.3460737324
| 16> H 1.3058886792 -1.1057964163 1.440861092
| 17> O -0.2397333179 -1.4581676929 0.1240417591
| 18> O 1.867432917 -2.2070280524 -0.2064147277
| 19> O 2.8708735835 0.457220271 -0.0366514074
| 20> O 0.924853149 2.4791618844 -0.4557499588
| 21> O -1.67026126 1.8898606065 0.6069639149
| 22> O -2.7029931149 -0.929019397 -1.1056598099
| 23> H -3.2282987765 -0.1847632656 0.7533760119
| 24> H -2.7062391872 -1.9042181026 0.7169610982
| 25> H 1.4070509113 -3.0504170554 -0.0751175135
| 26> H 3.4379352912 -0.2734602465 -0.3243112418
| 27> H 1.8840589674 2.6212888627 -0.4546067495
| 28> H -1.3301581755 2.1602352535 1.4725864892
| 29> H -3.6137834087 -1.1793722986 -1.3149508377
| 30> *
| 31>
| 32>                          ****END OF INPUT****

CARTESIAN COORDINATES (ANGSTROEM)
---------------------------------
  C     -2.543782   -0.906357    0.292363
  C     -1.115679   -0.469685    0.627699
  H     -1.007479   -0.418480    1.724880
  C     -0.824938    0.927220    0.036996
  H     -1.064081    0.911349   -1.031129
  C      0.657726    1.273951    0.212192
  H      0.877115    1.388138    1.289442
  C      1.533071    0.135187   -0.319951
  H      1.372314    0.029665   -1.402812
  C      1.118398   -1.184986    0.346074
  H      1.305889   -1.105796    1.440861
  O     -0.239733   -1.458168    0.124042
  O      1.867433   -2.207028   -0.206415
  O      2.870874    0.457220   -0.036651
  O      0.924853    2.479162   -0.455750
  O     -1.670261    1.889861    0.606964
  O     -2.702993   -0.929019   -1.105660
  H     -3.228299   -0.184763    0.753376
  H     -2.706239   -1.904218    0.716961
  H      1.407051   -3.050417   -0.075118
  H      3.437935   -0.273460   -0.324311
  H      1.884059    2.621289   -0.454607
  H     -1.330158    2.160235    1.472586
  H     -3.613783   -1.179372   -1.314951

 Total Charge           Charge          ....    0
 Multiplicity           Mult            ....    1
 Number of Electrons    NEL             ....   96
 Basis Dimension        Dim             ....  192

ORBITAL ENERGIES
----------------

  NO   OCC          E(Eh)            E(eV)
   0   2.0000     -18.771226      -510.7910
   1   2.0000     -18.765238      -510.6281
   2   2.0000     -18.758381      -510.4415
   3   2.0000     -18.748547      -510.1739
   4   2.0000     -18.748455      -510.1714
   5   2.0000     -18.741818      -509.9908
   6   2.0000      -9.986547      -271.7478
   7   2.0000      -9.946060      -270.6461
   8   2.0000      -9.940609      -270.4977
   9   2.0000      -9.937605      -270.4160
  10   2.0000      -9.935356      -270.3548
  11   2.0000      -9.932655      -270.2813
  12   2.0000      -0.987094       -26.8602
  13   2.0000      -0.941157       -25.6102
  14   2.0000      -0.935708       -25.4619
  15   2.0000      -0.923233       -25.1224
  16   2.0000      -0.914143       -24.8751
  17   2.0000      -0.909740       -24.7553
  18   2.0000      -0.700286       -19.0557
  19   2.0000      -0.692901       -18.8548
  20   2.0000      -0.616955       -16.7882
  21   2.0000      -0.580062       -15.7843
  22   2.0000      -0.551770       -15.0144
  23   2.0000      -0.533694       -14.5226
  24   2.0000      -0.507908       -13.8209
  25   2.0000      -0.486215       -13.2306
  26   2.0000      -0.477352       -12.9894
  27   2.0000      -0.456137       -12.4121
  28   2.0000      -0.445853       -12.1323
  29   2.0000      -0.425481       -11.5779
  30   2.0000      -0.409827       -11.1519
  31   2.0000      -0.409289       -11.1373
  32   2.0000      -0.385071       -10.4783
  33   2.0000      -0.372783       -10.1439
  34   2.0000      -0.357006        -9.7146
  35   2.0000      -0.344257        -9.3677
  36   2.0000      -0.323121        -8.7926
  37   2.0000      -0.321884        -8.7589
  38   2.0000      -0.299261        -8.1433
  39   2.0000      -0.294919        -8.0252
  40   2.0000      -0.280192        -7.6244
  41   2.0000      -0.265044        -7.2122
  42   2.0000      -0.254322        -6.9205
  43   2.0000      -0.240312        -6.5392
  44   2.0000      -0.223705        -6.0873
  45   2.0000      -0.218907        -5.9568
  46   2.0000      -0.216620        -5.8945
  47   2.0000      -0.198303        -5.3961
  48   0.0000       0.019272         0.5244
  49   0.0000       0.024617         0.6699
  50   0.0000       0.031125         0.8469
  51   0.0000       0.040164         1.0929
  52   0.0000       0.063634         1.7316

MULLIKEN ATOMIC CHARGES
-----------------------
   0 C :    0.083965
   1 C :    0.012683
   2 H :    0.036519
   3 C :    0.066418
   4 H :    0.086988
   5 C :    0.066188
   6 H :    0.031240
   7 C :    0.028566
   8 H :    0.067729
   9 C :    0.188123
  10 H :    0.029309
  11 O :   -0.308178
  12 O :   -0.394438
  13 O :   -0.426842
  14 O :   -0.405840
  15 O :   -0.408571
  16 O :   -0.433484
  17 H :    0.074464
  18 H :    0.073265
  19 H :    0.311142
  20 H :    0.313180
  21 H :    0.306583
  22 H :    0.297648
  23 H :    0.303341
Sum of atomic charges:   -0.0000000

LOEWDIN ATOMIC CHARGES
----------------------
   0 C :   -0.123131
   1 C :   -0.067580
   2 H :    0.096393
   3 C :   -0.067114
   4 H :    0.129007
   5 C :   -0.073588
   6 H :    0.091642
   7 C :   -0.091774
   8 H :    0.112182
   9 C :   -0.003306
  10 H :    0.075246
  11 O :   -0.145229
  12 O :   -0.306852
  13 O :   -0.322290
  14 O :   -0.316599
  15 O :   -0.301162
  16 O :   -0.335881
  17 H :    0.104672
  18 H :    0.099324
  19 H :    0.293262
  20 H :    0.292614
  21 H :    0.286919
  22 H :    0.283913
  23 H :    0.289334

  Mayer bond orders larger than 0.100000
B(  0-C ,  1-C ) :   1.0648 B(  0-C , 16-O ) :   1.0941 B(  0-C , 17-H ) :   0.9031
B(  0-C , 18-H ) :   0.9122 B(  1-C ,  2-H ) :   0.8726 B(  1-C ,  3-C ) :   0.9826
B(  1-C , 11-O ) :   0.9777 B(  3-C ,  4-H ) :   0.8609 B(  3-C ,  5-C ) :   1.0314
B(  3-C , 15-O ) :   1.0369 B(  5-C ,  6-H ) :   0.8646 B(  5-C ,  7-C ) :   1.0104
B(  5-C , 14-O ) :   1.1144 B(  7-C ,  8-H ) :   0.8676 B(  7-C ,  9-C ) :   0.9855
B(  7-C , 13-O ) :   1.0617 B(  9-C , 10-H ) :   0.8829 B(  9-C , 11-O ) :   1.0267
B(  9-C , 12-O ) :   1.1560 B( 12-O , 19-H ) :   0.8355 B( 13-O , 20-H ) :   0.8373
B( 14-O , 21-H ) :   0.8373 B( 15-O , 22-H ) :   0.8468 B( 16-O , 23-H ) :   0.8499

Dispersion correction           -0.023866107
FINAL SINGLE POINT ENERGY      -685.695838258298

DIPOLE MOMENT
-------------

Method             : SCF
Type of density    : Electron Density
Multiplicity       :   1
Irrep              :   0
Energy             :  -685.8248851546690048 Eh
Relativity type    :
Basis              : AO
                                X                 Y                 Z
Electronic contribution:      2.377870625       0.017528392      -1.805391696
Nuclear contribution   :     -2.485301181      -0.940203940       2.606450359
                        -----------------------------------------
Total Dipole Moment    :     -0.107430556      -0.922675547       0.801058663
                        -----------------------------------------
Magnitude (a.u.)       :      1.226607709
Magnitude (Debye)      :      3.117789021

Rotational constants in cm-1:             0.039467             0.027000             0.017841
Rotational constants in MHz :          1183.187856           809.447328           534.846592

                             ****ORCA TERMINATED NORMALLY****
TOTAL RUN TIME: 0 days 0 hours 0 minutes 11 seconds 693 msec
