                         Program Version 6.0.0  -   RELEASE  -
|  1> ! r2scan-3c def2/J RI DEFGRID2 scfconv6 printgap
|  2> %output
|  3>     printlevel normal
|  4> end
|  5> * xyz 0 1
|  6> C 0.4408244547 -2.83247e-05 -0.4025472857
|  7> F 1.0397752339 1.0763398508 0.1259379901
|  8> F 1.0402880057 -1.0760831213 0.1259750461
|  9> Cl -1.280194385 -0.000124213 0.0438245495
| 10> H 0.569622266 -0.000132483 -1.4929104758
| 11> *
| 12>
| 13>                          ****END OF INPUT****

CARTESIAN COORDINATES (ANGSTROEM)
---------------------------------
  C      0.440824   -0.000028   -0.402547
  F      1.039775    1.076340    0.125938
  F      1.040288   -1.076083    0.125975
  Cl    -1.280194   -0.000124    0.043825
  H      0.569622   -0.000132   -1.492910

 Total Charge           Charge          ....    0
 Multiplicity           Mult            ....    1
 Number of Electrons    NEL             ....   42
 Basis Dimension        Dim             ....   99

ORBITAL ENERGIES
----------------

  NO   OCC          E(Eh)            E(eV)
   0   2.0000    -101.237818     -2754.8211
   1   2.0000     -24.530657      -667.5131
   2   2.0000     -24.530646      -667.5128
   3   2.0000     -10.269800      -279.4555
   4   2.0000      -9.394234      -255.6301
   5   2.0000      -7.140604      -194.3057
   6   2.0000      -7.130212      -194.0229
   7   2.0000      -7.130103      -194.0200
   8   2.0000      -1.260227       -34.2925
   9   2.0000      -1.195957       -32.5436
  10   2.0000      -0.841849       -22.9079
  11   2.0000      -0.669957       -18.2305
  12   2.0000      -0.556032       -15.1304
  13   2.0000      -0.550513       -14.9802
  14   2.0000      -0.515285       -14.0216
  15   2.0000      -0.417355       -11.3568
  16   2.0000      -0.413896       -11.2627
  17   2.0000      -0.393704       -10.7132
  18   2.0000      -0.352863        -9.6019
  19   2.0000      -0.312055        -8.4914
  20   2.0000      -0.311878        -8.4866
  21   0.0000      -0.018653        -0.5076
  22   0.0000       0.061770         1.6808
  23   0.0000       0.087905         2.3920
  24   0.0000       0.105782         2.8785
  25   0.0000       0.157812         4.2943

MULLIKEN ATOMIC CHARGES
-----------------------
   0 C :    0.327387
   1 F :   -0.185194
   2 F :   -0.185187
   3 Cl:   -0.097314
   4 H :    0.140308
Sum of atomic charges:    0.0000000

LOEWDIN ATOMIC CHARGES
----------------------
   0 C :    0.242521
   1 F :   -0.264508
   2 F :   -0.264481
   3 Cl:    0.120543
   4 H :    0.165925

  Mayer bond orders larger than 0.100000
B(  0-C ,  1-F ) :   0.9710 B(  0-C ,  2-F ) :   0.9710 B(  0-C ,  3-Cl) :   1.1309
B(  0-C ,  4-H ) :   0.9498

Dispersion correction           -0.000741764
FINAL SINGLE POINT ENERGY      -698.556743411717

DIPOLE MOMENT
-------------

Method             : SCF
Type of density    : Electron Density
Multiplicity       :   1
Irrep              :   0
Energy             :  -698.5646698212480032 Eh
Relativity type    :
Basis              : AO
                                X                 Y                 Z
Electronic contribution:     -0.284338681       0.000107454       1.127747907
Nuclear contribution   :      0.325423706      -0.000195445      -1.692848638
                        -----------------------------------------
Total Dipole Moment    :      0.041085025      -0.000087991      -0.565100731
                        -----------------------------------------
Magnitude (a.u.)       :      0.566592290
Magnitude (Debye)      :      1.440163150

Rotational constants in cm-1:             0.344935             0.157950             0.115565
Rotational constants in MHz :         10340.884571          4735.220683          3464.538704

                             ****ORCA TERMINATED NORMALLY****
TOTAL RUN TIME: 0 days 0 hours 0 minutes 7 seconds 177 msec
