                         Program Version 6.0.0  -   RELEASE  -
|  1> ! r2scan-3c def2/J RI DEFGRID2 scfconv6 printgap
|  2> %output
|  3>     printlevel normal
|  4> end
|  5> %cpcm
|  6>     smd true
|  7>     smdsolvent "water"
|  8> end
|  9> * xyz 0 1
| 10> C 0.4408244547 -2.83247e-05 -0.4025472857
| 11> F 1.0397752339 1.0763398508 0.1259379901
| 12> F 1.0402880057 -1.0760831213 0.1259750461
| 13> Cl -1.280194385 -0.000124213 0.0438245495
| 14> H 0.569622266 -0.000132483 -1.4929104758
| 15> *
| 16>
| 17>                          ****END OF INPUT****

CARTESIAN COORDINATES (ANGSTROEM)
---------------------------------
  C      0.440824   -0.000028   -0.402547
  F      1.039775    1.076340    0.125938
  F      1.040288   -1.076083    0.125975
  Cl    -1.280194   -0.000124    0.043825
  H      0.569622   -0.000132   -1.492910

 Total Charge           Charge          ....    0
 Multiplicity           Mult            ....    1
 Number of Electrons    NEL             ....   42
 Basis Dimension        Dim             ....   99

ORBITAL ENERGIES
----------------

  NO   OCC          E(Eh)            E(eV)
   0   2.0000    -101.234002     -2754.7172
   1   2.0000     -24.525149      -667.3632
   2   2.0000     -24.525140      -667.3630
   3   2.0000     -10.258725      -279.1541
   4   2.0000      -9.390550      -255.5299
   5   2.0000      -7.136752      -194.2009
   6   2.0000      -7.126630      -193.9255
   7   2.0000      -7.126464      -193.9210
   8   2.0000      -1.255111       -34.1533
   9   2.0000      -1.191244       -32.4154
  10   2.0000      -0.837285       -22.7837
  11   2.0000      -0.661909       -18.0115
  12   2.0000      -0.546032       -14.8583
  13   2.0000      -0.545158       -14.8345
  14   2.0000      -0.510426       -13.8894
  15   2.0000      -0.413352       -11.2479
  16   2.0000      -0.408917       -11.1272
  17   2.0000      -0.389926       -10.6104
  18   2.0000      -0.344762        -9.3814
  19   2.0000      -0.309742        -8.4285
  20   2.0000      -0.307758        -8.3745
  21   0.0000      -0.011900        -0.3238
  22   0.0000       0.072384         1.9697
  23   0.0000       0.098237         2.6732
  24   0.0000       0.128575         3.4987
  25   0.0000       0.165218         4.4958

MULLIKEN ATOMIC CHARGES
-----------------------
   0 C :    0.319106
   1 F :   -0.197208
   2 F :   -0.197197
   3 Cl:   -0.120783
   4 H :    0.196082
Sum of atomic charges:    0.0000000

LOEWDIN ATOMIC CHARGES
----------------------
   0 C :    0.248590
   1 F :   -0.272292
   2 F :   -0.272262
   3 Cl:    0.106031
   4 H :    0.189933

  Mayer bond orders larger than 0.100000
B(  0-C ,  1-F ) :   0.9636 B(  0-C ,  2-F ) :   0.9636 B(  0-C ,  3-Cl) :   1.1120
B(  0-C ,  4-H ) :   0.9368

Dispersion correction           -0.000741764
FINAL SINGLE POINT ENERGY      -698.557439354654

DIPOLE MOMENT
-------------

Method             : SCF
Type of density    : Electron Density
Multiplicity       :   1
Irrep              :   0
Energy             :  -698.5653657641855716 Eh
Relativity type    :
Basis              : AO
                                X                 Y                 Z
Electronic contribution:     -0.234631190       0.000078322       0.939261129
Nuclear contribution   :      0.325423706      -0.000195445      -1.692848638
                        -----------------------------------------
Total Dipole Moment    :      0.090792516      -0.000117122      -0.753587509
                        -----------------------------------------
Magnitude (a.u.)       :      0.759037172
Magnitude (Debye)      :      1.929319165

Rotational constants in cm-1:             0.344935             0.157950             0.115565
Rotational constants in MHz :         10340.884571          4735.220683          3464.538704

                             ****ORCA TERMINATED NORMALLY****
TOTAL RUN TIME: 0 days 0 hours 0 minutes 8 seconds 239 msec
