                         Program Version 6.0.0  -   RELEASE  -
|  1> ! pbe def2-sv(p) def2/J RI DEFGRID1 loosescf d4 GCP(DFT/SV(P)) printgap
|  2> %output
|  3>     printlevel normal
|  4> end
|  5> * xyz 0 1
|  6> C 1.4018052919 -0.2687400237 -1.2247005389
|  7> C 0.7236246777 -0.1409663921 0.1097531062
|  8> C 1.4402963064 -0.2851025023 1.224020373
|  9> C -0.7236431854 0.1409455278 0.1097593933
| 10> C -1.4407370719 0.2828058057 1.2240308004
| 11> C -1.4013716142 0.270951696 -1.2247065504
| 12> H 1.2961605438 0.6481327243 -1.8010301112
| 13> H 0.9669158792 -1.0821750451 -1.8020443769
| 14> H 2.4610925729 -0.4705670218 -1.0906387119
| 15> H 1.0191191595 -0.2075246564 2.2098193647
| 16> H 2.4964549962 -0.4906923914 1.1840042008
| 17> H -2.4969360962 0.4881791427 1.1840503133
| 18> H -1.0199384808 0.2030347481 2.2098230567
| 19> H -2.4605272683 0.473482166 -1.090677308
| 20> H -0.9657121651 1.084736167 -1.8009383976
| 21> H -1.2963241231 -0.6453439744 -1.8021088037
| 22> *
| 23>
| 24>                          ****END OF INPUT****

CARTESIAN COORDINATES (ANGSTROEM)
---------------------------------
  C      1.401805   -0.268740   -1.224701
  C      0.723625   -0.140966    0.109753
  C      1.440296   -0.285103    1.224020
  C     -0.723643    0.140946    0.109759
  C     -1.440737    0.282806    1.224031
  C     -1.401372    0.270952   -1.224707
  H      1.296161    0.648133   -1.801030
  H      0.966916   -1.082175   -1.802044
  H      2.461093   -0.470567   -1.090639
  H      1.019119   -0.207525    2.209819
  H      2.496455   -0.490692    1.184004
  H     -2.496936    0.488179    1.184050
  H     -1.019938    0.203035    2.209823
  H     -2.460527    0.473482   -1.090677
  H     -0.965712    1.084736   -1.800938
  H     -1.296324   -0.645344   -1.802109

 Total Charge           Charge          ....    0
 Multiplicity           Mult            ....    1
 Number of Electrons    NEL             ....   46
 Basis Dimension        Dim             ....  104

ORBITAL ENERGIES
----------------

  NO   OCC          E(Eh)            E(eV)
   0   2.0000      -9.902236      -269.4535
   1   2.0000      -9.902146      -269.4511
   2   2.0000      -9.882274      -268.9104
   3   2.0000      -9.882205      -268.9085
   4   2.0000      -9.871653      -268.6213
   5   2.0000      -9.871562      -268.6189
   6   2.0000      -0.748773       -20.3752
   7   2.0000      -0.679920       -18.5016
   8   2.0000      -0.629498       -17.1295
   9   2.0000      -0.593354       -16.1460
  10   2.0000      -0.531618       -14.4661
  11   2.0000      -0.441958       -12.0263
  12   2.0000      -0.432459       -11.7678
  13   2.0000      -0.400710       -10.9039
  14   2.0000      -0.392057       -10.6684
  15   2.0000      -0.362631        -9.8677
  16   2.0000      -0.356937        -9.7127
  17   2.0000      -0.338829        -9.2200
  18   2.0000      -0.336451        -9.1553
  19   2.0000      -0.300514        -8.1774
  20   2.0000      -0.297734        -8.1017
  21   2.0000      -0.265385        -7.2215
  22   2.0000      -0.193323        -5.2606
  23   0.0000      -0.056823        -1.5462
  24   0.0000       0.040020         1.0890
  25   0.0000       0.050010         1.3609
  26   0.0000       0.072567         1.9747
  27   0.0000       0.075688         2.0596

MULLIKEN ATOMIC CHARGES
-----------------------
   0 C :   -0.205821
   1 C :   -0.030573
   2 C :   -0.254937
   3 C :   -0.030558
   4 C :   -0.254935
   5 C :   -0.205836
   6 H :    0.107474
   7 H :    0.107725
   8 H :    0.099899
   9 H :    0.090245
  10 H :    0.085984
  11 H :    0.085982
  12 H :    0.090245
  13 H :    0.099896
  14 H :    0.107708
  15 H :    0.107502
Sum of atomic charges:   -0.0000000

LOEWDIN ATOMIC CHARGES
----------------------
   0 C :   -0.321396
   1 C :   -0.054058
   2 C :   -0.243456
   3 C :   -0.054061
   4 C :   -0.243453
   5 C :   -0.321397
   6 H :    0.128336
   7 H :    0.128500
   8 H :    0.124808
   9 H :    0.117930
  10 H :    0.119335
  11 H :    0.119336
  12 H :    0.117930
  13 H :    0.124807
  14 H :    0.128483
  15 H :    0.128356

  Mayer bond orders larger than 0.100000
B(  0-C ,  1-C ) :   1.1431 B(  0-C ,  6-H ) :   0.9219 B(  0-C ,  7-H ) :   0.9216
B(  0-C ,  8-H ) :   0.9349 B(  1-C ,  2-C ) :   1.9899 B(  1-C ,  3-C ) :   1.0586
B(  2-C ,  4-C ) :   0.1200 B(  2-C ,  9-H ) :   0.9020 B(  2-C , 10-H ) :   0.9030
B(  3-C ,  4-C ) :   1.9900 B(  3-C ,  5-C ) :   1.1431 B(  4-C , 11-H ) :   0.9030
B(  4-C , 12-H ) :   0.9020 B(  5-C , 13-H ) :   0.9349 B(  5-C , 14-H ) :   0.9216
B(  5-C , 15-H ) :   0.9219

Dispersion correction           -0.012869745
FINAL SINGLE POINT ENERGY      -234.038049713183

DIPOLE MOMENT
-------------

Method             : SCF
Type of density    : Electron Density
Multiplicity       :   1
Irrep              :   0
Energy             :  -234.0856713999614556 Eh
Relativity type    :
Basis              : AO
                                X                 Y                 Z
Electronic contribution:     -0.000296143      -0.001184616       2.179710891
Nuclear contribution   :      0.000286157       0.001183832      -2.438985791
                        -----------------------------------------
Total Dipole Moment    :     -0.000009986      -0.000000784      -0.259274900
                        -----------------------------------------
Magnitude (a.u.)       :      0.259274900
Magnitude (Debye)      :      0.659024423

Rotational constants in cm-1:             0.162729             0.112274             0.068116
Rotational constants in MHz :          4878.478410          3365.894537          2042.061112

                             ****ORCA TERMINATED NORMALLY****
TOTAL RUN TIME: 0 days 0 hours 0 minutes 5 seconds 667 msec
