                         Program Version 6.0.0  -   RELEASE  -
|  1> ! pbe def2-sv(p) def2/J RI DEFGRID1 loosescf d4 GCP(DFT/SV(P)) printgap
|  2> %output
|  3>     printlevel normal
|  4> end
|  5> * xyz 0 1
|  6> C 3.7186758942 0.3104045 0.2131472246
|  7> C 2.2948839747 0.1687222696 -0.3171923027
|  8> H 2.3411750098 -0.0906653472 -1.3813466379
|  9> C 1.5166445658 1.4741892219 -0.1682327231
| 10> C 0.0799376617 1.3259098361 -0.6624194099
| 11> C -0.6644248581 0.2325138136 0.1106071357
| 12> H -0.6251793951 0.4833625883 1.1759934725
| 13> C 0.1142332144 -1.0846657972 -0.0924635878
| 14> H 0.1471654018 -1.3004349017 -1.1728453672
| 15> C 1.5486370489 -0.9411240247 0.4174239936
| 16> O -0.4522099608 -2.1959570105 0.5847546599
| 17> C -2.151517865 0.0690166289 -0.2876214652
| 18> C -2.9678914576 -0.4009622789 0.9205153027
| 19> C -2.7989756936 1.3407671092 -0.8376565821
| 20> H 4.2478397695 1.0946187968 -0.3227768746
| 21> H 3.7047661588 0.5646517944 1.2705405449
| 22> H 4.2656766138 -0.6212566162 0.0915485378
| 23> H 1.5080748092 1.7662107436 0.8842934756
| 24> H 2.0144649706 2.2663171422 -0.7310978491
| 25> H -0.4290931766 2.2805728756 -0.5378508183
| 26> H 0.0864125646 1.0779083035 -1.7265738661
| 27> H 1.5135920887 -0.7288424902 1.4877211848
| 28> H 2.0571220558 -1.8985209085 0.2877606855
| 29> H -1.2267089189 -2.5056836677 0.0989306426
| 30> H -2.2106101994 -0.6909225043 -1.0770182977
| 31> H -3.9644581551 -0.7100713398 0.6126687491
| 32> H -3.070261478 0.4154532141 1.6329064918
| 33> H -2.4853120325 -1.2306662823 1.4289118584
| 34> H -3.852829413 1.1498246272 -1.0291035695
| 35> H -2.3393027118 1.6549983969 -1.7699996603
| 36> H -2.7291993092 2.1519249862 -0.1168703811
| 37> *
| 38>
| 39>                          ****END OF INPUT****

CARTESIAN COORDINATES (ANGSTROEM)
---------------------------------
  C      3.718676    0.310404    0.213147
  C      2.294884    0.168722   -0.317192
  H      2.341175   -0.090665   -1.381347
  C      1.516645    1.474189   -0.168233
  C      0.079938    1.325910   -0.662419
  C     -0.664425    0.232514    0.110607
  H     -0.625179    0.483363    1.175993
  C      0.114233   -1.084666   -0.092464
  H      0.147165   -1.300435   -1.172845
  C      1.548637   -0.941124    0.417424
  O     -0.452210   -2.195957    0.584755
  C     -2.151518    0.069017   -0.287621
  C     -2.967891   -0.400962    0.920515
  C     -2.798976    1.340767   -0.837657
  H      4.247840    1.094619   -0.322777
  H      3.704766    0.564652    1.270541
  H      4.265677   -0.621257    0.091549
  H      1.508075    1.766211    0.884293
  H      2.014465    2.266317   -0.731098
  H     -0.429093    2.280573   -0.537851
  H      0.086413    1.077908   -1.726574
  H      1.513592   -0.728842    1.487721
  H      2.057122   -1.898521    0.287761
  H     -1.226709   -2.505684    0.098931
  H     -2.210610   -0.690923   -1.077018
  H     -3.964458   -0.710071    0.612669
  H     -3.070261    0.415453    1.632906
  H     -2.485312   -1.230666    1.428912
  H     -3.852829    1.149825   -1.029104
  H     -2.339303    1.654998   -1.770000
  H     -2.729199    2.151925   -0.116870

 Total Charge           Charge          ....    0
 Multiplicity           Mult            ....    1
 Number of Electrons    NEL             ....   88
 Basis Dimension        Dim             ....  194

ORBITAL ENERGIES
----------------

  NO   OCC          E(Eh)            E(eV)
   0   2.0000     -18.740202      -509.9468
   1   2.0000      -9.932582      -270.2793
   2   2.0000      -9.895047      -269.2579
   3   2.0000      -9.891022      -269.1484
   4   2.0000      -9.886489      -269.0250
   5   2.0000      -9.880940      -268.8741
   6   2.0000      -9.879327      -268.8302
   7   2.0000      -9.874242      -268.6918
   8   2.0000      -9.872069      -268.6327
   9   2.0000      -9.869992      -268.5761
  10   2.0000      -9.867755      -268.5153
  11   2.0000      -0.917379       -24.9632
  12   2.0000      -0.758723       -20.6459
  13   2.0000      -0.722526       -19.6609
  14   2.0000      -0.670387       -18.2422
  15   2.0000      -0.656300       -17.8588
  16   2.0000      -0.608442       -16.5566
  17   2.0000      -0.600344       -16.3362
  18   2.0000      -0.539766       -14.6878
  19   2.0000      -0.532628       -14.4935
  20   2.0000      -0.501846       -13.6559
  21   2.0000      -0.495077       -13.4717
  22   2.0000      -0.458771       -12.4838
  23   2.0000      -0.422016       -11.4836
  24   2.0000      -0.405962       -11.0468
  25   2.0000      -0.401538       -10.9264
  26   2.0000      -0.392339       -10.6761
  27   2.0000      -0.379068       -10.3150
  28   2.0000      -0.364877        -9.9288
  29   2.0000      -0.358119        -9.7449
  30   2.0000      -0.346017        -9.4156
  31   2.0000      -0.338778        -9.2186
  32   2.0000      -0.334286        -9.0964
  33   2.0000      -0.324467        -8.8292
  34   2.0000      -0.313556        -8.5323
  35   2.0000      -0.303756        -8.2656
  36   2.0000      -0.297924        -8.1069
  37   2.0000      -0.293117        -7.9761
  38   2.0000      -0.282704        -7.6928
  39   2.0000      -0.277631        -7.5547
  40   2.0000      -0.272536        -7.4161
  41   2.0000      -0.261790        -7.1237
  42   2.0000      -0.252829        -6.8798
  43   2.0000      -0.208105        -5.6628
  44   0.0000       0.020954         0.5702
  45   0.0000       0.039043         1.0624
  46   0.0000       0.042799         1.1646
  47   0.0000       0.052512         1.4289
  48   0.0000       0.075354         2.0505

MULLIKEN ATOMIC CHARGES
-----------------------
   0 C :   -0.195968
   1 C :   -0.213054
   2 H :    0.060309
   3 C :   -0.091745
   4 C :   -0.110434
   5 C :   -0.126930
   6 H :    0.052802
   7 C :    0.029904
   8 H :    0.043603
   9 C :   -0.068218
  10 O :   -0.404132
  11 C :   -0.152749
  12 C :   -0.258583
  13 C :   -0.231112
  14 H :    0.094585
  15 H :    0.090127
  16 H :    0.096104
  17 H :    0.065317
  18 H :    0.075474
  19 H :    0.085008
  20 H :    0.068459
  21 H :    0.070122
  22 H :    0.079936
  23 H :    0.305772
  24 H :    0.050751
  25 H :    0.093662
  26 H :    0.093355
  27 H :    0.100546
  28 H :    0.095782
  29 H :    0.104548
  30 H :    0.096759
Sum of atomic charges:   -0.0000000

LOEWDIN ATOMIC CHARGES
----------------------
   0 C :   -0.326163
   1 C :   -0.152839
   2 H :    0.112724
   3 C :   -0.214649
   4 C :   -0.217395
   5 C :   -0.146993
   6 H :    0.117762
   7 C :   -0.044721
   8 H :    0.094539
   9 C :   -0.215691
  10 O :   -0.321495
  11 C :   -0.151614
  12 C :   -0.338911
  13 C :   -0.329411
  14 H :    0.116538
  15 H :    0.116959
  16 H :    0.117617
  17 H :    0.114549
  18 H :    0.114998
  19 H :    0.118438
  20 H :    0.113338
  21 H :    0.118837
  22 H :    0.118395
  23 H :    0.283123
  24 H :    0.104627
  25 H :    0.113960
  26 H :    0.116885
  27 H :    0.114344
  28 H :    0.117894
  29 H :    0.116996
  30 H :    0.117361

  Mayer bond orders larger than 0.100000
B(  0-C ,  1-C ) :   1.1148 B(  0-C , 14-H ) :   0.9489 B(  0-C , 15-H ) :   0.9462
B(  0-C , 16-H ) :   0.9486 B(  1-C ,  2-H ) :   0.8900 B(  1-C ,  3-C ) :   1.0974
B(  1-C ,  9-C ) :   1.0847 B(  3-C ,  4-C ) :   1.1423 B(  3-C , 17-H ) :   0.9021
B(  3-C , 18-H ) :   0.9112 B(  4-C ,  5-C ) :   1.1047 B(  4-C , 19-H ) :   0.8924
B(  4-C , 20-H ) :   0.8971 B(  5-C ,  6-H ) :   0.8714 B(  5-C ,  7-C ) :   1.0237
B(  5-C , 11-C ) :   1.0014 B(  7-C ,  8-H ) :   0.8914 B(  7-C ,  9-C ) :   1.1037
B(  7-C , 10-O ) :   1.0921 B(  9-C , 21-H ) :   0.8938 B(  9-C , 22-H ) :   0.9054
B( 10-O , 23-H ) :   0.8365 B( 11-C , 12-C ) :   1.1147 B( 11-C , 13-C ) :   1.1515
B( 11-C , 24-H ) :   0.8880 B( 12-C , 25-H ) :   0.9484 B( 12-C , 26-H ) :   0.9457
B( 12-C , 27-H ) :   0.9277 B( 13-C , 28-H ) :   0.9466 B( 13-C , 29-H ) :   0.9339
B( 13-C , 30-H ) :   0.9414

Dispersion correction           -0.031320927
FINAL SINGLE POINT ENERGY      -467.196150147557

DIPOLE MOMENT
-------------

Method             : SCF
Type of density    : Electron Density
Multiplicity       :   1
Irrep              :   0
Energy             :  -467.3090078337385194 Eh
Relativity type    :
Basis              : AO
                                X                 Y                 Z
Electronic contribution:      0.789653957      -4.590803412       0.343196703
Nuclear contribution   :     -0.988653771       4.779056042      -0.830237592
                        -----------------------------------------
Total Dipole Moment    :     -0.198999814       0.188252631      -0.487040890
                        -----------------------------------------
Magnitude (a.u.)       :      0.558792275
Magnitude (Debye)      :      1.420337088

Rotational constants in cm-1:             0.061539             0.023344             0.018259
Rotational constants in MHz :          1844.884583           699.822616           547.399424

                             ****ORCA TERMINATED NORMALLY****
TOTAL RUN TIME: 0 days 0 hours 0 minutes 14 seconds 189 msec
