                         Program Version 6.0.0  -   RELEASE  -
|  1> ! r2scan-3c def2/J RI DEFGRID2 scfconv6 printgap
|  2> %output
|  3>     printlevel normal
|  4> end
|  5> * xyz 0 1
|  6> C -2.6122213128 0.5138506105 -0.0005742775
|  7> O -1.2382907237 0.9089572966 -0.0021488552
|  8> C -0.3234122324 -0.0641606551 -9.29849e-05
|  9> O -0.6143099722 -1.2445757538 0.0028991328
| 10> C 1.0451029647 0.4834386513 -0.0017953414
| 11> C 2.1143433397 -0.2846266419 0.74252627
| 12> C 2.1145122825 -0.2890620793 -0.7410191001
| 13> H -3.1815953233 1.4376858593 -0.0042160175
| 14> H -2.8288953208 -0.077921251 0.8896901458
| 15> H -2.8289613513 -0.0850038432 -0.8860702848
| 16> H 1.0778435008 1.5631078989 -0.0050186355
| 17> H 2.8569290769 0.2932098416 1.2680766806
| 18> H 1.7952322758 -1.182530706 1.2491962171
| 19> H 2.8572201784 0.2856714071 -1.2698854046
| 20> H 1.7954765695 -1.1899534035 -1.2422970699
| 21> *
| 22>
| 23>                          ****END OF INPUT****

CARTESIAN COORDINATES (ANGSTROEM)
---------------------------------
  C     -2.612221    0.513851   -0.000574
  O     -1.238291    0.908957   -0.002149
  C     -0.323412   -0.064161   -0.000093
  O     -0.614310   -1.244576    0.002899
  C      1.045103    0.483439   -0.001795
  C      2.114343   -0.284627    0.742526
  C      2.114512   -0.289062   -0.741019
  H     -3.181595    1.437686   -0.004216
  H     -2.828895   -0.077921    0.889690
  H     -2.828961   -0.085004   -0.886070
  H      1.077844    1.563108   -0.005019
  H      2.856929    0.293210    1.268077
  H      1.795232   -1.182531    1.249196
  H      2.857220    0.285671   -1.269885
  H      1.795477   -1.189953   -1.242297

 Total Charge           Charge          ....    0
 Multiplicity           Mult            ....    1
 Number of Electrons    NEL             ....   54
 Basis Dimension        Dim             ....  183

ORBITAL ENERGIES
----------------

  NO   OCC          E(Eh)            E(eV)
   0   2.0000     -18.997995      -516.9617
   1   2.0000     -18.926795      -515.0243
   2   2.0000     -10.152042      -276.2511
   3   2.0000     -10.085517      -274.4409
   4   2.0000     -10.056331      -273.6467
   5   2.0000     -10.046991      -273.3925
   6   2.0000     -10.046784      -273.3869
   7   2.0000      -1.070205       -29.1218
   8   2.0000      -0.974463       -26.5165
   9   2.0000      -0.842993       -22.9390
  10   2.0000      -0.711866       -19.3709
  11   2.0000      -0.612477       -16.6663
  12   2.0000      -0.579918       -15.7804
  13   2.0000      -0.524334       -14.2679
  14   2.0000      -0.497421       -13.5355
  15   2.0000      -0.463530       -12.6133
  16   2.0000      -0.449256       -12.2249
  17   2.0000      -0.428037       -11.6475
  18   2.0000      -0.410451       -11.1689
  19   2.0000      -0.371266       -10.1027
  20   2.0000      -0.363877        -9.9016
  21   2.0000      -0.339666        -9.2428
  22   2.0000      -0.323396        -8.8000
  23   2.0000      -0.289465        -7.8767
  24   2.0000      -0.277120        -7.5408
  25   2.0000      -0.271274        -7.3818
  26   2.0000      -0.239370        -6.5136
  27   0.0000      -0.018600        -0.5061
  28   0.0000       0.065883         1.7928
  29   0.0000       0.088942         2.4202
  30   0.0000       0.101515         2.7624
  31   0.0000       0.105697         2.8762

MULLIKEN ATOMIC CHARGES
-----------------------
   0 C :   -0.292952
   1 O :   -0.190227
   2 C :    0.388904
   3 O :   -0.454399
   4 C :   -0.111209
   5 C :   -0.341231
   6 C :   -0.341220
   7 H :    0.150154
   8 H :    0.161579
   9 H :    0.161676
  10 H :    0.182588
  11 H :    0.163939
  12 H :    0.179222
  13 H :    0.163934
  14 H :    0.179242
Sum of atomic charges:    0.0000000

LOEWDIN ATOMIC CHARGES
----------------------
   0 C :   -0.044248
   1 O :   -0.604252
   2 C :    0.368267
   3 O :   -0.441808
   4 C :   -0.152522
   5 C :   -0.260756
   6 C :   -0.260777
   7 H :    0.175997
   8 H :    0.176604
   9 H :    0.176653
  10 H :    0.183204
  11 H :    0.163882
  12 H :    0.177927
  13 H :    0.163895
  14 H :    0.177932

  Mayer bond orders larger than 0.100000
B(  0-C ,  1-O ) :   0.8475 B(  0-C ,  7-H ) :   0.9688 B(  0-C ,  8-H ) :   0.9640
B(  0-C ,  9-H ) :   0.9640 B(  1-O ,  2-C ) :   1.0903 B(  2-C ,  3-O ) :   1.8423
B(  2-C ,  4-C ) :   1.0933 B(  4-C ,  5-C ) :   0.8771 B(  4-C ,  6-C ) :   0.8771
B(  4-C , 10-H ) :   0.9023 B(  5-C ,  6-C ) :   0.9961 B(  5-C , 11-H ) :   0.9447
B(  5-C , 12-H ) :   0.9494 B(  6-C , 13-H ) :   0.9447 B(  6-C , 14-H ) :   0.9494

Dispersion correction           -0.003490190
FINAL SINGLE POINT ENERGY      -345.700934682681

DIPOLE MOMENT
-------------

Method             : SCF
Type of density    : Electron Density
Multiplicity       :   1
Irrep              :   0
Energy             :  -345.7061431563647602 Eh
Relativity type    :
Basis              : AO
                                X                 Y                 Z
Electronic contribution:     -1.337877904      -0.280212389      -0.001048391
Nuclear contribution   :      1.420331903       0.974719959      -0.000480810
                        -----------------------------------------
Total Dipole Moment    :      0.082454000       0.694507570      -0.001529201
                        -----------------------------------------
Magnitude (a.u.)       :      0.699386706
Magnitude (Debye)      :      1.777699731

Rotational constants in cm-1:             0.242538             0.054171             0.049825
Rotational constants in MHz :          7271.107138          1623.998071          1493.721726

                             ****ORCA TERMINATED NORMALLY****
TOTAL RUN TIME: 0 days 0 hours 0 minutes 17 seconds 896 msec
