                         Program Version 6.0.0  -   RELEASE  -
|  1> ! r2scan-3c def2/J RI DEFGRID2 scfconv6 printgap
|  2> %output
|  3>     printlevel normal
|  4> end
|  5> %cpcm
|  6>     smd true
|  7>     smdsolvent "water"
|  8> end
|  9> * xyz 0 1
| 10> C -2.6122213128 0.5138506105 -0.0005742775
| 11> O -1.2382907237 0.9089572966 -0.0021488552
| 12> C -0.3234122324 -0.0641606551 -9.29849e-05
| 13> O -0.6143099722 -1.2445757538 0.0028991328
| 14> C 1.0451029647 0.4834386513 -0.0017953414
| 15> C 2.1143433397 -0.2846266419 0.74252627
| 16> C 2.1145122825 -0.2890620793 -0.7410191001
| 17> H -3.1815953233 1.4376858593 -0.0042160175
| 18> H -2.8288953208 -0.077921251 0.8896901458
| 19> H -2.8289613513 -0.0850038432 -0.8860702848
| 20> H 1.0778435008 1.5631078989 -0.0050186355
| 21> H 2.8569290769 0.2932098416 1.2680766806
| 22> H 1.7952322758 -1.182530706 1.2491962171
| 23> H 2.8572201784 0.2856714071 -1.2698854046
| 24> H 1.7954765695 -1.1899534035 -1.2422970699
| 25> *
| 26>
| 27>                          ****END OF INPUT****

CARTESIAN COORDINATES (ANGSTROEM)
---------------------------------
  C     -2.612221    0.513851   -0.000574
  O     -1.238291    0.908957   -0.002149
  C     -0.323412   -0.064161   -0.000093
  O     -0.614310   -1.244576    0.002899
  C      1.045103    0.483439   -0.001795
  C      2.114343   -0.284627    0.742526
  C      2.114512   -0.289062   -0.741019
  H     -3.181595    1.437686   -0.004216
  H     -2.828895   -0.077921    0.889690
  H     -2.828961   -0.085004   -0.886070
  H      1.077844    1.563108   -0.005019
  H      2.856929    0.293210    1.268077
  H      1.795232   -1.182531    1.249196
  H      2.857220    0.285671   -1.269885
  H      1.795477   -1.189953   -1.242297

 Total Charge           Charge          ....    0
 Multiplicity           Mult            ....    1
 Number of Electrons    NEL             ....   54
 Basis Dimension        Dim             ....  183

ORBITAL ENERGIES
----------------

  NO   OCC          E(Eh)            E(eV)
   0   2.0000     -19.004601      -517.1415
   1   2.0000     -18.943317      -515.4739
   2   2.0000     -10.163551      -276.5643
   3   2.0000     -10.076633      -274.1991
   4   2.0000     -10.053732      -273.5760
   5   2.0000     -10.041629      -273.2466
   6   2.0000     -10.041422      -273.2410
   7   2.0000      -1.078559       -29.3491
   8   2.0000      -0.988652       -26.9026
   9   2.0000      -0.839988       -22.8572
  10   2.0000      -0.710384       -19.3305
  11   2.0000      -0.609296       -16.5798
  12   2.0000      -0.574140       -15.6231
  13   2.0000      -0.524769       -14.2797
  14   2.0000      -0.496406       -13.5079
  15   2.0000      -0.463264       -12.6060
  16   2.0000      -0.451152       -12.2765
  17   2.0000      -0.439444       -11.9579
  18   2.0000      -0.407570       -11.0905
  19   2.0000      -0.373203       -10.1554
  20   2.0000      -0.361820        -9.8456
  21   2.0000      -0.333074        -9.0634
  22   2.0000      -0.326954        -8.8969
  23   2.0000      -0.285837        -7.7780
  24   2.0000      -0.281730        -7.6663
  25   2.0000      -0.274883        -7.4799
  26   2.0000      -0.257073        -6.9953
  27   0.0000      -0.027281        -0.7423
  28   0.0000       0.067640         1.8406
  29   0.0000       0.097818         2.6618
  30   0.0000       0.107064         2.9134
  31   0.0000       0.110380         3.0036

MULLIKEN ATOMIC CHARGES
-----------------------
   0 C :   -0.326843
   1 O :   -0.206331
   2 C :    0.425647
   3 O :   -0.532013
   4 C :   -0.124708
   5 C :   -0.374140
   6 C :   -0.374150
   7 H :    0.178778
   8 H :    0.178182
   9 H :    0.178163
  10 H :    0.211117
  11 H :    0.194339
  12 H :    0.188818
  13 H :    0.194335
  14 H :    0.188806
Sum of atomic charges:    0.0000000

LOEWDIN ATOMIC CHARGES
----------------------
   0 C :   -0.041724
   1 O :   -0.608461
   2 C :    0.374373
   3 O :   -0.501065
   4 C :   -0.151972
   5 C :   -0.261848
   6 C :   -0.261879
   7 H :    0.188495
   8 H :    0.182106
   9 H :    0.182120
  10 H :    0.193401
  11 H :    0.174922
  12 H :    0.178302
  13 H :    0.174937
  14 H :    0.178294

  Mayer bond orders larger than 0.100000
B(  0-C ,  1-O ) :   0.8282 B(  0-C ,  7-H ) :   0.9585 B(  0-C ,  8-H ) :   0.9583
B(  0-C ,  9-H ) :   0.9584 B(  1-O ,  2-C ) :   1.1068 B(  2-C ,  3-O ) :   1.7748
B(  2-C ,  4-C ) :   1.0977 B(  4-C ,  5-C ) :   0.8623 B(  4-C ,  6-C ) :   0.8624
B(  4-C , 10-H ) :   0.8980 B(  5-C ,  6-C ) :   0.9776 B(  5-C , 11-H ) :   0.9366
B(  5-C , 12-H ) :   0.9523 B(  6-C , 13-H ) :   0.9366 B(  6-C , 14-H ) :   0.9523

Dispersion correction           -0.003490190
FINAL SINGLE POINT ENERGY      -345.707213391502

DIPOLE MOMENT
-------------

Method             : SCF
Type of density    : Electron Density
Multiplicity       :   1
Irrep              :   0
Energy             :  -345.7124218651863998 Eh
Relativity type    :
Basis              : AO
                                X                 Y                 Z
Electronic contribution:     -1.254072765       0.053194487      -0.001773833
Nuclear contribution   :      1.420331903       0.974719959      -0.000480810
                        -----------------------------------------
Total Dipole Moment    :      0.166259138       1.027914446      -0.002254643
                        -----------------------------------------
Magnitude (a.u.)       :      1.041275800
Magnitude (Debye)      :      2.646712747

Rotational constants in cm-1:             0.242538             0.054171             0.049825
Rotational constants in MHz :          7271.107138          1623.998071          1493.721726

                             ****ORCA TERMINATED NORMALLY****
TOTAL RUN TIME: 0 days 0 hours 0 minutes 21 seconds 145 msec
