                         Program Version 6.0.0  -   RELEASE  -
|  1> ! wb97x-v def2-tzvp def2/J RIJCOSX DEFGRID2 scfconv7 GCP(DFT/TZ) printgap
|  2> %output
|  3>     printlevel normal
|  4> end
|  5> * xyz 0 1
|  6> C -2.9340370444848696 -4.095712832527447e-05 -0.010562149572988705
|  7> C -2.2392452199387574 1.207299682579286 -0.002171937908053012
|  8> C -0.8484759901515748 1.212869520075722 0.01722404069632807
|  9> C -0.15997661741128133 6.525858349453827e-05 0.032148546474437656
| 10> C -0.8483925189145183 -1.2127975618456017 0.017223494236946427
| 11> C -2.239153688919389 -1.2073367333842502 -0.0021770825597403807
| 12> C 1.3371289211590356 3.7673869483469114e-05 0.006582294197327901
| 13> F 1.8682626780925022 1.0893163997877577 0.6134445287378074
| 14> F 1.8682249809977063 -1.088160434540206 0.615460491404507
| 15> F 1.8250635244535578 -0.0011770172852646193 -1.2683825261219315
| 16> H -4.019257648896456 -8.010051716532613e-05 -0.022418278097396934
| 17> H -2.7801091543560514 2.14785547179365 -0.008536172866886677
| 18> H -0.3055678041068054 2.1518434679362892 0.023629573403914136
| 19> H -0.30539889340828147 -2.151728313089167 0.023627732994596008
| 20> H -2.7799502237626683 -2.1479315109158934 -0.008556249225713968
| 21> *
| 22>
| 23>                          ****END OF INPUT****

CARTESIAN COORDINATES (ANGSTROEM)
---------------------------------
  C     -2.934037   -0.000041   -0.010562
  C     -2.239245    1.207300   -0.002172
  C     -0.848476    1.212870    0.017224
  C     -0.159977    0.000065    0.032149
  C     -0.848393   -1.212798    0.017223
  C     -2.239154   -1.207337   -0.002177
  C      1.337129    0.000038    0.006582
  F      1.868263    1.089316    0.613445
  F      1.868225   -1.088160    0.615460
  F      1.825064   -0.001177   -1.268383
  H     -4.019258   -0.000080   -0.022418
  H     -2.780109    2.147855   -0.008536
  H     -0.305568    2.151843    0.023630
  H     -0.305399   -2.151728    0.023628
  H     -2.779950   -2.147932   -0.008556

 Total Charge           Charge          ....    0
 Multiplicity           Mult            ....    1
 Number of Electrons    NEL             ....   74
 Basis Dimension        Dim             ....  340

ORBITAL ENERGIES
----------------

  NO   OCC          E(Eh)            E(eV)
   0   2.0000     -27.595951      -750.9240
   1   2.0000     -27.595846      -750.9211
   2   2.0000     -27.589671      -750.7531
   3   2.0000     -12.301441      -334.7392
   4   2.0000     -12.087548      -328.9189
   5   2.0000     -12.077715      -328.6513
   6   2.0000     -12.077151      -328.6360
   7   2.0000     -12.074556      -328.5654
   8   2.0000     -12.072053      -328.4973
   9   2.0000     -12.071076      -328.4707
  10   2.0000      -2.053932       -55.8903
  11   2.0000      -2.008264       -54.6476
  12   2.0000      -2.001826       -54.4725
  13   2.0000      -1.420836       -38.6629
  14   2.0000      -1.378410       -37.5084
  15   2.0000      -1.301986       -35.4289
  16   2.0000      -1.298332       -35.3294
  17   2.0000      -1.251479       -34.0545
  18   2.0000      -1.245958       -33.9042
  19   2.0000      -1.201785       -32.7022
  20   2.0000      -1.159676       -31.5564
  21   2.0000      -1.158732       -31.5307
  22   2.0000      -1.146857       -31.2076
  23   2.0000      -1.142553       -31.0905
  24   2.0000      -1.139602       -31.0101
  25   2.0000      -1.128369       -30.7045
  26   2.0000      -1.125218       -30.6187
  27   2.0000      -1.016878       -27.6707
  28   2.0000      -0.975510       -26.5450
  29   2.0000      -0.964256       -26.2387
  30   2.0000      -0.914966       -24.8975
  31   2.0000      -0.898614       -24.4525
  32   2.0000      -0.847054       -23.0495
  33   2.0000      -0.832226       -22.6460
  34   2.0000      -0.798029       -21.7155
  35   2.0000      -0.672910       -18.3108
  36   2.0000      -0.660687       -17.9782
  37   0.0000      -0.306439        -8.3386
  38   0.0000      -0.274340        -7.4652
  39   0.0000      -0.257954        -7.0193
  40   0.0000      -0.238419        -6.4877
  41   0.0000      -0.185331        -5.0431

MULLIKEN ATOMIC CHARGES
-----------------------
   0 C :   -0.125788
   1 C :   -0.096501
   2 C :   -0.197034
   3 C :    0.089437
   4 C :   -0.196923
   5 C :   -0.096645
   6 C :    0.442703
   7 F :   -0.166003
   8 F :   -0.166006
   9 F :   -0.165071
  10 H :    0.127702
  11 H :    0.128478
  12 H :    0.146567
  13 H :    0.146611
  14 H :    0.128471
Sum of atomic charges:    0.0000000

LOEWDIN ATOMIC CHARGES
----------------------
   0 C :   -0.122739
   1 C :   -0.128006
   2 C :   -0.088155
   3 C :   -0.132435
   4 C :   -0.088144
   5 C :   -0.128005
   6 C :   -0.591334
   7 F :    0.184059
   8 F :    0.184025
   9 F :    0.167836
  10 H :    0.145157
  11 H :    0.145569
  12 H :    0.153298
  13 H :    0.153302
  14 H :    0.145570

  Mayer bond orders larger than 0.100000
B(  0-C ,  1-C ) :   1.4229 B(  0-C ,  5-C ) :   1.4229 B(  0-C , 10-H ) :   0.9688
B(  1-C ,  2-C ) :   1.4334 B(  1-C , 11-H ) :   0.9711 B(  2-C ,  3-C ) :   1.3899
B(  2-C , 12-H ) :   0.9552 B(  3-C ,  4-C ) :   1.3900 B(  3-C ,  6-C ) :   1.0052
B(  4-C ,  5-C ) :   1.4336 B(  4-C , 13-H ) :   0.9551 B(  5-C , 14-H ) :   0.9711
B(  6-C ,  7-F ) :   1.1564 B(  6-C ,  8-F ) :   1.1564 B(  6-C ,  9-F ) :   1.1643

FINAL SINGLE POINT ENERGY      -569.342814191717

DIPOLE MOMENT
-------------

Method             : SCF
Type of density    : Electron Density
Multiplicity       :   1
Irrep              :   0
Energy             :  -569.3550434336174249 Eh
Relativity type    :
Basis              : AO
                                X                 Y                 Z
Electronic contribution:     13.533972564       0.000110528      -0.016615795
Nuclear contribution   :    -14.714733116      -0.000028395       0.044398746
                        -----------------------------------------
Total Dipole Moment    :     -1.180760552       0.000082133       0.027782951
                        -----------------------------------------
Magnitude (a.u.)       :      1.181087372
Magnitude (Debye)      :      3.002085520

Rotational constants in cm-1:             0.094199             0.031462             0.026977
Rotational constants in MHz :          2824.029659           943.220940           808.745149

                             ****ORCA TERMINATED NORMALLY****
TOTAL RUN TIME: 0 days 0 hours 2 minutes 38 seconds 973 msec
