                         Program Version 6.0.0  -   RELEASE  -
|  1> ! wb97x-v def2-tzvp def2/J RIJCOSX DEFGRID2 scfconv7 GCP(DFT/TZ) printgap
|  2> %output
|  3>     printlevel normal
|  4> end
|  5> %cpcm
|  6>     smd true
|  7>     smdsolvent "water"
|  8> end
|  9> * xyz 0 1
| 10> C -2.9340370444848696 -4.095712832527447e-05 -0.010562149572988705
| 11> C -2.2392452199387574 1.207299682579286 -0.002171937908053012
| 12> C -0.8484759901515748 1.212869520075722 0.01722404069632807
| 13> C -0.15997661741128133 6.525858349453827e-05 0.032148546474437656
| 14> C -0.8483925189145183 -1.2127975618456017 0.017223494236946427
| 15> C -2.239153688919389 -1.2073367333842502 -0.0021770825597403807
| 16> C 1.3371289211590356 3.7673869483469114e-05 0.006582294197327901
| 17> F 1.8682626780925022 1.0893163997877577 0.6134445287378074
| 18> F 1.8682249809977063 -1.088160434540206 0.615460491404507
| 19> F 1.8250635244535578 -0.0011770172852646193 -1.2683825261219315
| 20> H -4.019257648896456 -8.010051716532613e-05 -0.022418278097396934
| 21> H -2.7801091543560514 2.14785547179365 -0.008536172866886677
| 22> H -0.3055678041068054 2.1518434679362892 0.023629573403914136
| 23> H -0.30539889340828147 -2.151728313089167 0.023627732994596008
| 24> H -2.7799502237626683 -2.1479315109158934 -0.008556249225713968
| 25> *
| 26>
| 27>                          ****END OF INPUT****

CARTESIAN COORDINATES (ANGSTROEM)
---------------------------------
  C     -2.934037   -0.000041   -0.010562
  C     -2.239245    1.207300   -0.002172
  C     -0.848476    1.212870    0.017224
  C     -0.159977    0.000065    0.032149
  C     -0.848393   -1.212798    0.017223
  C     -2.239154   -1.207337   -0.002177
  C      1.337129    0.000038    0.006582
  F      1.868263    1.089316    0.613445
  F      1.868225   -1.088160    0.615460
  F      1.825064   -0.001177   -1.268383
  H     -4.019258   -0.000080   -0.022418
  H     -2.780109    2.147855   -0.008536
  H     -0.305568    2.151843    0.023630
  H     -0.305399   -2.151728    0.023628
  H     -2.779950   -2.147932   -0.008556

 Total Charge           Charge          ....    0
 Multiplicity           Mult            ....    1
 Number of Electrons    NEL             ....   74
 Basis Dimension        Dim             ....  340

ORBITAL ENERGIES
----------------

  NO   OCC          E(Eh)            E(eV)
   0   2.0000     -27.601389      -751.0720
   1   2.0000     -27.601286      -751.0692
   2   2.0000     -27.596865      -750.9489
   3   2.0000     -12.304210      -334.8146
   4   2.0000     -12.079277      -328.6938
   5   2.0000     -12.066256      -328.3395
   6   2.0000     -12.065767      -328.3262
   7   2.0000     -12.060772      -328.1903
   8   2.0000     -12.058373      -328.1250
   9   2.0000     -12.057365      -328.0976
  10   2.0000      -2.059936       -56.0537
  11   2.0000      -2.013902       -54.8011
  12   2.0000      -2.008954       -54.6664
  13   2.0000      -1.415627       -38.5212
  14   2.0000      -1.376949       -37.4687
  15   2.0000      -1.294852       -35.2347
  16   2.0000      -1.286978       -35.0205
  17   2.0000      -1.257014       -34.2051
  18   2.0000      -1.253052       -34.0973
  19   2.0000      -1.202668       -32.7263
  20   2.0000      -1.165762       -31.7220
  21   2.0000      -1.165199       -31.7067
  22   2.0000      -1.152532       -31.3620
  23   2.0000      -1.149626       -31.2829
  24   2.0000      -1.146865       -31.2078
  25   2.0000      -1.118054       -30.4238
  26   2.0000      -1.117125       -30.3985
  27   2.0000      -1.009570       -27.4718
  28   2.0000      -0.963980       -26.2312
  29   2.0000      -0.951372       -25.8882
  30   2.0000      -0.900749       -24.5106
  31   2.0000      -0.884585       -24.0708
  32   2.0000      -0.832680       -22.6584
  33   2.0000      -0.817788       -22.2532
  34   2.0000      -0.788806       -21.4645
  35   2.0000      -0.663511       -18.0550
  36   2.0000      -0.649902       -17.6847
  37   0.0000      -0.300755        -8.1840
  38   0.0000      -0.279182        -7.5969
  39   0.0000      -0.247899        -6.7457
  40   0.0000      -0.238228        -6.4825
  41   0.0000      -0.181554        -4.9403

MULLIKEN ATOMIC CHARGES
-----------------------
   0 C :   -0.158429
   1 C :   -0.137210
   2 C :   -0.228344
   3 C :    0.101613
   4 C :   -0.228265
   5 C :   -0.137340
   6 C :    0.459912
   7 F :   -0.175289
   8 F :   -0.175304
   9 F :   -0.180203
  10 H :    0.168052
  11 H :    0.168791
  12 H :    0.176582
  13 H :    0.176650
  14 H :    0.168784
Sum of atomic charges:    0.0000000

LOEWDIN ATOMIC CHARGES
----------------------
   0 C :   -0.123732
   1 C :   -0.131149
   2 C :   -0.092628
   3 C :   -0.143834
   4 C :   -0.092624
   5 C :   -0.131149
   6 C :   -0.588218
   7 F :    0.178280
   8 F :    0.178238
   9 F :    0.158407
  10 H :    0.155326
  11 H :    0.155548
  12 H :    0.160990
  13 H :    0.160998
  14 H :    0.155548

  Mayer bond orders larger than 0.100000
B(  0-C ,  1-C ) :   1.4009 B(  0-C ,  5-C ) :   1.4008 B(  0-C , 10-H ) :   0.9706
B(  1-C ,  2-C ) :   1.4237 B(  1-C , 11-H ) :   0.9730 B(  2-C ,  3-C ) :   1.3492
B(  2-C , 12-H ) :   0.9643 B(  3-C ,  4-C ) :   1.3493 B(  3-C ,  6-C ) :   1.0111
B(  4-C ,  5-C ) :   1.4238 B(  4-C , 13-H ) :   0.9642 B(  5-C , 14-H ) :   0.9731
B(  6-C ,  7-F ) :   1.1523 B(  6-C ,  8-F ) :   1.1522 B(  6-C ,  9-F ) :   1.1525

FINAL SINGLE POINT ENERGY      -569.343435080233

DIPOLE MOMENT
-------------

Method             : SCF
Type of density    : Electron Density
Multiplicity       :   1
Irrep              :   0
Energy             :  -569.3556643221328386 Eh
Relativity type    :
Basis              : AO
                                X                 Y                 Z
Electronic contribution:     13.244848322       0.000138623      -0.014938003
Nuclear contribution   :    -14.714733116      -0.000028395       0.044398746
                        -----------------------------------------
Total Dipole Moment    :     -1.469884794       0.000110228       0.029460743
                        -----------------------------------------
Magnitude (a.u.)       :      1.470180007
Magnitude (Debye)      :      3.736900603

Rotational constants in cm-1:             0.094199             0.031462             0.026977
Rotational constants in MHz :          2824.029659           943.220940           808.745149

                             ****ORCA TERMINATED NORMALLY****
TOTAL RUN TIME: 0 days 0 hours 2 minutes 44 seconds 519 msec
