                         Program Version 6.0.0  -   RELEASE  -
|  1> ! pbe def2-sv(p) def2/J RI DEFGRID1 loosescf d4 GCP(DFT/SV(P)) printgap
|  2> %output
|  3>     printlevel normal
|  4> end
|  5> * xyz 0 1
|  6> C 0.6673078248 -1.1346928642 -0.3682336059
|  7> C -0.6666456975 -1.1351314217 0.3682334655
|  8> O -1.4549139919 -0.0004721236 0.0278378283
|  9> C -0.6809169606 1.1347072825 -0.342397583
| 10> C 0.6802555467 1.1351228257 0.3424087428
| 11> O 1.4549112808 0.0004663407 -0.0278544934
| 12> H 0.4899760643 -1.1455195737 -1.4523721842
| 13> H 1.2571600183 -2.0108374848 -0.0943182931
| 14> H -1.2559733539 -2.0116493649 0.0943821503
| 15> H -0.4892982298 -1.1457896387 1.4523875611
| 16> H -0.545125226 1.1454514855 -1.4325154769
| 17> H -1.2598150772 2.0108999463 -0.0461729405
| 18> H 1.2586838254 2.0116204635 0.0462018818
| 19> H 0.5444265119 1.1458465807 1.4325405239
| 20> *
| 21>
| 22>                          ****END OF INPUT****

CARTESIAN COORDINATES (ANGSTROEM)
---------------------------------
  C      0.667308   -1.134693   -0.368234
  C     -0.666646   -1.135131    0.368233
  O     -1.454914   -0.000472    0.027838
  C     -0.680917    1.134707   -0.342398
  C      0.680256    1.135123    0.342409
  O      1.454911    0.000466   -0.027854
  H      0.489976   -1.145520   -1.452372
  H      1.257160   -2.010837   -0.094318
  H     -1.255973   -2.011649    0.094382
  H     -0.489298   -1.145790    1.452388
  H     -0.545125    1.145451   -1.432515
  H     -1.259815    2.010900   -0.046173
  H      1.258684    2.011620    0.046202
  H      0.544427    1.145847    1.432541

 Total Charge           Charge          ....    0
 Multiplicity           Mult            ....    1
 Number of Electrons    NEL             ....   48
 Basis Dimension        Dim             ....  100

ORBITAL ENERGIES
----------------

  NO   OCC          E(Eh)            E(eV)
   0   2.0000     -18.753658      -510.3130
   1   2.0000     -18.753632      -510.3123
   2   2.0000      -9.935842      -270.3680
   3   2.0000      -9.935840      -270.3679
   4   2.0000      -9.935825      -270.3675
   5   2.0000      -9.935822      -270.3675
   6   2.0000      -0.953926       -25.9576
   7   2.0000      -0.915194       -24.9037
   8   2.0000      -0.703381       -19.1400
   9   2.0000      -0.623841       -16.9756
  10   2.0000      -0.609172       -16.5764
  11   2.0000      -0.488817       -13.3014
  12   2.0000      -0.468920       -12.7600
  13   2.0000      -0.456480       -12.4214
  14   2.0000      -0.448187       -12.1958
  15   2.0000      -0.385107       -10.4793
  16   2.0000      -0.373644       -10.1674
  17   2.0000      -0.354065        -9.6346
  18   2.0000      -0.353371        -9.6157
  19   2.0000      -0.342236        -9.3127
  20   2.0000      -0.314898        -8.5688
  21   2.0000      -0.239486        -6.5168
  22   2.0000      -0.210366        -5.7244
  23   2.0000      -0.197525        -5.3749
  24   0.0000       0.034609         0.9418
  25   0.0000       0.062689         1.7058
  26   0.0000       0.063526         1.7286
  27   0.0000       0.072711         1.9786
  28   0.0000       0.100762         2.7419

MULLIKEN ATOMIC CHARGES
-----------------------
   0 C :   -0.005146
   1 C :   -0.005145
   2 O :   -0.352220
   3 C :   -0.005025
   4 C :   -0.005039
   5 O :   -0.352203
   6 H :    0.083635
   7 H :    0.097592
   8 H :    0.097597
   9 H :    0.083629
  10 H :    0.083544
  11 H :    0.097623
  12 H :    0.097618
  13 H :    0.083540
Sum of atomic charges:    0.0000000

LOEWDIN ATOMIC CHARGES
----------------------
   0 C :   -0.128975
   1 C :   -0.128978
   2 O :   -0.185965
   3 C :   -0.128963
   4 C :   -0.128978
   5 O :   -0.185950
   6 H :    0.103251
   7 H :    0.118709
   8 H :    0.118710
   9 H :    0.103245
  10 H :    0.103242
  11 H :    0.118709
  12 H :    0.118708
  13 H :    0.103234

  Mayer bond orders larger than 0.100000
B(  0-C ,  1-C ) :   1.1318 B(  0-C ,  5-O ) :   1.0213 B(  0-C ,  6-H ) :   0.9111
B(  0-C ,  7-H ) :   0.9213 B(  1-C ,  2-O ) :   1.0214 B(  1-C ,  8-H ) :   0.9213
B(  1-C ,  9-H ) :   0.9111 B(  2-O ,  3-C ) :   1.0214 B(  3-C ,  4-C ) :   1.1319
B(  3-C , 10-H ) :   0.9111 B(  3-C , 11-H ) :   0.9213 B(  4-C ,  5-O ) :   1.0214
B(  4-C , 12-H ) :   0.9213 B(  4-C , 13-H ) :   0.9111

Dispersion correction           -0.010475840
FINAL SINGLE POINT ENERGY      -306.966681043713

DIPOLE MOMENT
-------------

Method             : SCF
Type of density    : Electron Density
Multiplicity       :   1
Irrep              :   0
Energy             :  -307.0290531459518775 Eh
Relativity type    :
Basis              : AO
                                X                 Y                 Z
Electronic contribution:     -0.000017476      -0.000172095      -0.000134528
Nuclear contribution   :      0.000032358       0.000020942       0.000124738
                        -----------------------------------------
Total Dipole Moment    :      0.000014881      -0.000151153      -0.000009790
                        -----------------------------------------
Magnitude (a.u.)       :      0.000152199
Magnitude (Debye)      :      0.000386859

Rotational constants in cm-1:             0.172080             0.151166             0.093383
Rotational constants in MHz :          5158.817581          4531.831325          2799.549046

                             ****ORCA TERMINATED NORMALLY****
TOTAL RUN TIME: 0 days 0 hours 0 minutes 5 seconds 59 msec
