                         Program Version 6.0.0  -   RELEASE  -
|  1> ! pbe def2-sv(p) def2/J RI DEFGRID1 loosescf d4 GCP(DFT/SV(P)) printgap
|  2> %output
|  3>     printlevel normal
|  4> end
|  5> * xyz 0 1
|  6> C -1.6860792102 -1.3329269704 -0.5919471233
|  7> C -1.1479401899 -0.4836371884 0.568913707
|  8> H -1.912138749 -0.4399722956 1.3519420446
|  9> C -0.8619288381 0.970718078 0.146026635
| 10> H -1.1904178414 1.1194105323 -0.8926003643
| 11> C 0.641806149 1.2660360264 0.2145008538
| 12> H 0.9359316703 1.3686459592 1.2710883288
| 13> C 1.4195652048 0.0952001632 -0.3914429401
| 14> H 1.0586590303 -0.0837483734 -1.4138420918
| 15> C 1.1606595962 -1.1632533802 0.4564971738
| 16> H 1.9461673474 -1.232468844 1.2255046938
| 17> O -0.0330281284 -1.0972523048 1.1982793365
| 18> O 1.1988766513 -2.2681468129 -0.3952806502
| 19> O 2.7804372633 0.4446056142 -0.4030305073
| 20> O 0.8829095499 2.4627553352 -0.4797529411
| 21> O -1.5843838815 1.8224429315 0.9999885493
| 22> O -2.8655990783 -0.7330122381 -1.0706101849
| 23> H -1.8828136263 -2.3408102978 -0.2071426039
| 24> H -0.9303613066 -1.3973488364 -1.3851888229
| 25> H 1.1485357967 -3.0892856628 0.1174648646
| 26> H 3.2873363443 -0.2191898789 -0.891772465
| 27> H 1.8423040236 2.5727449596 -0.5684807029
| 28> H -1.4181199161 2.7392954304 0.7344406128
| 29> H -3.2570938293 -1.2995008999 -1.7509735565
| 30> *
| 31>
| 32>                          ****END OF INPUT****

CARTESIAN COORDINATES (ANGSTROEM)
---------------------------------
  C     -1.686079   -1.332927   -0.591947
  C     -1.147940   -0.483637    0.568914
  H     -1.912139   -0.439972    1.351942
  C     -0.861929    0.970718    0.146027
  H     -1.190418    1.119411   -0.892600
  C      0.641806    1.266036    0.214501
  H      0.935932    1.368646    1.271088
  C      1.419565    0.095200   -0.391443
  H      1.058659   -0.083748   -1.413842
  C      1.160660   -1.163253    0.456497
  H      1.946167   -1.232469    1.225505
  O     -0.033028   -1.097252    1.198279
  O      1.198877   -2.268147   -0.395281
  O      2.780437    0.444606   -0.403031
  O      0.882910    2.462755   -0.479753
  O     -1.584384    1.822443    0.999989
  O     -2.865599   -0.733012   -1.070610
  H     -1.882814   -2.340810   -0.207143
  H     -0.930361   -1.397349   -1.385189
  H      1.148536   -3.089286    0.117465
  H      3.287336   -0.219190   -0.891772
  H      1.842304    2.572745   -0.568481
  H     -1.418120    2.739295    0.734441
  H     -3.257094   -1.299501   -1.750974

 Total Charge           Charge          ....    0
 Multiplicity           Mult            ....    1
 Number of Electrons    NEL             ....   96
 Basis Dimension        Dim             ....  192

ORBITAL ENERGIES
----------------

  NO   OCC          E(Eh)            E(eV)
   0   2.0000     -18.767887      -510.7002
   1   2.0000     -18.765603      -510.6380
   2   2.0000     -18.765543      -510.6364
   3   2.0000     -18.748221      -510.1650
   4   2.0000     -18.746105      -510.1075
   5   2.0000     -18.735751      -509.8257
   6   2.0000      -9.985087      -271.7080
   7   2.0000      -9.943181      -270.5677
   8   2.0000      -9.936578      -270.3880
   9   2.0000      -9.933821      -270.3130
  10   2.0000      -9.930300      -270.2172
  11   2.0000      -9.927664      -270.1455
  12   2.0000      -0.980102       -26.6699
  13   2.0000      -0.945459       -25.7272
  14   2.0000      -0.929226       -25.2855
  15   2.0000      -0.922139       -25.0927
  16   2.0000      -0.913126       -24.8474
  17   2.0000      -0.905873       -24.6500
  18   2.0000      -0.699217       -19.0267
  19   2.0000      -0.690070       -18.7778
  20   2.0000      -0.617314       -16.7980
  21   2.0000      -0.577935       -15.7264
  22   2.0000      -0.562725       -15.3125
  23   2.0000      -0.522372       -14.2145
  24   2.0000      -0.501153       -13.6371
  25   2.0000      -0.476197       -12.9580
  26   2.0000      -0.467848       -12.7308
  27   2.0000      -0.453568       -12.3422
  28   2.0000      -0.448429       -12.2024
  29   2.0000      -0.431988       -11.7550
  30   2.0000      -0.410214       -11.1625
  31   2.0000      -0.395234       -10.7549
  32   2.0000      -0.380113       -10.3434
  33   2.0000      -0.376306       -10.2398
  34   2.0000      -0.361753        -9.8438
  35   2.0000      -0.337163        -9.1747
  36   2.0000      -0.329029        -8.9533
  37   2.0000      -0.312948        -8.5157
  38   2.0000      -0.300011        -8.1637
  39   2.0000      -0.286449        -7.7947
  40   2.0000      -0.281013        -7.6467
  41   2.0000      -0.264677        -7.2022
  42   2.0000      -0.252703        -6.8764
  43   2.0000      -0.234235        -6.3738
  44   2.0000      -0.224583        -6.1112
  45   2.0000      -0.216786        -5.8990
  46   2.0000      -0.212278        -5.7764
  47   2.0000      -0.205367        -5.5883
  48   0.0000       0.016720         0.4550
  49   0.0000       0.024973         0.6795
  50   0.0000       0.025998         0.7074
  51   0.0000       0.049789         1.3548
  52   0.0000       0.062311         1.6956

MULLIKEN ATOMIC CHARGES
-----------------------
   0 C :   -0.005543
   1 C :    0.044380
   2 H :    0.088682
   3 C :    0.080358
   4 H :    0.071410
   5 C :    0.061963
   6 H :    0.059298
   7 C :   -0.018410
   8 H :    0.068962
   9 C :    0.199132
  10 H :    0.060615
  11 O :   -0.306409
  12 O :   -0.396937
  13 O :   -0.420122
  14 O :   -0.427446
  15 O :   -0.416219
  16 O :   -0.427369
  17 H :    0.068202
  18 H :    0.087994
  19 H :    0.302663
  20 H :    0.310626
  21 H :    0.306524
  22 H :    0.303770
  23 H :    0.303876
Sum of atomic charges:    0.0000000

LOEWDIN ATOMIC CHARGES
----------------------
   0 C :   -0.143882
   1 C :   -0.051577
   2 H :    0.129083
   3 C :   -0.061355
   4 H :    0.109224
   5 C :   -0.074127
   6 H :    0.107240
   7 C :   -0.090838
   8 H :    0.107501
   9 C :   -0.012566
  10 H :    0.099501
  11 O :   -0.140013
  12 O :   -0.313032
  13 O :   -0.317793
  14 O :   -0.325111
  15 O :   -0.317268
  16 O :   -0.338288
  17 H :    0.096696
  18 H :    0.095814
  19 H :    0.285765
  20 H :    0.293473
  21 H :    0.285482
  22 H :    0.287266
  23 H :    0.288805

  Mayer bond orders larger than 0.100000
B(  0-C ,  1-C ) :   1.0549 B(  0-C , 16-O ) :   1.0748 B(  0-C , 17-H ) :   0.9108
B(  0-C , 18-H ) :   0.9030 B(  1-C ,  2-H ) :   0.8816 B(  1-C ,  3-C ) :   0.9936
B(  1-C , 11-O ) :   1.0238 B(  3-C ,  4-H ) :   0.8834 B(  3-C ,  5-C ) :   1.0374
B(  3-C , 15-O ) :   1.0745 B(  5-C ,  6-H ) :   0.8623 B(  5-C ,  7-C ) :   1.0137
B(  5-C , 14-O ) :   1.0829 B(  7-C ,  8-H ) :   0.8804 B(  7-C ,  9-C ) :   0.9852
B(  7-C , 13-O ) :   1.0661 B(  9-C , 10-H ) :   0.8873 B(  9-C , 11-O ) :   1.0652
B(  9-C , 12-O ) :   1.1158 B( 12-O , 19-H ) :   0.8402 B( 13-O , 20-H ) :   0.8438
B( 14-O , 21-H ) :   0.8329 B( 15-O , 22-H ) :   0.8443 B( 16-O , 23-H ) :   0.8500

Dispersion correction           -0.024497239
FINAL SINGLE POINT ENERGY      -685.693140531740

DIPOLE MOMENT
-------------

Method             : SCF
Type of density    : Electron Density
Multiplicity       :   1
Irrep              :   0
Energy             :  -685.8227216733033629 Eh
Relativity type    :
Basis              : AO
                                X                 Y                 Z
Electronic contribution:      1.105791356       1.102382956       1.534973607
Nuclear contribution   :     -0.343391818      -2.150527950      -2.262805443
                        -----------------------------------------
Total Dipole Moment    :      0.762399538      -1.048144994      -0.727831835
                        -----------------------------------------
Magnitude (a.u.)       :      1.486472389
Magnitude (Debye)      :      3.778312546

Rotational constants in cm-1:             0.036505             0.029288             0.019764
Rotational constants in MHz :          1094.377588           878.042651           592.518199

                             ****ORCA TERMINATED NORMALLY****
TOTAL RUN TIME: 0 days 0 hours 0 minutes 12 seconds 176 msec
