                         Program Version 6.0.0  -   RELEASE  -
|  1> ! wb97x-v def2-tzvp def2/J RIJCOSX DEFGRID2 scfconv7 GCP(DFT/TZ) printgap
|  2> %output
|  3>     printlevel normal
|  4> end
|  5> * xyz 0 1
|  6> C -1.5860142727299904 -0.11724086087321983 0.51535443362459
|  7> C -0.6516631540132305 0.5060389121506225 -0.5187365069437763
|  8> C 0.6709750871400525 -0.22223538434579476 -0.6516058567129438
|  9> O 1.3803553834808229 -0.1397775804520329 0.6037559530431393
| 10> H -1.1568142121874712 -0.07407397116669319 1.5207563160074187
| 11> H -2.546358301415902 0.4070152757306019 0.5415021800998042
| 12> H -1.7831600564997212 -1.1688436589347466 0.27790586968683983
| 13> H -0.4580795744959383 1.557578040056475 -0.2713651426780859
| 14> H -1.1290834376995946 0.49649547124428434 -1.50595944049015
| 15> H 0.49592838047641963 -1.2765090196657667 -0.9121058395366007
| 16> H 1.2740836607067274 0.23221422639892633 -1.4499289012753378
| 17> H 2.2011404242762773 -0.6374211603127996 0.5032694016259998
| 18> *
| 19>
| 20>                          ****END OF INPUT****

CARTESIAN COORDINATES (ANGSTROEM)
---------------------------------
  C     -1.586014   -0.117241    0.515354
  C     -0.651663    0.506039   -0.518737
  C      0.670975   -0.222235   -0.651606
  O      1.380355   -0.139778    0.603756
  H     -1.156814   -0.074074    1.520756
  H     -2.546358    0.407015    0.541502
  H     -1.783160   -1.168844    0.277906
  H     -0.458080    1.557578   -0.271365
  H     -1.129083    0.496495   -1.505959
  H      0.495928   -1.276509   -0.912106
  H      1.274084    0.232214   -1.449929
  H      2.201140   -0.637421    0.503269

 Total Charge           Charge          ....    0
 Multiplicity           Mult            ....    1
 Number of Electrons    NEL             ....   34
 Basis Dimension        Dim             ....  172

ORBITAL ENERGIES
----------------

  NO   OCC          E(Eh)            E(eV)
   0   2.0000     -21.667352      -589.5986
   1   2.0000     -12.090018      -328.9861
   2   2.0000     -12.040859      -327.6484
   3   2.0000     -12.028236      -327.3049
   4   2.0000      -1.664890       -45.3040
   5   2.0000      -1.290033       -35.1036
   6   2.0000      -1.184325       -32.2271
   7   2.0000      -1.078182       -29.3388
   8   2.0000      -1.027874       -27.9699
   9   2.0000      -0.937743       -25.5173
  10   2.0000      -0.929493       -25.2928
  11   2.0000      -0.859501       -23.3882
  12   2.0000      -0.852448       -23.1963
  13   2.0000      -0.823601       -22.4113
  14   2.0000      -0.779960       -21.2238
  15   2.0000      -0.773573       -21.0500
  16   2.0000      -0.756019       -20.5723
  17   0.0000      -0.138614        -3.7719
  18   0.0000      -0.039671        -1.0795
  19   0.0000      -0.005553        -0.1511
  20   0.0000      -0.000646        -0.0176
  21   0.0000       0.013510         0.3676

MULLIKEN ATOMIC CHARGES
-----------------------
   0 C :   -0.337374
   1 C :   -0.137792
   2 C :   -0.045774
   3 O :   -0.454924
   4 H :    0.126022
   5 H :    0.109834
   6 H :    0.093740
   7 H :    0.092454
   8 H :    0.086670
   9 H :    0.081417
  10 H :    0.087840
  11 H :    0.297886
Sum of atomic charges:    0.0000000

LOEWDIN ATOMIC CHARGES
----------------------
   0 C :   -0.307204
   1 C :   -0.297959
   2 C :   -0.337781
   3 O :   -0.065359
   4 H :    0.121009
   5 H :    0.114958
   6 H :    0.114789
   7 H :    0.134653
   8 H :    0.134510
   9 H :    0.111624
  10 H :    0.111462
  11 H :    0.165297

  Mayer bond orders larger than 0.100000
B(  0-C ,  1-C ) :   0.9885 B(  0-C ,  4-H ) :   0.9779 B(  0-C ,  5-H ) :   0.9813
B(  0-C ,  6-H ) :   0.9769 B(  1-C ,  2-C ) :   1.0017 B(  1-C ,  7-H ) :   0.9716
B(  1-C ,  8-H ) :   0.9689 B(  2-C ,  3-O ) :   1.0492 B(  2-C ,  9-H ) :   0.9675
B(  2-C , 10-H ) :   0.9722 B(  3-O , 11-H ) :   0.9083

FINAL SINGLE POINT ENERGY      -194.360807258792

DIPOLE MOMENT
-------------

Method             : SCF
Type of density    : Electron Density
Multiplicity       :   1
Irrep              :   0
Energy             :  -194.3690524257916650 Eh
Relativity type    :
Basis              : AO
                                X                 Y                 Z
Electronic contribution:      3.105027944       0.058989714       0.746593097
Nuclear contribution   :     -2.907584959      -0.348986773      -1.267711319
                        -----------------------------------------
Total Dipole Moment    :      0.197442985      -0.289997059      -0.521118222
                        -----------------------------------------
Magnitude (a.u.)       :      0.628208745
Magnitude (Debye)      :      1.596779732

Rotational constants in cm-1:             0.478598             0.168728             0.142598
Rotational constants in MHz :         14348.019925          5058.333309          4274.995312

                             ****ORCA TERMINATED NORMALLY****
TOTAL RUN TIME: 0 days 0 hours 0 minutes 40 seconds 58 msec
