                         Program Version 6.0.0  -   RELEASE  -
|  1> ! wb97x-v def2-tzvp def2/J RIJCOSX DEFGRID2 scfconv7 GCP(DFT/TZ) printgap
|  2> %output
|  3>     printlevel normal
|  4> end
|  5> %cpcm
|  6>     smd true
|  7>     smdsolvent "water"
|  8> end
|  9> * xyz 0 1
| 10> C -1.5860142727299904 -0.11724086087321983 0.51535443362459
| 11> C -0.6516631540132305 0.5060389121506225 -0.5187365069437763
| 12> C 0.6709750871400525 -0.22223538434579476 -0.6516058567129438
| 13> O 1.3803553834808229 -0.1397775804520329 0.6037559530431393
| 14> H -1.1568142121874712 -0.07407397116669319 1.5207563160074187
| 15> H -2.546358301415902 0.4070152757306019 0.5415021800998042
| 16> H -1.7831600564997212 -1.1688436589347466 0.27790586968683983
| 17> H -0.4580795744959383 1.557578040056475 -0.2713651426780859
| 18> H -1.1290834376995946 0.49649547124428434 -1.50595944049015
| 19> H 0.49592838047641963 -1.2765090196657667 -0.9121058395366007
| 20> H 1.2740836607067274 0.23221422639892633 -1.4499289012753378
| 21> H 2.2011404242762773 -0.6374211603127996 0.5032694016259998
| 22> *
| 23>
| 24>                          ****END OF INPUT****

CARTESIAN COORDINATES (ANGSTROEM)
---------------------------------
  C     -1.586014   -0.117241    0.515354
  C     -0.651663    0.506039   -0.518737
  C      0.670975   -0.222235   -0.651606
  O      1.380355   -0.139778    0.603756
  H     -1.156814   -0.074074    1.520756
  H     -2.546358    0.407015    0.541502
  H     -1.783160   -1.168844    0.277906
  H     -0.458080    1.557578   -0.271365
  H     -1.129083    0.496495   -1.505959
  H      0.495928   -1.276509   -0.912106
  H      1.274084    0.232214   -1.449929
  H      2.201140   -0.637421    0.503269

 Total Charge           Charge          ....    0
 Multiplicity           Mult            ....    1
 Number of Electrons    NEL             ....   34
 Basis Dimension        Dim             ....  172

ORBITAL ENERGIES
----------------

  NO   OCC          E(Eh)            E(eV)
   0   2.0000     -21.669985      -589.6703
   1   2.0000     -12.082547      -328.7828
   2   2.0000     -12.034682      -327.4804
   3   2.0000     -12.025348      -327.2264
   4   2.0000      -1.667708       -45.3806
   5   2.0000      -1.285565       -34.9820
   6   2.0000      -1.181370       -32.1467
   7   2.0000      -1.075893       -29.2765
   8   2.0000      -1.028297       -27.9814
   9   2.0000      -0.939258       -25.5585
  10   2.0000      -0.931869       -25.3574
  11   2.0000      -0.856212       -23.2987
  12   2.0000      -0.849619       -23.1193
  13   2.0000      -0.819686       -22.3048
  14   2.0000      -0.775334       -21.0979
  15   2.0000      -0.770134       -20.9564
  16   2.0000      -0.751088       -20.4381
  17   0.0000      -0.133311        -3.6276
  18   0.0000      -0.019529        -0.5314
  19   0.0000       0.001266         0.0344
  20   0.0000       0.008763         0.2384
  21   0.0000       0.021968         0.5978

MULLIKEN ATOMIC CHARGES
-----------------------
   0 C :   -0.387377
   1 C :   -0.151466
   2 C :   -0.055696
   3 O :   -0.563252
   4 H :    0.117895
   5 H :    0.129360
   6 H :    0.117871
   7 H :    0.101504
   8 H :    0.108987
   9 H :    0.109166
  10 H :    0.113049
  11 H :    0.359958
Sum of atomic charges:    0.0000000

LOEWDIN ATOMIC CHARGES
----------------------
   0 C :   -0.316433
   1 C :   -0.301813
   2 C :   -0.331433
   3 O :   -0.105639
   4 H :    0.115576
   5 H :    0.118920
   6 H :    0.119227
   7 H :    0.134420
   8 H :    0.141140
   9 H :    0.120009
  10 H :    0.119178
  11 H :    0.186847

  Mayer bond orders larger than 0.100000
B(  0-C ,  1-C ) :   0.9752 B(  0-C ,  4-H ) :   0.9785 B(  0-C ,  5-H ) :   0.9786
B(  0-C ,  6-H ) :   0.9748 B(  1-C ,  2-C ) :   0.9922 B(  1-C ,  7-H ) :   0.9712
B(  1-C ,  8-H ) :   0.9664 B(  2-C ,  3-O ) :   0.9993 B(  2-C ,  9-H ) :   0.9750
B(  2-C , 10-H ) :   0.9776 B(  3-O , 11-H ) :   0.8710

FINAL SINGLE POINT ENERGY      -194.367872577196

DIPOLE MOMENT
-------------

Method             : SCF
Type of density    : Electron Density
Multiplicity       :   1
Irrep              :   0
Energy             :  -194.3761177441956249 Eh
Relativity type    :
Basis              : AO
                                X                 Y                 Z
Electronic contribution:      3.142682580      -0.056727940       0.488382916
Nuclear contribution   :     -2.907584959      -0.348986773      -1.267711319
                        -----------------------------------------
Total Dipole Moment    :      0.235097621      -0.405714713      -0.779328403
                        -----------------------------------------
Magnitude (a.u.)       :      0.909520797
Magnitude (Debye)      :      2.311818142

Rotational constants in cm-1:             0.478598             0.168728             0.142598
Rotational constants in MHz :         14348.019925          5058.333309          4274.995312

                             ****ORCA TERMINATED NORMALLY****
TOTAL RUN TIME: 0 days 0 hours 0 minutes 47 seconds 491 msec
