                         Program Version 6.0.0  -   RELEASE  -
|  1> ! r2scan-3c def2/J RI DEFGRID2 scfconv6 printgap
|  2> %output
|  3>     printlevel normal
|  4> end
|  5> * xyz 0 1
|  6> C -2.7603818232 -0.8947059288 -0.0299924728
|  7> N -1.8804226063 0.2435482566 0.0250597814
|  8> C -0.5203629327 0.1685582071 0.0122104431
|  9> C 0.1613980311 -1.0522500749 -0.0555469146
| 10> C 1.5421381637 -1.0833485263 -0.0659292858
| 11> C 2.2812366899 0.086230693 -0.0098715043
| 12> C 1.6158389821 1.3011469022 0.057477606
| 13> C 0.2385122628 1.3460380834 0.0685553195
| 14> H -3.7885968402 -0.5462031977 -0.0056441043
| 15> H -2.5971963687 -1.5605262461 0.8228025961
| 16> H -2.6074717232 -1.4671298239 -0.9498851165
| 17> H -2.2901777607 1.159057147 0.0740045988
| 18> H -0.390059884 -1.9777334433 -0.1001204036
| 19> H 2.0488051785 -2.0367878994 -0.1187411526
| 20> H 3.3603084101 0.0534983863 -0.0184598319
| 21> H 2.1794748703 2.2223591303 0.1017622225
| 22> H -0.2708546461 2.2981945919 0.1212689187
| 23> *
| 24>
| 25>                          ****END OF INPUT****

CARTESIAN COORDINATES (ANGSTROEM)
---------------------------------
  C     -2.760382   -0.894706   -0.029992
  N     -1.880423    0.243548    0.025060
  C     -0.520363    0.168558    0.012210
  C      0.161398   -1.052250   -0.055547
  C      1.542138   -1.083349   -0.065929
  C      2.281237    0.086231   -0.009872
  C      1.615839    1.301147    0.057478
  C      0.238512    1.346038    0.068555
  H     -3.788597   -0.546203   -0.005644
  H     -2.597196   -1.560526    0.822803
  H     -2.607472   -1.467130   -0.949885
  H     -2.290178    1.159057    0.074005
  H     -0.390060   -1.977733   -0.100120
  H      2.048805   -2.036788   -0.118741
  H      3.360308    0.053498   -0.018460
  H      2.179475    2.222359    0.101762
  H     -0.270855    2.298195    0.121269

 Total Charge           Charge          ....    0
 Multiplicity           Mult            ....    1
 Number of Electrons    NEL             ....   58
 Basis Dimension        Dim             ....  202

ORBITAL ENERGIES
----------------

  NO   OCC          E(Eh)            E(eV)
   0   2.0000     -14.173402      -385.6779
   1   2.0000     -10.068606      -273.9807
   2   2.0000     -10.066310      -273.9182
   3   2.0000     -10.024136      -272.7706
   4   2.0000     -10.023728      -272.7595
   5   2.0000     -10.020324      -272.6669
   6   2.0000     -10.018420      -272.6151
   7   2.0000     -10.011771      -272.4341
   8   2.0000      -0.906874       -24.6773
   9   2.0000      -0.804323       -21.8867
  10   2.0000      -0.712060       -19.3761
  11   2.0000      -0.704609       -19.1734
  12   2.0000      -0.649311       -17.6687
  13   2.0000      -0.575961       -15.6727
  14   2.0000      -0.552605       -15.0371
  15   2.0000      -0.500980       -13.6323
  16   2.0000      -0.464289       -12.6339
  17   2.0000      -0.436635       -11.8814
  18   2.0000      -0.414876       -11.2894
  19   2.0000      -0.403600       -10.9825
  20   2.0000      -0.388576       -10.5737
  21   2.0000      -0.380446       -10.3525
  22   2.0000      -0.362609        -9.8671
  23   2.0000      -0.341949        -9.3049
  24   2.0000      -0.318139        -8.6570
  25   2.0000      -0.299761        -8.1569
  26   2.0000      -0.270382        -7.3575
  27   2.0000      -0.226724        -6.1695
  28   2.0000      -0.170775        -4.6470
  29   0.0000      -0.021076        -0.5735
  30   0.0000      -0.000479        -0.0130
  31   0.0000       0.069565         1.8930
  32   0.0000       0.092269         2.5108
  33   0.0000       0.101371         2.7584

MULLIKEN ATOMIC CHARGES
-----------------------
   0 C :   -0.425813
   1 N :   -0.132752
   2 C :    0.329971
   3 C :   -0.306795
   4 C :   -0.145037
   5 C :   -0.208673
   6 C :   -0.125121
   7 C :   -0.383780
   8 H :    0.145060
   9 H :    0.154925
  10 H :    0.154891
  11 H :    0.235230
  12 H :    0.142613
  13 H :    0.142886
  14 H :    0.144746
  15 H :    0.144700
  16 H :    0.132949
Sum of atomic charges:    0.0000000

LOEWDIN ATOMIC CHARGES
----------------------
   0 C :   -0.130090
   1 N :   -0.747742
   2 C :    0.141652
   3 C :   -0.178670
   4 C :   -0.154491
   5 C :   -0.211769
   6 C :   -0.157265
   7 C :   -0.165572
   8 H :    0.177551
   9 H :    0.166688
  10 H :    0.166652
  11 H :    0.260263
  12 H :    0.170878
  13 H :    0.165787
  14 H :    0.164207
  15 H :    0.166015
  16 H :    0.165906

  Mayer bond orders larger than 0.100000
B(  0-C ,  1-N ) :   0.8726 B(  0-C ,  8-H ) :   0.9708 B(  0-C ,  9-H ) :   0.9573
B(  0-C , 10-H ) :   0.9571 B(  1-N ,  2-C ) :   1.1702 B(  1-N , 11-H ) :   0.9267
B(  2-C ,  3-C ) :   1.3182 B(  2-C ,  7-C ) :   1.3058 B(  3-C ,  4-C ) :   1.4097
B(  3-C , 12-H ) :   0.9457 B(  4-C ,  5-C ) :   1.4332 B(  4-C , 13-H ) :   0.9509
B(  5-C ,  6-C ) :   1.4046 B(  5-C , 14-H ) :   0.9498 B(  6-C ,  7-C ) :   1.4546
B(  6-C , 15-H ) :   0.9422 B(  7-C , 16-H ) :   0.9429

Dispersion correction           -0.005290477
FINAL SINGLE POINT ENERGY      -326.813731274619

DIPOLE MOMENT
-------------

Method             : SCF
Type of density    : Electron Density
Multiplicity       :   1
Irrep              :   0
Energy             :  -326.8173597706908708 Eh
Relativity type    :
Basis              : AO
                                X                 Y                 Z
Electronic contribution:      3.208222675       1.805581861       0.076368691
Nuclear contribution   :     -4.096755540      -1.739221828      -0.068360414
                        -----------------------------------------
Total Dipole Moment    :     -0.888532865       0.066360033       0.008008277
                        -----------------------------------------
Magnitude (a.u.)       :      0.891043455
Magnitude (Debye)      :      2.264852472

Rotational constants in cm-1:             0.168899             0.051010             0.039469
Rotational constants in MHz :          5063.467814          1529.249453          1183.259288

                             ****ORCA TERMINATED NORMALLY****
TOTAL RUN TIME: 0 days 0 hours 0 minutes 23 seconds 630 msec
