                         Program Version 6.0.0  -   RELEASE  -
|  1> ! r2scan-3c def2/J RI DEFGRID2 scfconv6 printgap
|  2> %output
|  3>     printlevel normal
|  4> end
|  5> %cpcm
|  6>     smd true
|  7>     smdsolvent "water"
|  8> end
|  9> * xyz 0 1
| 10> C -2.7603818232 -0.8947059288 -0.0299924728
| 11> N -1.8804226063 0.2435482566 0.0250597814
| 12> C -0.5203629327 0.1685582071 0.0122104431
| 13> C 0.1613980311 -1.0522500749 -0.0555469146
| 14> C 1.5421381637 -1.0833485263 -0.0659292858
| 15> C 2.2812366899 0.086230693 -0.0098715043
| 16> C 1.6158389821 1.3011469022 0.057477606
| 17> C 0.2385122628 1.3460380834 0.0685553195
| 18> H -3.7885968402 -0.5462031977 -0.0056441043
| 19> H -2.5971963687 -1.5605262461 0.8228025961
| 20> H -2.6074717232 -1.4671298239 -0.9498851165
| 21> H -2.2901777607 1.159057147 0.0740045988
| 22> H -0.390059884 -1.9777334433 -0.1001204036
| 23> H 2.0488051785 -2.0367878994 -0.1187411526
| 24> H 3.3603084101 0.0534983863 -0.0184598319
| 25> H 2.1794748703 2.2223591303 0.1017622225
| 26> H -0.2708546461 2.2981945919 0.1212689187
| 27> *
| 28>
| 29>                          ****END OF INPUT****

CARTESIAN COORDINATES (ANGSTROEM)
---------------------------------
  C     -2.760382   -0.894706   -0.029992
  N     -1.880423    0.243548    0.025060
  C     -0.520363    0.168558    0.012210
  C      0.161398   -1.052250   -0.055547
  C      1.542138   -1.083349   -0.065929
  C      2.281237    0.086231   -0.009872
  C      1.615839    1.301147    0.057478
  C      0.238512    1.346038    0.068555
  H     -3.788597   -0.546203   -0.005644
  H     -2.597196   -1.560526    0.822803
  H     -2.607472   -1.467130   -0.949885
  H     -2.290178    1.159057    0.074005
  H     -0.390060   -1.977733   -0.100120
  H      2.048805   -2.036788   -0.118741
  H      3.360308    0.053498   -0.018460
  H      2.179475    2.222359    0.101762
  H     -0.270855    2.298195    0.121269

 Total Charge           Charge          ....    0
 Multiplicity           Mult            ....    1
 Number of Electrons    NEL             ....   58
 Basis Dimension        Dim             ....  202

ORBITAL ENERGIES
----------------

  NO   OCC          E(Eh)            E(eV)
   0   2.0000     -14.165979      -385.4759
   1   2.0000     -10.070933      -274.0440
   2   2.0000     -10.049580      -273.4630
   3   2.0000     -10.027847      -272.8716
   4   2.0000     -10.027829      -272.8711
   5   2.0000     -10.022132      -272.7161
   6   2.0000     -10.020418      -272.6694
   7   2.0000     -10.015253      -272.5289
   8   2.0000      -0.900956       -24.5163
   9   2.0000      -0.808371       -21.9969
  10   2.0000      -0.712756       -19.3951
  11   2.0000      -0.706140       -19.2150
  12   2.0000      -0.641858       -17.4659
  13   2.0000      -0.575927       -15.6718
  14   2.0000      -0.551576       -15.0091
  15   2.0000      -0.498233       -13.5576
  16   2.0000      -0.459520       -12.5042
  17   2.0000      -0.433564       -11.7979
  18   2.0000      -0.404470       -11.0062
  19   2.0000      -0.401747       -10.9321
  20   2.0000      -0.387053       -10.5322
  21   2.0000      -0.380785       -10.3617
  22   2.0000      -0.348205        -9.4751
  23   2.0000      -0.346482        -9.4283
  24   2.0000      -0.319522        -8.6946
  25   2.0000      -0.299785        -8.1576
  26   2.0000      -0.272756        -7.4221
  27   2.0000      -0.235178        -6.3995
  28   2.0000      -0.172044        -4.6815
  29   0.0000      -0.028130        -0.7655
  30   0.0000      -0.006476        -0.1762
  31   0.0000       0.085375         2.3232
  32   0.0000       0.100780         2.7424
  33   0.0000       0.112778         3.0688

MULLIKEN ATOMIC CHARGES
-----------------------
   0 C :   -0.439044
   1 N :   -0.170153
   2 C :    0.284739
   3 C :   -0.331570
   4 C :   -0.189214
   5 C :   -0.262538
   6 C :   -0.156789
   7 C :   -0.409239
   8 H :    0.174817
   9 H :    0.162933
  10 H :    0.162855
  11 H :    0.297656
  12 H :    0.177053
  13 H :    0.173920
  14 H :    0.174024
  15 H :    0.176468
  16 H :    0.174083
Sum of atomic charges:    0.0000000

LOEWDIN ATOMIC CHARGES
----------------------
   0 C :   -0.129768
   1 N :   -0.738649
   2 C :    0.130062
   3 C :   -0.193325
   4 C :   -0.171657
   5 C :   -0.239060
   6 C :   -0.174423
   7 C :   -0.175945
   8 H :    0.188275
   9 H :    0.171092
  10 H :    0.171053
  11 H :    0.275057
  12 H :    0.182569
  13 H :    0.175639
  14 H :    0.172244
  15 H :    0.176003
  16 H :    0.180831

  Mayer bond orders larger than 0.100000
B(  0-C ,  1-N ) :   0.8714 B(  0-C ,  8-H ) :   0.9642 B(  0-C ,  9-H ) :   0.9527
B(  0-C , 10-H ) :   0.9525 B(  1-N ,  2-C ) :   1.1675 B(  1-N , 11-H ) :   0.9029
B(  2-C ,  3-C ) :   1.2742 B(  2-C ,  7-C ) :   1.2794 B(  3-C ,  4-C ) :   1.3784
B(  3-C , 12-H ) :   0.9568 B(  4-C ,  5-C ) :   1.3817 B(  4-C , 13-H ) :   0.9640
B(  5-C ,  6-C ) :   1.3457 B(  5-C , 14-H ) :   0.9626 B(  6-C ,  7-C ) :   1.4136
B(  6-C , 15-H ) :   0.9544 B(  7-C , 16-H ) :   0.9591

Dispersion correction           -0.005290477
FINAL SINGLE POINT ENERGY      -326.821234674881

DIPOLE MOMENT
-------------

Method             : SCF
Type of density    : Electron Density
Multiplicity       :   1
Irrep              :   0
Energy             :  -326.8248631709533925 Eh
Relativity type    :
Basis              : AO
                                X                 Y                 Z
Electronic contribution:      2.806005154       1.855362134       0.081141627
Nuclear contribution   :     -4.096755540      -1.739221828      -0.068360414
                        -----------------------------------------
Total Dipole Moment    :     -1.290750386       0.116140307       0.012781214
                        -----------------------------------------
Magnitude (a.u.)       :      1.296027967
Magnitude (Debye)      :      3.294241293

Rotational constants in cm-1:             0.168899             0.051010             0.039469
Rotational constants in MHz :          5063.467814          1529.249453          1183.259288

                             ****ORCA TERMINATED NORMALLY****
TOTAL RUN TIME: 0 days 0 hours 0 minutes 25 seconds 901 msec
