                         Program Version 6.0.0  -   RELEASE  -
|  1> ! pbe def2-sv(p) def2/J RI DEFGRID1 loosescf d4 GCP(DFT/SV(P)) printgap
|  2> %output
|  3>     printlevel normal
|  4> end
|  5> * xyz 0 1
|  6> C -2.7583362413 0.729227507 0.8308886887
|  7> C -1.3234769288 0.574573126 0.3284966823
|  8> H -0.6430108391 0.9284084129 1.1131607312
|  9> C -1.0718440411 1.3738955355 -0.9505330585
| 10> C 0.3829834445 1.2923863597 -1.4383524249
| 11> C 1.0835119667 -0.0019726361 -1.0011661737
| 12> H 1.8232135858 -0.267862656 -1.7657196717
| 13> C 0.0387973722 -1.1292602749 -0.9571749393
| 14> C -0.9626671384 -0.8793970456 0.1344190944
| 15> O -1.4233050998 -1.7751243426 0.8176588269
| 16> C 1.8452498326 0.0636199289 0.3075414069
| 17> C 1.9386349745 1.1269661652 1.0909355097
| 18> C 2.5399121601 -1.2151712043 0.6833041859
| 19> H -2.9217829765 0.0793284208 1.6871921573
| 20> H -2.9515781585 1.7571906507 1.1238477786
| 21> H -3.4633592758 0.4485835531 0.0511915261
| 22> H -1.7429609975 0.9931347412 -1.7233090097
| 23> H -1.3438812508 2.4151804728 -0.7750735478
| 24> H 0.3832348258 1.3362882916 -2.5283910372
| 25> H 0.9530153663 2.15154515 -1.0907305135
| 26> H -0.507775981 -1.139466717 -1.9034076217
| 27> H 0.4873803961 -2.1132811756 -0.8241458359
| 28> H 2.5196563642 1.0941534479 1.9975684749
| 29> H 1.4602925201 2.0678713915 0.8867811722
| 30> H 1.8226033424 -1.9219146778 1.1010998195
| 31> H 3.0046793211 -1.6769118333 -0.1852114079
| 32> H 3.3030323463 -1.0314702848 1.4345415275
| 33> *
| 34>
| 35>                          ****END OF INPUT****

CARTESIAN COORDINATES (ANGSTROEM)
---------------------------------
  C     -2.758336    0.729228    0.830889
  C     -1.323477    0.574573    0.328497
  H     -0.643011    0.928408    1.113161
  C     -1.071844    1.373896   -0.950533
  C      0.382983    1.292386   -1.438352
  C      1.083512   -0.001973   -1.001166
  H      1.823214   -0.267863   -1.765720
  C      0.038797   -1.129260   -0.957175
  C     -0.962667   -0.879397    0.134419
  O     -1.423305   -1.775124    0.817659
  C      1.845250    0.063620    0.307541
  C      1.938635    1.126966    1.090936
  C      2.539912   -1.215171    0.683304
  H     -2.921783    0.079328    1.687192
  H     -2.951578    1.757191    1.123848
  H     -3.463359    0.448584    0.051192
  H     -1.742961    0.993135   -1.723309
  H     -1.343881    2.415180   -0.775074
  H      0.383235    1.336288   -2.528391
  H      0.953015    2.151545   -1.090731
  H     -0.507776   -1.139467   -1.903408
  H      0.487380   -2.113281   -0.824146
  H      2.519656    1.094153    1.997568
  H      1.460293    2.067871    0.886781
  H      1.822603   -1.921915    1.101100
  H      3.004679   -1.676912   -0.185211
  H      3.303032   -1.031470    1.434542

 Total Charge           Charge          ....    0
 Multiplicity           Mult            ....    1
 Number of Electrons    NEL             ....   84
 Basis Dimension        Dim             ....  186

ORBITAL ENERGIES
----------------

  NO   OCC          E(Eh)            E(eV)
   0   2.0000     -18.733979      -509.7775
   1   2.0000      -9.967568      -271.2313
   2   2.0000      -9.913074      -269.7485
   3   2.0000      -9.908400      -269.6213
   4   2.0000      -9.897351      -269.3206
   5   2.0000      -9.895328      -269.2656
   6   2.0000      -9.893822      -269.2246
   7   2.0000      -9.892456      -269.1874
   8   2.0000      -9.883239      -268.9366
   9   2.0000      -9.875126      -268.7159
  10   2.0000      -9.872765      -268.6516
  11   2.0000      -0.930586       -25.3225
  12   2.0000      -0.775955       -21.1148
  13   2.0000      -0.725369       -19.7383
  14   2.0000      -0.685665       -18.6579
  15   2.0000      -0.660617       -17.9763
  16   2.0000      -0.616539       -16.7769
  17   2.0000      -0.606353       -16.4997
  18   2.0000      -0.556442       -15.1416
  19   2.0000      -0.533651       -14.5214
  20   2.0000      -0.476630       -12.9698
  21   2.0000      -0.462649       -12.5893
  22   2.0000      -0.437730       -11.9112
  23   2.0000      -0.427744       -11.6395
  24   2.0000      -0.415791       -11.3143
  25   2.0000      -0.399025       -10.8580
  26   2.0000      -0.381765       -10.3883
  27   2.0000      -0.378265       -10.2931
  28   2.0000      -0.374337       -10.1862
  29   2.0000      -0.358930        -9.7670
  30   2.0000      -0.351355        -9.5609
  31   2.0000      -0.340514        -9.2659
  32   2.0000      -0.337005        -9.1704
  33   2.0000      -0.328288        -8.9332
  34   2.0000      -0.321705        -8.7540
  35   2.0000      -0.315645        -8.5891
  36   2.0000      -0.300553        -8.1785
  37   2.0000      -0.285400        -7.7661
  38   2.0000      -0.281654        -7.6642
  39   2.0000      -0.274891        -7.4802
  40   2.0000      -0.223848        -6.0912
  41   2.0000      -0.189719        -5.1625
  42   0.0000      -0.052289        -1.4229
  43   0.0000      -0.018366        -0.4998
  44   0.0000       0.022418         0.6100
  45   0.0000       0.051444         1.3999
  46   0.0000       0.054780         1.4906

MULLIKEN ATOMIC CHARGES
-----------------------
   0 C :   -0.213371
   1 C :   -0.182670
   2 H :    0.114895
   3 C :   -0.139634
   4 C :   -0.087148
   5 C :   -0.163944
   6 H :    0.084955
   7 C :   -0.071610
   8 C :   -0.015006
   9 O :   -0.167563
  10 C :   -0.063553
  11 C :   -0.228698
  12 C :   -0.235932
  13 H :    0.117955
  14 H :    0.094789
  15 H :    0.093016
  16 H :    0.076945
  17 H :    0.086966
  18 H :    0.079404
  19 H :    0.092816
  20 H :    0.107778
  21 H :    0.097675
  22 H :    0.085158
  23 H :    0.091743
  24 H :    0.134901
  25 H :    0.105637
  26 H :    0.104494
Sum of atomic charges:   -0.0000000

LOEWDIN ATOMIC CHARGES
----------------------
   0 C :   -0.322885
   1 C :   -0.184241
   2 H :    0.147977
   3 C :   -0.216265
   4 C :   -0.218596
   5 C :   -0.131319
   6 H :    0.131543
   7 C :   -0.233039
   8 C :    0.055171
   9 O :   -0.130019
  10 C :   -0.053027
  11 C :   -0.269557
  12 C :   -0.324388
  13 H :    0.127644
  14 H :    0.118111
  15 H :    0.118339
  16 H :    0.116891
  17 H :    0.122973
  18 H :    0.122375
  19 H :    0.121270
  20 H :    0.143933
  21 H :    0.129975
  22 H :    0.121173
  23 H :    0.116250
  24 H :    0.137871
  25 H :    0.124481
  26 H :    0.127356

  Mayer bond orders larger than 0.100000
B(  0-C ,  1-C ) :   1.1217 B(  0-C , 13-H ) :   0.9376 B(  0-C , 14-H ) :   0.9485
B(  0-C , 15-H ) :   0.9522 B(  1-C ,  2-H ) :   0.8293 B(  1-C ,  3-C ) :   1.1299
B(  1-C ,  8-C ) :   0.9278 B(  3-C ,  4-C ) :   1.1460 B(  3-C , 16-H ) :   0.9008
B(  3-C , 17-H ) :   0.9146 B(  4-C ,  5-C ) :   1.1085 B(  4-C , 18-H ) :   0.9065
B(  4-C , 19-H ) :   0.8983 B(  5-C ,  6-H ) :   0.8642 B(  5-C ,  7-C ) :   1.0810
B(  5-C , 10-C ) :   1.0025 B(  7-C ,  8-C ) :   1.0523 B(  7-C , 20-H ) :   0.8663
B(  7-C , 21-H ) :   0.8884 B(  8-C ,  9-O ) :   2.1809 B( 10-C , 11-C ) :   2.0524
B( 10-C , 12-C ) :   1.1079 B( 11-C , 22-H ) :   0.9005 B( 11-C , 23-H ) :   0.8862
B( 12-C , 24-H ) :   0.9212 B( 12-C , 25-H ) :   0.9358 B( 12-C , 26-H ) :   0.9371

Dispersion correction           -0.029952849
FINAL SINGLE POINT ENERGY      -464.823650828765

DIPOLE MOMENT
-------------

Method             : SCF
Type of density    : Electron Density
Multiplicity       :   1
Irrep              :   0
Energy             :  -464.9088833480411722 Eh
Relativity type    :
Basis              : AO
                                X                 Y                 Z
Electronic contribution:     -1.533968898      -4.147876773       0.681299666
Nuclear contribution   :      2.026685213       4.777818926      -1.301876305
                        -----------------------------------------
Total Dipole Moment    :      0.492716315       0.629942153      -0.620576639
                        -----------------------------------------
Magnitude (a.u.)       :      1.012280518
Magnitude (Debye)      :      2.573012597

Rotational constants in cm-1:             0.051370             0.031285             0.026539
Rotational constants in MHz :          1540.025029           937.892356           795.624460

                             ****ORCA TERMINATED NORMALLY****
TOTAL RUN TIME: 0 days 0 hours 0 minutes 15 seconds 193 msec
