                         Program Version 6.0.0  -   RELEASE  -
|  1> ! wb97x-v def2-tzvp def2/J RIJCOSX DEFGRID2 scfconv7 GCP(DFT/TZ) printgap
|  2> %output
|  3>     printlevel normal
|  4> end
|  5> * xyz 0 1
|  6> C -2.577088397908732 -0.6516609676324134 -0.2795458716840124
|  7> C -1.2059271948186263 -0.2719163743107214 0.24186398507048099
|  8> H -1.2218003602523066 -0.23107657538463497 1.3431982609471813
|  9> C -0.720538860934823 1.068352945784119 -0.3094035228043515
| 10> H -0.7364861406696306 1.0294351956085466 -1.411557145983876
| 11> C 0.7096221268049067 1.3148093063696749 0.16293402619787786
| 12> H 0.7042775027145756 1.4303083881160423 1.2545860352401728
| 13> C 1.613558492638968 0.14021200412045792 -0.20376889458692796
| 14> H 1.6709538759592057 0.05174144119082934 -1.3027125779504116
| 15> C 1.0159285696228015 -1.152695779618067 0.3449352231827344
| 16> H 0.9731858439234564 -1.1266421003947604 1.4437728673674817
| 17> O -0.30383975110896216 -1.3071836943902146 -0.18866279978264305
| 18> O 1.7576743214177277 -2.2900769721234435 -0.002951418410818
| 19> O 2.9166729495379364 0.2953143233020112 0.3578966109900316
| 20> O 1.228060076743385 2.54896113180493 -0.34865843628420723
| 21> O -1.5984962746011744 2.090596157547632 0.1673321171582843
| 22> O -3.0571906851434423 -1.8658343608633385 0.30849102771251263
| 23> H -2.536705435015058 -0.7366853982083169 -1.3752729959937244
| 24> H -3.2942712902216926 0.12907897203192026 -0.016306070592332328
| 25> H 1.95264075802146 -2.248990223610445 -0.9512520128868992
| 26> H 3.2240883948984047 1.1803140015643743 0.11594194406081385
| 27> H 1.2359707482668727 2.4872902932801115 -1.3157258251814261
| 28> H -1.2020815569719148 2.9384203267964444 -0.07858891306969669
| 29> H -2.4454356868107014 -2.568600253429773 0.05229347348488849
| 30> *
| 31>
| 32>                          ****END OF INPUT****

CARTESIAN COORDINATES (ANGSTROEM)
---------------------------------
  C     -2.577088   -0.651661   -0.279546
  C     -1.205927   -0.271916    0.241864
  H     -1.221800   -0.231077    1.343198
  C     -0.720539    1.068353   -0.309404
  H     -0.736486    1.029435   -1.411557
  C      0.709622    1.314809    0.162934
  H      0.704278    1.430308    1.254586
  C      1.613558    0.140212   -0.203769
  H      1.670954    0.051741   -1.302713
  C      1.015929   -1.152696    0.344935
  H      0.973186   -1.126642    1.443773
  O     -0.303840   -1.307184   -0.188663
  O      1.757674   -2.290077   -0.002951
  O      2.916673    0.295314    0.357897
  O      1.228060    2.548961   -0.348658
  O     -1.598496    2.090596    0.167332
  O     -3.057191   -1.865834    0.308491
  H     -2.536705   -0.736685   -1.375273
  H     -3.294271    0.129079   -0.016306
  H      1.952641   -2.248990   -0.951252
  H      3.224088    1.180314    0.115942
  H      1.235971    2.487290   -1.315726
  H     -1.202082    2.938420   -0.078589
  H     -2.445436   -2.568600    0.052293

 Total Charge           Charge          ....    0
 Multiplicity           Mult            ....    1
 Number of Electrons    NEL             ....   96
 Basis Dimension        Dim             ....  444

ORBITAL ENERGIES
----------------

  NO   OCC          E(Eh)            E(eV)
   0   2.0000     -21.712027      -590.8143
   1   2.0000     -21.697134      -590.4090
   2   2.0000     -21.692770      -590.2903
   3   2.0000     -21.692533      -590.2838
   4   2.0000     -21.690420      -590.2263
   5   2.0000     -21.670368      -589.6807
   6   2.0000     -12.164051      -331.0007
   7   2.0000     -12.124313      -329.9193
   8   2.0000     -12.122690      -329.8752
   9   2.0000     -12.121840      -329.8520
  10   2.0000     -12.114881      -329.6627
  11   2.0000     -12.096774      -329.1700
  12   2.0000      -1.727441       -47.0060
  13   2.0000      -1.714733       -46.6603
  14   2.0000      -1.695886       -46.1474
  15   2.0000      -1.692155       -46.0459
  16   2.0000      -1.684201       -45.8294
  17   2.0000      -1.669931       -45.4411
  18   2.0000      -1.349301       -36.7164
  19   2.0000      -1.330309       -36.1995
  20   2.0000      -1.241296       -33.7774
  21   2.0000      -1.209619       -32.9154
  22   2.0000      -1.180939       -32.1350
  23   2.0000      -1.136892       -30.9364
  24   2.0000      -1.099016       -29.9057
  25   2.0000      -1.080775       -29.4094
  26   2.0000      -1.060517       -28.8581
  27   2.0000      -1.046250       -28.4699
  28   2.0000      -1.032363       -28.0920
  29   2.0000      -1.015319       -27.6282
  30   2.0000      -1.004312       -27.3287
  31   2.0000      -1.002696       -27.2848
  32   2.0000      -0.994170       -27.0527
  33   2.0000      -0.975489       -26.5444
  34   2.0000      -0.960508       -26.1367
  35   2.0000      -0.954444       -25.9717
  36   2.0000      -0.951631       -25.8952
  37   2.0000      -0.941930       -25.6312
  38   2.0000      -0.929347       -25.2888
  39   2.0000      -0.913454       -24.8564
  40   2.0000      -0.909951       -24.7610
  41   2.0000      -0.897612       -24.4253
  42   2.0000      -0.851299       -23.1650
  43   2.0000      -0.838626       -22.8202
  44   2.0000      -0.832865       -22.6634
  45   2.0000      -0.819016       -22.2866
  46   2.0000      -0.802816       -21.8457
  47   2.0000      -0.780831       -21.2475
  48   0.0000      -0.252057        -6.8588
  49   0.0000      -0.205406        -5.5894
  50   0.0000      -0.187041        -5.0896
  51   0.0000      -0.161919        -4.4061
  52   0.0000      -0.128554        -3.4981

MULLIKEN ATOMIC CHARGES
-----------------------
   0 C :   -0.013747
   1 C :    0.036976
   2 H :    0.088178
   3 C :    0.056944
   4 H :    0.064813
   5 C :   -0.024250
   6 H :    0.113314
   7 C :    0.037433
   8 H :    0.062000
   9 C :    0.122687
  10 H :    0.089349
  11 O :   -0.269263
  12 O :   -0.387639
  13 O :   -0.406006
  14 O :   -0.445282
  15 O :   -0.430167
  16 O :   -0.449640
  17 H :    0.084596
  18 H :    0.123311
  19 H :    0.304835
  20 H :    0.310629
  21 H :    0.307242
  22 H :    0.312750
  23 H :    0.310937
Sum of atomic charges:    0.0000000

LOEWDIN ATOMIC CHARGES
----------------------
   0 C :   -0.307122
   1 C :   -0.297923
   2 H :    0.147555
   3 C :   -0.313629
   4 H :    0.136602
   5 C :   -0.318972
   6 H :    0.157503
   7 C :   -0.329929
   8 H :    0.133399
   9 C :   -0.397000
  10 H :    0.138033
  11 O :    0.180103
  12 O :    0.021855
  13 O :   -0.003822
  14 O :   -0.020509
  15 O :   -0.006763
  16 O :   -0.047951
  17 H :    0.119650
  18 H :    0.137087
  19 H :    0.177622
  20 H :    0.174363
  21 H :    0.173036
  22 H :    0.175457
  23 H :    0.171357

  Mayer bond orders larger than 0.100000
B(  0-C ,  1-C ) :   0.9824 B(  0-C , 16-O ) :   1.0265 B(  0-C , 17-H ) :   0.9678
B(  0-C , 18-H ) :   0.9650 B(  1-C ,  2-H ) :   0.9571 B(  1-C ,  3-C ) :   0.9326
B(  1-C , 11-O ) :   0.9661 B(  3-C ,  4-H ) :   0.9381 B(  3-C ,  5-C ) :   0.9943
B(  3-C , 15-O ) :   1.0810 B(  5-C ,  6-H ) :   0.9562 B(  5-C ,  7-C ) :   1.0049
B(  5-C , 14-O ) :   0.9751 B(  7-C ,  8-H ) :   0.9322 B(  7-C ,  9-C ) :   0.9549
B(  7-C , 13-O ) :   1.1119 B(  9-C , 10-H ) :   0.9754 B(  9-C , 11-O ) :   1.0232
B(  9-C , 12-O ) :   1.1611 B( 12-O , 19-H ) :   0.8890 B( 13-O , 20-H ) :   0.8837
B( 14-O , 21-H ) :   0.8902 B( 15-O , 22-H ) :   0.8837 B( 16-O , 23-H ) :   0.8920

FINAL SINGLE POINT ENERGY      -687.245598638696

DIPOLE MOMENT
-------------

Method             : SCF
Type of density    : Electron Density
Multiplicity       :   1
Irrep              :   0
Energy             :  -687.2644208775964216 Eh
Relativity type    :
Basis              : AO
                                X                 Y                 Z
Electronic contribution:      2.124583166      -1.202690742       0.832517379
Nuclear contribution   :     -1.520958410       2.228278589      -2.219563904
                        -----------------------------------------
Total Dipole Moment    :      0.603624756       1.025587847      -1.387046525
                        -----------------------------------------
Magnitude (a.u.)       :      1.827591678
Magnitude (Debye)      :      4.645368872

Rotational constants in cm-1:             0.038706             0.026012             0.016292
Rotational constants in MHz :          1160.372901           779.810674           488.408081

                             ****ORCA TERMINATED NORMALLY****
TOTAL RUN TIME: 0 days 0 hours 4 minutes 50 seconds 603 msec
