                         Program Version 6.0.0  -   RELEASE  -
|  1> ! wb97x-v def2-tzvp def2/J RIJCOSX DEFGRID2 scfconv7 GCP(DFT/TZ) printgap
|  2> %output
|  3>     printlevel normal
|  4> end
|  5> %cpcm
|  6>     smd true
|  7>     smdsolvent "water"
|  8> end
|  9> * xyz 0 1
| 10> C -2.577088397908732 -0.6516609676324134 -0.2795458716840124
| 11> C -1.2059271948186263 -0.2719163743107214 0.24186398507048099
| 12> H -1.2218003602523066 -0.23107657538463497 1.3431982609471813
| 13> C -0.720538860934823 1.068352945784119 -0.3094035228043515
| 14> H -0.7364861406696306 1.0294351956085466 -1.411557145983876
| 15> C 0.7096221268049067 1.3148093063696749 0.16293402619787786
| 16> H 0.7042775027145756 1.4303083881160423 1.2545860352401728
| 17> C 1.613558492638968 0.14021200412045792 -0.20376889458692796
| 18> H 1.6709538759592057 0.05174144119082934 -1.3027125779504116
| 19> C 1.0159285696228015 -1.152695779618067 0.3449352231827344
| 20> H 0.9731858439234564 -1.1266421003947604 1.4437728673674817
| 21> O -0.30383975110896216 -1.3071836943902146 -0.18866279978264305
| 22> O 1.7576743214177277 -2.2900769721234435 -0.002951418410818
| 23> O 2.9166729495379364 0.2953143233020112 0.3578966109900316
| 24> O 1.228060076743385 2.54896113180493 -0.34865843628420723
| 25> O -1.5984962746011744 2.090596157547632 0.1673321171582843
| 26> O -3.0571906851434423 -1.8658343608633385 0.30849102771251263
| 27> H -2.536705435015058 -0.7366853982083169 -1.3752729959937244
| 28> H -3.2942712902216926 0.12907897203192026 -0.016306070592332328
| 29> H 1.95264075802146 -2.248990223610445 -0.9512520128868992
| 30> H 3.2240883948984047 1.1803140015643743 0.11594194406081385
| 31> H 1.2359707482668727 2.4872902932801115 -1.3157258251814261
| 32> H -1.2020815569719148 2.9384203267964444 -0.07858891306969669
| 33> H -2.4454356868107014 -2.568600253429773 0.05229347348488849
| 34> *
| 35>
| 36>                          ****END OF INPUT****

CARTESIAN COORDINATES (ANGSTROEM)
---------------------------------
  C     -2.577088   -0.651661   -0.279546
  C     -1.205927   -0.271916    0.241864
  H     -1.221800   -0.231077    1.343198
  C     -0.720539    1.068353   -0.309404
  H     -0.736486    1.029435   -1.411557
  C      0.709622    1.314809    0.162934
  H      0.704278    1.430308    1.254586
  C      1.613558    0.140212   -0.203769
  H      1.670954    0.051741   -1.302713
  C      1.015929   -1.152696    0.344935
  H      0.973186   -1.126642    1.443773
  O     -0.303840   -1.307184   -0.188663
  O      1.757674   -2.290077   -0.002951
  O      2.916673    0.295314    0.357897
  O      1.228060    2.548961   -0.348658
  O     -1.598496    2.090596    0.167332
  O     -3.057191   -1.865834    0.308491
  H     -2.536705   -0.736685   -1.375273
  H     -3.294271    0.129079   -0.016306
  H      1.952641   -2.248990   -0.951252
  H      3.224088    1.180314    0.115942
  H      1.235971    2.487290   -1.315726
  H     -1.202082    2.938420   -0.078589
  H     -2.445436   -2.568600    0.052293

 Total Charge           Charge          ....    0
 Multiplicity           Mult            ....    1
 Number of Electrons    NEL             ....   96
 Basis Dimension        Dim             ....  444

ORBITAL ENERGIES
----------------

  NO   OCC          E(Eh)            E(eV)
   0   2.0000     -21.692267      -590.2766
   1   2.0000     -21.691687      -590.2608
   2   2.0000     -21.686548      -590.1210
   3   2.0000     -21.682843      -590.0202
   4   2.0000     -21.682305      -590.0055
   5   2.0000     -21.677340      -589.8704
   6   2.0000     -12.154087      -330.7295
   7   2.0000     -12.104524      -329.3809
   8   2.0000     -12.104371      -329.3767
   9   2.0000     -12.103535      -329.3539
  10   2.0000     -12.102466      -329.3248
  11   2.0000     -12.091287      -329.0206
  12   2.0000      -1.723913       -46.9101
  13   2.0000      -1.692888       -46.0658
  14   2.0000      -1.687087       -45.9080
  15   2.0000      -1.682000       -45.7695
  16   2.0000      -1.680190       -45.7203
  17   2.0000      -1.675879       -45.6030
  18   2.0000      -1.332729       -36.2654
  19   2.0000      -1.319915       -35.9167
  20   2.0000      -1.232231       -33.5307
  21   2.0000      -1.197986       -32.5989
  22   2.0000      -1.170897       -31.8617
  23   2.0000      -1.129895       -30.7460
  24   2.0000      -1.087343       -29.5881
  25   2.0000      -1.069513       -29.1029
  26   2.0000      -1.050712       -28.5913
  27   2.0000      -1.043026       -28.3822
  28   2.0000      -1.024595       -27.8806
  29   2.0000      -1.008224       -27.4352
  30   2.0000      -0.996110       -27.1055
  31   2.0000      -0.992286       -27.0015
  32   2.0000      -0.981670       -26.7126
  33   2.0000      -0.967180       -26.3183
  34   2.0000      -0.959898       -26.1202
  35   2.0000      -0.952452       -25.9175
  36   2.0000      -0.940974       -25.6052
  37   2.0000      -0.937784       -25.5184
  38   2.0000      -0.923603       -25.1325
  39   2.0000      -0.906772       -24.6745
  40   2.0000      -0.903840       -24.5947
  41   2.0000      -0.892508       -24.2864
  42   2.0000      -0.841040       -22.8859
  43   2.0000      -0.829096       -22.5609
  44   2.0000      -0.822113       -22.3708
  45   2.0000      -0.806978       -21.9590
  46   2.0000      -0.789098       -21.4725
  47   2.0000      -0.766716       -20.8634
  48   0.0000      -0.238181        -6.4812
  49   0.0000      -0.193108        -5.2547
  50   0.0000      -0.174865        -4.7583
  51   0.0000      -0.151514        -4.1229
  52   0.0000      -0.118989        -3.2379

MULLIKEN ATOMIC CHARGES
-----------------------
   0 C :   -0.014840
   1 C :    0.058885
   2 H :    0.103309
   3 C :    0.026604
   4 H :    0.111331
   5 C :    0.069352
   6 H :    0.117997
   7 C :    0.026303
   8 H :    0.117143
   9 C :    0.144456
  10 H :    0.120411
  11 O :   -0.329094
  12 O :   -0.495669
  13 O :   -0.517870
  14 O :   -0.527387
  15 O :   -0.524915
  16 O :   -0.549240
  17 H :    0.119207
  18 H :    0.130289
  19 H :    0.369897
  20 H :    0.360205
  21 H :    0.366250
  22 H :    0.359508
  23 H :    0.357871
Sum of atomic charges:    0.0000000

LOEWDIN ATOMIC CHARGES
----------------------
   0 C :   -0.307283
   1 C :   -0.295543
   2 H :    0.153180
   3 C :   -0.300643
   4 H :    0.152317
   5 C :   -0.311236
   6 H :    0.159894
   7 C :   -0.315519
   8 H :    0.153015
   9 C :   -0.400149
  10 H :    0.144523
  11 O :    0.163102
  12 O :   -0.018115
  13 O :   -0.043482
  14 O :   -0.043167
  15 O :   -0.039588
  16 O :   -0.087669
  17 H :    0.129611
  18 H :    0.137151
  19 H :    0.200839
  20 H :    0.191635
  21 H :    0.198940
  22 H :    0.191546
  23 H :    0.186642

  Mayer bond orders larger than 0.100000
B(  0-C ,  1-C ) :   0.9695 B(  0-C , 16-O ) :   0.9828 B(  0-C , 17-H ) :   0.9708
B(  0-C , 18-H ) :   0.9659 B(  1-C ,  2-H ) :   0.9476 B(  1-C ,  3-C ) :   0.9652
B(  1-C , 11-O ) :   0.9483 B(  3-C ,  4-H ) :   0.9490 B(  3-C ,  5-C ) :   1.0026
B(  3-C , 15-O ) :   1.0319 B(  5-C ,  6-H ) :   0.9402 B(  5-C ,  7-C ) :   1.0042
B(  5-C , 14-O ) :   0.9860 B(  7-C ,  8-H ) :   0.9510 B(  7-C ,  9-C ) :   0.9666
B(  7-C , 13-O ) :   1.0428 B(  9-C , 10-H ) :   0.9708 B(  9-C , 11-O ) :   1.0071
B(  9-C , 12-O ) :   1.1170 B( 12-O , 19-H ) :   0.8495 B( 13-O , 20-H ) :   0.8554
B( 14-O , 21-H ) :   0.8574 B( 15-O , 22-H ) :   0.8561 B( 16-O , 23-H ) :   0.8635

FINAL SINGLE POINT ENERGY      -687.287539820191

DIPOLE MOMENT
-------------

Method             : SCF
Type of density    : Electron Density
Multiplicity       :   1
Irrep              :   0
Energy             :  -687.3063620590905884 Eh
Relativity type    :
Basis              : AO
                                X                 Y                 Z
Electronic contribution:      2.317076312      -0.802593515       0.175799581
Nuclear contribution   :     -1.520958410       2.228278589      -2.219563904
                        -----------------------------------------
Total Dipole Moment    :      0.796117902       1.425685074      -2.043764323
                        -----------------------------------------
Magnitude (a.u.)       :      2.615980552
Magnitude (Debye)      :      6.649294136

Rotational constants in cm-1:             0.038706             0.026012             0.016292
Rotational constants in MHz :          1160.372901           779.810674           488.408081

                             ****ORCA TERMINATED NORMALLY****
TOTAL RUN TIME: 0 days 0 hours 5 minutes 23 seconds 465 msec
