                         Program Version 6.0.0  -   RELEASE  -
|  1> ! wb97x-v def2-tzvp def2/J RIJCOSX DEFGRID2 scfconv7 GCP(DFT/TZ) printgap
|  2> %output
|  3>     printlevel normal
|  4> end
|  5> * xyz 0 1
|  6> C -0.4849342581351218 1.4334357035468686 0.00037907218052904364
|  7> N -0.42102710420742157 -0.028187538513172086 0.00234007677035139
|  8> C -1.6687724174467817 -0.7836674235035752 -0.0009287195535410223
|  9> C 0.7699736530241145 -0.6361340789504721 -0.00032842850793505124
| 10> O 1.8621254914995455 -0.040459077624169844 -0.003168675250165836
| 11> H 0.027132009291959282 1.844215366976882 0.8762600001347992
| 12> H -1.531623780409518 1.7386721574024369 0.025490379811889296
| 13> H -0.01653053000858093 1.8418913647164668 -0.9010119828694814
| 14> H -2.259887276885956 -0.5424867021857753 -0.890869660722209
| 15> H -2.2613034094671214 -0.5479605375548419 0.8894914953715347
| 16> H -1.4472639677553336 -1.8530812093518827 -0.004209315303926836
| 17> H 0.7090959900283889 -1.736802491212785 6.476718299078802e-05
| 18> *
| 19>
| 20>                          ****END OF INPUT****

CARTESIAN COORDINATES (ANGSTROEM)
---------------------------------
  C     -0.484934    1.433436    0.000379
  N     -0.421027   -0.028188    0.002340
  C     -1.668772   -0.783667   -0.000929
  C      0.769974   -0.636134   -0.000328
  O      1.862125   -0.040459   -0.003169
  H      0.027132    1.844215    0.876260
  H     -1.531624    1.738672    0.025490
  H     -0.016531    1.841891   -0.901012
  H     -2.259887   -0.542487   -0.890870
  H     -2.261303   -0.547961    0.889491
  H     -1.447264   -1.853081   -0.004209
  H      0.709096   -1.736802    0.000065

 Total Charge           Charge          ....    0
 Multiplicity           Mult            ....    1
 Number of Electrons    NEL             ....   40
 Basis Dimension        Dim             ....  197

ORBITAL ENERGIES
----------------

  NO   OCC          E(Eh)            E(eV)
   0   2.0000     -21.629627      -588.5721
   1   2.0000     -16.567531      -450.8254
   2   2.0000     -12.139906      -330.3436
   3   2.0000     -12.097644      -329.1936
   4   2.0000     -12.084230      -328.8286
   5   2.0000      -1.673656       -45.5425
   6   2.0000      -1.538496       -41.8646
   7   2.0000      -1.251329       -34.0504
   8   2.0000      -1.245510       -33.8921
   9   2.0000      -1.078037       -29.3349
  10   2.0000      -1.018473       -27.7141
  11   2.0000      -1.002390       -27.2764
  12   2.0000      -0.934872       -25.4392
  13   2.0000      -0.924084       -25.1456
  14   2.0000      -0.868162       -23.6239
  15   2.0000      -0.861937       -23.4545
  16   2.0000      -0.846510       -23.0347
  17   2.0000      -0.837052       -22.7773
  18   2.0000      -0.806311       -21.9408
  19   2.0000      -0.743314       -20.2266
  20   0.0000      -0.274708        -7.4752
  21   0.0000      -0.133796        -3.6408
  22   0.0000      -0.090526        -2.4633
  23   0.0000      -0.035583        -0.9683
  24   0.0000      -0.012372        -0.3367

MULLIKEN ATOMIC CHARGES
-----------------------
   0 C :   -0.273569
   1 N :   -0.041361
   2 C :   -0.278817
   3 C :    0.149700
   4 O :   -0.408629
   5 H :    0.139019
   6 H :    0.122475
   7 H :    0.137333
   8 H :    0.131721
   9 H :    0.131662
  10 H :    0.119347
  11 H :    0.071118
Sum of atomic charges:   -0.0000000

LOEWDIN ATOMIC CHARGES
----------------------
   0 C :   -0.268731
   1 N :    0.129595
   2 C :   -0.281433
   3 C :   -0.395716
   4 O :   -0.004639
   5 H :    0.122278
   6 H :    0.117088
   7 H :    0.121583
   8 H :    0.114285
   9 H :    0.114213
  10 H :    0.120087
  11 H :    0.111390

  Mayer bond orders larger than 0.100000
B(  0-C ,  1-N ) :   0.9144 B(  0-C ,  5-H ) :   0.9712 B(  0-C ,  6-H ) :   0.9711
B(  0-C ,  7-H ) :   0.9719 B(  1-N ,  2-C ) :   0.9616 B(  1-N ,  3-C ) :   1.2429
B(  2-C ,  8-H ) :   0.9726 B(  2-C ,  9-H ) :   0.9726 B(  2-C , 10-H ) :   0.9726
B(  3-C ,  4-O ) :   1.9988 B(  3-C , 11-H ) :   0.9757

FINAL SINGLE POINT ENERGY      -248.520341233300

DIPOLE MOMENT
-------------

Method             : SCF
Type of density    : Electron Density
Multiplicity       :   1
Irrep              :   0
Energy             :  -248.5282621049001648 Eh
Relativity type    :
Basis              : AO
                                X                 Y                 Z
Electronic contribution:      4.625403038      -0.916063699       0.003372504
Nuclear contribution   :     -6.375642517       0.709202385      -0.001522559
                        -----------------------------------------
Total Dipole Moment    :     -1.750239478      -0.206861315       0.001849945
                        -----------------------------------------
Magnitude (a.u.)       :      1.762422554
Magnitude (Debye)      :      4.479722122

Rotational constants in cm-1:             0.295264             0.140627             0.098822
Rotational constants in MHz :          8851.797425          4215.901328          2962.595312

                             ****ORCA TERMINATED NORMALLY****
TOTAL RUN TIME: 0 days 0 hours 0 minutes 56 seconds 238 msec
