                         Program Version 6.0.0  -   RELEASE  -
|  1> ! wb97x-v def2-tzvp def2/J RIJCOSX DEFGRID2 scfconv7 GCP(DFT/TZ) printgap
|  2> %output
|  3>     printlevel normal
|  4> end
|  5> %cpcm
|  6>     smd true
|  7>     smdsolvent "water"
|  8> end
|  9> * xyz 0 1
| 10> C -0.4849342581351218 1.4334357035468686 0.00037907218052904364
| 11> N -0.42102710420742157 -0.028187538513172086 0.00234007677035139
| 12> C -1.6687724174467817 -0.7836674235035752 -0.0009287195535410223
| 13> C 0.7699736530241145 -0.6361340789504721 -0.00032842850793505124
| 14> O 1.8621254914995455 -0.040459077624169844 -0.003168675250165836
| 15> H 0.027132009291959282 1.844215366976882 0.8762600001347992
| 16> H -1.531623780409518 1.7386721574024369 0.025490379811889296
| 17> H -0.01653053000858093 1.8418913647164668 -0.9010119828694814
| 18> H -2.259887276885956 -0.5424867021857753 -0.890869660722209
| 19> H -2.2613034094671214 -0.5479605375548419 0.8894914953715347
| 20> H -1.4472639677553336 -1.8530812093518827 -0.004209315303926836
| 21> H 0.7090959900283889 -1.736802491212785 6.476718299078802e-05
| 22> *
| 23>
| 24>                          ****END OF INPUT****

CARTESIAN COORDINATES (ANGSTROEM)
---------------------------------
  C     -0.484934    1.433436    0.000379
  N     -0.421027   -0.028188    0.002340
  C     -1.668772   -0.783667   -0.000929
  C      0.769974   -0.636134   -0.000328
  O      1.862125   -0.040459   -0.003169
  H      0.027132    1.844215    0.876260
  H     -1.531624    1.738672    0.025490
  H     -0.016531    1.841891   -0.901012
  H     -2.259887   -0.542487   -0.890870
  H     -2.261303   -0.547961    0.889491
  H     -1.447264   -1.853081   -0.004209
  H      0.709096   -1.736802    0.000065

 Total Charge           Charge          ....    0
 Multiplicity           Mult            ....    1
 Number of Electrons    NEL             ....   40
 Basis Dimension        Dim             ....  197

ORBITAL ENERGIES
----------------

  NO   OCC          E(Eh)            E(eV)
   0   2.0000     -21.645782      -589.0117
   1   2.0000     -16.565150      -450.7606
   2   2.0000     -12.145570      -330.4977
   3   2.0000     -12.072501      -328.5095
   4   2.0000     -12.069895      -328.4385
   5   2.0000      -1.692862       -46.0651
   6   2.0000      -1.533210       -41.7208
   7   2.0000      -1.238492       -33.7011
   8   2.0000      -1.234633       -33.5961
   9   2.0000      -1.083083       -29.4722
  10   2.0000      -1.019666       -27.7465
  11   2.0000      -1.000079       -27.2135
  12   2.0000      -0.930609       -25.3232
  13   2.0000      -0.921086       -25.0640
  14   2.0000      -0.881079       -23.9754
  15   2.0000      -0.845301       -23.0018
  16   2.0000      -0.828700       -22.5501
  17   2.0000      -0.818253       -22.2658
  18   2.0000      -0.816603       -22.2209
  19   2.0000      -0.735134       -20.0040
  20   0.0000      -0.276689        -7.5291
  21   0.0000      -0.118872        -3.2347
  22   0.0000      -0.080991        -2.2039
  23   0.0000      -0.017815        -0.4848
  24   0.0000       0.003137         0.0854

MULLIKEN ATOMIC CHARGES
-----------------------
   0 C :   -0.323331
   1 N :   -0.031999
   2 C :   -0.302384
   3 C :    0.186082
   4 O :   -0.577426
   5 H :    0.148893
   6 H :    0.161227
   7 H :    0.149176
   8 H :    0.151680
   9 H :    0.151634
  10 H :    0.150786
  11 H :    0.135661
Sum of atomic charges:   -0.0000000

LOEWDIN ATOMIC CHARGES
----------------------
   0 C :   -0.267967
   1 N :    0.146172
   2 C :   -0.268043
   3 C :   -0.382002
   4 O :   -0.108800
   5 H :    0.122728
   6 H :    0.130156
   7 H :    0.122633
   8 H :    0.122400
   9 H :    0.122321
  10 H :    0.129233
  11 H :    0.131170

  Mayer bond orders larger than 0.100000
B(  0-C ,  1-N ) :   0.9018 B(  0-C ,  5-H ) :   0.9673 B(  0-C ,  6-H ) :   0.9666
B(  0-C ,  7-H ) :   0.9677 B(  1-N ,  2-C ) :   0.9420 B(  1-N ,  3-C ) :   1.3287
B(  2-C ,  8-H ) :   0.9684 B(  2-C ,  9-H ) :   0.9684 B(  2-C , 10-H ) :   0.9658
B(  3-C ,  4-O ) :   1.8162 B(  3-C , 11-H ) :   0.9694

FINAL SINGLE POINT ENERGY      -248.533435409803

DIPOLE MOMENT
-------------

Method             : SCF
Type of density    : Electron Density
Multiplicity       :   1
Irrep              :   0
Energy             :  -248.5413562814025283 Eh
Relativity type    :
Basis              : AO
                                X                 Y                 Z
Electronic contribution:      3.894814005      -1.086659788       0.003887150
Nuclear contribution   :     -6.375642517       0.709202385      -0.001522559
                        -----------------------------------------
Total Dipole Moment    :     -2.480828511      -0.377457403       0.002364591
                        -----------------------------------------
Magnitude (a.u.)       :      2.509380359
Magnitude (Debye)      :      6.378337977

Rotational constants in cm-1:             0.295264             0.140627             0.098822
Rotational constants in MHz :          8851.797425          4215.901328          2962.595312

                             ****ORCA TERMINATED NORMALLY****
TOTAL RUN TIME: 0 days 0 hours 0 minutes 57 seconds 804 msec
