                         Program Version 6.0.0  -   RELEASE  -
|  1> ! pbe def2-sv(p) def2/J RI DEFGRID1 loosescf d4 GCP(DFT/SV(P)) printgap
|  2> %output
|  3>     printlevel normal
|  4> end
|  5> * xyz 0 1
|  6> C -3.5270182955 0.0006799128 -0.0012627692
|  7> C -2.8420613491 0.9143258547 0.7816160013
|  8> C -1.4580341452 0.9060124164 0.7747267718
|  9> C -0.7397920754 0.000802489 -0.000726113
| 10> C -1.4576840095 -0.9042895955 -0.7766668217
| 11> C -2.8416925632 -0.9127354517 -0.7840836575
| 12> Cl -0.5806938146 -2.035524013 -1.7563811369
| 13> C 0.7398043491 -0.0001674962 0.0003448227
| 14> C 1.4594661831 0.9042313106 -0.774691555
| 15> C 2.8435030435 0.9111232002 -0.7806702195
| 16> C 3.5270219741 -0.0031319679 0.0027512696
| 17> C 2.8402289804 -0.9159126244 0.7850419114
| 18> C 1.45626225 -0.9060540251 0.7766932695
| 19> Cl 0.577480064 -2.0365266575 1.7557221459
| 20> Cl 0.5847195591 2.0365841607 -1.7551942134
| 21> Cl -0.5815076336 2.0374368727 1.7546659197
| 22> H -4.6045014391 0.0004178823 -0.0012294183
| 23> H -3.3693206364 1.6270699935 1.3934601628
| 24> H -3.3686351312 -1.6255847893 -1.3960603361
| 25> H 3.371894506 1.6233860835 -1.3920968089
| 26> H 4.6045449438 -0.0043331533 0.0036379363
| 27> H 3.366030207 -1.629297391 1.3974319088
| 28> *
| 29>
| 30>                          ****END OF INPUT****

CARTESIAN COORDINATES (ANGSTROEM)
---------------------------------
  C     -3.527018    0.000680   -0.001263
  C     -2.842061    0.914326    0.781616
  C     -1.458034    0.906012    0.774727
  C     -0.739792    0.000802   -0.000726
  C     -1.457684   -0.904290   -0.776667
  C     -2.841693   -0.912735   -0.784084
  Cl    -0.580694   -2.035524   -1.756381
  C      0.739804   -0.000167    0.000345
  C      1.459466    0.904231   -0.774692
  C      2.843503    0.911123   -0.780670
  C      3.527022   -0.003132    0.002751
  C      2.840229   -0.915913    0.785042
  C      1.456262   -0.906054    0.776693
  Cl     0.577480   -2.036527    1.755722
  Cl     0.584720    2.036584   -1.755194
  Cl    -0.581508    2.037437    1.754666
  H     -4.604501    0.000418   -0.001229
  H     -3.369321    1.627070    1.393460
  H     -3.368635   -1.625585   -1.396060
  H      3.371895    1.623386   -1.392097
  H      4.604545   -0.004333    0.003638
  H      3.366030   -1.629297    1.397432

 Total Charge           Charge          ....    0
 Multiplicity           Mult            ....    1
 Number of Electrons    NEL             ....  146
 Basis Dimension        Dim             ....  252

ORBITAL ENERGIES
----------------

  NO   OCC          E(Eh)            E(eV)
   0   2.0000    -100.646418     -2738.7283
   1   2.0000    -100.646407     -2738.7280
   2   2.0000    -100.646404     -2738.7279
   3   2.0000    -100.646388     -2738.7275
   4   2.0000      -9.965116      -271.1646
   5   2.0000      -9.965061      -271.1631
   6   2.0000      -9.965057      -271.1630
   7   2.0000      -9.965016      -271.1619
   8   2.0000      -9.932099      -270.2661
   9   2.0000      -9.932064      -270.2652
  10   2.0000      -9.913736      -269.7665
  11   2.0000      -9.913729      -269.7663
  12   2.0000      -9.910080      -269.6670
  13   2.0000      -9.910075      -269.6668
  14   2.0000      -9.910073      -269.6668
  15   2.0000      -9.910069      -269.6667
  16   2.0000      -9.182107      -249.8578
  17   2.0000      -9.182098      -249.8576
  18   2.0000      -9.182090      -249.8574
  19   2.0000      -9.182077      -249.8570
  20   2.0000      -7.013473      -190.8463
  21   2.0000      -7.013470      -190.8462
  22   2.0000      -7.013468      -190.8462
  23   2.0000      -7.013463      -190.8460
  24   2.0000      -7.002158      -190.5384
  25   2.0000      -7.002152      -190.5382
  26   2.0000      -7.002149      -190.5382
  27   2.0000      -7.002143      -190.5380
  28   2.0000      -7.001406      -190.5180
  29   2.0000      -7.001402      -190.5178
  30   2.0000      -7.001401      -190.5178
  31   2.0000      -7.001396      -190.5177
  32   2.0000      -0.848739       -23.0954
  33   2.0000      -0.823404       -22.4060
  34   2.0000      -0.804628       -21.8950
  35   2.0000      -0.801393       -21.8070
  36   2.0000      -0.755269       -20.5519
  37   2.0000      -0.755192       -20.5498
  38   2.0000      -0.716146       -19.4873
  39   2.0000      -0.664565       -18.0837
  40   2.0000      -0.664460       -18.0809
  41   2.0000      -0.662694       -18.0328
  42   2.0000      -0.582635       -15.8543
  43   2.0000      -0.551899       -15.0179
  44   2.0000      -0.547282       -14.8923
  45   2.0000      -0.541793       -14.7429
  46   2.0000      -0.491836       -13.3835
  47   2.0000      -0.464443       -12.6381
  48   2.0000      -0.454487       -12.3672
  49   2.0000      -0.450110       -12.2481
  50   2.0000      -0.427136       -11.6230
  51   2.0000      -0.414995       -11.2926
  52   2.0000      -0.400676       -10.9030
  53   2.0000      -0.400636       -10.9018
  54   2.0000      -0.399022       -10.8579
  55   2.0000      -0.376681       -10.2500
  56   2.0000      -0.375440       -10.2162
  57   2.0000      -0.356188        -9.6924
  58   2.0000      -0.340226        -9.2580
  59   2.0000      -0.338669        -9.2157
  60   2.0000      -0.337770        -9.1912
  61   2.0000      -0.331473        -9.0198
  62   2.0000      -0.317194        -8.6313
  63   2.0000      -0.290426        -7.9029
  64   2.0000      -0.286099        -7.7852
  65   2.0000      -0.277735        -7.5576
  66   2.0000      -0.277046        -7.5388
  67   2.0000      -0.271834        -7.3970
  68   2.0000      -0.270520        -7.3612
  69   2.0000      -0.235664        -6.4127
  70   2.0000      -0.230042        -6.2598
  71   2.0000      -0.223611        -6.0848
  72   2.0000      -0.222741        -6.0611
  73   0.0000      -0.062322        -1.6959
  74   0.0000      -0.055669        -1.5148
  75   0.0000      -0.051385        -1.3983
  76   0.0000      -0.050289        -1.3684
  77   0.0000      -0.020636        -0.5615

MULLIKEN ATOMIC CHARGES
-----------------------
   0 C :   -0.035861
   1 C :   -0.086212
   2 C :    0.074882
   3 C :    0.010458
   4 C :    0.074862
   5 C :   -0.086202
   6 Cl:   -0.059427
   7 C :    0.010451
   8 C :    0.074868
   9 C :   -0.086229
  10 C :   -0.035873
  11 C :   -0.086219
  12 C :    0.074902
  13 Cl:   -0.059422
  14 Cl:   -0.059450
  15 Cl:   -0.059438
  16 H :    0.068777
  17 H :    0.049085
  18 H :    0.049078
  19 H :    0.049083
  20 H :    0.068795
  21 H :    0.049093
Sum of atomic charges:   -0.0000000

LOEWDIN ATOMIC CHARGES
----------------------
   0 C :   -0.106566
   1 C :   -0.141048
   2 C :   -0.113405
   3 C :   -0.083590
   4 C :   -0.113420
   5 C :   -0.141049
   6 Cl:    0.149188
   7 C :   -0.083589
   8 C :   -0.113406
   9 C :   -0.141046
  10 C :   -0.106563
  11 C :   -0.141046
  12 C :   -0.113401
  13 Cl:    0.149184
  14 Cl:    0.149133
  15 Cl:    0.149160
  16 H :    0.132804
  17 H :    0.133963
  18 H :    0.133962
  19 H :    0.133964
  20 H :    0.132805
  21 H :    0.133963

  Mayer bond orders larger than 0.100000
B(  0-C ,  1-C ) :   1.3345 B(  0-C ,  5-C ) :   1.3345 B(  0-C , 16-H ) :   0.9576
B(  1-C ,  2-C ) :   1.3718 B(  1-C , 17-H ) :   0.9700 B(  2-C ,  3-C ) :   1.4266
B(  2-C , 15-Cl) :   1.0385 B(  3-C ,  4-C ) :   1.4265 B(  3-C ,  7-C ) :   0.9680
B(  4-C ,  5-C ) :   1.3719 B(  4-C ,  6-Cl) :   1.0385 B(  5-C , 18-H ) :   0.9700
B(  7-C ,  8-C ) :   1.4266 B(  7-C , 12-C ) :   1.4265 B(  8-C ,  9-C ) :   1.3718
B(  8-C , 14-Cl) :   1.0385 B(  9-C , 10-C ) :   1.3345 B(  9-C , 19-H ) :   0.9700
B( 10-C , 11-C ) :   1.3344 B( 10-C , 20-H ) :   0.9576 B( 11-C , 12-C ) :   1.3719
B( 11-C , 21-H ) :   0.9700 B( 12-C , 13-Cl) :   1.0384

Dispersion correction           -0.043174497
FINAL SINGLE POINT ENERGY     -2299.412069571404

DIPOLE MOMENT
-------------

Method             : SCF
Type of density    : Electron Density
Multiplicity       :   1
Irrep              :   0
Energy             : -2299.4419567542654477 Eh
Relativity type    :
Basis              : AO
                                X                 Y                 Z
Electronic contribution:      0.000014264       0.009483699      -0.005822229
Nuclear contribution   :      0.000014130      -0.010470316       0.006419040
                        -----------------------------------------
Total Dipole Moment    :      0.000028394      -0.000986617       0.000596812
                        -----------------------------------------
Magnitude (a.u.)       :      0.001153431
Magnitude (Debye)      :      0.002931788

Rotational constants in cm-1:             0.014268             0.011693             0.010427
Rotational constants in MHz :           427.744643           350.538806           312.586011

                             ****ORCA TERMINATED NORMALLY****
TOTAL RUN TIME: 0 days 0 hours 0 minutes 17 seconds 427 msec
