                         Program Version 6.0.0  -   RELEASE  -
|  1> ! r2scan-3c def2/J RI DEFGRID2 scfconv6 printgap
|  2> %output
|  3>     printlevel normal
|  4> end
|  5> * xyz 0 1
|  6> C 2.8600461253 0.7151916561 -0.176495688
|  7> C 1.9740045075 -0.4859613854 0.1377524915
|  8> C 0.4978637979 -0.2118452645 0.0693921035
|  9> C -0.0598822935 1.0498869606 0.2408828871
| 10> C -1.436403577 1.1997570627 0.1787218397
| 11> C -2.2156977872 0.0785356777 -0.0510206207
| 12> N -1.7042642362 -1.1328155798 -0.2164798026
| 13> C -0.3901864952 -1.2621382553 -0.1580466188
| 14> H 2.58633815 1.1518490179 -1.1342877748
| 15> H 3.8990325705 0.3998339011 -0.2263502671
| 16> H 2.7777619452 1.4780115881 0.5933207315
| 17> H 2.2062415645 -0.8502159075 1.1432704928
| 18> H 2.2031630399 -1.2973459714 -0.5569439446
| 19> H 0.565464069 1.9104754536 0.4198766974
| 20> H -1.893914519 2.1680891604 0.3059408119
| 21> H -3.2939286175 0.1410461591 -0.1086621985
| 22> H -0.0208305369 -2.2701401989 -0.301946999
| 23> *
| 24>
| 25>                          ****END OF INPUT****

CARTESIAN COORDINATES (ANGSTROEM)
---------------------------------
  C      2.860046    0.715192   -0.176496
  C      1.974005   -0.485961    0.137752
  C      0.497864   -0.211845    0.069392
  C     -0.059882    1.049887    0.240883
  C     -1.436404    1.199757    0.178722
  C     -2.215698    0.078536   -0.051021
  N     -1.704264   -1.132816   -0.216480
  C     -0.390186   -1.262138   -0.158047
  H      2.586338    1.151849   -1.134288
  H      3.899033    0.399834   -0.226350
  H      2.777762    1.478012    0.593321
  H      2.206242   -0.850216    1.143270
  H      2.203163   -1.297346   -0.556944
  H      0.565464    1.910475    0.419877
  H     -1.893915    2.168089    0.305941
  H     -3.293929    0.141046   -0.108662
  H     -0.020831   -2.270140   -0.301947

 Total Charge           Charge          ....    0
 Multiplicity           Mult            ....    1
 Number of Electrons    NEL             ....   58
 Basis Dimension        Dim             ....  202

ORBITAL ENERGIES
----------------

  NO   OCC          E(Eh)            E(eV)
   0   2.0000     -14.151329      -385.0772
   1   2.0000     -10.061076      -273.7758
   2   2.0000     -10.061019      -273.7743
   3   2.0000     -10.050534      -273.4889
   4   2.0000     -10.048868      -273.4436
   5   2.0000     -10.044271      -273.3185
   6   2.0000     -10.042155      -273.2609
   7   2.0000     -10.030284      -272.9379
   8   2.0000      -0.911757       -24.8102
   9   2.0000      -0.792115       -21.5545
  10   2.0000      -0.750210       -20.4143
  11   2.0000      -0.708615       -19.2824
  12   2.0000      -0.623500       -16.9663
  13   2.0000      -0.597872       -16.2689
  14   2.0000      -0.559631       -15.2283
  15   2.0000      -0.491488       -13.3741
  16   2.0000      -0.459607       -12.5065
  17   2.0000      -0.432918       -11.7803
  18   2.0000      -0.427827       -11.6418
  19   2.0000      -0.400335       -10.8937
  20   2.0000      -0.373772       -10.1708
  21   2.0000      -0.372329       -10.1316
  22   2.0000      -0.353855        -9.6289
  23   2.0000      -0.345627        -9.4050
  24   2.0000      -0.329956        -8.9786
  25   2.0000      -0.317707        -8.6452
  26   2.0000      -0.267223        -7.2715
  27   2.0000      -0.236378        -6.4322
  28   2.0000      -0.219626        -5.9763
  29   0.0000      -0.051096        -1.3904
  30   0.0000      -0.037328        -1.0157
  31   0.0000       0.081577         2.2198
  32   0.0000       0.097513         2.6535
  33   0.0000       0.101184         2.7533

MULLIKEN ATOMIC CHARGES
-----------------------
   0 C :   -0.477542
   1 C :   -0.316610
   2 C :    0.214092
   3 C :   -0.188708
   4 C :   -0.112739
   5 C :   -0.105180
   6 N :   -0.172667
   7 C :   -0.178076
   8 H :    0.165008
   9 H :    0.152804
  10 H :    0.141581
  11 H :    0.167171
  12 H :    0.152011
  13 H :    0.146172
  14 H :    0.147331
  15 H :    0.132596
  16 H :    0.132754
Sum of atomic charges:    0.0000000

LOEWDIN ATOMIC CHARGES
----------------------
   0 C :   -0.415804
   1 C :   -0.285485
   2 C :   -0.073948
   3 C :   -0.126285
   4 C :   -0.143994
   5 C :    0.071491
   6 N :   -0.613497
   7 C :    0.081912
   8 H :    0.156535
   9 H :    0.154489
  10 H :    0.150073
  11 H :    0.169098
  12 H :    0.165097
  13 H :    0.171866
  14 H :    0.169119
  15 H :    0.183534
  16 H :    0.185801

  Mayer bond orders larger than 0.100000
B(  0-C ,  1-C ) :   0.8688 B(  0-C ,  8-H ) :   0.9906 B(  0-C ,  9-H ) :   0.9709
B(  0-C , 10-H ) :   0.9636 B(  1-C ,  2-C ) :   0.8425 B(  1-C , 11-H ) :   0.9629
B(  1-C , 12-H ) :   1.0027 B(  2-C ,  3-C ) :   1.3861 B(  2-C ,  7-C ) :   1.2808
B(  3-C ,  4-C ) :   1.4232 B(  3-C , 13-H ) :   0.9460 B(  4-C ,  5-C ) :   1.3620
B(  4-C , 14-H ) :   0.9426 B(  5-C ,  6-N ) :   1.4552 B(  5-C , 15-H ) :   0.9834
B(  6-N ,  7-C ) :   1.5138 B(  7-C , 16-H ) :   1.0015

Dispersion correction           -0.005237026
FINAL SINGLE POINT ENERGY      -326.814876434435

DIPOLE MOMENT
-------------

Method             : SCF
Type of density    : Electron Density
Multiplicity       :   1
Irrep              :   0
Energy             :  -326.8174897010813993 Eh
Relativity type    :
Basis              : AO
                                X                 Y                 Z
Electronic contribution:     -7.707663915      -2.023036209       0.031515062
Nuclear contribution   :      8.461686598       2.650309792       0.124731723
                        -----------------------------------------
Total Dipole Moment    :      0.754022683       0.627273583       0.156246785
                        -----------------------------------------
Magnitude (a.u.)       :      0.993194548
Magnitude (Debye)      :      2.524499917

Rotational constants in cm-1:             0.166233             0.050150             0.039479
Rotational constants in MHz :          4983.553420          1503.463718          1183.564830

                             ****ORCA TERMINATED NORMALLY****
TOTAL RUN TIME: 0 days 0 hours 0 minutes 18 seconds 762 msec
