                         Program Version 6.0.0  -   RELEASE  -
|  1> ! r2scan-3c def2/J RI DEFGRID2 scfconv6 printgap
|  2> %output
|  3>     printlevel normal
|  4> end
|  5> %cpcm
|  6>     smd true
|  7>     smdsolvent "water"
|  8> end
|  9> * xyz 0 1
| 10> C 2.8600461253 0.7151916561 -0.176495688
| 11> C 1.9740045075 -0.4859613854 0.1377524915
| 12> C 0.4978637979 -0.2118452645 0.0693921035
| 13> C -0.0598822935 1.0498869606 0.2408828871
| 14> C -1.436403577 1.1997570627 0.1787218397
| 15> C -2.2156977872 0.0785356777 -0.0510206207
| 16> N -1.7042642362 -1.1328155798 -0.2164798026
| 17> C -0.3901864952 -1.2621382553 -0.1580466188
| 18> H 2.58633815 1.1518490179 -1.1342877748
| 19> H 3.8990325705 0.3998339011 -0.2263502671
| 20> H 2.7777619452 1.4780115881 0.5933207315
| 21> H 2.2062415645 -0.8502159075 1.1432704928
| 22> H 2.2031630399 -1.2973459714 -0.5569439446
| 23> H 0.565464069 1.9104754536 0.4198766974
| 24> H -1.893914519 2.1680891604 0.3059408119
| 25> H -3.2939286175 0.1410461591 -0.1086621985
| 26> H -0.0208305369 -2.2701401989 -0.301946999
| 27> *
| 28>
| 29>                          ****END OF INPUT****

CARTESIAN COORDINATES (ANGSTROEM)
---------------------------------
  C      2.860046    0.715192   -0.176496
  C      1.974005   -0.485961    0.137752
  C      0.497864   -0.211845    0.069392
  C     -0.059882    1.049887    0.240883
  C     -1.436404    1.199757    0.178722
  C     -2.215698    0.078536   -0.051021
  N     -1.704264   -1.132816   -0.216480
  C     -0.390186   -1.262138   -0.158047
  H      2.586338    1.151849   -1.134288
  H      3.899033    0.399834   -0.226350
  H      2.777762    1.478012    0.593321
  H      2.206242   -0.850216    1.143270
  H      2.203163   -1.297346   -0.556944
  H      0.565464    1.910475    0.419877
  H     -1.893915    2.168089    0.305941
  H     -3.293929    0.141046   -0.108662
  H     -0.020831   -2.270140   -0.301947

 Total Charge           Charge          ....    0
 Multiplicity           Mult            ....    1
 Number of Electrons    NEL             ....   58
 Basis Dimension        Dim             ....  202

ORBITAL ENERGIES
----------------

  NO   OCC          E(Eh)            E(eV)
   0   2.0000     -14.156694      -385.2232
   1   2.0000     -10.060069      -273.7484
   2   2.0000     -10.059749      -273.7397
   3   2.0000     -10.047108      -273.3957
   4   2.0000     -10.043521      -273.2981
   5   2.0000     -10.037921      -273.1457
   6   2.0000     -10.030364      -272.9401
   7   2.0000     -10.013526      -272.4819
   8   2.0000      -0.915132       -24.9020
   9   2.0000      -0.786468       -21.4009
  10   2.0000      -0.745435       -20.2843
  11   2.0000      -0.700671       -19.0662
  12   2.0000      -0.615123       -16.7383
  13   2.0000      -0.594667       -16.1817
  14   2.0000      -0.551638       -15.0108
  15   2.0000      -0.486506       -13.2385
  16   2.0000      -0.456145       -12.4123
  17   2.0000      -0.422655       -11.5010
  18   2.0000      -0.416578       -11.3357
  19   2.0000      -0.392235       -10.6732
  20   2.0000      -0.374134       -10.1807
  21   2.0000      -0.366623        -9.9763
  22   2.0000      -0.344380        -9.3711
  23   2.0000      -0.334877        -9.1125
  24   2.0000      -0.316341        -8.6081
  25   2.0000      -0.306916        -8.3516
  26   2.0000      -0.267865        -7.2890
  27   2.0000      -0.234855        -6.3907
  28   2.0000      -0.227592        -6.1931
  29   0.0000      -0.051628        -1.4049
  30   0.0000      -0.036489        -0.9929
  31   0.0000       0.089295         2.4299
  32   0.0000       0.103235         2.8092
  33   0.0000       0.113388         3.0855

MULLIKEN ATOMIC CHARGES
-----------------------
   0 C :   -0.510890
   1 C :   -0.315663
   2 C :    0.176511
   3 C :   -0.187371
   4 C :   -0.150706
   5 C :   -0.126838
   6 N :   -0.233951
   7 C :   -0.181771
   8 H :    0.170374
   9 H :    0.164550
  10 H :    0.158974
  11 H :    0.182630
  12 H :    0.170336
  13 H :    0.182232
  14 H :    0.182937
  15 H :    0.159283
  16 H :    0.159363
Sum of atomic charges:    0.0000000

LOEWDIN ATOMIC CHARGES
----------------------
   0 C :   -0.420687
   1 C :   -0.284468
   2 C :   -0.071629
   3 C :   -0.121551
   4 C :   -0.144304
   5 C :    0.059770
   6 N :   -0.665195
   7 C :    0.075398
   8 H :    0.157723
   9 H :    0.157676
  10 H :    0.155658
  11 H :    0.175797
  12 H :    0.171390
  13 H :    0.185179
  14 H :    0.182090
  15 H :    0.192062
  16 H :    0.195092

  Mayer bond orders larger than 0.100000
B(  0-C ,  1-C ) :   0.8550 B(  0-C ,  8-H ) :   0.9885 B(  0-C ,  9-H ) :   0.9680
B(  0-C , 10-H ) :   0.9607 B(  1-C ,  2-C ) :   0.8529 B(  1-C , 11-H ) :   0.9568
B(  1-C , 12-H ) :   1.0010 B(  2-C ,  3-C ) :   1.3697 B(  2-C ,  7-C ) :   1.2963
B(  3-C ,  4-C ) :   1.4004 B(  3-C , 13-H ) :   0.9448 B(  4-C ,  5-C ) :   1.3653
B(  4-C , 14-H ) :   0.9457 B(  5-C ,  6-N ) :   1.4462 B(  5-C , 15-H ) :   0.9724
B(  6-N ,  7-C ) :   1.5106 B(  7-C , 16-H ) :   0.9844

Dispersion correction           -0.005237026
FINAL SINGLE POINT ENERGY      -326.821648358153

DIPOLE MOMENT
-------------

Method             : SCF
Type of density    : Electron Density
Multiplicity       :   1
Irrep              :   0
Energy             :  -326.8242616247991350 Eh
Relativity type    :
Basis              : AO
                                X                 Y                 Z
Electronic contribution:     -7.406767402      -1.747314918       0.115662687
Nuclear contribution   :      8.461686598       2.650309792       0.124731723
                        -----------------------------------------
Total Dipole Moment    :      1.054919196       0.902994874       0.240394410
                        -----------------------------------------
Magnitude (a.u.)       :      1.409270636
Magnitude (Debye)      :      3.582081283

Rotational constants in cm-1:             0.166233             0.050150             0.039479
Rotational constants in MHz :          4983.553420          1503.463718          1183.564830

                             ****ORCA TERMINATED NORMALLY****
TOTAL RUN TIME: 0 days 0 hours 0 minutes 25 seconds 851 msec
