                         Program Version 6.0.0  -   RELEASE  -
|  1> ! r2scan-3c def2/J RI DEFGRID2 scfconv6 printgap
|  2> %output
|  3>     printlevel normal
|  4> end
|  5> %cpcm
|  6>     smd true
|  7>     smdsolvent "water"
|  8> end
|  9> * xyz 0 1
| 10> C -2.5794097868 -0.2642612898 7.855e-07
| 11> C -1.8720244434 -1.4763075569 -4.2655e-06
| 12> C -0.5070302235 -1.4533887198 -6.7755e-06
| 13> C 0.202374974 -0.2345205294 -4.3382e-06
| 14> C -0.5033716938 1.0027433253 -9.21e-07
| 15> C -1.9170545916 0.9307788985 6.0819e-06
| 16> N 0.0921676869 2.1954822111 1.7862e-06
| 17> N 1.5899003215 -0.3015552595 -5.324e-07
| 18> O 2.1431657114 -1.406424998 1.25604e-05
| 19> O 2.2645395145 0.7395403192 -8.2875e-06
| 20> H -3.6578018984 -0.2803359527 1.70611e-05
| 21> H -2.4016311152 -2.4140634783 -1.1861e-06
| 22> H 0.072671928 -2.3633265356 -7.387e-06
| 23> H -2.4671734484 1.8583426674 8.8261e-06
| 24> H 1.1008968582 2.2511214974 -9.506e-07
| 25> H -0.4704901565 3.0293419249 1.07895e-05
| 26> *
| 27>
| 28>                          ****END OF INPUT****

CARTESIAN COORDINATES (ANGSTROEM)
---------------------------------
  C     -2.579410   -0.264261    0.000001
  C     -1.872024   -1.476308   -0.000004
  C     -0.507030   -1.453389   -0.000007
  C      0.202375   -0.234521   -0.000004
  C     -0.503372    1.002743   -0.000001
  C     -1.917055    0.930779    0.000006
  N      0.092168    2.195482    0.000002
  N      1.589900   -0.301555   -0.000001
  O      2.143166   -1.406425    0.000013
  O      2.264540    0.739540   -0.000008
  H     -3.657802   -0.280336    0.000017
  H     -2.401631   -2.414063   -0.000001
  H      0.072672   -2.363327   -0.000007
  H     -2.467173    1.858343    0.000009
  H      1.100897    2.251121   -0.000001
  H     -0.470490    3.029342    0.000011

 Total Charge           Charge          ....    0
 Multiplicity           Mult            ....    1
 Number of Electrons    NEL             ....   72
 Basis Dimension        Dim             ....  240

ORBITAL ENERGIES
----------------

  NO   OCC          E(Eh)            E(eV)
   0   2.0000     -18.981101      -516.5020
   1   2.0000     -18.975065      -516.3378
   2   2.0000     -14.389814      -391.5667
   3   2.0000     -14.185873      -386.0172
   4   2.0000     -10.112208      -275.1672
   5   2.0000     -10.092009      -274.6175
   6   2.0000     -10.051918      -273.5266
   7   2.0000     -10.051377      -273.5119
   8   2.0000     -10.043395      -273.2947
   9   2.0000     -10.037787      -273.1421
  10   2.0000      -1.192491       -32.4493
  11   2.0000      -1.011724       -27.5304
  12   2.0000      -0.919281       -25.0149
  13   2.0000      -0.838119       -22.8064
  14   2.0000      -0.784974       -21.3602
  15   2.0000      -0.718349       -19.5473
  16   2.0000      -0.668411       -18.1884
  17   2.0000      -0.596975       -16.2445
  18   2.0000      -0.579015       -15.7558
  19   2.0000      -0.528546       -14.3825
  20   2.0000      -0.506422       -13.7805
  21   2.0000      -0.499107       -13.5814
  22   2.0000      -0.494933       -13.4678
  23   2.0000      -0.485986       -13.2243
  24   2.0000      -0.441321       -12.0090
  25   2.0000      -0.411669       -11.2021
  26   2.0000      -0.407128       -11.0785
  27   2.0000      -0.381798       -10.3893
  28   2.0000      -0.353443        -9.6177
  29   2.0000      -0.329619        -8.9694
  30   2.0000      -0.313628        -8.5343
  31   2.0000      -0.290091        -7.8938
  32   2.0000      -0.287655        -7.8275
  33   2.0000      -0.259218        -7.0537
  34   2.0000      -0.257903        -7.0179
  35   2.0000      -0.206530        -5.6200
  36   0.0000      -0.118885        -3.2350
  37   0.0000      -0.032230        -0.8770
  38   0.0000      -0.016214        -0.4412
  39   0.0000       0.077746         2.1156
  40   0.0000       0.094006         2.5580

MULLIKEN ATOMIC CHARGES
-----------------------
   0 C :   -0.095804
   1 C :   -0.216488
   2 C :   -0.226562
   3 C :   -0.086113
   4 C :    0.388108
   5 C :   -0.399327
   6 N :   -0.467231
   7 N :    0.371482
   8 O :   -0.343673
   9 O :   -0.341889
  10 H :    0.190367
  11 H :    0.187492
  12 H :    0.204380
  13 H :    0.190961
  14 H :    0.331300
  15 H :    0.312997
Sum of atomic charges:    0.0000000

LOEWDIN ATOMIC CHARGES
----------------------
   0 C :   -0.117933
   1 C :   -0.189826
   2 C :   -0.073084
   3 C :    0.198938
   4 C :    0.205704
   5 C :   -0.143155
   6 N :   -0.485262
   7 N :   -0.510613
   8 O :   -0.110186
   9 O :   -0.112995
  10 H :    0.185566
  11 H :    0.183107
  12 H :    0.206615
  13 H :    0.192120
  14 H :    0.290010
  15 H :    0.280993

  Mayer bond orders larger than 0.100000
B(  0-C ,  1-C ) :   1.2352 B(  0-C ,  5-C ) :   1.4662 B(  0-C , 10-H ) :   0.9473
B(  1-C ,  2-C ) :   1.4256 B(  1-C , 11-H ) :   0.9616 B(  2-C ,  3-C ) :   1.1432
B(  2-C ,  8-O ) :   0.1063 B(  2-C , 12-H ) :   0.9651 B(  3-C ,  4-C ) :   1.4348
B(  3-C ,  7-N ) :   1.1291 B(  4-C ,  5-C ) :   1.1302 B(  4-C ,  6-N ) :   1.0739
B(  5-C , 13-H ) :   0.9725 B(  6-N , 14-H ) :   0.8584 B(  6-N , 15-H ) :   0.9075
B(  7-N ,  8-O ) :   1.7653 B(  7-N ,  9-O ) :   1.6461 B(  8-O ,  9-O ) :   0.1626

Dispersion correction           -0.005720831
FINAL SINGLE POINT ENERGY      -492.037256243225

DIPOLE MOMENT
-------------

Method             : SCF
Type of density    : Electron Density
Multiplicity       :   1
Irrep              :   0
Energy             :  -492.0450405412221926 Eh
Relativity type    :
Basis              : AO
                                X                 Y                 Z
Electronic contribution:      4.538624944      -0.368319899      -0.000017435
Nuclear contribution   :     -7.265250282       1.952963724       0.000025545
                        -----------------------------------------
Total Dipole Moment    :     -2.726625338       1.584643824       0.000008110
                        -----------------------------------------
Magnitude (a.u.)       :      3.153661647
Magnitude (Debye)      :      8.015970867

Rotational constants in cm-1:             0.078722             0.043146             0.027871
Rotational constants in MHz :          2360.038519          1293.478808           835.539985

                             ****ORCA TERMINATED NORMALLY****
TOTAL RUN TIME: 0 days 0 hours 0 minutes 37 seconds 185 msec
