                         Program Version 6.0.0  -   RELEASE  -
|  1> ! pbe def2-sv(p) def2/J RI DEFGRID1 loosescf d4 GCP(DFT/SV(P)) printgap
|  2> %output
|  3>     printlevel normal
|  4> end
|  5> * xyz 0 1
|  6> C -2.1540579969 -1.0181524736 -0.4878699144
|  7> C -1.2166451919 -0.182288003 0.404055342
|  8> H -1.7732439299 0.1953955936 1.2711245449
|  9> C -0.6448467339 1.0268102546 -0.362330477
| 10> H -0.544719139 0.7861242655 -1.4300573259
| 11> C 0.7544387972 1.3360894021 0.1841009971
| 12> H 0.689241914 1.4629100407 1.2760866981
| 13> C 1.673493514 0.1516138055 -0.1251261351
| 14> H 1.8648266118 0.1377925985 -1.2086488286
| 15> C 0.9778831776 -1.1724168436 0.2486823164
| 16> H 1.6423024537 -1.7115516699 0.9393266633
| 17> O -0.1949493414 -0.9841671162 0.9944751987
| 18> O 0.7584650816 -1.8926563131 -0.9227378508
| 19> O 2.8796994304 0.2255673945 0.5868202179
| 20> O 1.3052997961 2.4827938049 -0.409768271
| 21> O -1.4253927219 2.1845891043 -0.1835295022
| 22> O -2.6370381436 -2.1727575281 0.148063338
| 23> H -1.6086863083 -1.3685479368 -1.3665867465
| 24> H -2.986445946 -0.3801496875 -0.8147981204
| 25> H 0.4590098256 -2.7896833038 -0.7060794866
| 26> H 3.3008072138 1.076163136 0.3874543973
| 27> H 0.6459448417 3.1925866558 -0.360827648
| 28> H -2.2403723553 2.1275490284 -0.6998961383
| 29> H -3.0734431191 -1.930330402 0.9769517198
| 30> *
| 31>
| 32>                          ****END OF INPUT****

CARTESIAN COORDINATES (ANGSTROEM)
---------------------------------
  C     -2.154058   -1.018152   -0.487870
  C     -1.216645   -0.182288    0.404055
  H     -1.773244    0.195396    1.271125
  C     -0.644847    1.026810   -0.362330
  H     -0.544719    0.786124   -1.430057
  C      0.754439    1.336089    0.184101
  H      0.689242    1.462910    1.276087
  C      1.673494    0.151614   -0.125126
  H      1.864827    0.137793   -1.208649
  C      0.977883   -1.172417    0.248682
  H      1.642302   -1.711552    0.939327
  O     -0.194949   -0.984167    0.994475
  O      0.758465   -1.892656   -0.922738
  O      2.879699    0.225567    0.586820
  O      1.305300    2.482794   -0.409768
  O     -1.425393    2.184589   -0.183530
  O     -2.637038   -2.172758    0.148063
  H     -1.608686   -1.368548   -1.366587
  H     -2.986446   -0.380150   -0.814798
  H      0.459010   -2.789683   -0.706079
  H      3.300807    1.076163    0.387454
  H      0.645945    3.192587   -0.360828
  H     -2.240372    2.127549   -0.699896
  H     -3.073443   -1.930330    0.976952

 Total Charge           Charge          ....    0
 Multiplicity           Mult            ....    1
 Number of Electrons    NEL             ....   96
 Basis Dimension        Dim             ....  192

ORBITAL ENERGIES
----------------

  NO   OCC          E(Eh)            E(eV)
   0   2.0000     -18.771433      -510.7967
   1   2.0000     -18.762739      -510.5601
   2   2.0000     -18.762357      -510.5497
   3   2.0000     -18.750474      -510.2263
   4   2.0000     -18.749794      -510.2078
   5   2.0000     -18.745179      -510.0822
   6   2.0000      -9.981412      -271.6080
   7   2.0000      -9.949027      -270.7268
   8   2.0000      -9.944997      -270.6171
   9   2.0000      -9.938116      -270.4299
  10   2.0000      -9.935614      -270.3618
  11   2.0000      -9.934687      -270.3366
  12   2.0000      -0.978467       -26.6254
  13   2.0000      -0.952413       -25.9165
  14   2.0000      -0.931903       -25.3584
  15   2.0000      -0.926673       -25.2161
  16   2.0000      -0.913421       -24.8554
  17   2.0000      -0.908082       -24.7102
  18   2.0000      -0.707528       -19.2528
  19   2.0000      -0.690336       -18.7850
  20   2.0000      -0.622876       -16.9493
  21   2.0000      -0.581729       -15.8296
  22   2.0000      -0.568993       -15.4831
  23   2.0000      -0.513043       -13.9606
  24   2.0000      -0.505950       -13.7676
  25   2.0000      -0.501725       -13.6526
  26   2.0000      -0.478821       -13.0294
  27   2.0000      -0.448158       -12.1950
  28   2.0000      -0.439514       -11.9598
  29   2.0000      -0.429090       -11.6761
  30   2.0000      -0.411208       -11.1895
  31   2.0000      -0.396089       -10.7781
  32   2.0000      -0.387813       -10.5529
  33   2.0000      -0.384444       -10.4613
  34   2.0000      -0.365880        -9.9561
  35   2.0000      -0.351669        -9.5694
  36   2.0000      -0.328150        -8.9294
  37   2.0000      -0.316412        -8.6100
  38   2.0000      -0.303405        -8.2561
  39   2.0000      -0.294538        -8.0148
  40   2.0000      -0.280531        -7.6336
  41   2.0000      -0.263217        -7.1625
  42   2.0000      -0.258848        -7.0436
  43   2.0000      -0.237007        -6.4493
  44   2.0000      -0.228581        -6.2200
  45   2.0000      -0.224666        -6.1135
  46   2.0000      -0.216288        -5.8855
  47   2.0000      -0.203579        -5.5397
  48   0.0000       0.002312         0.0629
  49   0.0000       0.019674         0.5354
  50   0.0000       0.035104         0.9552
  51   0.0000       0.045942         1.2502
  52   0.0000       0.058349         1.5878

MULLIKEN ATOMIC CHARGES
-----------------------
   0 C :    0.045379
   1 C :    0.049132
   2 H :    0.060399
   3 C :   -0.026244
   4 H :    0.067124
   5 C :    0.057325
   6 H :    0.060228
   7 C :    0.074286
   8 H :    0.068379
   9 C :    0.186258
  10 H :    0.075522
  11 O :   -0.308037
  12 O :   -0.400635
  13 O :   -0.417330
  14 O :   -0.427388
  15 O :   -0.415616
  16 O :   -0.426601
  17 H :    0.094615
  18 H :    0.051057
  19 H :    0.311791
  20 H :    0.308928
  21 H :    0.306628
  22 H :    0.309132
  23 H :    0.295667
Sum of atomic charges:   -0.0000000

LOEWDIN ATOMIC CHARGES
----------------------
   0 C :   -0.144334
   1 C :   -0.077842
   2 H :    0.111664
   3 C :   -0.080151
   4 H :    0.107750
   5 C :   -0.075720
   6 H :    0.108198
   7 C :   -0.071239
   8 H :    0.110070
   9 C :    0.003731
  10 H :    0.107008
  11 O :   -0.143284
  12 O :   -0.306446
  13 O :   -0.315973
  14 O :   -0.324691
  15 O :   -0.318153
  16 O :   -0.332919
  17 H :    0.115299
  18 H :    0.086917
  19 H :    0.291451
  20 H :    0.289912
  21 H :    0.285284
  22 H :    0.290057
  23 H :    0.283410

  Mayer bond orders larger than 0.100000
B(  0-C ,  1-C ) :   1.0418 B(  0-C , 16-O ) :   1.0834 B(  0-C , 17-H ) :   0.8974
B(  0-C , 18-H ) :   0.9118 B(  1-C ,  2-H ) :   0.8807 B(  1-C ,  3-C ) :   0.9654
B(  1-C , 11-O ) :   1.0077 B(  3-C ,  4-H ) :   0.8883 B(  3-C ,  5-C ) :   1.0163
B(  3-C , 15-O ) :   1.0635 B(  5-C ,  6-H ) :   0.8619 B(  5-C ,  7-C ) :   1.0477
B(  5-C , 14-O ) :   1.0876 B(  7-C ,  8-H ) :   0.8804 B(  7-C ,  9-C ) :   0.9897
B(  7-C , 13-O ) :   1.0877 B(  9-C , 10-H ) :   0.8922 B(  9-C , 11-O ) :   1.0763
B(  9-C , 12-O ) :   1.1103 B( 12-O , 19-H ) :   0.8332 B( 13-O , 20-H ) :   0.8417
B( 14-O , 21-H ) :   0.8312 B( 15-O , 22-H ) :   0.8436 B( 16-O , 23-H ) :   0.8521

Dispersion correction           -0.024443369
FINAL SINGLE POINT ENERGY      -685.693021224579

DIPOLE MOMENT
-------------

Method             : SCF
Type of density    : Electron Density
Multiplicity       :   1
Irrep              :   0
Energy             :  -685.8225508914679267 Eh
Relativity type    :
Basis              : AO
                                X                 Y                 Z
Electronic contribution:      2.365613510      -0.230275353       1.464036968
Nuclear contribution   :     -3.390494358       0.746581697      -1.625456397
                        -----------------------------------------
Total Dipole Moment    :     -1.024880848       0.516306345      -0.161419429
                        -----------------------------------------
Magnitude (a.u.)       :      1.158882749
Magnitude (Debye)      :      2.945645853

Rotational constants in cm-1:             0.042352             0.026629             0.018386
Rotational constants in MHz :          1269.671574           798.318595           551.195849

                             ****ORCA TERMINATED NORMALLY****
TOTAL RUN TIME: 0 days 0 hours 0 minutes 12 seconds 1 msec
