                         Program Version 6.0.0  -   RELEASE  -
|  1> ! r2scan-3c def2/J RI DEFGRID2 scfconv6 printgap
|  2> %output
|  3>     printlevel normal
|  4> end
|  5> %cpcm
|  6>     smd true
|  7>     smdsolvent "water"
|  8> end
|  9> * xyz 0 1
| 10> N 6.514e-06 1.35827e-05 -0.0668323253
| 11> H -0.6981676479 0.6296938519 0.309603512
| 12> H 0.8944931483 0.2895867443 0.3096262093
| 13> H -0.1964160252 -0.919469354 0.3095333815
| 14> *
| 15>
| 16>                          ****END OF INPUT****

CARTESIAN COORDINATES (ANGSTROEM)
---------------------------------
  N      0.000007    0.000014   -0.066832
  H     -0.698168    0.629694    0.309604
  H      0.894493    0.289587    0.309626
  H     -0.196416   -0.919469    0.309533

 Total Charge           Charge          ....    0
 Multiplicity           Mult            ....    1
 Number of Electrons    NEL             ....   10
 Basis Dimension        Dim             ....   39

ORBITAL ENERGIES
----------------

  NO   OCC          E(Eh)            E(eV)
   0   2.0000     -14.124998      -384.3607
   1   2.0000      -0.807560       -21.9748
   2   2.0000      -0.417686       -11.3658
   3   2.0000      -0.417640       -11.3646
   4   2.0000      -0.233940        -6.3658
   5   0.0000       0.131327         3.5736
   6   0.0000       0.202872         5.5204
   7   0.0000       0.202906         5.5214
   8   0.0000       0.338495         9.2109
   9   0.0000       0.338508         9.2113

MULLIKEN ATOMIC CHARGES
-----------------------
   0 N :   -0.900821
   1 H :    0.300349
   2 H :    0.300202
   3 H :    0.300270
Sum of atomic charges:   -0.0000000

LOEWDIN ATOMIC CHARGES
----------------------
   0 N :   -0.705301
   1 H :    0.235120
   2 H :    0.235080
   3 H :    0.235101

  Mayer bond orders larger than 0.100000
B(  0-N ,  1-H ) :   0.9012 B(  0-N ,  2-H ) :   0.9012 B(  0-N ,  3-H ) :   0.9012

Dispersion correction           -0.000179140
FINAL SINGLE POINT ENERGY       -56.546524679014

DIPOLE MOMENT
-------------

Method             : SCF
Type of density    : Electron Density
Multiplicity       :   1
Irrep              :   0
Energy             :   -56.5503181789756937 Eh
Relativity type    :
Basis              : AO
                                X                 Y                 Z
Electronic contribution:     -0.000159092       0.000127276      -0.102812035
Nuclear contribution   :     -0.000084891      -0.000177011       0.870963558
                        -----------------------------------------
Total Dipole Moment    :     -0.000243983      -0.000049735       0.768151523
                        -----------------------------------------
Magnitude (a.u.)       :      0.768151563
Magnitude (Debye)      :      1.952486107

Rotational constants in cm-1:             9.982013             9.980008             6.306286
Rotational constants in MHz :        299253.223656        299193.115808        189057.693115

                             ****ORCA TERMINATED NORMALLY****
TOTAL RUN TIME: 0 days 0 hours 0 minutes 3 seconds 893 msec
