                         Program Version 6.0.0  -   RELEASE  -
|  1> ! wb97x-v def2-tzvp def2/J RIJCOSX DEFGRID2 scfconv7 GCP(DFT/TZ) printgap
|  2> %output
|  3>     printlevel normal
|  4> end
|  5> * xyz 0 1
|  6> C -0.9962540119538786 -1.816710394734866 5.313808972486523e-05
|  7> C 0.378395301771721 -1.6076920306150517 -0.0001777885167082629
|  8> C 0.8727212477623728 -0.2979520620621357 -0.00034911544060923914
|  9> C 0.003205653671778688 0.7976514293714138 6.23691321362484e-05
| 10> C -1.3664251199957624 0.5718159531182099 0.00012897043203070164
| 11> C -1.8702244367671048 -0.7351228708693965 0.00011729275850822039
| 12> O -2.191696352663172 1.6674124030924171 9.459283625911281e-05
| 13> C 2.325468569173877 -0.10147042420289552 -0.0015702228417734914
| 14> O 2.881575262131122 0.9910343571758932 0.000366012954878543
| 15> H -1.3971270884078908 -2.8248998404267924 0.00010350256405679612
| 16> H 1.0693430536072546 -2.4451064803780556 -0.00022176468826585647
| 17> H 0.39192151310399403 1.8106568377849146 -7.381787827387108e-05
| 18> H -2.945190986929293 -0.8940138893952081 0.00016826755033243898
| 19> H -3.1137568657800423 1.3738350394910426 0.00010547126288033526
| 20> H 2.9230909441594592 -1.033716139816655 0.0014416787223915629
| 21> *
| 22>
| 23>                          ****END OF INPUT****

CARTESIAN COORDINATES (ANGSTROEM)
---------------------------------
  C     -0.996254   -1.816710    0.000053
  C      0.378395   -1.607692   -0.000178
  C      0.872721   -0.297952   -0.000349
  C      0.003206    0.797651    0.000062
  C     -1.366425    0.571816    0.000129
  C     -1.870224   -0.735123    0.000117
  O     -2.191696    1.667412    0.000095
  C      2.325469   -0.101470   -0.001570
  O      2.881575    0.991034    0.000366
  H     -1.397127   -2.824900    0.000104
  H      1.069343   -2.445106   -0.000222
  H      0.391922    1.810657   -0.000074
  H     -2.945191   -0.894014    0.000168
  H     -3.113757    1.373835    0.000105
  H      2.923091   -1.033716    0.001442

 Total Charge           Charge          ....    0
 Multiplicity           Mult            ....    1
 Number of Electrons    NEL             ....   64
 Basis Dimension        Dim             ....  315

ORBITAL ENERGIES
----------------

  NO   OCC          E(Eh)            E(eV)
   0   2.0000     -21.716994      -590.9494
   1   2.0000     -21.671496      -589.7114
   2   2.0000     -12.140996      -330.3733
   3   2.0000     -12.131638      -330.1187
   4   2.0000     -12.076213      -328.6105
   5   2.0000     -12.074695      -328.5691
   6   2.0000     -12.074190      -328.5554
   7   2.0000     -12.069422      -328.4257
   8   2.0000     -12.065003      -328.3054
   9   2.0000      -1.731996       -47.1300
  10   2.0000      -1.710381       -46.5418
  11   2.0000      -1.407829       -38.3090
  12   2.0000      -1.314522       -35.7700
  13   2.0000      -1.301444       -35.4141
  14   2.0000      -1.192588       -32.4520
  15   2.0000      -1.166141       -31.7323
  16   2.0000      -1.122565       -30.5465
  17   2.0000      -1.075146       -29.2562
  18   2.0000      -1.026286       -27.9267
  19   2.0000      -1.008226       -27.4352
  20   2.0000      -0.981672       -26.7127
  21   2.0000      -0.966492       -26.2996
  22   2.0000      -0.962125       -26.1807
  23   2.0000      -0.950451       -25.8631
  24   2.0000      -0.904005       -24.5992
  25   2.0000      -0.901232       -24.5238
  26   2.0000      -0.863662       -23.5014
  27   2.0000      -0.840171       -22.8622
  28   2.0000      -0.802608       -21.8401
  29   2.0000      -0.789631       -21.4870
  30   2.0000      -0.670816       -18.2538
  31   2.0000      -0.655750       -17.8439
  32   0.0000      -0.353563        -9.6209
  33   0.0000      -0.259737        -7.0678
  34   0.0000      -0.220164        -5.9910
  35   0.0000      -0.158257        -4.3064
  36   0.0000      -0.080677        -2.1953

MULLIKEN ATOMIC CHARGES
-----------------------
   0 C :   -0.115984
   1 C :   -0.213672
   2 C :    0.195836
   3 C :   -0.300561
   4 C :    0.307243
   5 C :   -0.199594
   6 O :   -0.379832
   7 C :    0.088543
   8 O :   -0.299877
   9 H :    0.128602
  10 H :    0.126800
  11 H :    0.154155
  12 H :    0.116750
  13 H :    0.314373
  14 H :    0.077218
Sum of atomic charges:    0.0000000

LOEWDIN ATOMIC CHARGES
----------------------
   0 C :   -0.131308
   1 C :   -0.110826
   2 C :   -0.159961
   3 C :   -0.052902
   4 C :   -0.257424
   5 C :   -0.124470
   6 O :    0.075690
   7 C :   -0.235078
   8 O :    0.094952
   9 H :    0.145731
  10 H :    0.146737
  11 H :    0.161185
  12 H :    0.142637
  13 H :    0.186935
  14 H :    0.118102

  Mayer bond orders larger than 0.100000
B(  0-C ,  1-C ) :   1.4438 B(  0-C ,  5-C ) :   1.4414 B(  0-C ,  9-H ) :   0.9612
B(  1-C ,  2-C ) :   1.3614 B(  1-C , 10-H ) :   0.9614 B(  2-C ,  3-C ) :   1.3711
B(  2-C ,  7-C ) :   0.9000 B(  2-C ,  8-O ) :  -0.1252 B(  3-C ,  4-C ) :   1.4019
B(  3-C , 11-H ) :   0.9669 B(  4-C ,  5-C ) :   1.3387 B(  4-C ,  6-O ) :   1.1647
B(  5-C , 12-H ) :   0.9571 B(  6-O , 13-H ) :   0.8876 B(  7-C ,  8-O ) :   2.1252
B(  7-C , 14-H ) :   1.0184

FINAL SINGLE POINT ENERGY      -420.819207616941

DIPOLE MOMENT
-------------

Method             : SCF
Type of density    : Electron Density
Multiplicity       :   1
Irrep              :   0
Energy             :  -420.8267519926413343 Eh
Relativity type    :
Basis              : AO
                                X                 Y                 Z
Electronic contribution:      1.445953303       2.504714142      -0.002579558
Nuclear contribution   :     -2.876085215      -3.734075932       0.001989153
                        -----------------------------------------
Total Dipole Moment    :     -1.430131912      -1.229361790      -0.000590405
                        -----------------------------------------
Magnitude (a.u.)       :      1.885897146
Magnitude (Debye)      :      4.793569594

Rotational constants in cm-1:             0.098415             0.042973             0.029912
Rotational constants in MHz :          2950.418640          1288.302481           896.740305

                             ****ORCA TERMINATED NORMALLY****
TOTAL RUN TIME: 0 days 0 hours 2 minutes 42 seconds 178 msec
