                         Program Version 6.0.0  -   RELEASE  -
|  1> ! wb97x-v def2-tzvp def2/J RIJCOSX DEFGRID2 scfconv7 GCP(DFT/TZ) printgap
|  2> %output
|  3>     printlevel normal
|  4> end
|  5> %cpcm
|  6>     smd true
|  7>     smdsolvent "water"
|  8> end
|  9> * xyz 0 1
| 10> C -0.9962540119538786 -1.816710394734866 5.313808972486523e-05
| 11> C 0.378395301771721 -1.6076920306150517 -0.0001777885167082629
| 12> C 0.8727212477623728 -0.2979520620621357 -0.00034911544060923914
| 13> C 0.003205653671778688 0.7976514293714138 6.23691321362484e-05
| 14> C -1.3664251199957624 0.5718159531182099 0.00012897043203070164
| 15> C -1.8702244367671048 -0.7351228708693965 0.00011729275850822039
| 16> O -2.191696352663172 1.6674124030924171 9.459283625911281e-05
| 17> C 2.325468569173877 -0.10147042420289552 -0.0015702228417734914
| 18> O 2.881575262131122 0.9910343571758932 0.000366012954878543
| 19> H -1.3971270884078908 -2.8248998404267924 0.00010350256405679612
| 20> H 1.0693430536072546 -2.4451064803780556 -0.00022176468826585647
| 21> H 0.39192151310399403 1.8106568377849146 -7.381787827387108e-05
| 22> H -2.945190986929293 -0.8940138893952081 0.00016826755033243898
| 23> H -3.1137568657800423 1.3738350394910426 0.00010547126288033526
| 24> H 2.9230909441594592 -1.033716139816655 0.0014416787223915629
| 25> *
| 26>
| 27>                          ****END OF INPUT****

CARTESIAN COORDINATES (ANGSTROEM)
---------------------------------
  C     -0.996254   -1.816710    0.000053
  C      0.378395   -1.607692   -0.000178
  C      0.872721   -0.297952   -0.000349
  C      0.003206    0.797651    0.000062
  C     -1.366425    0.571816    0.000129
  C     -1.870224   -0.735123    0.000117
  O     -2.191696    1.667412    0.000095
  C      2.325469   -0.101470   -0.001570
  O      2.881575    0.991034    0.000366
  H     -1.397127   -2.824900    0.000104
  H      1.069343   -2.445106   -0.000222
  H      0.391922    1.810657   -0.000074
  H     -2.945191   -0.894014    0.000168
  H     -3.113757    1.373835    0.000105
  H      2.923091   -1.033716    0.001442

 Total Charge           Charge          ....    0
 Multiplicity           Mult            ....    1
 Number of Electrons    NEL             ....   64
 Basis Dimension        Dim             ....  315

ORBITAL ENERGIES
----------------

  NO   OCC          E(Eh)            E(eV)
   0   2.0000     -21.705563      -590.6384
   1   2.0000     -21.680123      -589.9461
   2   2.0000     -12.146056      -330.5110
   3   2.0000     -12.122476      -329.8693
   4   2.0000     -12.068055      -328.3885
   5   2.0000     -12.062810      -328.2458
   6   2.0000     -12.060993      -328.1963
   7   2.0000     -12.059504      -328.1558
   8   2.0000     -12.058806      -328.1368
   9   2.0000      -1.722646       -46.8756
  10   2.0000      -1.720932       -46.8289
  11   2.0000      -1.399722       -38.0884
  12   2.0000      -1.306485       -35.5513
  13   2.0000      -1.292277       -35.1647
  14   2.0000      -1.187651       -32.3176
  15   2.0000      -1.157828       -31.5061
  16   2.0000      -1.117874       -30.4189
  17   2.0000      -1.074170       -29.2296
  18   2.0000      -1.021665       -27.8009
  19   2.0000      -1.006644       -27.3922
  20   2.0000      -0.983557       -26.7639
  21   2.0000      -0.953550       -25.9474
  22   2.0000      -0.953297       -25.9405
  23   2.0000      -0.943675       -25.6787
  24   2.0000      -0.917819       -24.9751
  25   2.0000      -0.892952       -24.2985
  26   2.0000      -0.849934       -23.1279
  27   2.0000      -0.829994       -22.5853
  28   2.0000      -0.805872       -21.9289
  29   2.0000      -0.782595       -21.2955
  30   2.0000      -0.663155       -18.0454
  31   2.0000      -0.647800       -17.6275
  32   0.0000      -0.349458        -9.5092
  33   0.0000      -0.251272        -6.8374
  34   0.0000      -0.212843        -5.7918
  35   0.0000      -0.147225        -4.0062
  36   0.0000      -0.070144        -1.9087

MULLIKEN ATOMIC CHARGES
-----------------------
   0 C :   -0.131117
   1 C :   -0.242008
   2 C :    0.170543
   3 C :   -0.329927
   4 C :    0.303090
   5 C :   -0.234763
   6 O :   -0.460778
   7 C :    0.154802
   8 O :   -0.426916
   9 H :    0.172377
  10 H :    0.172651
  11 H :    0.160068
  12 H :    0.177342
  13 H :    0.380812
  14 H :    0.133825
Sum of atomic charges:    0.0000000

LOEWDIN ATOMIC CHARGES
----------------------
   0 C :   -0.130711
   1 C :   -0.103546
   2 C :   -0.170110
   3 C :   -0.070103
   4 C :   -0.263728
   5 C :   -0.106355
   6 O :    0.050574
   7 C :   -0.211946
   8 O :    0.017496
   9 H :    0.156854
  10 H :    0.159822
  11 H :    0.160230
  12 H :    0.161076
  13 H :    0.212886
  14 H :    0.137560

  Mayer bond orders larger than 0.100000
B(  0-C ,  1-C ) :   1.4042 B(  0-C ,  5-C ) :   1.3956 B(  0-C ,  9-H ) :   0.9637
B(  1-C ,  2-C ) :   1.3542 B(  1-C , 10-H ) :   0.9673 B(  2-C ,  3-C ) :   1.3235
B(  2-C ,  7-C ) :   0.9458 B(  2-C ,  8-O ) :  -0.1171 B(  3-C ,  4-C ) :   1.4264
B(  3-C , 11-H ) :   0.9650 B(  4-C ,  5-C ) :   1.3355 B(  4-C ,  6-O ) :   1.1193
B(  5-C , 12-H ) :   0.9629 B(  6-O , 13-H ) :   0.8462 B(  7-C ,  8-O ) :   2.0003
B(  7-C , 14-H ) :   0.9972

FINAL SINGLE POINT ENERGY      -420.834346702607

DIPOLE MOMENT
-------------

Method             : SCF
Type of density    : Electron Density
Multiplicity       :   1
Irrep              :   0
Energy             :  -420.8418910783070146 Eh
Relativity type    :
Basis              : AO
                                X                 Y                 Z
Electronic contribution:      0.872264751       1.835535737      -0.002883567
Nuclear contribution   :     -2.876085215      -3.734075932       0.001989153
                        -----------------------------------------
Total Dipole Moment    :     -2.003820464      -1.898540195      -0.000894414
                        -----------------------------------------
Magnitude (a.u.)       :      2.760389850
Magnitude (Debye)      :      7.016353401

Rotational constants in cm-1:             0.098415             0.042973             0.029912
Rotational constants in MHz :          2950.418640          1288.302481           896.740305

                             ****ORCA TERMINATED NORMALLY****
TOTAL RUN TIME: 0 days 0 hours 2 minutes 35 seconds 407 msec
