                         Program Version 6.0.0  -   RELEASE  -
|  1> ! r2scan-3c def2/J RI DEFGRID2 scfconv6 printgap
|  2> %output
|  3>     printlevel normal
|  4> end
|  5> * xyz 0 1
|  6> C -4.1868385456 -0.3568041216 -0.1841538834
|  7> C -2.7144027271 -0.1270254939 -0.0376160366
|  8> C -1.9925026091 -0.7244212655 0.9876830192
|  9> C -0.6283363099 -0.5260900925 1.1057190878
| 10> C 0.0419013155 0.2760183044 0.1920477102
| 11> C -0.6738346572 0.8885300664 -0.8292285821
| 12> C -2.0362706811 0.6846276754 -0.9408881591
| 13> C 1.5100465283 0.5269266492 0.3421821053
| 14> O 1.9318435112 1.4805465439 1.0049648358
| 15> N 2.3139989449 -0.3422650377 -0.2822130711
| 16> C 3.7521176639 -0.2061032316 -0.2005668036
| 17> C 1.795747422 -1.4536643842 -1.0557708645
| 18> H -4.70004709 0.5775034948 -0.3993997583
| 19> H -4.3744100167 -1.0395959016 -1.01197696
| 20> H -4.6039596606 -0.7905893541 0.7202583601
| 21> H -2.5014770733 -1.3507795879 1.7053073103
| 22> H -0.0796052638 -0.9880726412 1.9137907024
| 23> H -0.1592730619 1.5295468636 -1.5305546234
| 24> H -2.58309314 1.1645579809 -1.739006144
| 25> H 4.1733464139 -0.0628503618 -1.1959752238
| 26> H 4.1880542422 -1.0943607985 0.2573800045
| 27> H 3.9737450124 0.6641800533 0.414641455
| 28> H 1.146455571 -1.0987825745 -1.8566398288
| 29> H 1.2243135508 -2.1345038338 -0.423731992
| 30> H 2.6341797134 -1.990584007 -1.4894987714
| 31> *
| 32>
| 33>                          ****END OF INPUT****

CARTESIAN COORDINATES (ANGSTROEM)
---------------------------------
  C     -4.186839   -0.356804   -0.184154
  C     -2.714403   -0.127025   -0.037616
  C     -1.992503   -0.724421    0.987683
  C     -0.628336   -0.526090    1.105719
  C      0.041901    0.276018    0.192048
  C     -0.673835    0.888530   -0.829229
  C     -2.036271    0.684628   -0.940888
  C      1.510047    0.526927    0.342182
  O      1.931844    1.480547    1.004965
  N      2.313999   -0.342265   -0.282213
  C      3.752118   -0.206103   -0.200567
  C      1.795747   -1.453664   -1.055771
  H     -4.700047    0.577503   -0.399400
  H     -4.374410   -1.039596   -1.011977
  H     -4.603960   -0.790589    0.720258
  H     -2.501477   -1.350780    1.705307
  H     -0.079605   -0.988073    1.913791
  H     -0.159273    1.529547   -1.530555
  H     -2.583093    1.164558   -1.739006
  H      4.173346   -0.062850   -1.195975
  H      4.188054   -1.094361    0.257380
  H      3.973745    0.664180    0.414641
  H      1.146456   -1.098783   -1.856640
  H      1.224314   -2.134504   -0.423732
  H      2.634180   -1.990584   -1.489499

 Total Charge           Charge          ....    0
 Multiplicity           Mult            ....    1
 Number of Electrons    NEL             ....   88
 Basis Dimension        Dim             ....  303

ORBITAL ENERGIES
----------------

  NO   OCC          E(Eh)            E(eV)
   0   2.0000     -18.903269      -514.3841
   1   2.0000     -14.194273      -386.2458
   2   2.0000     -10.119443      -275.3641
   3   2.0000     -10.068787      -273.9856
   4   2.0000     -10.059972      -273.7458
   5   2.0000     -10.047352      -273.4024
   6   2.0000     -10.043457      -273.2964
   7   2.0000     -10.039612      -273.1917
   8   2.0000     -10.039332      -273.1841
   9   2.0000     -10.035928      -273.0915
  10   2.0000     -10.035865      -273.0898
  11   2.0000     -10.030999      -272.9574
  12   2.0000      -0.990941       -26.9649
  13   2.0000      -0.904782       -24.6204
  14   2.0000      -0.834421       -22.7058
  15   2.0000      -0.755471       -20.5574
  16   2.0000      -0.720641       -19.6096
  17   2.0000      -0.699826       -19.0432
  18   2.0000      -0.682263       -18.5653
  19   2.0000      -0.651023       -17.7152
  20   2.0000      -0.584024       -15.8921
  21   2.0000      -0.567650       -15.4465
  22   2.0000      -0.522997       -14.2315
  23   2.0000      -0.494233       -13.4488
  24   2.0000      -0.455725       -12.4009
  25   2.0000      -0.447017       -12.1639
  26   2.0000      -0.434558       -11.8249
  27   2.0000      -0.433691       -11.8013
  28   2.0000      -0.412411       -11.2223
  29   2.0000      -0.397883       -10.8270
  30   2.0000      -0.393856       -10.7174
  31   2.0000      -0.382636       -10.4121
  32   2.0000      -0.376874       -10.2553
  33   2.0000      -0.365903        -9.9567
  34   2.0000      -0.363780        -9.8989
  35   2.0000      -0.352828        -9.6009
  36   2.0000      -0.333486        -9.0746
  37   2.0000      -0.333148        -9.0654
  38   2.0000      -0.321713        -8.7543
  39   2.0000      -0.309426        -8.4199
  40   2.0000      -0.241396        -6.5687
  41   2.0000      -0.235441        -6.4067
  42   2.0000      -0.213862        -5.8195
  43   2.0000      -0.204166        -5.5556
  44   0.0000      -0.038016        -1.0345
  45   0.0000      -0.033447        -0.9101
  46   0.0000       0.000531         0.0145
  47   0.0000       0.057667         1.5692
  48   0.0000       0.080801         2.1987

MULLIKEN ATOMIC CHARGES
-----------------------
   0 C :   -0.546283
   1 C :    0.232682
   2 C :   -0.213229
   3 C :   -0.235642
   4 C :    0.165228
   5 C :   -0.235312
   6 C :   -0.195785
   7 C :    0.154208
   8 O :   -0.445699
   9 N :    0.110153
  10 C :   -0.430129
  11 C :   -0.411642
  12 H :    0.156225
  13 H :    0.168023
  14 H :    0.151365
  15 H :    0.144655
  16 H :    0.150568
  17 H :    0.150868
  18 H :    0.144809
  19 H :    0.145665
  20 H :    0.145336
  21 H :    0.202054
  22 H :    0.170462
  23 H :    0.170030
  24 H :    0.151392
Sum of atomic charges:    0.0000000

LOEWDIN ATOMIC CHARGES
----------------------
   0 C :   -0.389093
   1 C :   -0.097243
   2 C :   -0.159226
   3 C :   -0.134473
   4 C :   -0.032806
   5 C :   -0.133641
   6 C :   -0.156287
   7 C :    0.340128
   8 O :   -0.469515
   9 N :   -0.829168
  10 C :   -0.111911
  11 C :   -0.105412
  12 H :    0.163836
  13 H :    0.165688
  14 H :    0.159892
  15 H :    0.168804
  16 H :    0.175655
  17 H :    0.175934
  18 H :    0.169756
  19 H :    0.172550
  20 H :    0.172570
  21 H :    0.210159
  22 H :    0.181923
  23 H :    0.180130
  24 H :    0.181748

  Mayer bond orders larger than 0.100000
B(  0-C ,  1-C ) :   0.7861 B(  0-C , 12-H ) :   0.9821 B(  0-C , 13-H ) :   0.9734
B(  0-C , 14-H ) :   0.9921 B(  1-C ,  2-C ) :   1.4078 B(  1-C ,  6-C ) :   1.3824
B(  2-C ,  3-C ) :   1.4350 B(  2-C , 15-H ) :   0.9387 B(  3-C ,  4-C ) :   1.4265
B(  3-C , 16-H ) :   0.9531 B(  4-C ,  5-C ) :   1.4173 B(  4-C ,  7-C ) :   0.8791
B(  4-C ,  8-O ) :  -0.1132 B(  5-C ,  6-C ) :   1.4394 B(  5-C , 17-H ) :   0.9546
B(  6-C , 18-H ) :   0.9470 B(  7-C ,  8-O ) :   1.9006 B(  7-C ,  9-N ) :   1.2313
B(  9-N , 10-C ) :   0.9126 B(  9-N , 11-C ) :   0.9078 B( 10-C , 19-H ) :   0.9563
B( 10-C , 20-H ) :   0.9554 B( 10-C , 21-H ) :   0.9545 B( 11-C , 22-H ) :   0.9562
B( 11-C , 23-H ) :   0.9556 B( 11-C , 24-H ) :   0.9575

Dispersion correction           -0.009257144
FINAL SINGLE POINT ENERGY      -518.737071701301

DIPOLE MOMENT
-------------

Method             : SCF
Type of density    : Electron Density
Multiplicity       :   1
Irrep              :   0
Energy             :  -518.7435668392357684 Eh
Relativity type    :
Basis              : AO
                                X                 Y                 Z
Electronic contribution:      1.251048547       4.840664301       3.375898589
Nuclear contribution   :     -1.517702861      -6.185296016      -4.335448298
                        -----------------------------------------
Total Dipole Moment    :     -0.266654314      -1.344631715      -0.959549709
                        -----------------------------------------
Magnitude (a.u.)       :      1.673282587
Magnitude (Debye)      :      4.253146333

Rotational constants in cm-1:             0.079132             0.016760             0.016283
Rotational constants in MHz :          2372.325379           502.463356           488.156271

                             ****ORCA TERMINATED NORMALLY****
TOTAL RUN TIME: 0 days 0 hours 0 minutes 41 seconds 501 msec
