                         Program Version 6.0.0  -   RELEASE  -
|  1> ! r2scan-3c def2/J RI DEFGRID2 scfconv6 printgap
|  2> %output
|  3>     printlevel normal
|  4> end
|  5> %cpcm
|  6>     smd true
|  7>     smdsolvent "water"
|  8> end
|  9> * xyz 0 1
| 10> C -4.1868385456 -0.3568041216 -0.1841538834
| 11> C -2.7144027271 -0.1270254939 -0.0376160366
| 12> C -1.9925026091 -0.7244212655 0.9876830192
| 13> C -0.6283363099 -0.5260900925 1.1057190878
| 14> C 0.0419013155 0.2760183044 0.1920477102
| 15> C -0.6738346572 0.8885300664 -0.8292285821
| 16> C -2.0362706811 0.6846276754 -0.9408881591
| 17> C 1.5100465283 0.5269266492 0.3421821053
| 18> O 1.9318435112 1.4805465439 1.0049648358
| 19> N 2.3139989449 -0.3422650377 -0.2822130711
| 20> C 3.7521176639 -0.2061032316 -0.2005668036
| 21> C 1.795747422 -1.4536643842 -1.0557708645
| 22> H -4.70004709 0.5775034948 -0.3993997583
| 23> H -4.3744100167 -1.0395959016 -1.01197696
| 24> H -4.6039596606 -0.7905893541 0.7202583601
| 25> H -2.5014770733 -1.3507795879 1.7053073103
| 26> H -0.0796052638 -0.9880726412 1.9137907024
| 27> H -0.1592730619 1.5295468636 -1.5305546234
| 28> H -2.58309314 1.1645579809 -1.739006144
| 29> H 4.1733464139 -0.0628503618 -1.1959752238
| 30> H 4.1880542422 -1.0943607985 0.2573800045
| 31> H 3.9737450124 0.6641800533 0.414641455
| 32> H 1.146455571 -1.0987825745 -1.8566398288
| 33> H 1.2243135508 -2.1345038338 -0.423731992
| 34> H 2.6341797134 -1.990584007 -1.4894987714
| 35> *
| 36>
| 37>                          ****END OF INPUT****

CARTESIAN COORDINATES (ANGSTROEM)
---------------------------------
  C     -4.186839   -0.356804   -0.184154
  C     -2.714403   -0.127025   -0.037616
  C     -1.992503   -0.724421    0.987683
  C     -0.628336   -0.526090    1.105719
  C      0.041901    0.276018    0.192048
  C     -0.673835    0.888530   -0.829229
  C     -2.036271    0.684628   -0.940888
  C      1.510047    0.526927    0.342182
  O      1.931844    1.480547    1.004965
  N      2.313999   -0.342265   -0.282213
  C      3.752118   -0.206103   -0.200567
  C      1.795747   -1.453664   -1.055771
  H     -4.700047    0.577503   -0.399400
  H     -4.374410   -1.039596   -1.011977
  H     -4.603960   -0.790589    0.720258
  H     -2.501477   -1.350780    1.705307
  H     -0.079605   -0.988073    1.913791
  H     -0.159273    1.529547   -1.530555
  H     -2.583093    1.164558   -1.739006
  H      4.173346   -0.062850   -1.195975
  H      4.188054   -1.094361    0.257380
  H      3.973745    0.664180    0.414641
  H      1.146456   -1.098783   -1.856640
  H      1.224314   -2.134504   -0.423732
  H      2.634180   -1.990584   -1.489499

 Total Charge           Charge          ....    0
 Multiplicity           Mult            ....    1
 Number of Electrons    NEL             ....   88
 Basis Dimension        Dim             ....  303

ORBITAL ENERGIES
----------------

  NO   OCC          E(Eh)            E(eV)
   0   2.0000     -18.923018      -514.9215
   1   2.0000     -14.198946      -386.3730
   2   2.0000     -10.131998      -275.7057
   3   2.0000     -10.054141      -273.5871
   4   2.0000     -10.051517      -273.5157
   5   2.0000     -10.045223      -273.3444
   6   2.0000     -10.044453      -273.3235
   7   2.0000     -10.038141      -273.1517
   8   2.0000     -10.037875      -273.1445
   9   2.0000     -10.032254      -272.9915
  10   2.0000     -10.032229      -272.9908
  11   2.0000     -10.018710      -272.6230
  12   2.0000      -1.008595       -27.4453
  13   2.0000      -0.909439       -24.7471
  14   2.0000      -0.833956       -22.6931
  15   2.0000      -0.753158       -20.4945
  16   2.0000      -0.718673       -19.5561
  17   2.0000      -0.692637       -18.8476
  18   2.0000      -0.676423       -18.4064
  19   2.0000      -0.645616       -17.5681
  20   2.0000      -0.580930       -15.8079
  21   2.0000      -0.564693       -15.3661
  22   2.0000      -0.519336       -14.1318
  23   2.0000      -0.491928       -13.3860
  24   2.0000      -0.452459       -12.3120
  25   2.0000      -0.444941       -12.1075
  26   2.0000      -0.436237       -11.8706
  27   2.0000      -0.427380       -11.6296
  28   2.0000      -0.410846       -11.1797
  29   2.0000      -0.389369       -10.5953
  30   2.0000      -0.388816       -10.5802
  31   2.0000      -0.374452       -10.1894
  32   2.0000      -0.369258       -10.0480
  33   2.0000      -0.367819       -10.0089
  34   2.0000      -0.357828        -9.7370
  35   2.0000      -0.348329        -9.4785
  36   2.0000      -0.339692        -9.2435
  37   2.0000      -0.332723        -9.0539
  38   2.0000      -0.319496        -8.6939
  39   2.0000      -0.305718        -8.3190
  40   2.0000      -0.244602        -6.6560
  41   2.0000      -0.242048        -6.5865
  42   2.0000      -0.220431        -5.9982
  43   2.0000      -0.219193        -5.9645
  44   0.0000      -0.037688        -1.0255
  45   0.0000      -0.034036        -0.9262
  46   0.0000      -0.009821        -0.2672
  47   0.0000       0.065577         1.7844
  48   0.0000       0.093831         2.5533

MULLIKEN ATOMIC CHARGES
-----------------------
   0 C :   -0.569898
   1 C :    0.209533
   2 C :   -0.248768
   3 C :   -0.241760
   4 C :    0.106349
   5 C :   -0.246558
   6 C :   -0.225949
   7 C :    0.212177
   8 O :   -0.569950
   9 N :    0.120212
  10 C :   -0.440243
  11 C :   -0.441554
  12 H :    0.172272
  13 H :    0.184967
  14 H :    0.170644
  15 H :    0.177897
  16 H :    0.181844
  17 H :    0.181710
  18 H :    0.176969
  19 H :    0.175266
  20 H :    0.175048
  21 H :    0.185924
  22 H :    0.186433
  23 H :    0.186695
  24 H :    0.180741
Sum of atomic charges:    0.0000000

LOEWDIN ATOMIC CHARGES
----------------------
   0 C :   -0.393149
   1 C :   -0.098883
   2 C :   -0.166086
   3 C :   -0.139445
   4 C :   -0.051814
   5 C :   -0.139106
   6 C :   -0.161789
   7 C :    0.340772
   8 O :   -0.565163
   9 N :   -0.807809
  10 C :   -0.107418
  11 C :   -0.099239
  12 H :    0.169777
  13 H :    0.173032
  14 H :    0.166028
  15 H :    0.181058
  16 H :    0.186427
  17 H :    0.186437
  18 H :    0.181698
  19 H :    0.185963
  20 H :    0.186055
  21 H :    0.202520
  22 H :    0.188486
  23 H :    0.187161
  24 H :    0.194488

  Mayer bond orders larger than 0.100000
B(  0-C ,  1-C ) :   0.8035 B(  0-C , 12-H ) :   0.9746 B(  0-C , 13-H ) :   0.9652
B(  0-C , 14-H ) :   0.9865 B(  1-C ,  2-C ) :   1.3760 B(  1-C ,  6-C ) :   1.3510
B(  2-C ,  3-C ) :   1.4082 B(  2-C , 15-H ) :   0.9527 B(  3-C ,  4-C ) :   1.3972
B(  3-C , 16-H ) :   0.9572 B(  4-C ,  5-C ) :   1.3850 B(  4-C ,  7-C ) :   0.8781
B(  4-C ,  8-O ) :  -0.1167 B(  5-C ,  6-C ) :   1.4172 B(  5-C , 17-H ) :   0.9586
B(  6-C , 18-H ) :   0.9579 B(  7-C ,  8-O ) :   1.8117 B(  7-C ,  9-N ) :   1.3086
B(  9-N , 10-C ) :   0.9052 B(  9-N , 11-C ) :   0.9030 B( 10-C , 19-H ) :   0.9463
B( 10-C , 20-H ) :   0.9456 B( 10-C , 21-H ) :   0.9564 B( 11-C , 22-H ) :   0.9493
B( 11-C , 23-H ) :   0.9485 B( 11-C , 24-H ) :   0.9475

Dispersion correction           -0.009257144
FINAL SINGLE POINT ENERGY      -518.750593578266

DIPOLE MOMENT
-------------

Method             : SCF
Type of density    : Electron Density
Multiplicity       :   1
Irrep              :   0
Energy             :  -518.7570887162004283 Eh
Relativity type    :
Basis              : AO
                                X                 Y                 Z
Electronic contribution:      1.142922334       4.111093618       2.858805504
Nuclear contribution   :     -1.517702861      -6.185296016      -4.335448298
                        -----------------------------------------
Total Dipole Moment    :     -0.374780527      -2.074202398      -1.476642794
                        -----------------------------------------
Magnitude (a.u.)       :      2.573567557
Magnitude (Debye)      :      6.541488869

Rotational constants in cm-1:             0.079132             0.016760             0.016283
Rotational constants in MHz :          2372.325379           502.463356           488.156271

                             ****ORCA TERMINATED NORMALLY****
TOTAL RUN TIME: 0 days 0 hours 0 minutes 52 seconds 233 msec
