                         Program Version 6.0.0  -   RELEASE  -
|  1> ! pbe def2-sv(p) def2/J RI DEFGRID1 loosescf d4 GCP(DFT/SV(P)) printgap
|  2> %output
|  3>     printlevel normal
|  4> end
|  5> * xyz 0 1
|  6> C -2.0848094335 -1.2166044832 -0.2220094117
|  7> C -1.2557810582 -0.3684724861 0.7542981456
|  8> H -1.8656429253 -0.2364859816 1.6548237161
|  9> C -0.9201568776 1.0197754606 0.1644930051
| 10> H -1.1861075123 1.0477538502 -0.8973436091
| 11> C 0.5890607312 1.2835923101 0.2776502782
| 12> H 0.8705708934 1.325378837 1.3456715607
| 13> C 1.3329942889 0.1163574581 -0.3817329238
| 14> H 0.9887838681 0.0188804634 -1.4175312976
| 15> C 1.0013221308 -1.1899201857 0.3894090302
| 16> H 1.8325313509 -1.4363751611 1.0613589587
| 17> O -0.1008709704 -1.0307882471 1.2581221947
| 18> O 0.8670435249 -2.2852136133 -0.4475028707
| 19> O 2.7162523798 0.3201595244 -0.4772434007
| 20> O 0.9407226126 2.4886166613 -0.3526241561
| 21> O -1.660185366 2.0587366459 0.7541355958
| 22> O -1.4592933057 -1.2735931591 -1.4916756368
| 23> H -3.069385809 -0.746010478 -0.3055073267
| 24> H -2.1901586488 -2.2228588375 0.1999175231
| 25> H 0.1379101436 -2.1068950547 -1.0788459225
| 26> H 3.0618382498 0.6624167961 0.3595653452
| 27> H 0.2303856556 3.1324698847 -0.2005602704
| 28> H -1.505372882 2.0759524548 1.7106029285
| 29> H -2.0625367383 -1.6921681734 -2.1225399032
| 30> *
| 31>
| 32>                          ****END OF INPUT****

CARTESIAN COORDINATES (ANGSTROEM)
---------------------------------
  C     -2.084809   -1.216604   -0.222009
  C     -1.255781   -0.368472    0.754298
  H     -1.865643   -0.236486    1.654824
  C     -0.920157    1.019775    0.164493
  H     -1.186108    1.047754   -0.897344
  C      0.589061    1.283592    0.277650
  H      0.870571    1.325379    1.345672
  C      1.332994    0.116357   -0.381733
  H      0.988784    0.018880   -1.417531
  C      1.001322   -1.189920    0.389409
  H      1.832531   -1.436375    1.061359
  O     -0.100871   -1.030788    1.258122
  O      0.867044   -2.285214   -0.447503
  O      2.716252    0.320160   -0.477243
  O      0.940723    2.488617   -0.352624
  O     -1.660185    2.058737    0.754136
  O     -1.459293   -1.273593   -1.491676
  H     -3.069386   -0.746010   -0.305507
  H     -2.190159   -2.222859    0.199918
  H      0.137910   -2.106895   -1.078846
  H      3.061838    0.662417    0.359565
  H      0.230386    3.132470   -0.200560
  H     -1.505373    2.075952    1.710603
  H     -2.062537   -1.692168   -2.122540

 Total Charge           Charge          ....    0
 Multiplicity           Mult            ....    1
 Number of Electrons    NEL             ....   96
 Basis Dimension        Dim             ....  192

ORBITAL ENERGIES
----------------

  NO   OCC          E(Eh)            E(eV)
   0   2.0000     -18.797034      -511.4933
   1   2.0000     -18.770017      -510.7581
   2   2.0000     -18.762497      -510.5535
   3   2.0000     -18.743657      -510.0408
   4   2.0000     -18.739153      -509.9183
   5   2.0000     -18.730301      -509.6774
   6   2.0000      -9.969893      -271.2946
   7   2.0000      -9.957206      -270.9494
   8   2.0000      -9.956413      -270.9278
   9   2.0000      -9.948465      -270.7115
  10   2.0000      -9.939603      -270.4704
  11   2.0000      -9.931523      -270.2505
  12   2.0000      -0.975729       -26.5509
  13   2.0000      -0.958139       -26.0723
  14   2.0000      -0.949163       -25.8280
  15   2.0000      -0.926348       -25.2072
  16   2.0000      -0.908381       -24.7183
  17   2.0000      -0.894218       -24.3329
  18   2.0000      -0.711588       -19.3633
  19   2.0000      -0.688533       -18.7359
  20   2.0000      -0.626660       -17.0523
  21   2.0000      -0.589119       -16.0307
  22   2.0000      -0.564684       -15.3658
  23   2.0000      -0.533850       -14.5268
  24   2.0000      -0.510485       -13.8910
  25   2.0000      -0.483459       -13.1556
  26   2.0000      -0.473896       -12.8954
  27   2.0000      -0.460609       -12.5338
  28   2.0000      -0.452141       -12.3034
  29   2.0000      -0.428954       -11.6724
  30   2.0000      -0.411152       -11.1880
  31   2.0000      -0.408730       -11.1221
  32   2.0000      -0.398493       -10.8435
  33   2.0000      -0.396143       -10.7796
  34   2.0000      -0.350762        -9.5447
  35   2.0000      -0.343509        -9.3474
  36   2.0000      -0.334292        -9.0965
  37   2.0000      -0.321527        -8.7492
  38   2.0000      -0.297390        -8.0924
  39   2.0000      -0.286788        -7.8039
  40   2.0000      -0.277448        -7.5497
  41   2.0000      -0.274457        -7.4684
  42   2.0000      -0.260278        -7.0825
  43   2.0000      -0.255532        -6.9534
  44   2.0000      -0.234609        -6.3840
  45   2.0000      -0.222153        -6.0451
  46   2.0000      -0.208751        -5.6804
  47   2.0000      -0.193593        -5.2679
  48   0.0000      -0.003501        -0.0953
  49   0.0000       0.014483         0.3941
  50   0.0000       0.039483         1.0744
  51   0.0000       0.041906         1.1403
  52   0.0000       0.062007         1.6873

MULLIKEN ATOMIC CHARGES
-----------------------
   0 C :   -0.005236
   1 C :    0.063774
   2 H :    0.066294
   3 C :    0.007181
   4 H :    0.083110
   5 C :    0.047302
   6 H :    0.026994
   7 C :    0.033232
   8 H :    0.063199
   9 C :    0.225685
  10 H :    0.051324
  11 O :   -0.306630
  12 O :   -0.412266
  13 O :   -0.402968
  14 O :   -0.403019
  15 O :   -0.416479
  16 O :   -0.437496
  17 H :    0.096822
  18 H :    0.102466
  19 H :    0.294116
  20 H :    0.299081
  21 H :    0.297185
  22 H :    0.301598
  23 H :    0.324731
Sum of atomic charges:   -0.0000000

LOEWDIN ATOMIC CHARGES
----------------------
   0 C :   -0.137561
   1 C :   -0.067489
   2 H :    0.122149
   3 C :   -0.084737
   4 H :    0.120518
   5 C :   -0.087657
   6 H :    0.089488
   7 C :   -0.083906
   8 H :    0.118818
   9 C :   -0.008791
  10 H :    0.106780
  11 O :   -0.153443
  12 O :   -0.317111
  13 O :   -0.302555
  14 O :   -0.319577
  15 O :   -0.310939
  16 O :   -0.322586
  17 H :    0.114872
  18 H :    0.112365
  19 H :    0.262779
  20 H :    0.284020
  21 H :    0.279403
  22 H :    0.284373
  23 H :    0.300789

  Mayer bond orders larger than 0.100000
B(  0-C ,  1-C ) :   1.0635 B(  0-C , 16-O ) :   1.0181 B(  0-C , 17-H ) :   0.9129
B(  0-C , 18-H ) :   0.9104 B(  1-C ,  2-H ) :   0.8881 B(  1-C ,  3-C ) :   0.9550
B(  1-C , 11-O ) :   1.0676 B(  3-C ,  4-H ) :   0.8709 B(  3-C ,  5-C ) :   1.0283
B(  3-C , 15-O ) :   1.0156 B(  5-C ,  6-H ) :   0.8571 B(  5-C ,  7-C ) :   0.9948
B(  5-C , 14-O ) :   1.1127 B(  7-C ,  8-H ) :   0.8725 B(  7-C ,  9-C ) :   0.9581
B(  7-C , 13-O ) :   1.0592 B(  9-C , 10-H ) :   0.8894 B(  9-C , 11-O ) :   1.0088
B(  9-C , 12-O ) :   1.1492 B( 12-O , 19-H ) :   0.7916 B( 13-O , 20-H ) :   0.8486
B( 14-O , 21-H ) :   0.8318 B( 15-O , 22-H ) :   0.8467 B( 16-O , 19-H ) :   0.1218
B( 16-O , 23-H ) :   0.8371

Dispersion correction           -0.025216443
FINAL SINGLE POINT ENERGY      -685.690915737747

DIPOLE MOMENT
-------------

Method             : SCF
Type of density    : Electron Density
Multiplicity       :   1
Irrep              :   0
Energy             :  -685.8229546604950428 Eh
Relativity type    :
Basis              : AO
                                X                 Y                 Z
Electronic contribution:      2.708641219       0.315557908       0.174038828
Nuclear contribution   :     -4.443735016      -0.162822093       0.279257014
                        -----------------------------------------
Total Dipole Moment    :     -1.735093797       0.152735814       0.453295843
                        -----------------------------------------
Magnitude (a.u.)       :      1.799821056
Magnitude (Debye)      :      4.574781560

Rotational constants in cm-1:             0.035877             0.032599             0.021418
Rotational constants in MHz :          1075.561602           977.305352           642.093606

                             ****ORCA TERMINATED NORMALLY****
TOTAL RUN TIME: 0 days 0 hours 0 minutes 11 seconds 974 msec
