                         Program Version 6.0.0  -   RELEASE  -
|  1> ! pbe def2-sv(p) def2/J RI DEFGRID1 loosescf d4 GCP(DFT/SV(P)) printgap
|  2> %output
|  3>     printlevel normal
|  4> end
|  5> * xyz 0 1
|  6> C 1.2703790557 2.76607e-05 -5.638e-07
|  7> C -0.1589998897 -6.93912e-05 2.4492e-06
|  8> N -1.3050284442 2.51472e-05 -1.3349e-06
|  9> H 1.6307168377 -0.5326289541 0.8779953463
| 10> H 1.6303889999 1.0268636031 0.0222478426
| 11> H 1.6307138967 -0.4940868375 -0.9002471055
| 12> *
| 13>
| 14>                          ****END OF INPUT****

CARTESIAN COORDINATES (ANGSTROEM)
---------------------------------
  C      1.270379    0.000028   -0.000001
  C     -0.159000   -0.000069    0.000002
  N     -1.305028    0.000025   -0.000001
  H      1.630717   -0.532629    0.877995
  H      1.630389    1.026864    0.022248
  H      1.630714   -0.494087   -0.900247

 Total Charge           Charge          ....    0
 Multiplicity           Mult            ....    1
 Number of Electrons    NEL             ....   22
 Basis Dimension        Dim             ....   48

ORBITAL ENERGIES
----------------

  NO   OCC          E(Eh)            E(eV)
   0   2.0000     -13.980155      -380.4194
   1   2.0000      -9.936605      -270.3888
   2   2.0000      -9.928956      -270.1806
   3   2.0000      -0.815180       -22.1822
   4   2.0000      -0.706985       -19.2380
   5   2.0000      -0.462689       -12.5904
   6   2.0000      -0.423404       -11.5214
   7   2.0000      -0.423374       -11.5206
   8   2.0000      -0.297549        -8.0967
   9   2.0000      -0.291365        -7.9284
  10   2.0000      -0.291365        -7.9284
  11   0.0000       0.005034         0.1370
  12   0.0000       0.005044         0.1373
  13   0.0000       0.029645         0.8067
  14   0.0000       0.103964         2.8290
  15   0.0000       0.103984         2.8296

MULLIKEN ATOMIC CHARGES
-----------------------
   0 C :   -0.221849
   1 C :   -0.283092
   2 N :    0.047798
   3 H :    0.152373
   4 H :    0.152398
   5 H :    0.152372
Sum of atomic charges:    0.0000000

LOEWDIN ATOMIC CHARGES
----------------------
   0 C :   -0.350016
   1 C :   -0.067511
   2 N :   -0.067008
   3 H :    0.161507
   4 H :    0.161523
   5 H :    0.161505

  Mayer bond orders larger than 0.100000
B(  0-C ,  1-C ) :   1.2424 B(  0-C ,  3-H ) :   0.9111 B(  0-C ,  4-H ) :   0.9111
B(  0-C ,  5-H ) :   0.9111 B(  1-C ,  2-N ) :   3.0522

Dispersion correction           -0.002377900
FINAL SINGLE POINT ENERGY      -132.456843109509

DIPOLE MOMENT
-------------

Method             : SCF
Type of density    : Electron Density
Multiplicity       :   1
Irrep              :   0
Energy             :  -132.4737343886234271 Eh
Relativity type    :
Basis              : AO
                                X                 Y                 Z
Electronic contribution:     -3.149975159      -0.000148364       0.000005221
Nuclear contribution   :      4.582190102       0.000138811      -0.000003682
                        -----------------------------------------
Total Dipole Moment    :      1.432214943      -0.000009553       0.000001539
                        -----------------------------------------
Magnitude (a.u.)       :      1.432214943
Magnitude (Debye)      :      3.640401078

Rotational constants in cm-1:             5.285535             0.317004             0.317002
Rotational constants in MHz :        158456.339171          9503.546943          9503.466115

                             ****ORCA TERMINATED NORMALLY****
TOTAL RUN TIME: 0 days 0 hours 0 minutes 3 seconds 547 msec
