                         Program Version 6.0.0  -   RELEASE  -
|  1> ! pbe def2-sv(p) def2/J RI DEFGRID1 loosescf d4 GCP(DFT/SV(P)) printgap
|  2> %output
|  3>     printlevel normal
|  4> end
|  5> * xyz 0 1
|  6> C -1.465538716 -0.0008396984 -0.2411304407
|  7> C -0.725562879 1.2445573929 0.2386363681
|  8> C 0.7256189008 1.1996394589 -0.2343190245
|  9> N 1.3623961834 0.0004771263 0.2840797226
| 10> C 0.7265071529 -1.1987698207 -0.2349403335
| 11> C -0.7241697555 -1.2451939588 0.2392118434
| 12> H -1.5079369429 -0.0011771483 -1.3335813551
| 13> H -2.4890614899 -0.0011606483 0.1367074517
| 14> H -1.2068847139 2.1472311532 -0.1402802214
| 15> H -0.7362440043 1.2747666907 1.3286562034
| 16> H 0.7448516093 1.2328504491 -1.3404363684
| 17> H 1.2715914312 2.0675623613 0.142505827
| 18> H 2.3471027385 0.0010138373 0.0395982839
| 19> H 0.7448179156 -1.2308455156 -1.3410568965
| 20> H 1.2735317366 -2.0665132992 0.1404929575
| 21> H -1.2047896859 -2.1485903882 -0.1385602714
| 22> H -0.7339886783 -1.2745389986 1.3292876122
| 23> *
| 24>
| 25>                          ****END OF INPUT****

CARTESIAN COORDINATES (ANGSTROEM)
---------------------------------
  C     -1.465539   -0.000840   -0.241130
  C     -0.725563    1.244557    0.238636
  C      0.725619    1.199639   -0.234319
  N      1.362396    0.000477    0.284080
  C      0.726507   -1.198770   -0.234940
  C     -0.724170   -1.245194    0.239212
  H     -1.507937   -0.001177   -1.333581
  H     -2.489061   -0.001161    0.136707
  H     -1.206885    2.147231   -0.140280
  H     -0.736244    1.274767    1.328656
  H      0.744852    1.232850   -1.340436
  H      1.271591    2.067562    0.142506
  H      2.347103    0.001014    0.039598
  H      0.744818   -1.230846   -1.341057
  H      1.273532   -2.066513    0.140493
  H     -1.204790   -2.148590   -0.138560
  H     -0.733989   -1.274539    1.329288

 Total Charge           Charge          ....    0
 Multiplicity           Mult            ....    1
 Number of Electrons    NEL             ....   48
 Basis Dimension        Dim             ....  106

ORBITAL ENERGIES
----------------

  NO   OCC          E(Eh)            E(eV)
   0   2.0000     -13.964122      -379.9831
   1   2.0000      -9.902758      -269.4677
   2   2.0000      -9.902730      -269.4670
   3   2.0000      -9.878738      -268.8141
   4   2.0000      -9.876839      -268.7624
   5   2.0000      -9.876802      -268.7614
   6   2.0000      -0.822108       -22.3707
   7   2.0000      -0.704042       -19.1580
   8   2.0000      -0.669394       -18.2151
   9   2.0000      -0.561284       -15.2733
  10   2.0000      -0.547320       -14.8933
  11   2.0000      -0.488348       -13.2886
  12   2.0000      -0.459009       -12.4903
  13   2.0000      -0.400249       -10.8913
  14   2.0000      -0.398019       -10.8306
  15   2.0000      -0.374262       -10.1842
  16   2.0000      -0.360713        -9.8155
  17   2.0000      -0.351293        -9.5592
  18   2.0000      -0.334548        -9.1035
  19   2.0000      -0.300128        -8.1669
  20   2.0000      -0.284957        -7.7541
  21   2.0000      -0.267556        -7.2806
  22   2.0000      -0.266487        -7.2515
  23   2.0000      -0.174092        -4.7373
  24   0.0000       0.033411         0.9092
  25   0.0000       0.060460         1.6452
  26   0.0000       0.070219         1.9107
  27   0.0000       0.074720         2.0332
  28   0.0000       0.103682         2.8213

MULLIKEN ATOMIC CHARGES
-----------------------
   0 C :   -0.170810
   1 C :   -0.150384
   2 C :   -0.063985
   3 N :   -0.355058
   4 C :   -0.063924
   5 C :   -0.150235
   6 H :    0.071701
   7 H :    0.088247
   8 H :    0.083681
   9 H :    0.081448
  10 H :    0.050473
  11 H :    0.081084
  12 H :    0.201186
  13 H :    0.050430
  14 H :    0.081051
  15 H :    0.083648
  16 H :    0.081445
Sum of atomic charges:   -0.0000000

LOEWDIN ATOMIC CHARGES
----------------------
   0 C :   -0.230292
   1 C :   -0.233214
   2 C :   -0.166631
   3 N :   -0.267436
   4 C :   -0.166645
   5 C :   -0.233225
   6 H :    0.111477
   7 H :    0.115436
   8 H :    0.116023
   9 H :    0.118923
  10 H :    0.085840
  11 H :    0.110701
  12 H :    0.207572
  13 H :    0.085840
  14 H :    0.110694
  15 H :    0.116013
  16 H :    0.118922

  Mayer bond orders larger than 0.100000
B(  0-C ,  1-C ) :   1.1302 B(  0-C ,  5-C ) :   1.1301 B(  0-C ,  6-H ) :   0.9167
B(  0-C ,  7-H ) :   0.9254 B(  1-C ,  2-C ) :   1.1434 B(  1-C ,  8-H ) :   0.9209
B(  1-C ,  9-H ) :   0.9083 B(  2-C ,  3-N ) :   1.0792 B(  2-C , 10-H ) :   0.8972
B(  2-C , 11-H ) :   0.9276 B(  3-N ,  4-C ) :   1.0793 B(  3-N , 12-H ) :   0.8779
B(  4-C ,  5-C ) :   1.1433 B(  4-C , 13-H ) :   0.8972 B(  4-C , 14-H ) :   0.9276
B(  5-C , 15-H ) :   0.9209 B(  5-C , 16-H ) :   0.9083

Dispersion correction           -0.013891439
FINAL SINGLE POINT ENERGY      -251.284922578691

DIPOLE MOMENT
-------------

Method             : SCF
Type of density    : Electron Density
Multiplicity       :   1
Irrep              :   0
Energy             :  -251.3481981672659913 Eh
Relativity type    :
Basis              : AO
                                X                 Y                 Z
Electronic contribution:      1.550532871      -0.000380905       0.816741250
Nuclear contribution   :     -1.396988721       0.000564095      -1.102352758
                        -----------------------------------------
Total Dipole Moment    :      0.153544150       0.000183190      -0.285611508
                        -----------------------------------------
Magnitude (a.u.)       :      0.324268057
Magnitude (Debye)      :      0.824223900

Rotational constants in cm-1:             0.153780             0.148952             0.086185
Rotational constants in MHz :          4610.206488          4465.461407          2583.767313

                             ****ORCA TERMINATED NORMALLY****
TOTAL RUN TIME: 0 days 0 hours 0 minutes 6 seconds 93 msec
