                         Program Version 6.0.0  -   RELEASE  -
|  1> ! wb97x-v def2-tzvp def2/J RIJCOSX DEFGRID2 scfconv7 GCP(DFT/TZ) printgap
|  2> %output
|  3>     printlevel normal
|  4> end
|  5> * xyz 0 1
|  6> C -2.648952315122629 0.03080220293915759 -0.3252726392433618
|  7> O -1.3879380460460602 0.5880015186755839 0.1383920831073181
|  8> C -0.4314179993730968 -0.3017247970011167 0.42128572419075466
|  9> O -0.564124986374281 -1.5084636437627559 0.344115325343938
| 10> C 0.8500389520788671 0.37903760208171744 0.8359940592371757
| 11> Cl 1.8176633510234783 0.6872673825645024 -0.6789481773855925
| 12> H -3.300371509237365 0.8891091662527874 -0.4812943674014825
| 13> H -3.0635812228412447 -0.6353020556226056 0.43428167006375784
| 14> H -2.4913718097487965 -0.5100553010217088 -1.2611576348187845
| 15> H 1.43661699309627 -0.28272491490839213 1.4718202634018565
| 16> H 0.6700764171689165 1.3417863229759774 1.3138875948248825
| 17> *
| 18>
| 19>                          ****END OF INPUT****

CARTESIAN COORDINATES (ANGSTROEM)
---------------------------------
  C     -2.648952    0.030802   -0.325273
  O     -1.387938    0.588002    0.138392
  C     -0.431418   -0.301725    0.421286
  O     -0.564125   -1.508464    0.344115
  C      0.850039    0.379038    0.835994
  Cl     1.817663    0.687267   -0.678948
  H     -3.300372    0.889109   -0.481294
  H     -3.063581   -0.635302    0.434282
  H     -2.491372   -0.510055   -1.261158
  H      1.436617   -0.282725    1.471820
  H      0.670076    1.341786    1.313888

 Total Charge           Charge          ....    0
 Multiplicity           Mult            ....    1
 Number of Electrons    NEL             ....   56
 Basis Dimension        Dim             ....  222

ORBITAL ENERGIES
----------------

  NO   OCC          E(Eh)            E(eV)
   0   2.0000    -107.145450     -2915.5759
   1   2.0000     -21.736479      -591.4797
   2   2.0000     -21.672502      -589.7388
   3   2.0000     -12.195972      -331.8693
   4   2.0000     -12.130832      -330.0967
   5   2.0000     -12.114440      -329.6507
   6   2.0000     -11.298274      -307.4417
   7   2.0000      -9.089748      -247.3446
   8   2.0000      -9.086941      -247.2682
   9   2.0000      -9.086922      -247.2677
  10   2.0000      -1.777124       -48.3580
  11   2.0000      -1.710276       -46.5390
  12   2.0000      -1.411597       -38.4115
  13   2.0000      -1.310534       -35.6615
  14   2.0000      -1.224175       -33.3115
  15   2.0000      -1.134440       -30.8697
  16   2.0000      -1.078323       -29.3427
  17   2.0000      -1.028578       -27.9890
  18   2.0000      -1.012937       -27.5634
  19   2.0000      -0.962044       -26.1786
  20   2.0000      -0.920709       -25.0538
  21   2.0000      -0.903410       -24.5830
  22   2.0000      -0.884307       -24.0632
  23   2.0000      -0.877388       -23.8749
  24   2.0000      -0.853725       -23.2310
  25   2.0000      -0.837664       -22.7940
  26   2.0000      -0.785768       -21.3818
  27   2.0000      -0.779510       -21.2116
  28   0.0000      -0.360115        -9.7992
  29   0.0000      -0.235811        -6.4167
  30   0.0000      -0.195127        -5.3097
  31   0.0000      -0.118661        -3.2289
  32   0.0000      -0.037532        -1.0213

MULLIKEN ATOMIC CHARGES
-----------------------
   0 C :   -0.185705
   1 O :   -0.234808
   2 C :    0.308565
   3 O :   -0.337256
   4 C :   -0.118708
   5 Cl:   -0.129555
   6 H :    0.134058
   7 H :    0.134868
   8 H :    0.137664
   9 H :    0.149619
  10 H :    0.141258
Sum of atomic charges:   -0.0000000

LOEWDIN ATOMIC CHARGES
----------------------
   0 C :   -0.275932
   1 O :    0.236008
   2 C :   -0.522852
   3 O :    0.100879
   4 C :   -0.407829
   5 Cl:    0.265299
   6 H :    0.111936
   7 H :    0.112947
   8 H :    0.114429
   9 H :    0.134601
  10 H :    0.130515

  Mayer bond orders larger than 0.100000
B(  0-C ,  1-O ) :   0.8949 B(  0-C ,  6-H ) :   0.9705 B(  0-C ,  7-H ) :   0.9762
B(  0-C ,  8-H ) :   0.9766 B(  1-O ,  2-C ) :   1.2179 B(  2-C ,  3-O ) :   2.0461
B(  2-C ,  4-C ) :   0.9551 B(  4-C ,  5-Cl) :   1.0473 B(  4-C ,  9-H ) :   0.9672
B(  4-C , 10-H ) :   0.9642

FINAL SINGLE POINT ENERGY      -727.942914695024

DIPOLE MOMENT
-------------

Method             : SCF
Type of density    : Electron Density
Multiplicity       :   1
Irrep              :   0
Energy             :  -727.9502457769240209 Eh
Relativity type    :
Basis              : AO
                                X                 Y                 Z
Electronic contribution:      8.105144731       1.139692786      -1.976603086
Nuclear contribution   :     -8.788110768      -0.548562053       2.418779490
                        -----------------------------------------
Total Dipole Moment    :     -0.682966036       0.591130734       0.442176404
                        -----------------------------------------
Magnitude (a.u.)       :      1.005682914
Magnitude (Debye)      :      2.556242819

Rotational constants in cm-1:             0.198378             0.052988             0.047979
Rotational constants in MHz :          5947.216173          1588.527909          1438.373709

                             ****ORCA TERMINATED NORMALLY****
TOTAL RUN TIME: 0 days 0 hours 1 minutes 15 seconds 869 msec
