                         Program Version 6.0.0  -   RELEASE  -
|  1> ! wb97x-v def2-tzvp def2/J RIJCOSX DEFGRID2 scfconv7 GCP(DFT/TZ) printgap
|  2> %output
|  3>     printlevel normal
|  4> end
|  5> %cpcm
|  6>     smd true
|  7>     smdsolvent "water"
|  8> end
|  9> * xyz 0 1
| 10> C -2.648952315122629 0.03080220293915759 -0.3252726392433618
| 11> O -1.3879380460460602 0.5880015186755839 0.1383920831073181
| 12> C -0.4314179993730968 -0.3017247970011167 0.42128572419075466
| 13> O -0.564124986374281 -1.5084636437627559 0.344115325343938
| 14> C 0.8500389520788671 0.37903760208171744 0.8359940592371757
| 15> Cl 1.8176633510234783 0.6872673825645024 -0.6789481773855925
| 16> H -3.300371509237365 0.8891091662527874 -0.4812943674014825
| 17> H -3.0635812228412447 -0.6353020556226056 0.43428167006375784
| 18> H -2.4913718097487965 -0.5100553010217088 -1.2611576348187845
| 19> H 1.43661699309627 -0.28272491490839213 1.4718202634018565
| 20> H 0.6700764171689165 1.3417863229759774 1.3138875948248825
| 21> *
| 22>
| 23>                          ****END OF INPUT****

CARTESIAN COORDINATES (ANGSTROEM)
---------------------------------
  C     -2.648952    0.030802   -0.325273
  O     -1.387938    0.588002    0.138392
  C     -0.431418   -0.301725    0.421286
  O     -0.564125   -1.508464    0.344115
  C      0.850039    0.379038    0.835994
  Cl     1.817663    0.687267   -0.678948
  H     -3.300372    0.889109   -0.481294
  H     -3.063581   -0.635302    0.434282
  H     -2.491372   -0.510055   -1.261158
  H      1.436617   -0.282725    1.471820
  H      0.670076    1.341786    1.313888

 Total Charge           Charge          ....    0
 Multiplicity           Mult            ....    1
 Number of Electrons    NEL             ....   56
 Basis Dimension        Dim             ....  222

ORBITAL ENERGIES
----------------

  NO   OCC          E(Eh)            E(eV)
   0   2.0000    -107.146222     -2915.5969
   1   2.0000     -21.734764      -591.4330
   2   2.0000     -21.680174      -589.9475
   3   2.0000     -12.200468      -331.9916
   4   2.0000     -12.120487      -329.8152
   5   2.0000     -12.096586      -329.1648
   6   2.0000     -11.299167      -307.4660
   7   2.0000      -9.090602      -247.3679
   8   2.0000      -9.087916      -247.2948
   9   2.0000      -9.087904      -247.2944
  10   2.0000      -1.777845       -48.3776
  11   2.0000      -1.716064       -46.6965
  12   2.0000      -1.410977       -38.3946
  13   2.0000      -1.304647       -35.5012
  14   2.0000      -1.216054       -33.0905
  15   2.0000      -1.134248       -30.8645
  16   2.0000      -1.082893       -29.4670
  17   2.0000      -1.022335       -27.8191
  18   2.0000      -1.009468       -27.4690
  19   2.0000      -0.960850       -26.1461
  20   2.0000      -0.926934       -25.2231
  21   2.0000      -0.894200       -24.3324
  22   2.0000      -0.883936       -24.0531
  23   2.0000      -0.881359       -23.9830
  24   2.0000      -0.837154       -22.7801
  25   2.0000      -0.822246       -22.3745
  26   2.0000      -0.786957       -21.4142
  27   2.0000      -0.779311       -21.2061
  28   0.0000      -0.359171        -9.7735
  29   0.0000      -0.231880        -6.3098
  30   0.0000      -0.182256        -4.9594
  31   0.0000      -0.115520        -3.1434
  32   0.0000      -0.031111        -0.8466

MULLIKEN ATOMIC CHARGES
-----------------------
   0 C :   -0.222853
   1 O :   -0.251880
   2 C :    0.385908
   3 O :   -0.446459
   4 C :   -0.141081
   5 Cl:   -0.165606
   6 H :    0.161349
   7 H :    0.155470
   8 H :    0.155997
   9 H :    0.184995
  10 H :    0.184160
Sum of atomic charges:   -0.0000000

LOEWDIN ATOMIC CHARGES
----------------------
   0 C :   -0.271426
   1 O :    0.235518
   2 C :   -0.504166
   3 O :    0.042989
   4 C :   -0.393347
   5 Cl:    0.241934
   6 H :    0.121262
   7 H :    0.118338
   8 H :    0.118767
   9 H :    0.145574
  10 H :    0.144557

  Mayer bond orders larger than 0.100000
B(  0-C ,  1-O ) :   0.8684 B(  0-C ,  6-H ) :   0.9654 B(  0-C ,  7-H ) :   0.9710
B(  0-C ,  8-H ) :   0.9709 B(  1-O ,  2-C ) :   1.2410 B(  2-C ,  3-O ) :   1.9351
B(  2-C ,  4-C ) :   0.9613 B(  4-C ,  5-Cl) :   1.0067 B(  4-C ,  9-H ) :   0.9572
B(  4-C , 10-H ) :   0.9559

FINAL SINGLE POINT ENERGY      -727.950687654358

DIPOLE MOMENT
-------------

Method             : SCF
Type of density    : Electron Density
Multiplicity       :   1
Irrep              :   0
Energy             :  -727.9580187362580546 Eh
Relativity type    :
Basis              : AO
                                X                 Y                 Z
Electronic contribution:      7.939499202       1.400349964      -1.766014334
Nuclear contribution   :     -8.788110768      -0.548562053       2.418779490
                        -----------------------------------------
Total Dipole Moment    :     -0.848611566       0.851787911       0.652765155
                        -----------------------------------------
Magnitude (a.u.)       :      1.368132517
Magnitude (Debye)      :      3.477516496

Rotational constants in cm-1:             0.198378             0.052988             0.047979
Rotational constants in MHz :          5947.216173          1588.527909          1438.373709

                             ****ORCA TERMINATED NORMALLY****
TOTAL RUN TIME: 0 days 0 hours 1 minutes 17 seconds 852 msec
