                         Program Version 6.0.0  -   RELEASE  -
|  1> ! pbe def2-sv(p) def2/J RI DEFGRID1 loosescf d4 GCP(DFT/SV(P)) printgap
|  2> %output
|  3>     printlevel normal
|  4> end
|  5> * xyz 0 1
|  6> C -2.1987868648 -0.9828522541 -0.4288279737
|  7> C -1.1810908773 -0.1929223231 0.4110157181
|  8> H -1.6892185234 0.2326636411 1.2853804832
|  9> C -0.6015612231 0.9691424431 -0.405333135
| 10> H -0.4470262327 0.6494643273 -1.4449704116
| 11> C 0.7697662118 1.328291112 0.1948960411
| 12> H 0.6692713051 1.4404915352 1.2833010387
| 13> C 1.7150435936 0.1571420526 -0.0904241252
| 14> H 1.9676039346 0.1724163185 -1.1608716127
| 15> C 1.0045389788 -1.1800273847 0.2045313184
| 16> H 1.6651045539 -1.7669128094 0.8587425986
| 17> O -0.1648937513 -1.0254192337 0.9641318195
| 18> O 0.7733748397 -1.8243588819 -1.0083815678
| 19> O 2.8772006664 0.2144667635 0.6931099318
| 20> O 1.3254167793 2.4870552872 -0.3795888411
| 21> O -1.5155950525 2.0364145829 -0.3429351917
| 22> O -2.7780521288 -2.060033075 0.2603865371
| 23> H -1.7000558202 -1.4175595062 -1.2972065714
| 24> H -2.9644646986 -0.2741439089 -0.7716962886
| 25> H 0.4804602181 -2.7347085642 -0.8460130234
| 26> H 3.3317799892 1.0516144056 0.5108622269
| 27> H 0.8649689413 3.2661057947 -0.0356780552
| 28> H -1.319688527 2.668493099 -1.0498283336
| 29> H -3.2085873158 -1.7366597936 1.0641585869
| 30> *
| 31>
| 32>                          ****END OF INPUT****

CARTESIAN COORDINATES (ANGSTROEM)
---------------------------------
  C     -2.198787   -0.982852   -0.428828
  C     -1.181091   -0.192922    0.411016
  H     -1.689219    0.232664    1.285380
  C     -0.601561    0.969142   -0.405333
  H     -0.447026    0.649464   -1.444970
  C      0.769766    1.328291    0.194896
  H      0.669271    1.440492    1.283301
  C      1.715044    0.157142   -0.090424
  H      1.967604    0.172416   -1.160872
  C      1.004539   -1.180027    0.204531
  H      1.665105   -1.766913    0.858743
  O     -0.164894   -1.025419    0.964132
  O      0.773375   -1.824359   -1.008382
  O      2.877201    0.214467    0.693110
  O      1.325417    2.487055   -0.379589
  O     -1.515595    2.036415   -0.342935
  O     -2.778052   -2.060033    0.260387
  H     -1.700056   -1.417560   -1.297207
  H     -2.964465   -0.274144   -0.771696
  H      0.480460   -2.734709   -0.846013
  H      3.331780    1.051614    0.510862
  H      0.864969    3.266106   -0.035678
  H     -1.319689    2.668493   -1.049828
  H     -3.208587   -1.736660    1.064159

 Total Charge           Charge          ....    0
 Multiplicity           Mult            ....    1
 Number of Electrons    NEL             ....   96
 Basis Dimension        Dim             ....  192

ORBITAL ENERGIES
----------------

  NO   OCC          E(Eh)            E(eV)
   0   2.0000     -18.765768      -510.6425
   1   2.0000     -18.765584      -510.6375
   2   2.0000     -18.762868      -510.5636
   3   2.0000     -18.760586      -510.5015
   4   2.0000     -18.747610      -510.1484
   5   2.0000     -18.740386      -509.9518
   6   2.0000      -9.981966      -271.6231
   7   2.0000      -9.944208      -270.5956
   8   2.0000      -9.941297      -270.5165
   9   2.0000      -9.939176      -270.4587
  10   2.0000      -9.937546      -270.4144
  11   2.0000      -9.923210      -270.0243
  12   2.0000      -0.977717       -26.6050
  13   2.0000      -0.952207       -25.9109
  14   2.0000      -0.934460       -25.4280
  15   2.0000      -0.919485       -25.0205
  16   2.0000      -0.919112       -25.0103
  17   2.0000      -0.906050       -24.6549
  18   2.0000      -0.708406       -19.2767
  19   2.0000      -0.690179       -18.7807
  20   2.0000      -0.615826       -16.7575
  21   2.0000      -0.581790       -15.8313
  22   2.0000      -0.564369       -15.3573
  23   2.0000      -0.517021       -14.0689
  24   2.0000      -0.505709       -13.7610
  25   2.0000      -0.493246       -13.4219
  26   2.0000      -0.477155       -12.9840
  27   2.0000      -0.458691       -12.4816
  28   2.0000      -0.437643       -11.9089
  29   2.0000      -0.422325       -11.4921
  30   2.0000      -0.403447       -10.9783
  31   2.0000      -0.391537       -10.6543
  32   2.0000      -0.390743       -10.6327
  33   2.0000      -0.382541       -10.4095
  34   2.0000      -0.365482        -9.9453
  35   2.0000      -0.347911        -9.4671
  36   2.0000      -0.329701        -8.9716
  37   2.0000      -0.317610        -8.6426
  38   2.0000      -0.306401        -8.3376
  39   2.0000      -0.285950        -7.7811
  40   2.0000      -0.271756        -7.3949
  41   2.0000      -0.264154        -7.1880
  42   2.0000      -0.257053        -6.9948
  43   2.0000      -0.246521        -6.7082
  44   2.0000      -0.232953        -6.3390
  45   2.0000      -0.225286        -6.1304
  46   2.0000      -0.213964        -5.8223
  47   2.0000      -0.195945        -5.3319
  48   0.0000      -0.000064        -0.0017
  49   0.0000       0.027409         0.7458
  50   0.0000       0.033601         0.9143
  51   0.0000       0.044386         1.2078
  52   0.0000       0.051395         1.3985

MULLIKEN ATOMIC CHARGES
-----------------------
   0 C :    0.057483
   1 C :    0.056912
   2 H :    0.062674
   3 C :   -0.022185
   4 H :    0.068318
   5 C :    0.044787
   6 H :    0.058891
   7 C :    0.070497
   8 H :    0.071292
   9 C :    0.178923
  10 H :    0.076162
  11 O :   -0.308657
  12 O :   -0.400241
  13 O :   -0.415767
  14 O :   -0.420567
  15 O :   -0.410302
  16 O :   -0.428984
  17 H :    0.079393
  18 H :    0.073988
  19 H :    0.312373
  20 H :    0.304989
  21 H :    0.298025
  22 H :    0.298277
  23 H :    0.293718
Sum of atomic charges:   -0.0000000

LOEWDIN ATOMIC CHARGES
----------------------
   0 C :   -0.140454
   1 C :   -0.066687
   2 H :    0.113089
   3 C :   -0.081602
   4 H :    0.108301
   5 C :   -0.087184
   6 H :    0.108513
   7 C :   -0.073621
   8 H :    0.110864
   9 C :    0.003726
  10 H :    0.107164
  11 O :   -0.142220
  12 O :   -0.307390
  13 O :   -0.316862
  14 O :   -0.322645
  15 O :   -0.316853
  16 O :   -0.335854
  17 H :    0.111127
  18 H :    0.098933
  19 H :    0.291709
  20 H :    0.287750
  21 H :    0.283745
  22 H :    0.284201
  23 H :    0.282250

  Mayer bond orders larger than 0.100000
B(  0-C ,  1-C ) :   1.0545 B(  0-C , 16-O ) :   1.0840 B(  0-C , 17-H ) :   0.9000
B(  0-C , 18-H ) :   0.9128 B(  1-C ,  2-H ) :   0.8791 B(  1-C ,  3-C ) :   0.9688
B(  1-C , 11-O ) :   0.9927 B(  3-C ,  4-H ) :   0.8881 B(  3-C ,  5-C ) :   0.9865
B(  3-C , 15-O ) :   1.0694 B(  5-C ,  6-H ) :   0.8667 B(  5-C ,  7-C ) :   1.0357
B(  5-C , 14-O ) :   1.0885 B(  7-C ,  8-H ) :   0.8826 B(  7-C ,  9-C ) :   0.9847
B(  7-C , 13-O ) :   1.0844 B(  9-C , 10-H ) :   0.8936 B(  9-C , 11-O ) :   1.0826
B(  9-C , 12-O ) :   1.1045 B( 12-O , 19-H ) :   0.8336 B( 13-O , 20-H ) :   0.8429
B( 14-O , 21-H ) :   0.8420 B( 15-O , 22-H ) :   0.8416 B( 16-O , 23-H ) :   0.8537

Dispersion correction           -0.024390537
FINAL SINGLE POINT ENERGY      -685.691509976075

DIPOLE MOMENT
-------------

Method             : SCF
Type of density    : Electron Density
Multiplicity       :   1
Irrep              :   0
Energy             :  -685.8207953694625303 Eh
Relativity type    :
Basis              : AO
                                X                 Y                 Z
Electronic contribution:      2.004424711      -0.418271569       1.369282414
Nuclear contribution   :     -2.196895314       1.452803801      -1.501889198
                        -----------------------------------------
Total Dipole Moment    :     -0.192470603       1.034532233      -0.132606784
                        -----------------------------------------
Magnitude (a.u.)       :      1.060606635
Magnitude (Debye)      :      2.695847823

Rotational constants in cm-1:             0.042844             0.026074             0.018392
Rotational constants in MHz :          1284.428219           781.679757           551.380472

                             ****ORCA TERMINATED NORMALLY****
TOTAL RUN TIME: 0 days 0 hours 0 minutes 12 seconds 108 msec
