                         Program Version 6.0.0  -   RELEASE  -
|  1> ! r2scan-3c def2/J RI DEFGRID2 scfconv6 printgap
|  2> %output
|  3>     printlevel normal
|  4> end
|  5> * xyz 0 1
|  6> C -3.6545393772 0.1851774781 0.1235180801
|  7> C -2.1639166762 0.0677973832 0.0238307355
|  8> C -1.4757238517 -0.9887520915 0.6003529104
|  9> C -0.0978353346 -1.0809258393 0.5084578376
| 10> C 0.6514588389 -0.1187831055 -0.159961088
| 11> C -0.0463954757 0.9329471106 -0.7476866267
| 12> C -1.4221915142 1.025466993 -0.6561836023
| 13> C 2.1601207808 -0.2318148099 -0.2793767499
| 14> C 2.7838274554 -0.9811984972 0.9019854374
| 15> C 2.8386956458 1.1347163507 -0.4143178193
| 16> H -3.9252456134 1.0827526826 0.678017468
| 17> H -4.0963091233 0.2611269385 -0.8686576102
| 18> H -4.0784883025 -0.6774524914 0.6306813618
| 19> H -2.0219511358 -1.7559443181 1.1312932868
| 20> H 0.386700439 -1.9262944514 0.9700416706
| 21> H 0.4807481592 1.6999505263 -1.2920199703
| 22> H -1.9307100452 1.8577540595 -1.1224231671
| 23> H 2.3726538888 -0.8052690016 -1.1923004719
| 24> H 3.8683672072 -0.9377040766 0.833403566
| 25> H 2.4971481137 -2.0288666569 0.9096285209
| 26> H 2.479439855 -0.5262036085 1.8419468012
| 27> H 3.9190105779 1.0130085932 -0.3831022133
| 28> H 2.541505258 1.7872206201 0.4037000475
| 29> H 2.5896643037 1.6157459618 -1.355901511
| 30> *
| 31>
| 32>                          ****END OF INPUT****

CARTESIAN COORDINATES (ANGSTROEM)
---------------------------------
  C     -3.654539    0.185177    0.123518
  C     -2.163917    0.067797    0.023831
  C     -1.475724   -0.988752    0.600353
  C     -0.097835   -1.080926    0.508458
  C      0.651459   -0.118783   -0.159961
  C     -0.046395    0.932947   -0.747687
  C     -1.422192    1.025467   -0.656184
  C      2.160121   -0.231815   -0.279377
  C      2.783827   -0.981198    0.901985
  C      2.838696    1.134716   -0.414318
  H     -3.925246    1.082753    0.678017
  H     -4.096309    0.261127   -0.868658
  H     -4.078488   -0.677452    0.630681
  H     -2.021951   -1.755944    1.131293
  H      0.386700   -1.926294    0.970042
  H      0.480748    1.699951   -1.292020
  H     -1.930710    1.857754   -1.122423
  H      2.372654   -0.805269   -1.192300
  H      3.868367   -0.937704    0.833404
  H      2.497148   -2.028867    0.909629
  H      2.479440   -0.526204    1.841947
  H      3.919011    1.013009   -0.383102
  H      2.541505    1.787221    0.403700
  H      2.589664    1.615746   -1.355902

 Total Charge           Charge          ....    0
 Multiplicity           Mult            ....    1
 Number of Electrons    NEL             ....   74
 Basis Dimension        Dim             ....  260

ORBITAL ENERGIES
----------------

  NO   OCC          E(Eh)            E(eV)
   0   2.0000     -10.040688      -273.2210
   1   2.0000     -10.035566      -273.0816
   2   2.0000     -10.034177      -273.0438
   3   2.0000     -10.025329      -272.8031
   4   2.0000     -10.025072      -272.7961
   5   2.0000     -10.024724      -272.7866
   6   2.0000     -10.024526      -272.7812
   7   2.0000     -10.024384      -272.7773
   8   2.0000     -10.017541      -272.5911
   9   2.0000     -10.017440      -272.5884
  10   2.0000      -0.827055       -22.5053
  11   2.0000      -0.774216       -21.0675
  12   2.0000      -0.721851       -19.6426
  13   2.0000      -0.709600       -19.3092
  14   2.0000      -0.651966       -17.7409
  15   2.0000      -0.648822       -17.6553
  16   2.0000      -0.570624       -15.5275
  17   2.0000      -0.568044       -15.4573
  18   2.0000      -0.527187       -14.3455
  19   2.0000      -0.466022       -12.6811
  20   2.0000      -0.432833       -11.7780
  21   2.0000      -0.430646       -11.7185
  22   2.0000      -0.407359       -11.0848
  23   2.0000      -0.399040       -10.8584
  24   2.0000      -0.389940       -10.6108
  25   2.0000      -0.382976       -10.4213
  26   2.0000      -0.366601        -9.9757
  27   2.0000      -0.355953        -9.6860
  28   2.0000      -0.341145        -9.2830
  29   2.0000      -0.337140        -9.1740
  30   2.0000      -0.329408        -8.9636
  31   2.0000      -0.317961        -8.6522
  32   2.0000      -0.304974        -8.2988
  33   2.0000      -0.290745        -7.9116
  34   2.0000      -0.286897        -7.8069
  35   2.0000      -0.230081        -6.2608
  36   2.0000      -0.212799        -5.7905
  37   0.0000      -0.027092        -0.7372
  38   0.0000      -0.020395        -0.5550
  39   0.0000       0.078775         2.1436
  40   0.0000       0.090384         2.4595
  41   0.0000       0.106961         2.9105

MULLIKEN ATOMIC CHARGES
-----------------------
   0 C :   -0.541502
   1 C :    0.210186
   2 C :   -0.239234
   3 C :   -0.201912
   4 C :    0.100569
   5 C :   -0.198226
   6 C :   -0.219318
   7 C :    0.059130
   8 C :   -0.539319
   9 C :   -0.539627
  10 H :    0.161424
  11 H :    0.158488
  12 H :    0.149691
  13 H :    0.143514
  14 H :    0.134245
  15 H :    0.134602
  16 H :    0.143195
  17 H :    0.161669
  18 H :    0.145265
  19 H :    0.142653
  20 H :    0.173193
  21 H :    0.145605
  22 H :    0.173300
  23 H :    0.142411
Sum of atomic charges:    0.0000000

LOEWDIN ATOMIC CHARGES
----------------------
   0 C :   -0.391125
   1 C :   -0.104361
   2 C :   -0.165070
   3 C :   -0.154953
   4 C :   -0.087494
   5 C :   -0.153687
   6 C :   -0.160998
   7 C :   -0.216055
   8 C :   -0.410970
   9 C :   -0.410984
  10 H :    0.164074
  11 H :    0.163390
  12 H :    0.158272
  13 H :    0.166319
  14 H :    0.169393
  15 H :    0.169297
  16 H :    0.167571
  17 H :    0.168399
  18 H :    0.153232
  19 H :    0.151085
  20 H :    0.160228
  21 H :    0.153266
  22 H :    0.160182
  23 H :    0.150989

  Mayer bond orders larger than 0.100000
B(  0-C ,  1-C ) :   0.7882 B(  0-C , 10-H ) :   0.9763 B(  0-C , 11-H ) :   0.9793
B(  0-C , 12-H ) :   0.9965 B(  1-C ,  2-C ) :   1.4166 B(  1-C ,  4-C ) :   0.1034
B(  1-C ,  6-C ) :   1.3832 B(  2-C ,  3-C ) :   1.4601 B(  2-C , 13-H ) :   0.9365
B(  3-C ,  4-C ) :   1.4243 B(  3-C , 14-H ) :   0.9509 B(  4-C ,  5-C ) :   1.4068
B(  4-C ,  7-C ) :   0.8411 B(  5-C ,  6-C ) :   1.4730 B(  5-C , 15-H ) :   0.9492
B(  6-C , 16-H ) :   0.9495 B(  7-C ,  8-C ) :   0.8835 B(  7-C ,  9-C ) :   0.8831
B(  7-C , 17-H ) :   0.9282 B(  8-C , 18-H ) :   0.9766 B(  8-C , 19-H ) :   0.9596
B(  8-C , 20-H ) :   0.9939 B(  9-C , 21-H ) :   0.9766 B(  9-C , 22-H ) :   0.9940
B(  9-C , 23-H ) :   0.9595

Dispersion correction           -0.008180261
FINAL SINGLE POINT ENERGY      -389.379182153408

DIPOLE MOMENT
-------------

Method             : SCF
Type of density    : Electron Density
Multiplicity       :   1
Irrep              :   0
Energy             :  -389.3799626128056275 Eh
Relativity type    :
Basis              : AO
                                X                 Y                 Z
Electronic contribution:     -4.749292156      -0.613164952      -1.143512687
Nuclear contribution   :      4.768263406       0.619025588       1.111078039
                        -----------------------------------------
Total Dipole Moment    :      0.018971251       0.005860637      -0.032434648
                        -----------------------------------------
Magnitude (a.u.)       :      0.038029749
Magnitude (Debye)      :      0.096663939

Rotational constants in cm-1:             0.110444             0.025935             0.021649
Rotational constants in MHz :          3311.018240           777.497495           649.018863

                             ****ORCA TERMINATED NORMALLY****
TOTAL RUN TIME: 0 days 0 hours 0 minutes 28 seconds 523 msec
