                         Program Version 6.0.0  -   RELEASE  -
|  1> ! r2scan-3c def2/J RI DEFGRID2 scfconv6 printgap
|  2> %output
|  3>     printlevel normal
|  4> end
|  5> %cpcm
|  6>     smd true
|  7>     smdsolvent "water"
|  8> end
|  9> * xyz 0 1
| 10> C -3.6545393772 0.1851774781 0.1235180801
| 11> C -2.1639166762 0.0677973832 0.0238307355
| 12> C -1.4757238517 -0.9887520915 0.6003529104
| 13> C -0.0978353346 -1.0809258393 0.5084578376
| 14> C 0.6514588389 -0.1187831055 -0.159961088
| 15> C -0.0463954757 0.9329471106 -0.7476866267
| 16> C -1.4221915142 1.025466993 -0.6561836023
| 17> C 2.1601207808 -0.2318148099 -0.2793767499
| 18> C 2.7838274554 -0.9811984972 0.9019854374
| 19> C 2.8386956458 1.1347163507 -0.4143178193
| 20> H -3.9252456134 1.0827526826 0.678017468
| 21> H -4.0963091233 0.2611269385 -0.8686576102
| 22> H -4.0784883025 -0.6774524914 0.6306813618
| 23> H -2.0219511358 -1.7559443181 1.1312932868
| 24> H 0.386700439 -1.9262944514 0.9700416706
| 25> H 0.4807481592 1.6999505263 -1.2920199703
| 26> H -1.9307100452 1.8577540595 -1.1224231671
| 27> H 2.3726538888 -0.8052690016 -1.1923004719
| 28> H 3.8683672072 -0.9377040766 0.833403566
| 29> H 2.4971481137 -2.0288666569 0.9096285209
| 30> H 2.479439855 -0.5262036085 1.8419468012
| 31> H 3.9190105779 1.0130085932 -0.3831022133
| 32> H 2.541505258 1.7872206201 0.4037000475
| 33> H 2.5896643037 1.6157459618 -1.355901511
| 34> *
| 35>
| 36>                          ****END OF INPUT****

CARTESIAN COORDINATES (ANGSTROEM)
---------------------------------
  C     -3.654539    0.185177    0.123518
  C     -2.163917    0.067797    0.023831
  C     -1.475724   -0.988752    0.600353
  C     -0.097835   -1.080926    0.508458
  C      0.651459   -0.118783   -0.159961
  C     -0.046395    0.932947   -0.747687
  C     -1.422192    1.025467   -0.656184
  C      2.160121   -0.231815   -0.279377
  C      2.783827   -0.981198    0.901985
  C      2.838696    1.134716   -0.414318
  H     -3.925246    1.082753    0.678017
  H     -4.096309    0.261127   -0.868658
  H     -4.078488   -0.677452    0.630681
  H     -2.021951   -1.755944    1.131293
  H      0.386700   -1.926294    0.970042
  H      0.480748    1.699951   -1.292020
  H     -1.930710    1.857754   -1.122423
  H      2.372654   -0.805269   -1.192300
  H      3.868367   -0.937704    0.833404
  H      2.497148   -2.028867    0.909629
  H      2.479440   -0.526204    1.841947
  H      3.919011    1.013009   -0.383102
  H      2.541505    1.787221    0.403700
  H      2.589664    1.615746   -1.355902

 Total Charge           Charge          ....    0
 Multiplicity           Mult            ....    1
 Number of Electrons    NEL             ....   74
 Basis Dimension        Dim             ....  260

ORBITAL ENERGIES
----------------

  NO   OCC          E(Eh)            E(eV)
   0   2.0000     -10.036167      -273.0980
   1   2.0000     -10.034903      -273.0636
   2   2.0000     -10.034694      -273.0579
   3   2.0000     -10.025308      -272.8025
   4   2.0000     -10.025038      -272.7951
   5   2.0000     -10.024613      -272.7836
   6   2.0000     -10.024555      -272.7820
   7   2.0000     -10.016654      -272.5670
   8   2.0000     -10.009068      -272.3606
   9   2.0000     -10.009033      -272.3596
  10   2.0000      -0.828463       -22.5436
  11   2.0000      -0.770445       -20.9649
  12   2.0000      -0.718349       -19.5473
  13   2.0000      -0.710400       -19.3310
  14   2.0000      -0.645198       -17.5567
  15   2.0000      -0.644577       -17.5398
  16   2.0000      -0.567020       -15.4294
  17   2.0000      -0.566705       -15.4208
  18   2.0000      -0.524477       -14.2718
  19   2.0000      -0.462131       -12.5752
  20   2.0000      -0.431249       -11.7349
  21   2.0000      -0.424784       -11.5590
  22   2.0000      -0.403588       -10.9822
  23   2.0000      -0.392834       -10.6895
  24   2.0000      -0.385579       -10.4921
  25   2.0000      -0.380752       -10.3608
  26   2.0000      -0.359106        -9.7718
  27   2.0000      -0.348529        -9.4840
  28   2.0000      -0.335135        -9.1195
  29   2.0000      -0.334431        -9.1003
  30   2.0000      -0.326978        -8.8975
  31   2.0000      -0.312114        -8.4931
  32   2.0000      -0.301171        -8.1953
  33   2.0000      -0.286670        -7.8007
  34   2.0000      -0.282222        -7.6797
  35   2.0000      -0.234650        -6.3852
  36   2.0000      -0.215039        -5.8515
  37   0.0000      -0.030092        -0.8189
  38   0.0000      -0.022689        -0.6174
  39   0.0000       0.086803         2.3620
  40   0.0000       0.097544         2.6543
  41   0.0000       0.110293         3.0012

MULLIKEN ATOMIC CHARGES
-----------------------
   0 C :   -0.560428
   1 C :    0.177703
   2 C :   -0.273737
   3 C :   -0.226809
   4 C :    0.048806
   5 C :   -0.230379
   6 C :   -0.245039
   7 C :    0.099621
   8 C :   -0.578966
   9 C :   -0.580179
  10 H :    0.176229
  11 H :    0.173854
  12 H :    0.169046
  13 H :    0.174012
  14 H :    0.165003
  15 H :    0.165427
  16 H :    0.172474
  17 H :    0.174389
  18 H :    0.161210
  19 H :    0.160205
  20 H :    0.177717
  21 H :    0.161547
  22 H :    0.178053
  23 H :    0.160242
Sum of atomic charges:    0.0000000

LOEWDIN ATOMIC CHARGES
----------------------
   0 C :   -0.396067
   1 C :   -0.113508
   2 C :   -0.177750
   3 C :   -0.167584
   4 C :   -0.097737
   5 C :   -0.166045
   6 C :   -0.171680
   7 C :   -0.214805
   8 C :   -0.417138
   9 C :   -0.417183
  10 H :    0.169807
  11 H :    0.169186
  12 H :    0.164169
  13 H :    0.177057
  14 H :    0.179540
  15 H :    0.179558
  16 H :    0.177944
  17 H :    0.173364
  18 H :    0.157832
  19 H :    0.156226
  20 H :    0.160365
  21 H :    0.157854
  22 H :    0.160365
  23 H :    0.156230

  Mayer bond orders larger than 0.100000
B(  0-C ,  1-C ) :   0.8055 B(  0-C , 10-H ) :   0.9692 B(  0-C , 11-H ) :   0.9720
B(  0-C , 12-H ) :   0.9912 B(  1-C ,  2-C ) :   1.3793 B(  1-C ,  6-C ) :   1.3449
B(  2-C ,  3-C ) :   1.4239 B(  2-C , 13-H ) :   0.9551 B(  3-C ,  4-C ) :   1.3874
B(  3-C , 14-H ) :   0.9634 B(  4-C ,  5-C ) :   1.3709 B(  4-C ,  7-C ) :   0.8567
B(  5-C ,  6-C ) :   1.4434 B(  5-C , 15-H ) :   0.9617 B(  6-C , 16-H ) :   0.9633
B(  7-C ,  8-C ) :   0.8696 B(  7-C ,  9-C ) :   0.8690 B(  7-C , 17-H ) :   0.9215
B(  8-C , 18-H ) :   0.9728 B(  8-C , 19-H ) :   0.9565 B(  8-C , 20-H ) :   0.9931
B(  9-C , 21-H ) :   0.9728 B(  9-C , 22-H ) :   0.9932 B(  9-C , 23-H ) :   0.9565

Dispersion correction           -0.008180261
FINAL SINGLE POINT ENERGY      -389.379797202853

DIPOLE MOMENT
-------------

Method             : SCF
Type of density    : Electron Density
Multiplicity       :   1
Irrep              :   0
Energy             :  -389.3805776622509711 Eh
Relativity type    :
Basis              : AO
                                X                 Y                 Z
Electronic contribution:     -4.735213520      -0.623175152      -1.181271248
Nuclear contribution   :      4.768263406       0.619025588       1.111078039
                        -----------------------------------------
Total Dipole Moment    :      0.033049886      -0.004149564      -0.070193209
                        -----------------------------------------
Magnitude (a.u.)       :      0.077695563
Magnitude (Debye)      :      0.197486426

Rotational constants in cm-1:             0.110444             0.025935             0.021649
Rotational constants in MHz :          3311.018240           777.497495           649.018863

                             ****ORCA TERMINATED NORMALLY****
TOTAL RUN TIME: 0 days 0 hours 0 minutes 35 seconds 589 msec
