                         Program Version 6.0.0  -   RELEASE  -
|  1> ! pbe def2-sv(p) def2/J RI DEFGRID1 loosescf d4 GCP(DFT/SV(P)) printgap
|  2> %output
|  3>     printlevel normal
|  4> end
|  5> * xyz 0 1
|  6> C -2.5536515201 -0.7011505511 -0.3218598651
|  7> C -1.1629522114 -0.3189023135 0.1798435457
|  8> H -1.196459263 -0.2528369164 1.2780132163
|  9> C -0.700710262 1.0274871233 -0.3931463079
| 10> H -0.6703576377 0.9378477477 -1.4927635332
| 11> C 0.7112259585 1.3274069072 0.1273907524
| 12> H 0.6587601205 1.4904339228 1.2106049366
| 13> C 1.6708443106 0.158451144 -0.1415288124
| 14> H 1.871327917 0.0762113584 -1.2218870022
| 15> C 1.0418686421 -1.1729739706 0.3018417769
| 16> H 1.0068884669 -1.1819122826 1.4113701363
| 17> O -0.2596376278 -1.3321764257 -0.2132928436
| 18> O 1.8142701065 -2.2026555997 -0.1894967328
| 19> O 2.868573567 0.3191166663 0.5715135165
| 20> O 1.208064555 2.5333522484 -0.4031079598
| 21> O -1.6058860685 2.0310608967 -0.0151477127
| 22> O -3.0793148233 -1.6983124638 0.522013307
| 23> H -2.4555362976 -1.0667369004 -1.3502817274
| 24> H -3.1761123138 0.2008756777 -0.2991717049
| 25> H 1.3645585644 -3.0478801549 -0.0298910622
| 26> H 3.2200942492 1.2068760272 0.3951597581
| 27> H 1.301748142 2.4565115385 -1.3651501358
| 28> H -1.1643754828 2.8926831105 -0.0941801402
| 29> H -3.9405340678 -1.979479117 0.1817383966
| 30> *
| 31>
| 32>                          ****END OF INPUT****

CARTESIAN COORDINATES (ANGSTROEM)
---------------------------------
  C     -2.553652   -0.701151   -0.321860
  C     -1.162952   -0.318902    0.179844
  H     -1.196459   -0.252837    1.278013
  C     -0.700710    1.027487   -0.393146
  H     -0.670358    0.937848   -1.492764
  C      0.711226    1.327407    0.127391
  H      0.658760    1.490434    1.210605
  C      1.670844    0.158451   -0.141529
  H      1.871328    0.076211   -1.221887
  C      1.041869   -1.172974    0.301842
  H      1.006888   -1.181912    1.411370
  O     -0.259638   -1.332176   -0.213293
  O      1.814270   -2.202656   -0.189497
  O      2.868574    0.319117    0.571514
  O      1.208065    2.533352   -0.403108
  O     -1.605886    2.031061   -0.015148
  O     -3.079315   -1.698312    0.522013
  H     -2.455536   -1.066737   -1.350282
  H     -3.176112    0.200876   -0.299172
  H      1.364559   -3.047880   -0.029891
  H      3.220094    1.206876    0.395160
  H      1.301748    2.456512   -1.365150
  H     -1.164375    2.892683   -0.094180
  H     -3.940534   -1.979479    0.181738

 Total Charge           Charge          ....    0
 Multiplicity           Mult            ....    1
 Number of Electrons    NEL             ....   96
 Basis Dimension        Dim             ....  192

ORBITAL ENERGIES
----------------

  NO   OCC          E(Eh)            E(eV)
   0   2.0000     -18.775905      -510.9184
   1   2.0000     -18.767502      -510.6897
   2   2.0000     -18.756491      -510.3901
   3   2.0000     -18.753901      -510.3196
   4   2.0000     -18.749193      -510.1915
   5   2.0000     -18.744799      -510.0719
   6   2.0000      -9.984109      -271.6814
   7   2.0000      -9.948934      -270.7243
   8   2.0000      -9.946644      -270.6619
   9   2.0000      -9.944042      -270.5911
  10   2.0000      -9.942209      -270.5413
  11   2.0000      -9.928729      -270.1744
  12   2.0000      -0.981342       -26.7037
  13   2.0000      -0.959082       -26.0979
  14   2.0000      -0.934042       -25.4166
  15   2.0000      -0.922080       -25.0911
  16   2.0000      -0.920293       -25.0425
  17   2.0000      -0.908406       -24.7190
  18   2.0000      -0.706646       -19.2288
  19   2.0000      -0.692653       -18.8480
  20   2.0000      -0.620635       -16.8883
  21   2.0000      -0.584871       -15.9152
  22   2.0000      -0.555805       -15.1242
  23   2.0000      -0.531323       -14.4580
  24   2.0000      -0.499884       -13.6025
  25   2.0000      -0.490322       -13.3423
  26   2.0000      -0.477083       -12.9821
  27   2.0000      -0.468227       -12.7411
  28   2.0000      -0.443022       -12.0552
  29   2.0000      -0.437286       -11.8992
  30   2.0000      -0.417049       -11.3485
  31   2.0000      -0.412178       -11.2159
  32   2.0000      -0.384472       -10.4620
  33   2.0000      -0.373435       -10.1617
  34   2.0000      -0.363704        -9.8969
  35   2.0000      -0.356530        -9.7017
  36   2.0000      -0.320007        -8.7078
  37   2.0000      -0.311880        -8.4867
  38   2.0000      -0.298915        -8.1339
  39   2.0000      -0.294692        -8.0190
  40   2.0000      -0.289255        -7.8710
  41   2.0000      -0.268996        -7.3197
  42   2.0000      -0.254992        -6.9387
  43   2.0000      -0.242284        -6.5929
  44   2.0000      -0.234572        -6.3830
  45   2.0000      -0.219105        -5.9621
  46   2.0000      -0.212542        -5.7836
  47   2.0000      -0.206755        -5.6261
  48   0.0000       0.003295         0.0897
  49   0.0000       0.031037         0.8445
  50   0.0000       0.037530         1.0212
  51   0.0000       0.043791         1.1916
  52   0.0000       0.052310         1.4234

MULLIKEN ATOMIC CHARGES
-----------------------
   0 C :    0.077551
   1 C :    0.011338
   2 H :    0.062881
   3 C :    0.056218
   4 H :    0.038026
   5 C :    0.029687
   6 H :    0.070435
   7 C :    0.043524
   8 H :    0.044654
   9 C :    0.202261
  10 H :    0.043239
  11 O :   -0.306104
  12 O :   -0.372002
  13 O :   -0.405670
  14 O :   -0.420656
  15 O :   -0.410526
  16 O :   -0.433198
  17 H :    0.066275
  18 H :    0.088738
  19 H :    0.307340
  20 H :    0.301139
  21 H :    0.301327
  22 H :    0.303740
  23 H :    0.299782
Sum of atomic charges:    0.0000000

LOEWDIN ATOMIC CHARGES
----------------------
   0 C :   -0.125820
   1 C :   -0.055551
   2 H :    0.111952
   3 C :   -0.078106
   4 H :    0.094532
   5 C :   -0.092662
   6 H :    0.121147
   7 C :   -0.086357
   8 H :    0.100994
   9 C :    0.009624
  10 H :    0.085073
  11 O :   -0.148110
  12 O :   -0.289235
  13 O :   -0.313230
  14 O :   -0.312143
  15 O :   -0.318377
  16 O :   -0.343493
  17 H :    0.101182
  18 H :    0.107559
  19 H :    0.291082
  20 H :    0.283615
  21 H :    0.285881
  22 H :    0.284029
  23 H :    0.286414

  Mayer bond orders larger than 0.100000
B(  0-C ,  1-C ) :   1.0688 B(  0-C , 16-O ) :   1.1101 B(  0-C , 17-H ) :   0.8986
B(  0-C , 18-H ) :   0.9121 B(  1-C ,  2-H ) :   0.8720 B(  1-C ,  3-C ) :   0.9932
B(  1-C , 11-O ) :   0.9979 B(  3-C ,  4-H ) :   0.8646 B(  3-C ,  5-C ) :   1.0117
B(  3-C , 15-O ) :   1.0706 B(  5-C ,  6-H ) :   0.8604 B(  5-C ,  7-C ) :   1.0146
B(  5-C , 14-O ) :   1.0171 B(  7-C ,  8-H ) :   0.8603 B(  7-C ,  9-C ) :   0.9850
B(  7-C , 13-O ) :   1.0811 B(  9-C , 10-H ) :   0.8850 B(  9-C , 11-O ) :   1.0136
B(  9-C , 12-O ) :   1.1949 B( 12-O , 19-H ) :   0.8400 B( 13-O , 20-H ) :   0.8379
B( 14-O , 21-H ) :   0.8453 B( 15-O , 22-H ) :   0.8300 B( 16-O , 23-H ) :   0.8518

Dispersion correction           -0.023485346
FINAL SINGLE POINT ENERGY      -685.695422988372

DIPOLE MOMENT
-------------

Method             : SCF
Type of density    : Electron Density
Multiplicity       :   1
Irrep              :   0
Energy             :  -685.8245367603508384 Eh
Relativity type    :
Basis              : AO
                                X                 Y                 Z
Electronic contribution:      2.494847129      -1.100125484       0.481998235
Nuclear contribution   :     -2.969363185       1.620288565      -1.287297134
                        -----------------------------------------
Total Dipole Moment    :     -0.474516056       0.520163080      -0.805298899
                        -----------------------------------------
Magnitude (a.u.)       :      1.069692215
Magnitude (Debye)      :      2.718941532

Rotational constants in cm-1:             0.039377             0.025651             0.016427
Rotational constants in MHz :          1180.477795           768.997921           492.468405

                             ****ORCA TERMINATED NORMALLY****
TOTAL RUN TIME: 0 days 0 hours 0 minutes 11 seconds 455 msec
