                         Program Version 6.0.0  -   RELEASE  -
|  1> ! wb97x-v def2-tzvp def2/J RIJCOSX DEFGRID2 scfconv7 GCP(DFT/TZ) printgap
|  2> %output
|  3>     printlevel normal
|  4> end
|  5> * xyz 0 1
|  6> C -3.0951592340171987 0.4074542348213797 0.0003855238492210062
|  7> C -1.6332704600931434 0.054224065580288625 -0.0001614800274436963
|  8> C -1.2035420463919841 -1.2724155882367676 -0.00023938217595441462
|  9> C 0.15507650355141891 -1.5851456706311744 -8.902973902593407e-05
| 10> C 1.099243935709946 -0.5647129038351568 6.419754681679525e-05
| 11> C 0.7081958966736187 0.7821214727408994 0.00014751856707937604
| 12> C -0.6577948771794818 1.0589592360035815 2.3250509371751033e-05
| 13> C 1.738717983956636 1.8716899659662998 -7.714415534403496e-05
| 14> O 2.45698306000443 -0.824109302062456 -7.81703568733863e-05
| 15> H -3.3617296375773846 0.9958541601462434 0.8853860766312343
| 16> H -3.35900843522937 1.0098165420641352 -0.8759202343377346
| 17> H -3.7165291462840195 -0.4917961368719141 -0.007468169643075057
| 18> H -1.9335583299922323 -2.077065819980761 -0.00045809911148382375
| 19> H 0.48428874914173553 -2.621189946856937 -0.0002383796962593524
| 20> H -0.9717853488575225 2.100733037294415 5.084523237287711e-05
| 21> H 2.3908562845730934 1.8042539362831225 0.8777773697665257
| 22> H 2.387052586154483 1.8073468558768673 -0.881010288379957
| 23> H 1.2590539221935506 2.853102578174681 0.0026207300577696974
| 24> H 2.589812278606484 -1.782260078745258 -4.9436069534873355e-05
| 25> *
| 26>
| 27>                          ****END OF INPUT****

CARTESIAN COORDINATES (ANGSTROEM)
---------------------------------
  C     -3.095159    0.407454    0.000386
  C     -1.633270    0.054224   -0.000161
  C     -1.203542   -1.272416   -0.000239
  C      0.155077   -1.585146   -0.000089
  C      1.099244   -0.564713    0.000064
  C      0.708196    0.782121    0.000148
  C     -0.657795    1.058959    0.000023
  C      1.738718    1.871690   -0.000077
  O      2.456983   -0.824109   -0.000078
  H     -3.361730    0.995854    0.885386
  H     -3.359008    1.009817   -0.875920
  H     -3.716529   -0.491796   -0.007468
  H     -1.933558   -2.077066   -0.000458
  H      0.484289   -2.621190   -0.000238
  H     -0.971785    2.100733    0.000051
  H      2.390856    1.804254    0.877777
  H      2.387053    1.807347   -0.881010
  H      1.259054    2.853103    0.002621
  H      2.589812   -1.782260   -0.000049

 Total Charge           Charge          ....    0
 Multiplicity           Mult            ....    1
 Number of Electrons    NEL             ....   66
 Basis Dimension        Dim             ....  339

ORBITAL ENERGIES
----------------

  NO   OCC          E(Eh)            E(eV)
   0   2.0000     -21.699976      -590.4864
   1   2.0000     -12.105233      -329.4001
   2   2.0000     -12.053451      -327.9911
   3   2.0000     -12.050612      -327.9138
   4   2.0000     -12.048573      -327.8583
   5   2.0000     -12.046168      -327.7929
   6   2.0000     -12.044119      -327.7371
   7   2.0000     -12.039889      -327.6220
   8   2.0000     -12.037103      -327.5462
   9   2.0000      -1.711341       -46.5680
  10   2.0000      -1.385145       -37.6917
  11   2.0000      -1.302545       -35.4440
  12   2.0000      -1.283646       -34.9298
  13   2.0000      -1.199283       -32.6342
  14   2.0000      -1.190622       -32.3985
  15   2.0000      -1.136583       -30.9280
  16   2.0000      -1.087625       -29.5958
  17   2.0000      -1.048942       -28.5432
  18   2.0000      -1.002008       -27.2660
  19   2.0000      -0.943581       -25.6761
  20   2.0000      -0.943408       -25.6714
  21   2.0000      -0.923809       -25.1381
  22   2.0000      -0.891729       -24.2652
  23   2.0000      -0.868264       -23.6267
  24   2.0000      -0.838251       -22.8100
  25   2.0000      -0.836145       -22.7527
  26   2.0000      -0.827050       -22.5052
  27   2.0000      -0.825581       -22.4652
  28   2.0000      -0.805613       -21.9219
  29   2.0000      -0.796293       -21.6682
  30   2.0000      -0.750252       -20.4154
  31   2.0000      -0.635102       -17.2820
  32   2.0000      -0.625964       -17.0333
  33   0.0000      -0.241928        -6.5832
  34   0.0000      -0.236898        -6.4463
  35   0.0000      -0.145883        -3.9697
  36   0.0000      -0.073255        -1.9934
  37   0.0000      -0.069335        -1.8867

MULLIKEN ATOMIC CHARGES
-----------------------
   0 C :   -0.366366
   1 C :    0.163398
   2 C :   -0.215999
   3 C :   -0.184060
   4 C :    0.173879
   5 C :    0.091230
   6 C :   -0.270338
   7 C :   -0.336863
   8 O :   -0.397021
   9 H :    0.120747
  10 H :    0.120682
  11 H :    0.113378
  12 H :    0.110098
  13 H :    0.100616
  14 H :    0.109470
  15 H :    0.123318
  16 H :    0.123210
  17 H :    0.110770
  18 H :    0.309850
Sum of atomic charges:   -0.0000000

LOEWDIN ATOMIC CHARGES
----------------------
   0 C :   -0.255429
   1 C :   -0.181781
   2 C :   -0.123026
   3 C :   -0.146848
   4 C :   -0.234119
   5 C :   -0.151278
   6 C :   -0.087314
   7 C :   -0.248101
   8 O :    0.061680
   9 H :    0.125268
  10 H :    0.125243
  11 H :    0.123163
  12 H :    0.142554
  13 H :    0.138890
  14 H :    0.146413
  15 H :    0.129106
  16 H :    0.129110
  17 H :    0.122671
  18 H :    0.183796

  Mayer bond orders larger than 0.100000
B(  0-C ,  1-C ) :   0.9121 B(  0-C ,  9-H ) :   0.9773 B(  0-C , 10-H ) :   0.9780
B(  0-C , 11-H ) :   0.9970 B(  1-C ,  2-C ) :   1.4365 B(  1-C ,  6-C ) :   1.3772
B(  2-C ,  3-C ) :   1.4149 B(  2-C , 12-H ) :   0.9607 B(  3-C ,  4-C ) :   1.4074
B(  3-C , 13-H ) :   0.9658 B(  4-C ,  5-C ) :   1.3450 B(  4-C ,  8-O ) :   1.1757
B(  5-C ,  6-C ) :   1.4506 B(  5-C ,  7-C ) :   0.9489 B(  6-C , 14-H ) :   0.9703
B(  7-C , 15-H ) :   0.9669 B(  7-C , 16-H ) :   0.9668 B(  7-C , 17-H ) :   0.9957
B(  8-O , 18-H ) :   0.8903

FINAL SINGLE POINT ENERGY      -386.122487268904

DIPOLE MOMENT
-------------

Method             : SCF
Type of density    : Electron Density
Multiplicity       :   1
Irrep              :   0
Energy             :  -386.1336260267044622 Eh
Relativity type    :
Basis              : AO
                                X                 Y                 Z
Electronic contribution:      3.817001186      -3.772208851      -0.000440781
Nuclear contribution   :     -3.960498872       3.404341105       0.000639857
                        -----------------------------------------
Total Dipole Moment    :     -0.143497686      -0.367867747       0.000199076
                        -----------------------------------------
Magnitude (a.u.)       :      0.394864920
Magnitude (Debye)      :      1.003666863

Rotational constants in cm-1:             0.100140             0.043442             0.030642
Rotational constants in MHz :          3002.121343          1302.352918           918.626995

                             ****ORCA TERMINATED NORMALLY****
TOTAL RUN TIME: 0 days 0 hours 3 minutes 39 seconds 84 msec
