                         Program Version 6.0.0  -   RELEASE  -
|  1> ! wb97x-v def2-tzvp def2/J RIJCOSX DEFGRID2 scfconv7 GCP(DFT/TZ) printgap
|  2> %output
|  3>     printlevel normal
|  4> end
|  5> %cpcm
|  6>     smd true
|  7>     smdsolvent "water"
|  8> end
|  9> * xyz 0 1
| 10> C -3.0951592340171987 0.4074542348213797 0.0003855238492210062
| 11> C -1.6332704600931434 0.054224065580288625 -0.0001614800274436963
| 12> C -1.2035420463919841 -1.2724155882367676 -0.00023938217595441462
| 13> C 0.15507650355141891 -1.5851456706311744 -8.902973902593407e-05
| 14> C 1.099243935709946 -0.5647129038351568 6.419754681679525e-05
| 15> C 0.7081958966736187 0.7821214727408994 0.00014751856707937604
| 16> C -0.6577948771794818 1.0589592360035815 2.3250509371751033e-05
| 17> C 1.738717983956636 1.8716899659662998 -7.714415534403496e-05
| 18> O 2.45698306000443 -0.824109302062456 -7.81703568733863e-05
| 19> H -3.3617296375773846 0.9958541601462434 0.8853860766312343
| 20> H -3.35900843522937 1.0098165420641352 -0.8759202343377346
| 21> H -3.7165291462840195 -0.4917961368719141 -0.007468169643075057
| 22> H -1.9335583299922323 -2.077065819980761 -0.00045809911148382375
| 23> H 0.48428874914173553 -2.621189946856937 -0.0002383796962593524
| 24> H -0.9717853488575225 2.100733037294415 5.084523237287711e-05
| 25> H 2.3908562845730934 1.8042539362831225 0.8777773697665257
| 26> H 2.387052586154483 1.8073468558768673 -0.881010288379957
| 27> H 1.2590539221935506 2.853102578174681 0.0026207300577696974
| 28> H 2.589812278606484 -1.782260078745258 -4.9436069534873355e-05
| 29> *
| 30>
| 31>                          ****END OF INPUT****

CARTESIAN COORDINATES (ANGSTROEM)
---------------------------------
  C     -3.095159    0.407454    0.000386
  C     -1.633270    0.054224   -0.000161
  C     -1.203542   -1.272416   -0.000239
  C      0.155077   -1.585146   -0.000089
  C      1.099244   -0.564713    0.000064
  C      0.708196    0.782121    0.000148
  C     -0.657795    1.058959    0.000023
  C      1.738718    1.871690   -0.000077
  O      2.456983   -0.824109   -0.000078
  H     -3.361730    0.995854    0.885386
  H     -3.359008    1.009817   -0.875920
  H     -3.716529   -0.491796   -0.007468
  H     -1.933558   -2.077066   -0.000458
  H      0.484289   -2.621190   -0.000238
  H     -0.971785    2.100733    0.000051
  H      2.390856    1.804254    0.877777
  H      2.387053    1.807347   -0.881010
  H      1.259054    2.853103    0.002621
  H      2.589812   -1.782260   -0.000049

 Total Charge           Charge          ....    0
 Multiplicity           Mult            ....    1
 Number of Electrons    NEL             ....   66
 Basis Dimension        Dim             ....  339

ORBITAL ENERGIES
----------------

  NO   OCC          E(Eh)            E(eV)
   0   2.0000     -21.698484      -590.4458
   1   2.0000     -12.105156      -329.3980
   2   2.0000     -12.054398      -328.0168
   3   2.0000     -12.050220      -327.9032
   4   2.0000     -12.045556      -327.7762
   5   2.0000     -12.043506      -327.7205
   6   2.0000     -12.042636      -327.6968
   7   2.0000     -12.034548      -327.4767
   8   2.0000     -12.032036      -327.4084
   9   2.0000      -1.710268       -46.5387
  10   2.0000      -1.385674       -37.7061
  11   2.0000      -1.302087       -35.4316
  12   2.0000      -1.282388       -34.8955
  13   2.0000      -1.196052       -32.5462
  14   2.0000      -1.189274       -32.3618
  15   2.0000      -1.134165       -30.8622
  16   2.0000      -1.086415       -29.5629
  17   2.0000      -1.047491       -28.5037
  18   2.0000      -1.003233       -27.2994
  19   2.0000      -0.944951       -25.7134
  20   2.0000      -0.943396       -25.6711
  21   2.0000      -0.919676       -25.0256
  22   2.0000      -0.887984       -24.1633
  23   2.0000      -0.865629       -23.5550
  24   2.0000      -0.834679       -22.7128
  25   2.0000      -0.832984       -22.6666
  26   2.0000      -0.823637       -22.4123
  27   2.0000      -0.820435       -22.3252
  28   2.0000      -0.802316       -21.8321
  29   2.0000      -0.791605       -21.5407
  30   2.0000      -0.750787       -20.4299
  31   2.0000      -0.635796       -17.3009
  32   2.0000      -0.627611       -17.0782
  33   0.0000      -0.243070        -6.6143
  34   0.0000      -0.237397        -6.4599
  35   0.0000      -0.144209        -3.9241
  36   0.0000      -0.072989        -1.9861
  37   0.0000      -0.045259        -1.2316

MULLIKEN ATOMIC CHARGES
-----------------------
   0 C :   -0.396014
   1 C :    0.132184
   2 C :   -0.248160
   3 C :   -0.239855
   4 C :    0.180473
   5 C :    0.074643
   6 C :   -0.313345
   7 C :   -0.396182
   8 O :   -0.475842
   9 H :    0.137581
  10 H :    0.137644
  11 H :    0.139664
  12 H :    0.156744
  13 H :    0.163396
  14 H :    0.152873
  15 H :    0.138937
  16 H :    0.138969
  17 H :    0.141928
  18 H :    0.374364
Sum of atomic charges:   -0.0000000

LOEWDIN ATOMIC CHARGES
----------------------
   0 C :   -0.258210
   1 C :   -0.192462
   2 C :   -0.133544
   3 C :   -0.145374
   4 C :   -0.245162
   5 C :   -0.163759
   6 C :   -0.096763
   7 C :   -0.254967
   8 O :    0.037675
   9 H :    0.129545
  10 H :    0.129532
  11 H :    0.128729
  12 H :    0.152521
  13 H :    0.155375
  14 H :    0.156308
  15 H :    0.130731
  16 H :    0.130775
  17 H :    0.130593
  18 H :    0.208458

  Mayer bond orders larger than 0.100000
B(  0-C ,  1-C ) :   0.9272 B(  0-C ,  9-H ) :   0.9716 B(  0-C , 10-H ) :   0.9722
B(  0-C , 11-H ) :   0.9927 B(  1-C ,  2-C ) :   1.4054 B(  1-C ,  6-C ) :   1.3589
B(  2-C ,  3-C ) :   1.3715 B(  2-C , 12-H ) :   0.9693 B(  3-C ,  4-C ) :   1.4137
B(  3-C , 13-H ) :   0.9751 B(  4-C ,  5-C ) :   1.3320 B(  4-C ,  8-O ) :   1.1344
B(  5-C ,  6-C ) :   1.4387 B(  5-C ,  7-C ) :   0.9399 B(  6-C , 14-H ) :   0.9790
B(  7-C , 15-H ) :   0.9674 B(  7-C , 16-H ) :   0.9673 B(  7-C , 17-H ) :   0.9892
B(  8-O , 18-H ) :   0.8502

FINAL SINGLE POINT ENERGY      -386.130564070648

DIPOLE MOMENT
-------------

Method             : SCF
Type of density    : Electron Density
Multiplicity       :   1
Irrep              :   0
Energy             :  -386.1417028284482171 Eh
Relativity type    :
Basis              : AO
                                X                 Y                 Z
Electronic contribution:      3.703663372      -3.934521825      -0.000396976
Nuclear contribution   :     -3.960498872       3.404341105       0.000639857
                        -----------------------------------------
Total Dipole Moment    :     -0.256835500      -0.530180720       0.000242882
                        -----------------------------------------
Magnitude (a.u.)       :      0.589114700
Magnitude (Debye)      :      1.497410565

Rotational constants in cm-1:             0.100140             0.043442             0.030642
Rotational constants in MHz :          3002.121343          1302.352918           918.626995

                             ****ORCA TERMINATED NORMALLY****
TOTAL RUN TIME: 0 days 0 hours 3 minutes 53 seconds 951 msec
