                         Program Version 6.0.0  -   RELEASE  -
|  1> ! pbe def2-sv(p) def2/J RI DEFGRID1 loosescf d4 GCP(DFT/SV(P)) printgap
|  2> %output
|  3>     printlevel normal
|  4> end
|  5> * xyz 0 1
|  6> C -2.3559613309 -0.7646071118 0.7185277031
|  7> C -0.8892674604 -0.3119192274 0.7486635951
|  8> H -0.6508021672 0.0426640453 1.7618713931
|  9> C -0.6152919229 0.8294262327 -0.2329599676
| 10> H -0.7291469252 0.4590698454 -1.2612560977
| 11> C 0.8324600298 1.3107509859 -0.0423986516
| 12> H 0.8418765159 1.971261113 0.8386944458
| 13> C 1.7799411202 0.1364466679 0.2861091417
| 14> H 2.7025971445 0.259333745 -0.2997886999
| 15> C 1.166903556 -1.2072476808 -0.1389622781
| 16> H 1.8004583184 -2.0335053905 0.2259142937
| 17> O -0.0875921308 -1.4522229608 0.4457508935
| 18> O 1.1172182373 -1.2136000883 -1.5312214869
| 19> O 2.0399362528 0.1798213749 1.6653709466
| 20> O 1.1979112344 2.0112030021 -1.2026512886
| 21> O -1.5246561757 1.8675329537 0.0286756588
| 22> O -2.7127964194 -1.3656517895 -0.4982149238
| 23> H -2.9905966814 0.114101712 0.8359542447
| 24> H -2.5236607764 -1.4562462268 1.5529345728
| 25> H 0.8411107356 -2.0836471595 -1.8570464707
| 26> H 2.6819781343 -0.5025257107 1.9109443744
| 27> H 2.047619673 2.4553658003 -1.0712600548
| 28> H -1.3908217443 2.5648578598 -0.6295583358
| 29> H -2.13932588 -2.1354298726 -0.6248215195
| 30> *
| 31>
| 32>                          ****END OF INPUT****

CARTESIAN COORDINATES (ANGSTROEM)
---------------------------------
  C     -2.355961   -0.764607    0.718528
  C     -0.889267   -0.311919    0.748664
  H     -0.650802    0.042664    1.761871
  C     -0.615292    0.829426   -0.232960
  H     -0.729147    0.459070   -1.261256
  C      0.832460    1.310751   -0.042399
  H      0.841877    1.971261    0.838694
  C      1.779941    0.136447    0.286109
  H      2.702597    0.259334   -0.299789
  C      1.166904   -1.207248   -0.138962
  H      1.800458   -2.033505    0.225914
  O     -0.087592   -1.452223    0.445751
  O      1.117218   -1.213600   -1.531221
  O      2.039936    0.179821    1.665371
  O      1.197911    2.011203   -1.202651
  O     -1.524656    1.867533    0.028676
  O     -2.712796   -1.365652   -0.498215
  H     -2.990597    0.114102    0.835954
  H     -2.523661   -1.456246    1.552935
  H      0.841111   -2.083647   -1.857046
  H      2.681978   -0.502526    1.910944
  H      2.047620    2.455366   -1.071260
  H     -1.390822    2.564858   -0.629558
  H     -2.139326   -2.135430   -0.624822

 Total Charge           Charge          ....    0
 Multiplicity           Mult            ....    1
 Number of Electrons    NEL             ....   96
 Basis Dimension        Dim             ....  192

ORBITAL ENERGIES
----------------

  NO   OCC          E(Eh)            E(eV)
   0   2.0000     -18.770363      -510.7675
   1   2.0000     -18.764235      -510.6008
   2   2.0000     -18.763946      -510.5929
   3   2.0000     -18.752832      -510.2905
   4   2.0000     -18.743502      -510.0366
   5   2.0000     -18.734736      -509.7981
   6   2.0000      -9.990263      -271.8489
   7   2.0000      -9.946801      -270.6662
   8   2.0000      -9.937051      -270.4009
   9   2.0000      -9.933504      -270.3044
  10   2.0000      -9.929667      -270.2000
  11   2.0000      -9.917215      -269.8611
  12   2.0000      -0.981464       -26.7070
  13   2.0000      -0.941837       -25.6287
  14   2.0000      -0.932972       -25.3875
  15   2.0000      -0.923110       -25.1191
  16   2.0000      -0.913299       -24.8521
  17   2.0000      -0.904250       -24.6059
  18   2.0000      -0.700757       -19.0686
  19   2.0000      -0.687177       -18.6990
  20   2.0000      -0.614974       -16.7343
  21   2.0000      -0.584824       -15.9139
  22   2.0000      -0.557575       -15.1724
  23   2.0000      -0.526696       -14.3321
  24   2.0000      -0.492883       -13.4120
  25   2.0000      -0.482864       -13.1394
  26   2.0000      -0.467618       -12.7245
  27   2.0000      -0.454432       -12.3657
  28   2.0000      -0.438934       -11.9440
  29   2.0000      -0.429541       -11.6884
  30   2.0000      -0.428645       -11.6640
  31   2.0000      -0.389549       -10.6002
  32   2.0000      -0.377658       -10.2766
  33   2.0000      -0.366573        -9.9750
  34   2.0000      -0.352872        -9.6021
  35   2.0000      -0.352610        -9.5950
  36   2.0000      -0.329365        -8.9625
  37   2.0000      -0.313770        -8.5381
  38   2.0000      -0.294176        -8.0049
  39   2.0000      -0.282861        -7.6970
  40   2.0000      -0.273616        -7.4455
  41   2.0000      -0.270782        -7.3684
  42   2.0000      -0.251235        -6.8365
  43   2.0000      -0.237110        -6.4521
  44   2.0000      -0.224097        -6.0980
  45   2.0000      -0.217755        -5.9254
  46   2.0000      -0.209550        -5.7021
  47   2.0000      -0.205218        -5.5843
  48   0.0000       0.014061         0.3826
  49   0.0000       0.016696         0.4543
  50   0.0000       0.026769         0.7284
  51   0.0000       0.051397         1.3986
  52   0.0000       0.054880         1.4934

MULLIKEN ATOMIC CHARGES
-----------------------
   0 C :    0.085863
   1 C :    0.001870
   2 H :    0.064079
   3 C :    0.074129
   4 H :    0.062967
   5 C :    0.070102
   6 H :    0.064822
   7 C :    0.038413
   8 H :    0.054936
   9 C :    0.153495
  10 H :    0.043394
  11 O :   -0.326424
  12 O :   -0.378338
  13 O :   -0.413702
  14 O :   -0.412473
  15 O :   -0.415733
  16 O :   -0.440645
  17 H :    0.100250
  18 H :    0.073085
  19 H :    0.302477
  20 H :    0.302293
  21 H :    0.301275
  22 H :    0.307421
  23 H :    0.286444
Sum of atomic charges:    0.0000000

LOEWDIN ATOMIC CHARGES
----------------------
   0 C :   -0.126376
   1 C :   -0.064522
   2 H :    0.111522
   3 C :   -0.072852
   4 H :    0.111914
   5 C :   -0.071789
   6 H :    0.109148
   7 C :   -0.086119
   8 H :    0.103909
   9 C :   -0.011757
  10 H :    0.087002
  11 O :   -0.152384
  12 O :   -0.305125
  13 O :   -0.310805
  14 O :   -0.316313
  15 O :   -0.315238
  16 O :   -0.334517
  17 H :    0.124752
  18 H :    0.097196
  19 H :    0.285746
  20 H :    0.287015
  21 H :    0.285745
  22 H :    0.291139
  23 H :    0.272711

  Mayer bond orders larger than 0.100000
B(  0-C ,  1-C ) :   1.0430 B(  0-C , 16-O ) :   1.0642 B(  0-C , 17-H ) :   0.9091
B(  0-C , 18-H ) :   0.9203 B(  1-C ,  2-H ) :   0.8695 B(  1-C ,  3-C ) :   1.0564
B(  1-C , 11-O ) :   0.9731 B(  3-C ,  4-H ) :   0.8300 B(  3-C ,  5-C ) :   1.0874
B(  3-C , 15-O ) :   1.0585 B(  5-C ,  6-H ) :   0.8671 B(  5-C ,  7-C ) :   0.9706
B(  5-C , 14-O ) :   1.0900 B(  7-C ,  8-H ) :   0.8735 B(  7-C ,  9-C ) :   1.0409
B(  7-C , 13-O ) :   1.0326 B(  9-C , 10-H ) :   0.8943 B(  9-C , 11-O ) :   1.0698
B(  9-C , 12-O ) :   1.1498 B( 12-O , 19-H ) :   0.8396 B( 13-O , 20-H ) :   0.8448
B( 14-O , 21-H ) :   0.8476 B( 15-O , 22-H ) :   0.8439 B( 16-O , 23-H ) :   0.8439

Dispersion correction           -0.024788209
FINAL SINGLE POINT ENERGY      -685.691227143330

DIPOLE MOMENT
-------------

Method             : SCF
Type of density    : Electron Density
Multiplicity       :   1
Irrep              :   0
Energy             :  -685.8207041604405276 Eh
Relativity type    :
Basis              : AO
                                X                 Y                 Z
Electronic contribution:      1.046932577      -0.125963567      -1.225099534
Nuclear contribution   :      0.461354916      -0.322986251       1.280915532
                        -----------------------------------------
Total Dipole Moment    :      1.508287493      -0.448949818       0.055815998
                        -----------------------------------------
Magnitude (a.u.)       :      1.574675371
Magnitude (Debye)      :      4.002506710

Rotational constants in cm-1:             0.040190             0.027244             0.022436
Rotational constants in MHz :          1204.878659           816.748418           672.628237

                             ****ORCA TERMINATED NORMALLY****
TOTAL RUN TIME: 0 days 0 hours 0 minutes 12 seconds 154 msec
