                         Program Version 6.0.0  -   RELEASE  -
|  1> ! wb97x-v def2-tzvp def2/J RIJCOSX DEFGRID2 scfconv7 GCP(DFT/TZ) printgap
|  2> %output
|  3>     printlevel normal
|  4> end
|  5> * xyz 0 1
|  6> C -1.9612982615472718 0.48345069158562465 0.10070854865110297
|  7> C -0.8978469427784518 -0.572062681183758 -0.17499689162375923
|  8> C 0.5506996076597842 -0.16319639324629864 -0.03222935354533689
|  9> O 1.4580408708301251 -1.0054686597793254 -0.1729493439029896
| 10> N 0.8179965661964048 1.124197951209676 0.24050932717028403
| 11> H -1.889848288140756 1.3248824305703566 -0.5960641494652327
| 12> H -2.9556008825485987 0.044579239105185346 -0.018095242866410333
| 13> H -1.8922383097893776 0.8695014889028418 1.1229451385695237
| 14> H -0.9979415007793335 -0.9600758640690434 -1.196187452361877
| 15> H -1.0308154202820654 -1.4363371035748975 0.48571220832764705
| 16> H 0.08534050909306697 1.8048539410214308 0.3616665764569873
| 17> H 1.7783305192156351 1.4204707519669437 0.33450054591068124
| 18> *
| 19>
| 20>                          ****END OF INPUT****

CARTESIAN COORDINATES (ANGSTROEM)
---------------------------------
  C     -1.961298    0.483451    0.100709
  C     -0.897847   -0.572063   -0.174997
  C      0.550700   -0.163196   -0.032229
  O      1.458041   -1.005469   -0.172949
  N      0.817997    1.124198    0.240509
  H     -1.889848    1.324882   -0.596064
  H     -2.955601    0.044579   -0.018095
  H     -1.892238    0.869501    1.122945
  H     -0.997942   -0.960076   -1.196187
  H     -1.030815   -1.436337    0.485712
  H      0.085341    1.804854    0.361667
  H      1.778331    1.420471    0.334501

 Total Charge           Charge          ....    0
 Multiplicity           Mult            ....    1
 Number of Electrons    NEL             ....   40
 Basis Dimension        Dim             ....  197

ORBITAL ENERGIES
----------------

  NO   OCC          E(Eh)            E(eV)
   0   2.0000     -21.623000      -588.3917
   1   2.0000     -16.553030      -450.4308
   2   2.0000     -12.148956      -330.5899
   3   2.0000     -12.060158      -328.1736
   4   2.0000     -12.056910      -328.0852
   5   2.0000      -1.671335       -45.4793
   6   2.0000      -1.507308       -41.0159
   7   2.0000      -1.296195       -35.2713
   8   2.0000      -1.175887       -31.9975
   9   2.0000      -1.112002       -30.2591
  10   2.0000      -1.047239       -28.4968
  11   2.0000      -1.013533       -27.5796
  12   2.0000      -0.925509       -25.1844
  13   2.0000      -0.913229       -24.8502
  14   2.0000      -0.867160       -23.5966
  15   2.0000      -0.859196       -23.3799
  16   2.0000      -0.829407       -22.5693
  17   2.0000      -0.795794       -21.6546
  18   2.0000      -0.791368       -21.5342
  19   2.0000      -0.786015       -21.3885
  20   0.0000      -0.268778        -7.3138
  21   0.0000      -0.076423        -2.0796
  22   0.0000      -0.052465        -1.4276
  23   0.0000      -0.032591        -0.8869
  24   0.0000      -0.007456        -0.2029

MULLIKEN ATOMIC CHARGES
-----------------------
   0 C :   -0.400037
   1 C :   -0.132844
   2 C :    0.241034
   3 O :   -0.399337
   4 N :   -0.410423
   5 H :    0.118285
   6 H :    0.127860
   7 H :    0.124485
   8 H :    0.120518
   9 H :    0.122363
  10 H :    0.242240
  11 H :    0.245856
Sum of atomic charges:    0.0000000

LOEWDIN ATOMIC CHARGES
----------------------
   0 C :   -0.312350
   1 C :   -0.250577
   2 C :   -0.466883
   3 O :    0.012441
   4 N :    0.015055
   5 H :    0.115523
   6 H :    0.124046
   7 H :    0.117196
   8 H :    0.153592
   9 H :    0.153457
  10 H :    0.166211
  11 H :    0.172288

  Mayer bond orders larger than 0.100000
B(  0-C ,  1-C ) :   0.9360 B(  0-C ,  5-H ) :   0.9770 B(  0-C ,  6-H ) :   0.9741
B(  0-C ,  7-H ) :   0.9782 B(  1-C ,  2-C ) :   0.9681 B(  1-C ,  8-H ) :   0.9557
B(  1-C ,  9-H ) :   0.9612 B(  2-C ,  3-O ) :   2.0784 B(  2-C ,  4-N ) :   1.2396
B(  4-N , 10-H ) :   0.9130 B(  4-N , 11-H ) :   0.9044

FINAL SINGLE POINT ENERGY      -248.543509442290

DIPOLE MOMENT
-------------

Method             : SCF
Type of density    : Electron Density
Multiplicity       :   1
Irrep              :   0
Energy             :  -248.5513891142902310 Eh
Relativity type    :
Basis              : AO
                                X                 Y                 Z
Electronic contribution:      5.423556435      -1.597478777      -0.246314617
Nuclear contribution   :     -6.458976101       2.894033114       0.478819631
                        -----------------------------------------
Total Dipole Moment    :     -1.035419666       1.296554338       0.232505014
                        -----------------------------------------
Magnitude (a.u.)       :      1.675471759
Magnitude (Debye)      :      4.258710767

Rotational constants in cm-1:             0.314291             0.128806             0.094623
Rotational constants in MHz :          9422.221352          3861.502865          2836.727791

                             ****ORCA TERMINATED NORMALLY****
TOTAL RUN TIME: 0 days 0 hours 0 minutes 57 seconds 418 msec
