                         Program Version 6.0.0  -   RELEASE  -
|  1> ! wb97x-v def2-tzvp def2/J RIJCOSX DEFGRID2 scfconv7 GCP(DFT/TZ) printgap
|  2> %output
|  3>     printlevel normal
|  4> end
|  5> %cpcm
|  6>     smd true
|  7>     smdsolvent "water"
|  8> end
|  9> * xyz 0 1
| 10> C -1.9612982615472718 0.48345069158562465 0.10070854865110297
| 11> C -0.8978469427784518 -0.572062681183758 -0.17499689162375923
| 12> C 0.5506996076597842 -0.16319639324629864 -0.03222935354533689
| 13> O 1.4580408708301251 -1.0054686597793254 -0.1729493439029896
| 14> N 0.8179965661964048 1.124197951209676 0.24050932717028403
| 15> H -1.889848288140756 1.3248824305703566 -0.5960641494652327
| 16> H -2.9556008825485987 0.044579239105185346 -0.018095242866410333
| 17> H -1.8922383097893776 0.8695014889028418 1.1229451385695237
| 18> H -0.9979415007793335 -0.9600758640690434 -1.196187452361877
| 19> H -1.0308154202820654 -1.4363371035748975 0.48571220832764705
| 20> H 0.08534050909306697 1.8048539410214308 0.3616665764569873
| 21> H 1.7783305192156351 1.4204707519669437 0.33450054591068124
| 22> *
| 23>
| 24>                          ****END OF INPUT****

CARTESIAN COORDINATES (ANGSTROEM)
---------------------------------
  C     -1.961298    0.483451    0.100709
  C     -0.897847   -0.572063   -0.174997
  C      0.550700   -0.163196   -0.032229
  O      1.458041   -1.005469   -0.172949
  N      0.817997    1.124198    0.240509
  H     -1.889848    1.324882   -0.596064
  H     -2.955601    0.044579   -0.018095
  H     -1.892238    0.869501    1.122945
  H     -0.997942   -0.960076   -1.196187
  H     -1.030815   -1.436337    0.485712
  H      0.085341    1.804854    0.361667
  H      1.778331    1.420471    0.334501

 Total Charge           Charge          ....    0
 Multiplicity           Mult            ....    1
 Number of Electrons    NEL             ....   40
 Basis Dimension        Dim             ....  197

ORBITAL ENERGIES
----------------

  NO   OCC          E(Eh)            E(eV)
   0   2.0000     -21.641478      -588.8945
   1   2.0000     -16.545796      -450.2340
   2   2.0000     -12.158082      -330.8382
   3   2.0000     -12.049887      -327.8941
   4   2.0000     -12.034644      -327.4793
   5   2.0000      -1.692546       -46.0565
   6   2.0000      -1.501986       -40.8711
   7   2.0000      -1.283800       -34.9340
   8   2.0000      -1.167206       -31.7613
   9   2.0000      -1.104502       -30.0550
  10   2.0000      -1.050344       -28.5813
  11   2.0000      -1.018757       -27.7218
  12   2.0000      -0.927620       -25.2418
  13   2.0000      -0.923150       -25.1202
  14   2.0000      -0.860330       -23.4108
  15   2.0000      -0.850648       -23.1473
  16   2.0000      -0.826536       -22.4912
  17   2.0000      -0.790955       -21.5230
  18   2.0000      -0.785517       -21.3750
  19   2.0000      -0.770330       -20.9618
  20   0.0000      -0.270917        -7.3720
  21   0.0000      -0.061151        -1.6640
  22   0.0000      -0.041727        -1.1355
  23   0.0000      -0.014366        -0.3909
  24   0.0000       0.008047         0.2190

MULLIKEN ATOMIC CHARGES
-----------------------
   0 C :   -0.427487
   1 C :   -0.157001
   2 C :    0.298801
   3 O :   -0.570147
   4 N :   -0.421813
   5 H :    0.138458
   6 H :    0.141175
   7 H :    0.139762
   8 H :    0.139011
   9 H :    0.136739
  10 H :    0.298190
  11 H :    0.284313
Sum of atomic charges:    0.0000000

LOEWDIN ATOMIC CHARGES
----------------------
   0 C :   -0.306907
   1 C :   -0.249504
   2 C :   -0.459060
   3 O :   -0.090720
   4 N :    0.044024
   5 H :    0.123019
   6 H :    0.126702
   7 H :    0.123424
   8 H :    0.158269
   9 H :    0.156528
  10 H :    0.187945
  11 H :    0.186280

  Mayer bond orders larger than 0.100000
B(  0-C ,  1-C ) :   0.9592 B(  0-C ,  5-H ) :   0.9732 B(  0-C ,  6-H ) :   0.9690
B(  0-C ,  7-H ) :   0.9751 B(  1-C ,  2-C ) :   0.9770 B(  1-C ,  8-H ) :   0.9454
B(  1-C ,  9-H ) :   0.9534 B(  2-C ,  3-O ) :   1.8858 B(  2-C ,  4-N ) :   1.3366
B(  4-N , 10-H ) :   0.8891 B(  4-N , 11-H ) :   0.8859

FINAL SINGLE POINT ENERGY      -248.561229901586

DIPOLE MOMENT
-------------

Method             : SCF
Type of density    : Electron Density
Multiplicity       :   1
Irrep              :   0
Energy             :  -248.5691095735858767 Eh
Relativity type    :
Basis              : AO
                                X                 Y                 Z
Electronic contribution:      5.038463200      -1.028886422      -0.146884656
Nuclear contribution   :     -6.458976101       2.894033114       0.478819631
                        -----------------------------------------
Total Dipole Moment    :     -1.420512900       1.865146692       0.331934975
                        -----------------------------------------
Magnitude (a.u.)       :      2.367870332
Magnitude (Debye)      :      6.018648075

Rotational constants in cm-1:             0.314291             0.128806             0.094623
Rotational constants in MHz :          9422.221352          3861.502865          2836.727791

                             ****ORCA TERMINATED NORMALLY****
TOTAL RUN TIME: 0 days 0 hours 0 minutes 54 seconds 99 msec
