                         Program Version 6.0.0  -   RELEASE  -
|  1> ! pbe def2-sv(p) def2/J RI DEFGRID1 loosescf d4 GCP(DFT/SV(P)) printgap
|  2> %output
|  3>     printlevel normal
|  4> end
|  5> * xyz 0 1
|  6> C 3.6336337276 0.7059283225 -0.0006594319
|  7> C 3.6336157541 -0.7058708417 -0.0001781598
|  8> C 2.4602130754 -1.3954868469 0.0004013231
|  9> C 1.2151605644 -0.715325879 0.0004120331
| 10> C 1.93858e-05 -1.3948325871 0.0002855935
| 11> C -1.2151887056 -0.7153292224 8.27172e-05
| 12> C -2.4602145445 -1.3955019489 -0.0003420112
| 13> C -3.633663404 -0.7058353817 -0.0005243628
| 14> C -3.6336287797 0.7059311599 -0.0001390894
| 15> C -2.4601178463 1.3954806256 0.0003590552
| 16> C -1.2151818901 0.715260463 0.0002898232
| 17> C 1.8007e-06 1.3948052613 0.0003323258
| 18> C 1.2151765755 0.7152738767 0.0002163009
| 19> C 2.4601864871 1.3954832513 -0.0002837949
| 20> H 4.5772212944 1.2309170053 -0.0012695735
| 21> H 4.5772693732 -1.2309161853 -0.000689624
| 22> H 2.4538160958 -2.4759552659 0.0008410801
| 23> H -5.50514e-05 -2.4760237096 0.0002681322
| 24> H -2.4539847063 -2.4759520541 -0.0006682824
| 25> H -4.5772851164 -1.230848676 -0.0011975812
| 26> H -4.5771245358 1.2311391903 -0.0005799279
| 27> H -2.4537016545 2.4759313846 0.0003394626
| 28> H -6.74745e-05 2.4759985165 0.000417908
| 29> H 2.4537663846 2.4759451188 -0.0004684787
| 30> *
| 31>
| 32>                          ****END OF INPUT****

CARTESIAN COORDINATES (ANGSTROEM)
---------------------------------
  C      3.633634    0.705928   -0.000659
  C      3.633616   -0.705871   -0.000178
  C      2.460213   -1.395487    0.000401
  C      1.215161   -0.715326    0.000412
  C      0.000019   -1.394833    0.000286
  C     -1.215189   -0.715329    0.000083
  C     -2.460215   -1.395502   -0.000342
  C     -3.633663   -0.705835   -0.000524
  C     -3.633629    0.705931   -0.000139
  C     -2.460118    1.395481    0.000359
  C     -1.215182    0.715260    0.000290
  C      0.000002    1.394805    0.000332
  C      1.215177    0.715274    0.000216
  C      2.460186    1.395483   -0.000284
  H      4.577221    1.230917   -0.001270
  H      4.577269   -1.230916   -0.000690
  H      2.453816   -2.475955    0.000841
  H     -0.000055   -2.476024    0.000268
  H     -2.453985   -2.475952   -0.000668
  H     -4.577285   -1.230849   -0.001198
  H     -4.577125    1.231139   -0.000580
  H     -2.453702    2.475931    0.000339
  H     -0.000067    2.475999    0.000418
  H      2.453766    2.475945   -0.000468

 Total Charge           Charge          ....    0
 Multiplicity           Mult            ....    1
 Number of Electrons    NEL             ....   94
 Basis Dimension        Dim             ....  216

ORBITAL ENERGIES
----------------

  NO   OCC          E(Eh)            E(eV)
   0   2.0000      -9.906001      -269.5560
   1   2.0000      -9.905990      -269.5557
   2   2.0000      -9.905974      -269.5553
   3   2.0000      -9.905901      -269.5533
   4   2.0000      -9.896151      -269.2879
   5   2.0000      -9.895992      -269.2836
   6   2.0000      -9.895473      -269.2695
   7   2.0000      -9.895430      -269.2683
   8   2.0000      -9.895355      -269.2663
   9   2.0000      -9.895345      -269.2660
  10   2.0000      -9.894182      -269.2344
  11   2.0000      -9.894179      -269.2343
  12   2.0000      -9.894055      -269.2309
  13   2.0000      -9.894053      -269.2309
  14   2.0000      -0.804198       -21.8833
  15   2.0000      -0.773933       -21.0598
  16   2.0000      -0.726913       -19.7803
  17   2.0000      -0.708582       -19.2815
  18   2.0000      -0.677542       -18.4369
  19   2.0000      -0.666607       -18.1393
  20   2.0000      -0.631216       -17.1763
  21   2.0000      -0.582220       -15.8430
  22   2.0000      -0.554036       -15.0761
  23   2.0000      -0.544774       -14.8241
  24   2.0000      -0.531135       -14.4529
  25   2.0000      -0.481397       -13.0995
  26   2.0000      -0.475487       -12.9387
  27   2.0000      -0.457482       -12.4487
  28   2.0000      -0.416708       -11.3392
  29   2.0000      -0.410877       -11.1805
  30   2.0000      -0.403072       -10.9682
  31   2.0000      -0.403000       -10.9662
  32   2.0000      -0.379834       -10.3358
  33   2.0000      -0.370485       -10.0814
  34   2.0000      -0.367387        -9.9971
  35   2.0000      -0.363906        -9.9024
  36   2.0000      -0.346912        -9.4399
  37   2.0000      -0.333952        -9.0873
  38   2.0000      -0.331743        -9.0272
  39   2.0000      -0.306406        -8.3377
  40   2.0000      -0.294923        -8.0253
  41   2.0000      -0.287964        -7.8359
  42   2.0000      -0.278441        -7.5768
  43   2.0000      -0.273284        -7.4364
  44   2.0000      -0.235449        -6.4069
  45   2.0000      -0.225233        -6.1289
  46   2.0000      -0.179855        -4.8941
  47   0.0000      -0.091751        -2.4967
  48   0.0000      -0.043610        -1.1867
  49   0.0000      -0.029981        -0.8158
  50   0.0000       0.000944         0.0257
  51   0.0000       0.026737         0.7275

MULLIKEN ATOMIC CHARGES
-----------------------
   0 C :   -0.042384
   1 C :   -0.042399
   2 C :   -0.117554
   3 C :    0.178631
   4 C :   -0.250124
   5 C :    0.178614
   6 C :   -0.117592
   7 C :   -0.042383
   8 C :   -0.042376
   9 C :   -0.117621
  10 C :    0.178611
  11 C :   -0.250109
  12 C :    0.178593
  13 C :   -0.117548
  14 H :    0.053505
  15 H :    0.053539
  16 H :    0.039470
  17 H :    0.026841
  18 H :    0.039468
  19 H :    0.053524
  20 H :    0.053514
  21 H :    0.039461
  22 H :    0.026849
  23 H :    0.039469
Sum of atomic charges:   -0.0000000

LOEWDIN ATOMIC CHARGES
----------------------
   0 C :   -0.125009
   1 C :   -0.124996
   2 C :   -0.109142
   3 C :   -0.026347
   4 C :   -0.101149
   5 C :   -0.026341
   6 C :   -0.109146
   7 C :   -0.124997
   8 C :   -0.125006
   9 C :   -0.109140
  10 C :   -0.026351
  11 C :   -0.101140
  12 C :   -0.026343
  13 C :   -0.109136
  14 H :    0.124835
  15 H :    0.124830
  16 H :    0.124327
  17 H :    0.123801
  18 H :    0.124330
  19 H :    0.124832
  20 H :    0.124833
  21 H :    0.124326
  22 H :    0.123802
  23 H :    0.124327

  Mayer bond orders larger than 0.100000
B(  0-C ,  1-C ) :   1.2142 B(  0-C , 13-C ) :   1.4969 B(  0-C , 14-H ) :   0.9611
B(  1-C ,  2-C ) :   1.4969 B(  1-C , 15-H ) :   0.9611 B(  2-C ,  3-C ) :   1.2007
B(  2-C , 16-H ) :   0.9648 B(  3-C ,  4-C ) :   1.2808 B(  3-C , 12-C ) :   1.1956
B(  4-C ,  5-C ) :   1.2808 B(  4-C , 11-C ) :   0.1178 B(  4-C , 17-H ) :   0.9705
B(  5-C ,  6-C ) :   1.2007 B(  5-C , 10-C ) :   1.1956 B(  6-C ,  7-C ) :   1.4968
B(  6-C , 18-H ) :   0.9648 B(  7-C ,  8-C ) :   1.2143 B(  7-C , 19-H ) :   0.9611
B(  8-C ,  9-C ) :   1.4968 B(  8-C , 20-H ) :   0.9611 B(  9-C , 10-C ) :   1.2008
B(  9-C , 21-H ) :   0.9648 B( 10-C , 11-C ) :   1.2808 B( 11-C , 12-C ) :   1.2808
B( 11-C , 22-H ) :   0.9705 B( 12-C , 13-C ) :   1.2007 B( 13-C , 23-H ) :   0.9648

Dispersion correction           -0.033250856
FINAL SINGLE POINT ENERGY      -538.373882185815

DIPOLE MOMENT
-------------

Method             : SCF
Type of density    : Electron Density
Multiplicity       :   1
Irrep              :   0
Energy             :  -538.4266158879706836 Eh
Relativity type    :
Basis              : AO
                                X                 Y                 Z
Electronic contribution:      0.000115250      -0.000158505       0.002336372
Nuclear contribution   :     -0.000136402       0.000220775      -0.002820973
                        -----------------------------------------
Total Dipole Moment    :     -0.000021152       0.000062270      -0.000484600
                        -----------------------------------------
Magnitude (a.u.)       :      0.000489042
Magnitude (Debye)      :      0.001243046

Rotational constants in cm-1:             0.072661             0.015258             0.012610
Rotational constants in MHz :          2178.331234           457.430532           378.044506

                             ****ORCA TERMINATED NORMALLY****
TOTAL RUN TIME: 0 days 0 hours 0 minutes 11 seconds 144 msec
