                         Program Version 6.0.0  -   RELEASE  -
|  1> ! wb97x-v def2-tzvp def2/J RIJCOSX DEFGRID2 scfconv7 GCP(DFT/TZ) printgap
|  2> %output
|  3>     printlevel normal
|  4> end
|  5> %cpcm
|  6>     smd true
|  7>     smdsolvent "water"
|  8> end
|  9> * xyz 0 1
| 10> C -2.690762676626087 -0.9693604893428827 0.000957693197743954
| 11> S -1.842109518812643 0.6433069917708873 -0.00041517346448280803
| 12> C -0.11867964163261759 0.20589488485717236 -0.0002569639357038336
| 13> C 0.8001959256053137 1.2660716139979897 9.32670853387814e-05
| 14> C 2.164438326791322 1.0061275702976993 0.00021795056800107267
| 15> C 2.6363033803087874 -0.3068533254108523 1.7357047446255448e-05
| 16> C 1.7231533819754552 -1.356435636223199 -0.00035360675064388436
| 17> C 0.35070091661538483 -1.1110657256881353 -0.0005016504388964461
| 18> H -2.452270645418966 -1.544038242055756 0.8993088600938727
| 19> H -2.4534418524533206 -1.5450739128389683 -0.8970339513962441
| 20> H -3.759352373427336 -0.7395691100066071 0.001521791852665042
| 21> H 0.4465284578919692 2.293330368356054 0.00031540269334827544
| 22> H 2.863067829906298 1.8372046935257118 0.0005275278143114431
| 23> H 3.7027090286145015 -0.506411464027334 0.00015994376797684017
| 24> H 2.0742376206358237 -2.3839269473382028 -0.0005469017395627173
| 25> H -0.3362107191380567 -1.9489054807739064 -0.0008316601473344412
| 26> *
| 27>
| 28>                          ****END OF INPUT****

CARTESIAN COORDINATES (ANGSTROEM)
---------------------------------
  C     -2.690763   -0.969360    0.000958
  S     -1.842110    0.643307   -0.000415
  C     -0.118680    0.205895   -0.000257
  C      0.800196    1.266072    0.000093
  C      2.164438    1.006128    0.000218
  C      2.636303   -0.306853    0.000017
  C      1.723153   -1.356436   -0.000354
  C      0.350701   -1.111066   -0.000502
  H     -2.452271   -1.544038    0.899309
  H     -2.453442   -1.545074   -0.897034
  H     -3.759352   -0.739569    0.001522
  H      0.446528    2.293330    0.000315
  H      2.863068    1.837205    0.000528
  H      3.702709   -0.506411    0.000160
  H      2.074238   -2.383927   -0.000547
  H     -0.336211   -1.948905   -0.000832

 Total Charge           Charge          ....    0
 Multiplicity           Mult            ....    1
 Number of Electrons    NEL             ....   66
 Basis Dimension        Dim             ....  302

ORBITAL ENERGIES
----------------

  NO   OCC          E(Eh)            E(eV)
   0   2.0000     -94.129654     -2561.3981
   1   2.0000     -12.088889      -328.9554
   2   2.0000     -12.066044      -328.3338
   3   2.0000     -12.054123      -328.0094
   4   2.0000     -12.053498      -327.9923
   5   2.0000     -12.052070      -327.9535
   6   2.0000     -12.051563      -327.9397
   7   2.0000     -12.047086      -327.8179
   8   2.0000      -9.639920      -262.3156
   9   2.0000      -7.617948      -207.2949
  10   2.0000      -7.616786      -207.2633
  11   2.0000      -7.615993      -207.2417
  12   2.0000      -1.390239       -37.8303
  13   2.0000      -1.309481       -35.6328
  14   2.0000      -1.276024       -34.7224
  15   2.0000      -1.248129       -33.9633
  16   2.0000      -1.146260       -31.1913
  17   2.0000      -1.107681       -30.1415
  18   2.0000      -1.076825       -29.3019
  19   2.0000      -0.960833       -26.1456
  20   2.0000      -0.955234       -25.9932
  21   2.0000      -0.908991       -24.7349
  22   2.0000      -0.880678       -23.9645
  23   2.0000      -0.874006       -23.7829
  24   2.0000      -0.845567       -23.0090
  25   2.0000      -0.831375       -22.6229
  26   2.0000      -0.816281       -22.2121
  27   2.0000      -0.806963       -21.9586
  28   2.0000      -0.782881       -21.3033
  29   2.0000      -0.754869       -20.5410
  30   2.0000      -0.689150       -18.7527
  31   2.0000      -0.642924       -17.4949
  32   2.0000      -0.608494       -16.5580
  33   0.0000      -0.246770        -6.7149
  34   0.0000      -0.239411        -6.5147
  35   0.0000      -0.196116        -5.3366
  36   0.0000      -0.184828        -5.0294
  37   0.0000      -0.073208        -1.9921

MULLIKEN ATOMIC CHARGES
-----------------------
   0 C :   -0.400897
   1 S :   -0.069113
   2 C :    0.135908
   3 C :   -0.223172
   4 C :   -0.153761
   5 C :   -0.189052
   6 C :   -0.163030
   7 C :   -0.257528
   8 H :    0.161547
   9 H :    0.161545
  10 H :    0.177143
  11 H :    0.159158
  12 H :    0.162841
  13 H :    0.161940
  14 H :    0.163452
  15 H :    0.173019
Sum of atomic charges:   -0.0000000

LOEWDIN ATOMIC CHARGES
----------------------
   0 C :   -0.492856
   1 S :    0.516244
   2 C :   -0.370045
   3 C :   -0.159725
   4 C :   -0.146127
   5 C :   -0.158348
   6 C :   -0.144928
   7 C :   -0.155377
   8 H :    0.114123
   9 H :    0.114107
  10 H :    0.121442
  11 H :    0.151315
  12 H :    0.152880
  13 H :    0.150202
  14 H :    0.152772
  15 H :    0.154322

  Mayer bond orders larger than 0.100000
B(  0-C ,  1-S ) :   1.0585 B(  0-C ,  8-H ) :   0.9592 B(  0-C ,  9-H ) :   0.9592
B(  0-C , 10-H ) :   0.9507 B(  1-S ,  2-C ) :   1.1681 B(  2-C ,  3-C ) :   1.3150
B(  2-C ,  7-C ) :   1.3339 B(  3-C ,  4-C ) :   1.4523 B(  3-C , 11-H ) :   0.9755
B(  4-C ,  5-C ) :   1.3847 B(  4-C , 12-H ) :   0.9749 B(  5-C ,  6-C ) :   1.4213
B(  5-C , 13-H ) :   0.9750 B(  6-C ,  7-C ) :   1.4122 B(  6-C , 14-H ) :   0.9686
B(  7-C , 15-H ) :   0.9642

FINAL SINGLE POINT ENERGY      -669.715907927840

DIPOLE MOMENT
-------------

Method             : SCF
Type of density    : Electron Density
Multiplicity       :   1
Irrep              :   0
Energy             :  -669.7247049315404865 Eh
Relativity type    :
Basis              : AO
                                X                 Y                 Z
Electronic contribution:     -0.199721252       3.520124445      -0.002995131
Nuclear contribution   :      0.165490566      -4.326623987       0.003689356
                        -----------------------------------------
Total Dipole Moment    :     -0.034230686      -0.806499542       0.000694225
                        -----------------------------------------
Magnitude (a.u.)       :      0.807225949
Magnitude (Debye)      :      2.051805303

Rotational constants in cm-1:             0.140443             0.038732             0.030538
Rotational constants in MHz :          4210.370219          1161.163552           915.518062

                             ****ORCA TERMINATED NORMALLY****
TOTAL RUN TIME: 0 days 0 hours 2 minutes 21 seconds 642 msec
