                         Program Version 6.0.0  -   RELEASE  -
|  1> ! pbe def2-sv(p) def2/J RI DEFGRID1 loosescf d4 GCP(DFT/SV(P)) printgap
|  2> %output
|  3>     printlevel normal
|  4> end
|  5> * xyz 0 1
|  6> C -2.390032089 -1.18229107 -0.2456718737
|  7> C -1.0795090961 -0.6292052237 0.3466532567
|  8> H -1.1276727374 -0.6163357139 1.4473701741
|  9> C -0.8036950643 0.8142569962 -0.1075516303
| 10> H -0.973925536 0.8977420576 -1.1905884643
| 11> C 0.6480781055 1.2241854384 0.1867219369
| 12> H 0.7672455875 1.3324434003 1.2773313105
| 13> C 1.6316677474 0.1555330958 -0.291382733
| 14> H 1.5740050258 0.0766565255 -1.3884901103
| 15> C 1.2251862085 -1.1959470511 0.3264674901
| 16> H 1.2907006805 -1.118596248 1.4258915824
| 17> O -0.0774891199 -1.5318231798 -0.0785429522
| 18> O 2.0799044023 -2.2133229367 -0.0581493547
| 19> O 2.9239819918 0.5359731672 0.1099187223
| 20> O 0.8670632931 2.4616742133 -0.4455828778
| 21> O -1.6885643518 1.6450840675 0.600531203
| 22> O -3.4454903064 -0.2657035132 -0.3057750689
| 23> H -2.6751831363 -2.0753051929 0.3263538999
| 24> H -2.1888480946 -1.4844782013 -1.2765932538
| 25> H 1.7664440574 -2.5897641601 -0.8959081465
| 26> H 3.5219224339 -0.2200682652 0.0061345542
| 27> H 1.7989952013 2.7023371521 -0.3378534981
| 28> H -1.5412193606 2.5603792366 0.3200976872
| 29> H -3.5240995025 0.1984797893 0.5405391439
| 30> *
| 31>
| 32>                          ****END OF INPUT****

CARTESIAN COORDINATES (ANGSTROEM)
---------------------------------
  C     -2.390032   -1.182291   -0.245672
  C     -1.079509   -0.629205    0.346653
  H     -1.127673   -0.616336    1.447370
  C     -0.803695    0.814257   -0.107552
  H     -0.973926    0.897742   -1.190588
  C      0.648078    1.224185    0.186722
  H      0.767246    1.332443    1.277331
  C      1.631668    0.155533   -0.291383
  H      1.574005    0.076657   -1.388490
  C      1.225186   -1.195947    0.326467
  H      1.290701   -1.118596    1.425892
  O     -0.077489   -1.531823   -0.078543
  O      2.079904   -2.213323   -0.058149
  O      2.923982    0.535973    0.109919
  O      0.867063    2.461674   -0.445583
  O     -1.688564    1.645084    0.600531
  O     -3.445490   -0.265704   -0.305775
  H     -2.675183   -2.075305    0.326354
  H     -2.188848   -1.484478   -1.276593
  H      1.766444   -2.589764   -0.895908
  H      3.521922   -0.220068    0.006135
  H      1.798995    2.702337   -0.337853
  H     -1.541219    2.560379    0.320098
  H     -3.524100    0.198480    0.540539

 Total Charge           Charge          ....    0
 Multiplicity           Mult            ....    1
 Number of Electrons    NEL             ....   96
 Basis Dimension        Dim             ....  192

ORBITAL ENERGIES
----------------

  NO   OCC          E(Eh)            E(eV)
   0   2.0000     -18.783627      -511.1285
   1   2.0000     -18.772518      -510.8262
   2   2.0000     -18.761314      -510.5213
   3   2.0000     -18.757871      -510.4276
   4   2.0000     -18.756417      -510.3881
   5   2.0000     -18.740881      -509.9653
   6   2.0000      -9.993955      -271.9493
   7   2.0000      -9.950995      -270.7803
   8   2.0000      -9.945572      -270.6328
   9   2.0000      -9.943668      -270.5810
  10   2.0000      -9.942082      -270.5378
  11   2.0000      -9.930771      -270.2300
  12   2.0000      -0.995628       -27.0924
  13   2.0000      -0.949379       -25.8339
  14   2.0000      -0.941550       -25.6209
  15   2.0000      -0.924903       -25.1679
  16   2.0000      -0.921521       -25.0759
  17   2.0000      -0.914364       -24.8811
  18   2.0000      -0.705957       -19.2101
  19   2.0000      -0.696192       -18.9444
  20   2.0000      -0.614548       -16.7227
  21   2.0000      -0.592036       -16.1101
  22   2.0000      -0.565489       -15.3877
  23   2.0000      -0.539035       -14.6679
  24   2.0000      -0.509267       -13.8579
  25   2.0000      -0.493082       -13.4174
  26   2.0000      -0.476881       -12.9766
  27   2.0000      -0.455960       -12.4073
  28   2.0000      -0.444138       -12.0856
  29   2.0000      -0.439486       -11.9590
  30   2.0000      -0.426267       -11.5993
  31   2.0000      -0.415672       -11.3110
  32   2.0000      -0.381305       -10.3758
  33   2.0000      -0.374831       -10.1997
  34   2.0000      -0.356157        -9.6915
  35   2.0000      -0.354431        -9.6446
  36   2.0000      -0.333709        -9.0807
  37   2.0000      -0.326020        -8.8715
  38   2.0000      -0.309805        -8.4302
  39   2.0000      -0.300866        -8.1870
  40   2.0000      -0.293268        -7.9802
  41   2.0000      -0.270409        -7.3582
  42   2.0000      -0.260788        -7.0964
  43   2.0000      -0.245909        -6.6915
  44   2.0000      -0.235007        -6.3949
  45   2.0000      -0.225626        -6.1396
  46   2.0000      -0.212001        -5.7688
  47   2.0000      -0.205201        -5.5838
  48   0.0000       0.013016         0.3542
  49   0.0000       0.021172         0.5761
  50   0.0000       0.039897         1.0856
  51   0.0000       0.046527         1.2661
  52   0.0000       0.060576         1.6484

MULLIKEN ATOMIC CHARGES
-----------------------
   0 C :    0.088944
   1 C :   -0.012318
   2 H :    0.059727
   3 C :    0.060515
   4 H :    0.064564
   5 C :    0.068359
   6 H :    0.052716
   7 C :    0.048377
   8 H :    0.041700
   9 C :    0.174467
  10 H :    0.054348
  11 O :   -0.309122
  12 O :   -0.389261
  13 O :   -0.425506
  14 O :   -0.425946
  15 O :   -0.426508
  16 O :   -0.429898
  17 H :    0.079391
  18 H :    0.082271
  19 H :    0.308176
  20 H :    0.306967
  21 H :    0.313618
  22 H :    0.313538
  23 H :    0.300881
Sum of atomic charges:   -0.0000000

LOEWDIN ATOMIC CHARGES
----------------------
   0 C :   -0.121660
   1 C :   -0.064852
   2 H :    0.103955
   3 C :   -0.065821
   4 H :    0.111538
   5 C :   -0.076542
   6 H :    0.104415
   7 C :   -0.102011
   8 H :    0.099512
   9 C :   -0.002383
  10 H :    0.097380
  11 O :   -0.144692
  12 O :   -0.297529
  13 O :   -0.325971
  14 O :   -0.325647
  15 O :   -0.315562
  16 O :   -0.329633
  17 H :    0.097750
  18 H :    0.113546
  19 H :    0.292022
  20 H :    0.287434
  21 H :    0.292150
  22 H :    0.293244
  23 H :    0.279358

  Mayer bond orders larger than 0.100000
B(  0-C ,  1-C ) :   1.0491 B(  0-C , 16-O ) :   1.1054 B(  0-C , 17-H ) :   0.9245
B(  0-C , 18-H ) :   0.9110 B(  1-C ,  2-H ) :   0.8739 B(  1-C ,  3-C ) :   1.0030
B(  1-C , 11-O ) :   0.9873 B(  3-C ,  4-H ) :   0.8773 B(  3-C ,  5-C ) :   1.0264
B(  3-C , 15-O ) :   1.0377 B(  5-C ,  6-H ) :   0.8711 B(  5-C ,  7-C ) :   0.9994
B(  5-C , 14-O ) :   1.0842 B(  7-C ,  8-H ) :   0.8605 B(  7-C ,  9-C ) :   0.9782
B(  7-C , 13-O ) :   1.0709 B(  9-C , 10-H ) :   0.8798 B(  9-C , 11-O ) :   1.0163
B(  9-C , 12-O ) :   1.1190 B( 12-O , 19-H ) :   0.8388 B( 13-O , 20-H ) :   0.8313
B( 14-O , 21-H ) :   0.8370 B( 15-O , 22-H ) :   0.8356 B( 16-O , 23-H ) :   0.8336

Dispersion correction           -0.023841629
FINAL SINGLE POINT ENERGY      -685.699499332858

DIPOLE MOMENT
-------------

Method             : SCF
Type of density    : Electron Density
Multiplicity       :   1
Irrep              :   0
Energy             :  -685.8302981191238814 Eh
Relativity type    :
Basis              : AO
                                X                 Y                 Z
Electronic contribution:      1.902751986       0.285806137      -0.207442858
Nuclear contribution   :     -1.220768357      -0.306342262       0.235931417
                        -----------------------------------------
Total Dipole Moment    :      0.681983629      -0.020536125       0.028488559
                        -----------------------------------------
Magnitude (a.u.)       :      0.682887253
Magnitude (Debye)      :      1.735761454

Rotational constants in cm-1:             0.043646             0.024779             0.016682
Rotational constants in MHz :          1308.485177           742.851404           500.128451

                             ****ORCA TERMINATED NORMALLY****
TOTAL RUN TIME: 0 days 0 hours 0 minutes 11 seconds 980 msec
