                         Program Version 6.0.0  -   RELEASE  -
|  1> ! wb97x-v def2-tzvp def2/J RIJCOSX DEFGRID2 scfconv7 GCP(DFT/TZ) printgap
|  2> %output
|  3>     printlevel normal
|  4> end
|  5> * xyz 0 1
|  6> C -2.936659330914079 -0.0001212482983292032 -0.06101889320175104
|  7> C -1.4635942931803545 -0.00017579639827412316 0.3361588011179805
|  8> C -0.746486144429335 -1.2531215560043367 -0.17751758659610922
|  9> C 0.7386198177971419 -1.2520915803764672 0.18539493139534755
| 10> C 1.4559170603340683 0.00031727339201321743 -0.33208244647228086
| 11> C 0.738475452731837 1.2521160029518434 0.18652279235122213
| 12> C -0.746526343432755 1.2530547400970848 -0.1768064813854775
| 13> C 2.9516505545200586 -0.0001119662006094871 0.0421786558211759
| 14> H -3.453742826056331 -0.8855184772263678 0.32558297097628314
| 15> H -3.4531222947835754 0.8865050346703668 0.3235968591212487
| 16> H -3.0406278023507163 -0.0013073612174470271 -1.1530058237758243
| 17> H -1.3963376752265608 -0.0004192107770738861 1.4351377782281354
| 18> H -1.2340325282210007 -2.1514576279472624 0.2221876321551602
| 19> H -0.8538306896119047 -1.2934711033516841 -1.2719882870945323
| 20> H 0.8484691981868202 -1.2901192375713741 1.2796161768238643
| 21> H 1.227908457496167 -2.150227394787245 -0.21294382398536102
| 22> H 1.361198789000509 0.0009125817364789801 -1.427732720721498
| 23> H 0.8482192432404676 1.2895341795894444 1.2807909178963315
| 24> H 1.2275983773304882 2.1505445639569754 -0.2113121733240976
| 25> H -1.2343758508606468 2.15119452415132 0.22296210875721564
| 26> H -0.8534187274422853 1.2937306069880015 -1.2713293018620886
| 27> H 3.595322479513337 -0.012991556378706517 -0.8426736411639228
| 28> H 3.2131852591177905 -0.8752099951182737 0.6470714554936592
| 29> H 3.219184531640476 0.8874344447102184 0.6258895347137089
| 30> *
| 31>
| 32>                          ****END OF INPUT****

CARTESIAN COORDINATES (ANGSTROEM)
---------------------------------
  C     -2.936659   -0.000121   -0.061019
  C     -1.463594   -0.000176    0.336159
  C     -0.746486   -1.253122   -0.177518
  C      0.738620   -1.252092    0.185395
  C      1.455917    0.000317   -0.332082
  C      0.738475    1.252116    0.186523
  C     -0.746526    1.253055   -0.176806
  C      2.951651   -0.000112    0.042179
  H     -3.453743   -0.885518    0.325583
  H     -3.453122    0.886505    0.323597
  H     -3.040628   -0.001307   -1.153006
  H     -1.396338   -0.000419    1.435138
  H     -1.234033   -2.151458    0.222188
  H     -0.853831   -1.293471   -1.271988
  H      0.848469   -1.290119    1.279616
  H      1.227908   -2.150227   -0.212944
  H      1.361199    0.000913   -1.427733
  H      0.848219    1.289534    1.280791
  H      1.227598    2.150545   -0.211312
  H     -1.234376    2.151195    0.222962
  H     -0.853419    1.293731   -1.271329
  H      3.595322   -0.012992   -0.842674
  H      3.213185   -0.875210    0.647071
  H      3.219185    0.887434    0.625890

 Total Charge           Charge          ....    0
 Multiplicity           Mult            ....    1
 Number of Electrons    NEL             ....   64
 Basis Dimension        Dim             ....  344

ORBITAL ENERGIES
----------------

  NO   OCC          E(Eh)            E(eV)
   0   2.0000     -12.042107      -327.6824
   1   2.0000     -12.041619      -327.6691
   2   2.0000     -12.034602      -327.4782
   3   2.0000     -12.034183      -327.4668
   4   2.0000     -12.033277      -327.4421
   5   2.0000     -12.033128      -327.4381
   6   2.0000     -12.029370      -327.3358
   7   2.0000     -12.028791      -327.3200
   8   2.0000      -1.343901       -36.5694
   9   2.0000      -1.283281       -34.9199
  10   2.0000      -1.243221       -33.8298
  11   2.0000      -1.198329       -32.6082
  12   2.0000      -1.137600       -30.9557
  13   2.0000      -1.094930       -29.7946
  14   2.0000      -1.049671       -28.5630
  15   2.0000      -1.001020       -27.2391
  16   2.0000      -0.900610       -24.5068
  17   2.0000      -0.883591       -24.0437
  18   2.0000      -0.869666       -23.6648
  19   2.0000      -0.869055       -23.6482
  20   2.0000      -0.867350       -23.6018
  21   2.0000      -0.830366       -22.5954
  22   2.0000      -0.812903       -22.1202
  23   2.0000      -0.810698       -22.0602
  24   2.0000      -0.807995       -21.9867
  25   2.0000      -0.794329       -21.6148
  26   2.0000      -0.780627       -21.2419
  27   2.0000      -0.767583       -20.8870
  28   2.0000      -0.758702       -20.6453
  29   2.0000      -0.749520       -20.3955
  30   2.0000      -0.732959       -19.9448
  31   2.0000      -0.722544       -19.6614
  32   0.0000      -0.044083        -1.1996
  33   0.0000      -0.039693        -1.0801
  34   0.0000      -0.023928        -0.6511
  35   0.0000      -0.022449        -0.6109
  36   0.0000      -0.019811        -0.5391

MULLIKEN ATOMIC CHARGES
-----------------------
   0 C :   -0.338853
   1 C :   -0.029250
   2 C :   -0.195693
   3 C :   -0.227995
   4 C :    0.044136
   5 C :   -0.228305
   6 C :   -0.195591
   7 C :   -0.378205
   8 H :    0.110290
   9 H :    0.110286
  10 H :    0.102718
  11 H :    0.061982
  12 H :    0.097232
  13 H :    0.086412
  14 H :    0.093437
  15 H :    0.103637
  16 H :    0.062966
  17 H :    0.093541
  18 H :    0.103565
  19 H :    0.097221
  20 H :    0.086437
  21 H :    0.110675
  22 H :    0.114616
  23 H :    0.114742
Sum of atomic charges:    0.0000000

LOEWDIN ATOMIC CHARGES
----------------------
   0 C :   -0.282072
   1 C :   -0.284609
   2 C :   -0.235634
   3 C :   -0.241610
   4 C :   -0.275304
   5 C :   -0.241641
   6 C :   -0.235628
   7 C :   -0.279047
   8 H :    0.117462
   9 H :    0.117467
  10 H :    0.118441
  11 H :    0.147269
  12 H :    0.132922
  13 H :    0.135821
  14 H :    0.135482
  15 H :    0.132967
  16 H :    0.146173
  17 H :    0.135517
  18 H :    0.132918
  19 H :    0.132911
  20 H :    0.135839
  21 H :    0.115707
  22 H :    0.119341
  23 H :    0.119307

  Mayer bond orders larger than 0.100000
B(  0-C ,  1-C ) :   0.9752 B(  0-C ,  8-H ) :   0.9870 B(  0-C ,  9-H ) :   0.9870
B(  0-C , 10-H ) :   0.9743 B(  1-C ,  2-C ) :   0.9868 B(  1-C ,  6-C ) :   0.9867
B(  1-C , 11-H ) :   0.9691 B(  2-C ,  3-C ) :   0.9914 B(  2-C , 12-H ) :   0.9733
B(  2-C , 13-H ) :   0.9685 B(  3-C ,  4-C ) :   0.9811 B(  3-C , 14-H ) :   0.9700
B(  3-C , 15-H ) :   0.9766 B(  4-C ,  5-C ) :   0.9809 B(  4-C ,  7-C ) :   0.9062
B(  4-C , 16-H ) :   0.9791 B(  5-C ,  6-C ) :   0.9914 B(  5-C , 17-H ) :   0.9704
B(  5-C , 18-H ) :   0.9764 B(  6-C , 19-H ) :   0.9733 B(  6-C , 20-H ) :   0.9685
B(  7-C , 21-H ) :   0.9836 B(  7-C , 22-H ) :   0.9860 B(  7-C , 23-H ) :   0.9864

FINAL SINGLE POINT ENERGY      -314.517513936747

DIPOLE MOMENT
-------------

Method             : SCF
Type of density    : Electron Density
Multiplicity       :   1
Irrep              :   0
Energy             :  -314.5346948569472829 Eh
Relativity type    :
Basis              : AO
                                X                 Y                 Z
Electronic contribution:     -0.027381434       0.000382442       0.027520880
Nuclear contribution   :      0.031173085      -0.000480209      -0.027160800
                        -----------------------------------------
Total Dipole Moment    :      0.003791651      -0.000097768       0.000360080
                        -----------------------------------------
Magnitude (a.u.)       :      0.003809965
Magnitude (Debye)      :      0.009684161

Rotational constants in cm-1:             0.137936             0.043864             0.035873
Rotational constants in MHz :          4135.227635          1315.014003          1075.455154

                             ****ORCA TERMINATED NORMALLY****
TOTAL RUN TIME: 0 days 0 hours 3 minutes 20 seconds 643 msec
