                         Program Version 6.0.0  -   RELEASE  -
|  1> ! wb97x-v def2-tzvp def2/J RIJCOSX DEFGRID2 scfconv7 GCP(DFT/TZ) printgap
|  2> %output
|  3>     printlevel normal
|  4> end
|  5> %cpcm
|  6>     smd true
|  7>     smdsolvent "water"
|  8> end
|  9> * xyz 0 1
| 10> C -2.936659330914079 -0.0001212482983292032 -0.06101889320175104
| 11> C -1.4635942931803545 -0.00017579639827412316 0.3361588011179805
| 12> C -0.746486144429335 -1.2531215560043367 -0.17751758659610922
| 13> C 0.7386198177971419 -1.2520915803764672 0.18539493139534755
| 14> C 1.4559170603340683 0.00031727339201321743 -0.33208244647228086
| 15> C 0.738475452731837 1.2521160029518434 0.18652279235122213
| 16> C -0.746526343432755 1.2530547400970848 -0.1768064813854775
| 17> C 2.9516505545200586 -0.0001119662006094871 0.0421786558211759
| 18> H -3.453742826056331 -0.8855184772263678 0.32558297097628314
| 19> H -3.4531222947835754 0.8865050346703668 0.3235968591212487
| 20> H -3.0406278023507163 -0.0013073612174470271 -1.1530058237758243
| 21> H -1.3963376752265608 -0.0004192107770738861 1.4351377782281354
| 22> H -1.2340325282210007 -2.1514576279472624 0.2221876321551602
| 23> H -0.8538306896119047 -1.2934711033516841 -1.2719882870945323
| 24> H 0.8484691981868202 -1.2901192375713741 1.2796161768238643
| 25> H 1.227908457496167 -2.150227394787245 -0.21294382398536102
| 26> H 1.361198789000509 0.0009125817364789801 -1.427732720721498
| 27> H 0.8482192432404676 1.2895341795894444 1.2807909178963315
| 28> H 1.2275983773304882 2.1505445639569754 -0.2113121733240976
| 29> H -1.2343758508606468 2.15119452415132 0.22296210875721564
| 30> H -0.8534187274422853 1.2937306069880015 -1.2713293018620886
| 31> H 3.595322479513337 -0.012991556378706517 -0.8426736411639228
| 32> H 3.2131852591177905 -0.8752099951182737 0.6470714554936592
| 33> H 3.219184531640476 0.8874344447102184 0.6258895347137089
| 34> *
| 35>
| 36>                          ****END OF INPUT****

CARTESIAN COORDINATES (ANGSTROEM)
---------------------------------
  C     -2.936659   -0.000121   -0.061019
  C     -1.463594   -0.000176    0.336159
  C     -0.746486   -1.253122   -0.177518
  C      0.738620   -1.252092    0.185395
  C      1.455917    0.000317   -0.332082
  C      0.738475    1.252116    0.186523
  C     -0.746526    1.253055   -0.176806
  C      2.951651   -0.000112    0.042179
  H     -3.453743   -0.885518    0.325583
  H     -3.453122    0.886505    0.323597
  H     -3.040628   -0.001307   -1.153006
  H     -1.396338   -0.000419    1.435138
  H     -1.234033   -2.151458    0.222188
  H     -0.853831   -1.293471   -1.271988
  H      0.848469   -1.290119    1.279616
  H      1.227908   -2.150227   -0.212944
  H      1.361199    0.000913   -1.427733
  H      0.848219    1.289534    1.280791
  H      1.227598    2.150545   -0.211312
  H     -1.234376    2.151195    0.222962
  H     -0.853419    1.293731   -1.271329
  H      3.595322   -0.012992   -0.842674
  H      3.213185   -0.875210    0.647071
  H      3.219185    0.887434    0.625890

 Total Charge           Charge          ....    0
 Multiplicity           Mult            ....    1
 Number of Electrons    NEL             ....   64
 Basis Dimension        Dim             ....  344

ORBITAL ENERGIES
----------------

  NO   OCC          E(Eh)            E(eV)
   0   2.0000     -12.033853      -327.4578
   1   2.0000     -12.033382      -327.4450
   2   2.0000     -12.026050      -327.2455
   3   2.0000     -12.025634      -327.2341
   4   2.0000     -12.024718      -327.2092
   5   2.0000     -12.024583      -327.2055
   6   2.0000     -12.021647      -327.1256
   7   2.0000     -12.021285      -327.1158
   8   2.0000      -1.335637       -36.3445
   9   2.0000      -1.275356       -34.7042
  10   2.0000      -1.235027       -33.6068
  11   2.0000      -1.191022       -32.4094
  12   2.0000      -1.130307       -30.7572
  13   2.0000      -1.086749       -29.5719
  14   2.0000      -1.041923       -28.3522
  15   2.0000      -0.992740       -27.0138
  16   2.0000      -0.892567       -24.2880
  17   2.0000      -0.875552       -23.8250
  18   2.0000      -0.861529       -23.4434
  19   2.0000      -0.861060       -23.4306
  20   2.0000      -0.859354       -23.3842
  21   2.0000      -0.822785       -22.3891
  22   2.0000      -0.804992       -21.9050
  23   2.0000      -0.803156       -21.8550
  24   2.0000      -0.800241       -21.7757
  25   2.0000      -0.786840       -21.4110
  26   2.0000      -0.773070       -21.0363
  27   2.0000      -0.759177       -20.6583
  28   2.0000      -0.750834       -20.4312
  29   2.0000      -0.741379       -20.1740
  30   2.0000      -0.724871       -19.7247
  31   2.0000      -0.713989       -19.4286
  32   0.0000      -0.035802        -0.9742
  33   0.0000      -0.031464        -0.8562
  34   0.0000      -0.015977        -0.4347
  35   0.0000      -0.014415        -0.3922
  36   0.0000      -0.011691        -0.3181

MULLIKEN ATOMIC CHARGES
-----------------------
   0 C :   -0.400904
   1 C :   -0.013147
   2 C :   -0.222683
   3 C :   -0.249118
   4 C :    0.046352
   5 C :   -0.249387
   6 C :   -0.222555
   7 C :   -0.433551
   8 H :    0.126095
   9 H :    0.126094
  10 H :    0.118233
  11 H :    0.071052
  12 H :    0.109491
  13 H :    0.097224
  14 H :    0.102711
  15 H :    0.113671
  16 H :    0.073988
  17 H :    0.102736
  18 H :    0.113662
  19 H :    0.109488
  20 H :    0.097242
  21 H :    0.126425
  22 H :    0.128377
  23 H :    0.128504
Sum of atomic charges:    0.0000000

LOEWDIN ATOMIC CHARGES
----------------------
   0 C :   -0.290099
   1 C :   -0.284364
   2 C :   -0.238759
   3 C :   -0.244066
   4 C :   -0.275651
   5 C :   -0.244097
   6 C :   -0.238753
   7 C :   -0.286422
   8 H :    0.119331
   9 H :    0.119336
  10 H :    0.120401
  11 H :    0.149260
  12 H :    0.134257
  13 H :    0.137576
  14 H :    0.137134
  15 H :    0.134089
  16 H :    0.148381
  17 H :    0.137145
  18 H :    0.134059
  19 H :    0.134248
  20 H :    0.137593
  21 H :    0.117669
  22 H :    0.120882
  23 H :    0.120852

  Mayer bond orders larger than 0.100000
B(  0-C ,  1-C ) :   0.9582 B(  0-C ,  8-H ) :   0.9850 B(  0-C ,  9-H ) :   0.9850
B(  0-C , 10-H ) :   0.9745 B(  1-C ,  2-C ) :   0.9851 B(  1-C ,  6-C ) :   0.9850
B(  1-C , 11-H ) :   0.9687 B(  2-C ,  3-C ) :   0.9915 B(  2-C , 12-H ) :   0.9721
B(  2-C , 13-H ) :   0.9678 B(  3-C ,  4-C ) :   0.9812 B(  3-C , 14-H ) :   0.9691
B(  3-C , 15-H ) :   0.9751 B(  4-C ,  5-C ) :   0.9810 B(  4-C ,  7-C ) :   0.8917
B(  4-C , 16-H ) :   0.9791 B(  5-C ,  6-C ) :   0.9914 B(  5-C , 17-H ) :   0.9695
B(  5-C , 18-H ) :   0.9749 B(  6-C , 19-H ) :   0.9720 B(  6-C , 20-H ) :   0.9678
B(  7-C , 21-H ) :   0.9824 B(  7-C , 22-H ) :   0.9842 B(  7-C , 23-H ) :   0.9846

FINAL SINGLE POINT ENERGY      -314.514279594176

DIPOLE MOMENT
-------------

Method             : SCF
Type of density    : Electron Density
Multiplicity       :   1
Irrep              :   0
Energy             :  -314.5314605143757944 Eh
Relativity type    :
Basis              : AO
                                X                 Y                 Z
Electronic contribution:     -0.023594764       0.000448596       0.027756475
Nuclear contribution   :      0.031173085      -0.000480209      -0.027160800
                        -----------------------------------------
Total Dipole Moment    :      0.007578321      -0.000031614       0.000595675
                        -----------------------------------------
Magnitude (a.u.)       :      0.007601761
Magnitude (Debye)      :      0.019322142

Rotational constants in cm-1:             0.137936             0.043864             0.035873
Rotational constants in MHz :          4135.227635          1315.014003          1075.455154

                             ****ORCA TERMINATED NORMALLY****
TOTAL RUN TIME: 0 days 0 hours 3 minutes 30 seconds 738 msec
