                         Program Version 6.0.0  -   RELEASE  -
|  1> ! pbe def2-sv(p) def2/J RI DEFGRID1 loosescf d4 GCP(DFT/SV(P)) printgap
|  2> %output
|  3>     printlevel normal
|  4> end
|  5> * xyz 0 1
|  6> C -2.5223097662 -0.9945222989 0.3312315273
|  7> C -1.0798526065 -0.5146089612 0.5796740494
|  8> H -0.9266828245 -0.4412344933 1.6685019423
|  9> C -0.7998147649 0.8574277874 -0.0464748003
| 10> H -0.9144233959 0.7754273093 -1.138477162
| 11> C 0.6537462488 1.2465725709 0.2413537786
| 12> H 0.7826756506 1.3549574901 1.3327339142
| 13> C 1.5959985334 0.1458232192 -0.2705280946
| 14> H 1.5189501157 0.0798766474 -1.3612805306
| 15> C 1.1665094523 -1.2087401531 0.3192650683
| 16> H 1.3101682491 -1.174651665 1.4256829344
| 17> O -0.1876661894 -1.4775841881 0.0506404392
| 18> O 1.927653352 -2.2138177662 -0.24060286
| 19> O 2.9336422367 0.4685559733 0.0011732662
| 20> O 0.9122383168 2.4786161874 -0.3869554822
| 21> O -1.7078027661 1.7883489889 0.4822947735
| 22> O -3.0060410266 -0.7346812379 -0.9585129765
| 23> H -3.1660378129 -0.535067355 1.0874477338
| 24> H -2.5344304312 -2.0798472838 0.4481789938
| 25> H 1.4461583389 -3.0536812871 -0.174858498
| 26> H 3.1518951017 0.264564535 0.9222756564
| 27> H 1.872058426 2.5935701893 -0.4606939885
| 28> H -1.4160534237 2.6754043766 0.2207967165
| 29> H -3.2200630607 0.2063238605 -1.0297221592
| 30> *
| 31>
| 32>                          ****END OF INPUT****

CARTESIAN COORDINATES (ANGSTROEM)
---------------------------------
  C     -2.522310   -0.994522    0.331232
  C     -1.079853   -0.514609    0.579674
  H     -0.926683   -0.441234    1.668502
  C     -0.799815    0.857428   -0.046475
  H     -0.914423    0.775427   -1.138477
  C      0.653746    1.246573    0.241354
  H      0.782676    1.354957    1.332734
  C      1.595999    0.145823   -0.270528
  H      1.518950    0.079877   -1.361281
  C      1.166509   -1.208740    0.319265
  H      1.310168   -1.174652    1.425683
  O     -0.187666   -1.477584    0.050640
  O      1.927653   -2.213818   -0.240603
  O      2.933642    0.468556    0.001173
  O      0.912238    2.478616   -0.386955
  O     -1.707803    1.788349    0.482295
  O     -3.006041   -0.734681   -0.958513
  H     -3.166038   -0.535067    1.087448
  H     -2.534430   -2.079847    0.448179
  H      1.446158   -3.053681   -0.174858
  H      3.151895    0.264565    0.922276
  H      1.872058    2.593570   -0.460694
  H     -1.416053    2.675404    0.220797
  H     -3.220063    0.206324   -1.029722

 Total Charge           Charge          ....    0
 Multiplicity           Mult            ....    1
 Number of Electrons    NEL             ....   96
 Basis Dimension        Dim             ....  192

ORBITAL ENERGIES
----------------

  NO   OCC          E(Eh)            E(eV)
   0   2.0000     -18.777747      -510.9685
   1   2.0000     -18.766168      -510.6534
   2   2.0000     -18.762004      -510.5401
   3   2.0000     -18.761329      -510.5217
   4   2.0000     -18.758490      -510.4445
   5   2.0000     -18.746650      -510.1223
   6   2.0000      -9.995335      -271.9869
   7   2.0000      -9.947756      -270.6922
   8   2.0000      -9.946085      -270.6467
   9   2.0000      -9.945476      -270.6302
  10   2.0000      -9.945317      -270.6258
  11   2.0000      -9.932121      -270.2667
  12   2.0000      -0.990397       -26.9501
  13   2.0000      -0.952776       -25.9264
  14   2.0000      -0.943332       -25.6694
  15   2.0000      -0.924983       -25.1701
  16   2.0000      -0.921678       -25.0801
  17   2.0000      -0.915585       -24.9143
  18   2.0000      -0.708279       -19.2733
  19   2.0000      -0.694002       -18.8848
  20   2.0000      -0.622362       -16.9353
  21   2.0000      -0.585055       -15.9202
  22   2.0000      -0.568865       -15.4796
  23   2.0000      -0.536862       -14.6087
  24   2.0000      -0.511574       -13.9206
  25   2.0000      -0.494453       -13.4548
  26   2.0000      -0.471350       -12.8261
  27   2.0000      -0.462734       -12.5916
  28   2.0000      -0.447894       -12.1878
  29   2.0000      -0.439440       -11.9578
  30   2.0000      -0.424158       -11.5419
  31   2.0000      -0.415595       -11.3089
  32   2.0000      -0.390251       -10.6193
  33   2.0000      -0.369360       -10.0508
  34   2.0000      -0.359321        -9.7776
  35   2.0000      -0.357726        -9.7342
  36   2.0000      -0.329187        -8.9576
  37   2.0000      -0.316215        -8.6046
  38   2.0000      -0.311316        -8.4713
  39   2.0000      -0.297346        -8.0912
  40   2.0000      -0.291693        -7.9374
  41   2.0000      -0.273956        -7.4547
  42   2.0000      -0.256832        -6.9888
  43   2.0000      -0.247732        -6.7411
  44   2.0000      -0.237302        -6.4573
  45   2.0000      -0.225405        -6.1336
  46   2.0000      -0.218059        -5.9337
  47   2.0000      -0.207712        -5.6521
  48   0.0000       0.010632         0.2893
  49   0.0000       0.018726         0.5096
  50   0.0000       0.033311         0.9064
  51   0.0000       0.043403         1.1811
  52   0.0000       0.054308         1.4778

MULLIKEN ATOMIC CHARGES
-----------------------
   0 C :    0.082749
   1 C :    0.022270
   2 H :    0.050898
   3 C :    0.035399
   4 H :    0.061254
   5 C :    0.062020
   6 H :    0.035726
   7 C :    0.032822
   8 H :    0.078862
   9 C :    0.184688
  10 H :    0.015736
  11 O :   -0.311602
  12 O :   -0.372983
  13 O :   -0.410815
  14 O :   -0.426042
  15 O :   -0.426067
  16 O :   -0.432959
  17 H :    0.084183
  18 H :    0.088859
  19 H :    0.309227
  20 H :    0.303065
  21 H :    0.308962
  22 H :    0.316256
  23 H :    0.307493
Sum of atomic charges:    0.0000000

LOEWDIN ATOMIC CHARGES
----------------------
   0 C :   -0.121634
   1 C :   -0.065600
   2 H :    0.103851
   3 C :   -0.078297
   4 H :    0.105206
   5 C :   -0.084829
   6 H :    0.093628
   7 C :   -0.092405
   8 H :    0.126639
   9 C :    0.000598
  10 H :    0.068489
  11 O :   -0.146508
  12 O :   -0.296255
  13 O :   -0.305187
  14 O :   -0.328585
  15 O :   -0.322448
  16 O :   -0.329365
  17 H :    0.107249
  18 H :    0.119156
  19 H :    0.292170
  20 H :    0.287851
  21 H :    0.287845
  22 H :    0.292811
  23 H :    0.285619

  Mayer bond orders larger than 0.100000
B(  0-C ,  1-C ) :   1.0049 B(  0-C , 16-O ) :   1.1101 B(  0-C , 17-H ) :   0.9190
B(  0-C , 18-H ) :   0.9202 B(  1-C ,  2-H ) :   0.8683 B(  1-C ,  3-C ) :   1.0225
B(  1-C , 11-O ) :   0.9811 B(  3-C ,  4-H ) :   0.8572 B(  3-C ,  5-C ) :   1.0268
B(  3-C , 15-O ) :   1.0592 B(  5-C ,  6-H ) :   0.8700 B(  5-C ,  7-C ) :   0.9943
B(  5-C , 14-O ) :   1.0907 B(  7-C ,  8-H ) :   0.8579 B(  7-C ,  9-C ) :   0.9865
B(  7-C , 13-O ) :   1.0317 B(  9-C , 10-H ) :   0.8733 B(  9-C , 11-O ) :   1.0224
B(  9-C , 12-O ) :   1.1889 B( 12-O , 19-H ) :   0.8367 B( 13-O , 20-H ) :   0.8441
B( 14-O , 21-H ) :   0.8283 B( 15-O , 22-H ) :   0.8348 B( 16-O , 23-H ) :   0.8397

Dispersion correction           -0.023953622
FINAL SINGLE POINT ENERGY      -685.698369894305

DIPOLE MOMENT
-------------

Method             : SCF
Type of density    : Electron Density
Multiplicity       :   1
Irrep              :   0
Energy             :  -685.8283492333229105 Eh
Relativity type    :
Basis              : AO
                                X                 Y                 Z
Electronic contribution:      2.202323048      -0.324967871      -1.804180222
Nuclear contribution   :     -1.953284333       0.629069904       2.743185201
                        -----------------------------------------
Total Dipole Moment    :      0.249038715       0.304102032       0.939004979
                        -----------------------------------------
Magnitude (a.u.)       :      1.017953181
Magnitude (Debye)      :      2.587431360

Rotational constants in cm-1:             0.041057             0.026049             0.017359
Rotational constants in MHz :          1230.844690           780.937485           520.407551

                             ****ORCA TERMINATED NORMALLY****
TOTAL RUN TIME: 0 days 0 hours 0 minutes 11 seconds 568 msec
