                         Program Version 6.0.0  -   RELEASE  -
|  1> ! pbe def2-sv(p) def2/J RI DEFGRID1 loosescf d4 GCP(DFT/SV(P)) printgap
|  2> %output
|  3>     printlevel normal
|  4> end
|  5> * xyz 0 1
|  6> C -0.6919837011 -3.0127209628 -0.0045842764
|  7> C 0.6913925417 -3.012879943 0.0045787278
|  8> C 1.3857810796 -1.814121871 0.0122081969
|  9> C 0.6996018422 -0.6058819594 0.0115192611
| 10> C -0.699616561 -0.6057132492 -0.0118552031
| 11> C -1.3860769609 -1.8137944668 -0.0123589073
| 12> C -1.5009317154 0.6674140375 -0.0028010788
| 13> F -1.571561656 1.2274490423 1.2239732566
| 14> F -1.0292029382 1.619647297 -0.8268950365
| 15> F -2.7760976071 0.4710572281 -0.3776086195
| 16> C 1.5011021042 0.6671408935 0.0027177117
| 17> F 1.030053177 1.6186343749 0.8281439698
| 18> F 2.7765481073 0.4703750255 0.3763054793
| 19> F 1.5707824937 1.2283078567 -1.2235614498
| 20> H -1.2388264532 -3.9411280312 -0.0067930434
| 21> H 1.2380092149 -3.94142465 0.0070407863
| 22> H 2.4638112076 -1.8094909416 0.0240231572
| 23> H -2.4641097828 -1.8089014364 -0.0241525124
| 24> *
| 25>
| 26>                          ****END OF INPUT****

CARTESIAN COORDINATES (ANGSTROEM)
---------------------------------
  C     -0.691984   -3.012721   -0.004584
  C      0.691393   -3.012880    0.004579
  C      1.385781   -1.814122    0.012208
  C      0.699602   -0.605882    0.011519
  C     -0.699617   -0.605713   -0.011855
  C     -1.386077   -1.813794   -0.012359
  C     -1.500932    0.667414   -0.002801
  F     -1.571562    1.227449    1.223973
  F     -1.029203    1.619647   -0.826895
  F     -2.776098    0.471057   -0.377609
  C      1.501102    0.667141    0.002718
  F      1.030053    1.618634    0.828144
  F      2.776548    0.470375    0.376305
  F      1.570782    1.228308   -1.223561
  H     -1.238826   -3.941128   -0.006793
  H      1.238009   -3.941425    0.007041
  H      2.463811   -1.809491    0.024023
  H     -2.464110   -1.808901   -0.024153

 Total Charge           Charge          ....    0
 Multiplicity           Mult            ....    1
 Number of Electrons    NEL             ....  106
 Basis Dimension        Dim             ....  204

ORBITAL ENERGIES
----------------

  NO   OCC          E(Eh)            E(eV)
   0   2.0000     -24.292426      -661.0305
   1   2.0000     -24.292411      -661.0301
   2   2.0000     -24.288046      -660.9113
   3   2.0000     -24.287906      -660.9075
   4   2.0000     -24.283169      -660.7786
   5   2.0000     -24.283121      -660.7773
   6   2.0000     -10.132910      -275.7305
   7   2.0000     -10.132837      -275.7285
   8   2.0000      -9.945839      -270.6400
   9   2.0000      -9.945683      -270.6358
  10   2.0000      -9.931639      -270.2536
  11   2.0000      -9.931566      -270.2517
  12   2.0000      -9.930740      -270.2292
  13   2.0000      -9.930500      -270.2227
  14   2.0000      -1.195459       -32.5301
  15   2.0000      -1.190864       -32.4050
  16   2.0000      -1.102958       -30.0130
  17   2.0000      -1.098258       -29.8851
  18   2.0000      -1.096322       -29.8324
  19   2.0000      -1.093573       -29.7576
  20   2.0000      -0.822357       -22.3775
  21   2.0000      -0.734355       -19.9828
  22   2.0000      -0.724126       -19.7045
  23   2.0000      -0.648073       -17.6350
  24   2.0000      -0.625015       -17.0075
  25   2.0000      -0.583162       -15.8686
  26   2.0000      -0.577186       -15.7060
  27   2.0000      -0.545687       -14.8489
  28   2.0000      -0.527805       -14.3623
  29   2.0000      -0.527181       -14.3453
  30   2.0000      -0.523045       -14.2328
  31   2.0000      -0.522233       -14.2107
  32   2.0000      -0.494835       -13.4652
  33   2.0000      -0.455403       -12.3922
  34   2.0000      -0.442499       -12.0410
  35   2.0000      -0.424303       -11.5459
  36   2.0000      -0.406186       -11.0529
  37   2.0000      -0.405072       -11.0226
  38   2.0000      -0.396918       -10.8007
  39   2.0000      -0.392352       -10.6765
  40   2.0000      -0.381208       -10.3732
  41   2.0000      -0.375751       -10.2247
  42   2.0000      -0.364318        -9.9136
  43   2.0000      -0.360290        -9.8040
  44   2.0000      -0.353622        -9.6225
  45   2.0000      -0.351981        -9.5779
  46   2.0000      -0.346919        -9.4401
  47   2.0000      -0.338343        -9.2068
  48   2.0000      -0.335960        -9.1419
  49   2.0000      -0.333665        -9.0795
  50   2.0000      -0.321301        -8.7430
  51   2.0000      -0.267519        -7.2796
  52   2.0000      -0.267502        -7.2791
  53   0.0000      -0.087803        -2.3892
  54   0.0000      -0.073940        -2.0120
  55   0.0000       0.028863         0.7854
  56   0.0000       0.052153         1.4191
  57   0.0000       0.065879         1.7927

MULLIKEN ATOMIC CHARGES
-----------------------
   0 C :   -0.026112
   1 C :   -0.026129
   2 C :   -0.117126
   3 C :   -0.049095
   4 C :   -0.049085
   5 C :   -0.117123
   6 C :    0.443650
   7 F :   -0.134946
   8 F :   -0.132138
   9 F :   -0.130825
  10 C :    0.443676
  11 F :   -0.132213
  12 F :   -0.130798
  13 F :   -0.134922
  14 H :    0.072555
  15 H :    0.072557
  16 H :    0.074032
  17 H :    0.074043
Sum of atomic charges:    0.0000000

LOEWDIN ATOMIC CHARGES
----------------------
   0 C :   -0.102802
   1 C :   -0.102801
   2 C :   -0.097120
   3 C :   -0.069476
   4 C :   -0.069473
   5 C :   -0.097104
   6 C :    0.123046
   7 F :   -0.048174
   8 F :   -0.037967
   9 F :   -0.039655
  10 C :    0.123049
  11 F :   -0.038041
  12 F :   -0.039636
  13 F :   -0.048137
  14 H :    0.133970
  15 H :    0.133969
  16 H :    0.138176
  17 H :    0.138176

  Mayer bond orders larger than 0.100000
B(  0-C ,  1-C ) :   1.3709 B(  0-C ,  5-C ) :   1.3535 B(  0-C , 14-H ) :   0.9665
B(  1-C ,  2-C ) :   1.3535 B(  1-C , 15-H ) :   0.9665 B(  2-C ,  3-C ) :   1.4045
B(  2-C , 16-H ) :   0.9609 B(  3-C ,  4-C ) :   1.4135 B(  3-C , 10-C ) :   0.9292
B(  4-C ,  5-C ) :   1.4045 B(  4-C ,  6-C ) :   0.9292 B(  5-C , 17-H ) :   0.9609
B(  6-C ,  7-F ) :   1.1880 B(  6-C ,  8-F ) :   1.1529 B(  6-C ,  9-F ) :   1.1663
B( 10-C , 11-F ) :   1.1528 B( 10-C , 12-F ) :   1.1663 B( 10-C , 13-F ) :   1.1880

Dispersion correction           -0.021667070
FINAL SINGLE POINT ENERGY      -904.618681886332

DIPOLE MOMENT
-------------

Method             : SCF
Type of density    : Electron Density
Multiplicity       :   1
Irrep              :   0
Energy             :  -904.7120257047663472 Eh
Relativity type    :
Basis              : AO
                                X                 Y                 Z
Electronic contribution:      0.001485587      15.315363540       0.000026343
Nuclear contribution   :     -0.001530091     -16.937935367      -0.000220261
                        -----------------------------------------
Total Dipole Moment    :     -0.000044504      -1.622571828      -0.000193918
                        -----------------------------------------
Magnitude (a.u.)       :      1.622571840
Magnitude (Debye)      :      4.124249857

Rotational constants in cm-1:             0.027719             0.025771             0.015528
Rotational constants in MHz :           830.993994           772.603379           465.518337

                             ****ORCA TERMINATED NORMALLY****
TOTAL RUN TIME: 0 days 0 hours 0 minutes 10 seconds 141 msec
