                         Program Version 6.0.0  -   RELEASE  -
|  1> ! pbe def2-sv(p) def2/J RI DEFGRID1 loosescf d4 GCP(DFT/SV(P)) printgap
|  2> %output
|  3>     printlevel normal
|  4> end
|  5> * xyz 0 1
|  6> C -2.8796409788 -1.2277905639 -0.0489345562
|  7> O -1.7207997669 -0.594035296 -0.5966681397
|  8> C -1.0581471186 0.2826649538 0.1475559635
|  9> O -1.3888637728 0.5802419624 1.2773630343
| 10> C 0.1008949992 0.9014235822 -0.6124863307
| 11> C 0.8321601769 -0.1373177499 -1.4675992292
| 12> C 1.4286146895 -1.2491111128 -0.596000385
| 13> C 1.839484616 -0.7196441567 0.7831258039
| 14> C 2.2788251934 0.7363482523 0.6778501092
| 15> C 1.0737235741 1.6186192469 0.3360139285
| 16> H -2.61728198 -2.2430136578 0.2477206347
| 17> H -3.6290090649 -1.24511648 -0.8363586662
| 18> H -3.2355846987 -0.6687385729 0.817325366
| 19> H -0.3698839005 1.6354901379 -1.2763242245
| 20> H 0.1495764005 -0.5639908172 -2.2016548102
| 21> H 1.6258077646 0.3805088702 -2.0063825626
| 22> H 0.7031741383 -2.0550347484 -0.4730176661
| 23> H 2.2984125138 -1.6669714457 -1.1049818834
| 24> H 0.9965317555 -0.7776008408 1.4762326237
| 25> H 2.6429596044 -1.333046732 1.1928899154
| 26> H 2.7165363905 1.0692565001 1.6194628709
| 27> H 3.0446761149 0.8237327175 -0.0941530244
| 28> H 0.5309292201 1.8686001539 1.2502391006
| 29> H 1.4155974005 2.5496311584 -0.115540111
| 30> *
| 31>
| 32>                          ****END OF INPUT****

CARTESIAN COORDINATES (ANGSTROEM)
---------------------------------
  C     -2.879641   -1.227791   -0.048935
  O     -1.720800   -0.594035   -0.596668
  C     -1.058147    0.282665    0.147556
  O     -1.388864    0.580242    1.277363
  C      0.100895    0.901424   -0.612486
  C      0.832160   -0.137318   -1.467599
  C      1.428615   -1.249111   -0.596000
  C      1.839485   -0.719644    0.783126
  C      2.278825    0.736348    0.677850
  C      1.073724    1.618619    0.336014
  H     -2.617282   -2.243014    0.247721
  H     -3.629009   -1.245116   -0.836359
  H     -3.235585   -0.668739    0.817325
  H     -0.369884    1.635490   -1.276324
  H      0.149576   -0.563991   -2.201655
  H      1.625808    0.380509   -2.006383
  H      0.703174   -2.055035   -0.473018
  H      2.298413   -1.666971   -1.104982
  H      0.996532   -0.777601    1.476233
  H      2.642960   -1.333047    1.192890
  H      2.716536    1.069257    1.619463
  H      3.044676    0.823733   -0.094153
  H      0.530929    1.868600    1.250239
  H      1.415597    2.549631   -0.115540

 Total Charge           Charge          ....    0
 Multiplicity           Mult            ....    1
 Number of Electrons    NEL             ....   78
 Basis Dimension        Dim             ....  168

ORBITAL ENERGIES
----------------

  NO   OCC          E(Eh)            E(eV)
   0   2.0000     -18.799941      -511.5724
   1   2.0000     -18.735856      -509.8286
   2   2.0000     -10.005696      -272.2688
   3   2.0000      -9.941100      -270.5111
   4   2.0000      -9.903835      -269.4970
   5   2.0000      -9.885440      -268.9965
   6   2.0000      -9.881412      -268.8869
   7   2.0000      -9.878916      -268.8190
   8   2.0000      -9.878413      -268.8053
   9   2.0000      -9.878194      -268.7993
  10   2.0000      -1.007169       -27.4065
  11   2.0000      -0.911333       -24.7986
  12   2.0000      -0.760212       -20.6864
  13   2.0000      -0.689804       -18.7705
  14   2.0000      -0.663220       -18.0471
  15   2.0000      -0.650080       -17.6896
  16   2.0000      -0.566064       -15.4034
  17   2.0000      -0.542529       -14.7630
  18   2.0000      -0.509231       -13.8569
  19   2.0000      -0.474653       -12.9160
  20   2.0000      -0.460157       -12.5215
  21   2.0000      -0.441960       -12.0263
  22   2.0000      -0.425611       -11.5815
  23   2.0000      -0.411111       -11.1869
  24   2.0000      -0.407367       -11.0850
  25   2.0000      -0.383240       -10.4285
  26   2.0000      -0.362887        -9.8747
  27   2.0000      -0.356063        -9.6890
  28   2.0000      -0.333807        -9.0834
  29   2.0000      -0.331365        -9.0169
  30   2.0000      -0.327111        -8.9011
  31   2.0000      -0.322590        -8.7781
  32   2.0000      -0.310061        -8.4372
  33   2.0000      -0.298961        -8.1351
  34   2.0000      -0.266795        -7.2599
  35   2.0000      -0.261179        -7.1071
  36   2.0000      -0.260295        -7.0830
  37   2.0000      -0.255080        -6.9411
  38   2.0000      -0.220211        -5.9922
  39   0.0000      -0.021719        -0.5910
  40   0.0000       0.030111         0.8194
  41   0.0000       0.045471         1.2373
  42   0.0000       0.070050         1.9062
  43   0.0000       0.073925         2.0116

MULLIKEN ATOMIC CHARGES
-----------------------
   0 C :   -0.128016
   1 O :   -0.238172
   2 C :    0.140690
   3 O :   -0.194548
   4 C :   -0.233868
   5 C :   -0.076094
   6 C :   -0.176426
   7 C :   -0.164877
   8 C :   -0.156011
   9 C :   -0.106788
  10 H :    0.121669
  11 H :    0.122491
  12 H :    0.133306
  13 H :    0.101180
  14 H :    0.093300
  15 H :    0.076975
  16 H :    0.083058
  17 H :    0.081153
  18 H :    0.094898
  19 H :    0.084852
  20 H :    0.087516
  21 H :    0.073271
  22 H :    0.104450
  23 H :    0.075993
Sum of atomic charges:   -0.0000000

LOEWDIN ATOMIC CHARGES
----------------------
   0 C :   -0.207785
   1 O :   -0.067101
   2 C :    0.043053
   3 O :   -0.165054
   4 C :   -0.167957
   5 C :   -0.218320
   6 C :   -0.231968
   7 C :   -0.234497
   8 C :   -0.224478
   9 C :   -0.220598
  10 H :    0.119498
  11 H :    0.120914
  12 H :    0.124309
  13 H :    0.143674
  14 H :    0.121956
  15 H :    0.118463
  16 H :    0.115668
  17 H :    0.117416
  18 H :    0.119779
  19 H :    0.117302
  20 H :    0.119444
  21 H :    0.111714
  22 H :    0.127521
  23 H :    0.117046

  Mayer bond orders larger than 0.100000
B(  0-C ,  1-O ) :   0.9372 B(  0-C , 10-H ) :   0.9587 B(  0-C , 11-H ) :   0.9610
B(  0-C , 12-H ) :   0.9321 B(  1-O ,  2-C ) :   1.2142 B(  2-C ,  3-O ) :   2.0556
B(  2-C ,  4-C ) :   0.9376 B(  4-C ,  5-C ) :   1.1438 B(  4-C ,  9-C ) :   1.0871
B(  4-C , 13-H ) :   0.8586 B(  5-C ,  6-C ) :   1.1500 B(  5-C , 14-H ) :   0.9056
B(  5-C , 15-H ) :   0.8979 B(  6-C ,  7-C ) :   1.1478 B(  6-C , 16-H ) :   0.9151
B(  6-C , 17-H ) :   0.9180 B(  7-C ,  8-C ) :   1.1823 B(  7-C , 18-H ) :   0.9019
B(  7-C , 19-H ) :   0.9212 B(  8-C ,  9-C ) :   1.1521 B(  8-C , 20-H ) :   0.9206
B(  8-C , 21-H ) :   0.9083 B(  9-C , 22-H ) :   0.8990 B(  9-C , 23-H ) :   0.9123

Dispersion correction           -0.024009622
FINAL SINGLE POINT ENERGY      -462.696950640751

DIPOLE MOMENT
-------------

Method             : SCF
Type of density    : Electron Density
Multiplicity       :   1
Irrep              :   0
Energy             :  -462.7852229688187435 Eh
Relativity type    :
Basis              : AO
                                X                 Y                 Z
Electronic contribution:     -5.973462573       1.711724988       0.811740208
Nuclear contribution   :      5.838493878      -2.088840193      -1.401420098
                        -----------------------------------------
Total Dipole Moment    :     -0.134968695      -0.377115205      -0.589679889
                        -----------------------------------------
Magnitude (a.u.)       :      0.712849773
Magnitude (Debye)      :      1.811920127

Rotational constants in cm-1:             0.075116             0.033646             0.029905
Rotational constants in MHz :          2251.915602          1008.686208           896.521533

                             ****ORCA TERMINATED NORMALLY****
TOTAL RUN TIME: 0 days 0 hours 0 minutes 12 seconds 456 msec
