                         Program Version 6.0.0  -   RELEASE  -
|  1> ! wb97x-v def2-tzvp def2/J RIJCOSX DEFGRID2 scfconv7 GCP(DFT/TZ) printgap
|  2> %output
|  3>     printlevel normal
|  4> end
|  5> * xyz 0 1
|  6> C 3.648044177242754 0.710565816198071 -0.00042155811671228225
|  7> C 3.6480350210987993 -0.7106007251619315 -0.0002198576604159203
|  8> C 2.468979236643004 -1.405828001013582 0.00011386845667271906
|  9> C 1.2191848733439787 -0.7215939648995349 0.00018825816048545664
| 10> C -1.5476052199317838e-05 -1.4051480335790953 0.00020579855563767453
| 11> C -1.2192093320003987 -0.7215720654977683 8.069359094194468e-05
| 12> C -2.4690112960940396 -1.4057828878544942 -0.0002351422014564916
| 13> C -3.648059126606791 -0.7105343355142044 -0.00044314548578149943
| 14> C -3.6480438410996476 0.7106269353136953 -0.00025391609963255923
| 15> C -2.4689785241181457 1.405842979818351 6.495040312270852e-05
| 16> C -1.2191965473570765 0.7215996573604502 0.0001612156037193966
| 17> C 8.241144497183143e-06 1.4051525294109597 0.0001939257366414487
| 18> C 1.219196496690994 0.7215795625726085 9.57883589856945e-05
| 19> C 2.4689956922275518 1.40580236095427 -0.00021345660123753306
| 20> H 4.594221497778085 1.2426044473700868 -0.000768823422504153
| 21> H 4.594205733777868 -1.2426511799749496 -0.000331617841854293
| 22> H 2.464873902436366 -2.4922497511839277 0.00027345912582163337
| 23> H -2.898917699342699e-05 -2.492396469597869 0.0002192234050315801
| 24> H -2.464937442389924 -2.4922050609544217 -0.00037024394421201746
| 25> H -4.594233533216423 -1.2425789262499731 -0.0007699644952029695
| 26> H -4.594204637000705 1.2426948010131993 -0.0003724902588831297
| 27> H -2.464864682212157 2.4922639910143496 0.00020525089612973962
| 28> H 1.2045891853500755e-05 2.492400227757289 0.00020049753598988139
| 29> H 2.4648931855847906 2.492223840735175 -0.000357229932610711
| 30> *
| 31>
| 32>                          ****END OF INPUT****

CARTESIAN COORDINATES (ANGSTROEM)
---------------------------------
  C      3.648044    0.710566   -0.000422
  C      3.648035   -0.710601   -0.000220
  C      2.468979   -1.405828    0.000114
  C      1.219185   -0.721594    0.000188
  C     -0.000015   -1.405148    0.000206
  C     -1.219209   -0.721572    0.000081
  C     -2.469011   -1.405783   -0.000235
  C     -3.648059   -0.710534   -0.000443
  C     -3.648044    0.710627   -0.000254
  C     -2.468979    1.405843    0.000065
  C     -1.219197    0.721600    0.000161
  C      0.000008    1.405153    0.000194
  C      1.219196    0.721580    0.000096
  C      2.468996    1.405802   -0.000213
  H      4.594221    1.242604   -0.000769
  H      4.594206   -1.242651   -0.000332
  H      2.464874   -2.492250    0.000273
  H     -0.000029   -2.492396    0.000219
  H     -2.464937   -2.492205   -0.000370
  H     -4.594234   -1.242579   -0.000770
  H     -4.594205    1.242695   -0.000372
  H     -2.464865    2.492264    0.000205
  H      0.000012    2.492400    0.000200
  H      2.464893    2.492224   -0.000357

 Total Charge           Charge          ....    0
 Multiplicity           Mult            ....    1
 Number of Electrons    NEL             ....   94
 Basis Dimension        Dim             ....  494

ORBITAL ENERGIES
----------------

  NO   OCC          E(Eh)            E(eV)
   0   2.0000     -12.065416      -328.3167
   1   2.0000     -12.065092      -328.3078
   2   2.0000     -12.063711      -328.2703
   3   2.0000     -12.063467      -328.2636
   4   2.0000     -12.056498      -328.0740
   5   2.0000     -12.056426      -328.0720
   6   2.0000     -12.056360      -328.0702
   7   2.0000     -12.056068      -328.0623
   8   2.0000     -12.055725      -328.0530
   9   2.0000     -12.055348      -328.0427
  10   2.0000     -12.054531      -328.0205
  11   2.0000     -12.054351      -328.0156
  12   2.0000     -12.053236      -327.9852
  13   2.0000     -12.053103      -327.9816
  14   2.0000      -1.411538       -38.4099
  15   2.0000      -1.380047       -37.5530
  16   2.0000      -1.330746       -36.2114
  17   2.0000      -1.316302       -35.8184
  18   2.0000      -1.283037       -34.9132
  19   2.0000      -1.271507       -34.5995
  20   2.0000      -1.234148       -33.5829
  21   2.0000      -1.160204       -31.5708
  22   2.0000      -1.134139       -30.8615
  23   2.0000      -1.097475       -29.8638
  24   2.0000      -1.088396       -29.6168
  25   2.0000      -1.045150       -28.4400
  26   2.0000      -0.995326       -27.0842
  27   2.0000      -0.981551       -26.7094
  28   2.0000      -0.953101       -25.9352
  29   2.0000      -0.941243       -25.6125
  30   2.0000      -0.935136       -25.4463
  31   2.0000      -0.903641       -24.5893
  32   2.0000      -0.900830       -24.5128
  33   2.0000      -0.884628       -24.0719
  34   2.0000      -0.878102       -23.8944
  35   2.0000      -0.858941       -23.3730
  36   2.0000      -0.849803       -23.1243
  37   2.0000      -0.826947       -22.5024
  38   2.0000      -0.813079       -22.1250
  39   2.0000      -0.809068       -22.0158
  40   2.0000      -0.789720       -21.4894
  41   2.0000      -0.766372       -20.8540
  42   2.0000      -0.700676       -19.0664
  43   2.0000      -0.699168       -19.0253
  44   2.0000      -0.649026       -17.6609
  45   2.0000      -0.624811       -17.0020
  46   2.0000      -0.575137       -15.6503
  47   0.0000      -0.314319        -8.5531
  48   0.0000      -0.269529        -7.3343
  49   0.0000      -0.232445        -6.3251
  50   0.0000      -0.185237        -5.0406
  51   0.0000      -0.170453        -4.6383

MULLIKEN ATOMIC CHARGES
-----------------------
   0 C :   -0.105958
   1 C :   -0.105370
   2 C :   -0.230007
   3 C :    0.191942
   4 C :   -0.286970
   5 C :    0.192344
   6 C :   -0.230804
   7 C :   -0.104845
   8 C :   -0.106095
   9 C :   -0.229906
  10 C :    0.191788
  11 C :   -0.286577
  12 C :    0.191724
  13 C :   -0.229934
  14 H :    0.118445
  15 H :    0.118539
  16 H :    0.113501
  17 H :    0.110332
  18 H :    0.113384
  19 H :    0.118646
  20 H :    0.118405
  21 H :    0.113555
  22 H :    0.110331
  23 H :    0.113530
Sum of atomic charges:    0.0000000

LOEWDIN ATOMIC CHARGES
----------------------
   0 C :   -0.140915
   1 C :   -0.140912
   2 C :   -0.099806
   3 C :   -0.091290
   4 C :   -0.059885
   5 C :   -0.091289
   6 C :   -0.099806
   7 C :   -0.140914
   8 C :   -0.140914
   9 C :   -0.099804
  10 C :   -0.091292
  11 C :   -0.059883
  12 C :   -0.091292
  13 C :   -0.099804
  14 H :    0.142108
  15 H :    0.142108
  16 H :    0.145507
  17 H :    0.148672
  18 H :    0.145506
  19 H :    0.142108
  20 H :    0.142108
  21 H :    0.145507
  22 H :    0.148673
  23 H :    0.145507

  Mayer bond orders larger than 0.100000
B(  0-C ,  1-C ) :   1.2033 B(  0-C , 13-C ) :   1.6390 B(  0-C , 14-H ) :   0.9754
B(  1-C ,  2-C ) :   1.6390 B(  1-C , 15-H ) :   0.9752 B(  2-C ,  3-C ) :   1.1494
B(  2-C , 16-H ) :   0.9858 B(  3-C ,  4-C ) :   1.3295 B(  3-C , 12-C ) :   1.2113
B(  4-C ,  5-C ) :   1.3291 B(  4-C , 17-H ) :   0.9758 B(  5-C ,  6-C ) :   1.1491
B(  5-C , 10-C ) :   1.2111 B(  6-C ,  7-C ) :   1.6392 B(  6-C , 18-H ) :   0.9861
B(  7-C ,  8-C ) :   1.2031 B(  7-C , 19-H ) :   0.9751 B(  8-C ,  9-C ) :   1.6389
B(  8-C , 20-H ) :   0.9754 B(  9-C , 10-C ) :   1.1496 B(  9-C , 21-H ) :   0.9857
B( 10-C , 11-C ) :   1.3294 B( 11-C , 12-C ) :   1.3294 B( 11-C , 22-H ) :   0.9758
B( 12-C , 13-C ) :   1.1497 B( 13-C , 23-H ) :   0.9855

FINAL SINGLE POINT ENERGY      -539.546249151152

DIPOLE MOMENT
-------------

Method             : SCF
Type of density    : Electron Density
Multiplicity       :   1
Irrep              :   0
Energy             :  -539.5578872019518712 Eh
Relativity type    :
Basis              : AO
                                X                 Y                 Z
Electronic contribution:      0.000016967      -0.000019230       0.001196644
Nuclear contribution   :     -0.000011178       0.000024315      -0.001402367
                        -----------------------------------------
Total Dipole Moment    :      0.000005788       0.000005086      -0.000205723
                        -----------------------------------------
Magnitude (a.u.)       :      0.000205867
Magnitude (Debye)      :      0.000523272

Rotational constants in cm-1:             0.071598             0.015142             0.012499
Rotational constants in MHz :          2146.459843           453.960446           374.711691

                             ****ORCA TERMINATED NORMALLY****
TOTAL RUN TIME: 0 days 0 hours 8 minutes 0 seconds 611 msec
