                         Program Version 6.0.0  -   RELEASE  -
|  1> ! wb97x-v def2-tzvp def2/J RIJCOSX DEFGRID2 scfconv7 GCP(DFT/TZ) printgap
|  2> %output
|  3>     printlevel normal
|  4> end
|  5> %cpcm
|  6>     smd true
|  7>     smdsolvent "water"
|  8> end
|  9> * xyz 0 1
| 10> C 3.648044177242754 0.710565816198071 -0.00042155811671228225
| 11> C 3.6480350210987993 -0.7106007251619315 -0.0002198576604159203
| 12> C 2.468979236643004 -1.405828001013582 0.00011386845667271906
| 13> C 1.2191848733439787 -0.7215939648995349 0.00018825816048545664
| 14> C -1.5476052199317838e-05 -1.4051480335790953 0.00020579855563767453
| 15> C -1.2192093320003987 -0.7215720654977683 8.069359094194468e-05
| 16> C -2.4690112960940396 -1.4057828878544942 -0.0002351422014564916
| 17> C -3.648059126606791 -0.7105343355142044 -0.00044314548578149943
| 18> C -3.6480438410996476 0.7106269353136953 -0.00025391609963255923
| 19> C -2.4689785241181457 1.405842979818351 6.495040312270852e-05
| 20> C -1.2191965473570765 0.7215996573604502 0.0001612156037193966
| 21> C 8.241144497183143e-06 1.4051525294109597 0.0001939257366414487
| 22> C 1.219196496690994 0.7215795625726085 9.57883589856945e-05
| 23> C 2.4689956922275518 1.40580236095427 -0.00021345660123753306
| 24> H 4.594221497778085 1.2426044473700868 -0.000768823422504153
| 25> H 4.594205733777868 -1.2426511799749496 -0.000331617841854293
| 26> H 2.464873902436366 -2.4922497511839277 0.00027345912582163337
| 27> H -2.898917699342699e-05 -2.492396469597869 0.0002192234050315801
| 28> H -2.464937442389924 -2.4922050609544217 -0.00037024394421201746
| 29> H -4.594233533216423 -1.2425789262499731 -0.0007699644952029695
| 30> H -4.594204637000705 1.2426948010131993 -0.0003724902588831297
| 31> H -2.464864682212157 2.4922639910143496 0.00020525089612973962
| 32> H 1.2045891853500755e-05 2.492400227757289 0.00020049753598988139
| 33> H 2.4648931855847906 2.492223840735175 -0.000357229932610711
| 34> *
| 35>
| 36>                          ****END OF INPUT****

CARTESIAN COORDINATES (ANGSTROEM)
---------------------------------
  C      3.648044    0.710566   -0.000422
  C      3.648035   -0.710601   -0.000220
  C      2.468979   -1.405828    0.000114
  C      1.219185   -0.721594    0.000188
  C     -0.000015   -1.405148    0.000206
  C     -1.219209   -0.721572    0.000081
  C     -2.469011   -1.405783   -0.000235
  C     -3.648059   -0.710534   -0.000443
  C     -3.648044    0.710627   -0.000254
  C     -2.468979    1.405843    0.000065
  C     -1.219197    0.721600    0.000161
  C      0.000008    1.405153    0.000194
  C      1.219196    0.721580    0.000096
  C      2.468996    1.405802   -0.000213
  H      4.594221    1.242604   -0.000769
  H      4.594206   -1.242651   -0.000332
  H      2.464874   -2.492250    0.000273
  H     -0.000029   -2.492396    0.000219
  H     -2.464937   -2.492205   -0.000370
  H     -4.594234   -1.242579   -0.000770
  H     -4.594205    1.242695   -0.000372
  H     -2.464865    2.492264    0.000205
  H      0.000012    2.492400    0.000200
  H      2.464893    2.492224   -0.000357

 Total Charge           Charge          ....    0
 Multiplicity           Mult            ....    1
 Number of Electrons    NEL             ....   94
 Basis Dimension        Dim             ....  494

ORBITAL ENERGIES
----------------

  NO   OCC          E(Eh)            E(eV)
   0   2.0000     -12.064748      -328.2985
   1   2.0000     -12.064389      -328.2887
   2   2.0000     -12.062967      -328.2500
   3   2.0000     -12.062789      -328.2452
   4   2.0000     -12.053408      -327.9899
   5   2.0000     -12.053130      -327.9823
   6   2.0000     -12.053026      -327.9795
   7   2.0000     -12.052959      -327.9777
   8   2.0000     -12.052704      -327.9708
   9   2.0000     -12.052375      -327.9618
  10   2.0000     -12.051127      -327.9278
  11   2.0000     -12.050993      -327.9242
  12   2.0000     -12.049766      -327.8908
  13   2.0000     -12.049668      -327.8881
  14   2.0000      -1.411292       -38.4032
  15   2.0000      -1.379144       -37.5284
  16   2.0000      -1.329371       -36.1740
  17   2.0000      -1.315003       -35.7830
  18   2.0000      -1.281258       -34.8648
  19   2.0000      -1.270458       -34.5709
  20   2.0000      -1.232231       -33.5307
  21   2.0000      -1.158281       -31.5184
  22   2.0000      -1.132346       -30.8127
  23   2.0000      -1.094762       -29.7900
  24   2.0000      -1.085779       -29.5455
  25   2.0000      -1.042453       -28.3666
  26   2.0000      -0.993109       -27.0239
  27   2.0000      -0.979045       -26.6412
  28   2.0000      -0.949665       -25.8417
  29   2.0000      -0.939438       -25.5634
  30   2.0000      -0.930566       -25.3220
  31   2.0000      -0.898305       -24.4441
  32   2.0000      -0.897664       -24.4267
  33   2.0000      -0.879999       -23.9460
  34   2.0000      -0.873319       -23.7642
  35   2.0000      -0.854541       -23.2533
  36   2.0000      -0.844933       -22.9918
  37   2.0000      -0.823025       -22.3956
  38   2.0000      -0.810238       -22.0477
  39   2.0000      -0.808455       -21.9992
  40   2.0000      -0.785612       -21.3776
  41   2.0000      -0.766777       -20.8651
  42   2.0000      -0.700426       -19.0596
  43   2.0000      -0.699381       -19.0311
  44   2.0000      -0.648669       -17.6512
  45   2.0000      -0.625647       -17.0247
  46   2.0000      -0.574396       -15.6301
  47   0.0000      -0.313510        -8.5311
  48   0.0000      -0.270241        -7.3536
  49   0.0000      -0.231690        -6.3046
  50   0.0000      -0.184969        -5.0333
  51   0.0000      -0.169445        -4.6108

MULLIKEN ATOMIC CHARGES
-----------------------
   0 C :   -0.144208
   1 C :   -0.143623
   2 C :   -0.273099
   3 C :    0.179044
   4 C :   -0.328488
   5 C :    0.179462
   6 C :   -0.273849
   7 C :   -0.143128
   8 C :   -0.144362
   9 C :   -0.272971
  10 C :    0.178837
  11 C :   -0.328003
  12 C :    0.178821
  13 C :   -0.273066
  14 H :    0.162464
  15 H :    0.162554
  16 H :    0.160097
  17 H :    0.159080
  18 H :    0.159987
  19 H :    0.162668
  20 H :    0.162422
  21 H :    0.160152
  22 H :    0.159087
  23 H :    0.160123
Sum of atomic charges:    0.0000000

LOEWDIN ATOMIC CHARGES
----------------------
   0 C :   -0.147774
   1 C :   -0.147771
   2 C :   -0.106686
   3 C :   -0.103403
   4 C :   -0.062549
   5 C :   -0.103403
   6 C :   -0.106685
   7 C :   -0.147773
   8 C :   -0.147774
   9 C :   -0.106683
  10 C :   -0.103406
  11 C :   -0.062546
  12 C :   -0.103405
  13 C :   -0.106684
  14 H :    0.151974
  15 H :    0.151974
  16 H :    0.156490
  17 H :    0.161342
  18 H :    0.156490
  19 H :    0.151974
  20 H :    0.151974
  21 H :    0.156491
  22 H :    0.161342
  23 H :    0.156490

  Mayer bond orders larger than 0.100000
B(  0-C ,  1-C ) :   1.1855 B(  0-C , 13-C ) :   1.6167 B(  0-C , 14-H ) :   0.9783
B(  1-C ,  2-C ) :   1.6167 B(  1-C , 15-H ) :   0.9781 B(  2-C ,  3-C ) :   1.1357
B(  2-C , 16-H ) :   0.9905 B(  3-C ,  4-C ) :   1.3165 B(  3-C , 12-C ) :   1.1815
B(  4-C ,  5-C ) :   1.3162 B(  4-C , 17-H ) :   0.9942 B(  5-C ,  6-C ) :   1.1354
B(  5-C , 10-C ) :   1.1814 B(  6-C ,  7-C ) :   1.6169 B(  6-C , 18-H ) :   0.9909
B(  7-C ,  8-C ) :   1.1853 B(  7-C , 19-H ) :   0.9780 B(  8-C ,  9-C ) :   1.6167
B(  8-C , 20-H ) :   0.9784 B(  9-C , 10-C ) :   1.1360 B(  9-C , 21-H ) :   0.9904
B( 10-C , 11-C ) :   1.3164 B( 11-C , 12-C ) :   1.3165 B( 11-C , 22-H ) :   0.9942
B( 12-C , 13-C ) :   1.1360 B( 13-C , 23-H ) :   0.9903

FINAL SINGLE POINT ENERGY      -539.551459723771

DIPOLE MOMENT
-------------

Method             : SCF
Type of density    : Electron Density
Multiplicity       :   1
Irrep              :   0
Energy             :  -539.5630977745707924 Eh
Relativity type    :
Basis              : AO
                                X                 Y                 Z
Electronic contribution:      0.000020225      -0.000012851       0.001117013
Nuclear contribution   :     -0.000011178       0.000024315      -0.001402367
                        -----------------------------------------
Total Dipole Moment    :      0.000009047       0.000011465      -0.000285353
                        -----------------------------------------
Magnitude (a.u.)       :      0.000285727
Magnitude (Debye)      :      0.000726260

Rotational constants in cm-1:             0.071598             0.015142             0.012499
Rotational constants in MHz :          2146.459843           453.960446           374.711691

                             ****ORCA TERMINATED NORMALLY****
TOTAL RUN TIME: 0 days 0 hours 7 minutes 3 seconds 87 msec
