                         Program Version 6.0.0  -   RELEASE  -
|  1> ! r2scan-3c def2/J RI DEFGRID2 scfconv6 printgap
|  2> %output
|  3>     printlevel normal
|  4> end
|  5> * xyz 0 1
|  6> C 0.6690067056 1.0047e-05 0.0009018726
|  7> C -0.6689927739 2.02905e-05 0.0006720158
|  8> Cl -1.5769474851 1.4518270827 -4.89021e-05
|  9> Cl -1.5769187987 -1.4517990324 -0.0002011825
| 10> Cl 1.5768795904 -1.4518461435 -6.54157e-05
| 11> Cl 1.5769819737 1.4518078154 -0.0002177012
| 12> *
| 13>
| 14>                          ****END OF INPUT****

CARTESIAN COORDINATES (ANGSTROEM)
---------------------------------
  C      0.669007    0.000010    0.000902
  C     -0.668993    0.000020    0.000672
  Cl    -1.576947    1.451827   -0.000049
  Cl    -1.576919   -1.451799   -0.000201
  Cl     1.576880   -1.451846   -0.000065
  Cl     1.576982    1.451808   -0.000218

 Total Charge           Charge          ....    0
 Multiplicity           Mult            ....    1
 Number of Electrons    NEL             ....   80
 Basis Dimension        Dim             ....  146

ORBITAL ENERGIES
----------------

  NO   OCC          E(Eh)            E(eV)
   0   2.0000    -101.255057     -2755.2902
   1   2.0000    -101.255053     -2755.2901
   2   2.0000    -101.255052     -2755.2900
   3   2.0000    -101.255045     -2755.2899
   4   2.0000     -10.177333      -276.9393
   5   2.0000     -10.176642      -276.9205
   6   2.0000      -9.410665      -256.0772
   7   2.0000      -9.410660      -256.0771
   8   2.0000      -9.410660      -256.0771
   9   2.0000      -9.410651      -256.0768
  10   2.0000      -7.157544      -194.7667
  11   2.0000      -7.157543      -194.7667
  12   2.0000      -7.157542      -194.7666
  13   2.0000      -7.157542      -194.7666
  14   2.0000      -7.146640      -194.4700
  15   2.0000      -7.146639      -194.4699
  16   2.0000      -7.146638      -194.4699
  17   2.0000      -7.146638      -194.4699
  18   2.0000      -7.146105      -194.4554
  19   2.0000      -7.146104      -194.4554
  20   2.0000      -7.146102      -194.4553
  21   2.0000      -7.146102      -194.4553
  22   2.0000      -0.935552       -25.4577
  23   2.0000      -0.879161       -23.9232
  24   2.0000      -0.836682       -22.7673
  25   2.0000      -0.812301       -22.1038
  26   2.0000      -0.704655       -19.1746
  27   2.0000      -0.547013       -14.8850
  28   2.0000      -0.492754       -13.4085
  29   2.0000      -0.491144       -13.3647
  30   2.0000      -0.430695       -11.7198
  31   2.0000      -0.425131       -11.5684
  32   2.0000      -0.363751        -9.8982
  33   2.0000      -0.341868        -9.3027
  34   2.0000      -0.329987        -8.9794
  35   2.0000      -0.329079        -8.9547
  36   2.0000      -0.324016        -8.8169
  37   2.0000      -0.317403        -8.6370
  38   2.0000      -0.287782        -7.8310
  39   2.0000      -0.235524        -6.4089
  40   0.0000      -0.065590        -1.7848
  41   0.0000      -0.042682        -1.1614
  42   0.0000      -0.038102        -1.0368
  43   0.0000      -0.028470        -0.7747
  44   0.0000       0.088405         2.4056

MULLIKEN ATOMIC CHARGES
-----------------------
   0 C :    0.077399
   1 C :    0.077400
   2 Cl:   -0.038700
   3 Cl:   -0.038699
   4 Cl:   -0.038701
   5 Cl:   -0.038699
Sum of atomic charges:   -0.0000000

LOEWDIN ATOMIC CHARGES
----------------------
   0 C :   -0.354931
   1 C :   -0.354933
   2 Cl:    0.177466
   3 Cl:    0.177467
   4 Cl:    0.177465
   5 Cl:    0.177467

  Mayer bond orders larger than 0.100000
B(  0-C ,  1-C ) :   1.5729 B(  0-C ,  4-Cl) :   1.0832 B(  0-C ,  5-Cl) :   1.0833
B(  1-C ,  2-Cl) :   1.0833 B(  1-C ,  3-Cl) :   1.0833

Dispersion correction           -0.002767380
FINAL SINGLE POINT ENERGY     -1916.864835071171

DIPOLE MOMENT
-------------

Method             : SCF
Type of density    : Electron Density
Multiplicity       :   1
Irrep              :   0
Energy             : -1916.8683830527688770 Eh
Relativity type    :
Basis              : AO
                                X                 Y                 Z
Electronic contribution:     -0.000007422      -0.000006706      -0.000989116
Nuclear contribution   :      0.000006335       0.000013795       0.000715679
                        -----------------------------------------
Total Dipole Moment    :     -0.000001087       0.000007089      -0.000273437
                        -----------------------------------------
Magnitude (a.u.)       :      0.000273531
Magnitude (Debye)      :      0.000695260

Rotational constants in cm-1:             0.056397             0.046389             0.025453
Rotational constants in MHz :          1690.748591          1390.707989           763.060469

                             ****ORCA TERMINATED NORMALLY****
TOTAL RUN TIME: 0 days 0 hours 0 minutes 11 seconds 850 msec
