                         Program Version 6.0.0  -   RELEASE  -
|  1> ! r2scan-3c def2/J RI DEFGRID2 scfconv6 printgap
|  2> %output
|  3>     printlevel normal
|  4> end
|  5> %cpcm
|  6>     smd true
|  7>     smdsolvent "water"
|  8> end
|  9> * xyz 0 1
| 10> C 0.6690067056 1.0047e-05 0.0009018726
| 11> C -0.6689927739 2.02905e-05 0.0006720158
| 12> Cl -1.5769474851 1.4518270827 -4.89021e-05
| 13> Cl -1.5769187987 -1.4517990324 -0.0002011825
| 14> Cl 1.5768795904 -1.4518461435 -6.54157e-05
| 15> Cl 1.5769819737 1.4518078154 -0.0002177012
| 16> *
| 17>
| 18>                          ****END OF INPUT****

CARTESIAN COORDINATES (ANGSTROEM)
---------------------------------
  C      0.669007    0.000010    0.000902
  C     -0.668993    0.000020    0.000672
  Cl    -1.576947    1.451827   -0.000049
  Cl    -1.576919   -1.451799   -0.000201
  Cl     1.576880   -1.451846   -0.000065
  Cl     1.576982    1.451808   -0.000218

 Total Charge           Charge          ....    0
 Multiplicity           Mult            ....    1
 Number of Electrons    NEL             ....   80
 Basis Dimension        Dim             ....  146

ORBITAL ENERGIES
----------------

  NO   OCC          E(Eh)            E(eV)
   0   2.0000    -101.254624     -2755.2784
   1   2.0000    -101.254620     -2755.2783
   2   2.0000    -101.254619     -2755.2783
   3   2.0000    -101.254612     -2755.2781
   4   2.0000     -10.176225      -276.9092
   5   2.0000     -10.175533      -276.8903
   6   2.0000      -9.410228      -256.0653
   7   2.0000      -9.410223      -256.0652
   8   2.0000      -9.410222      -256.0652
   9   2.0000      -9.410214      -256.0649
  10   2.0000      -7.157080      -194.7541
  11   2.0000      -7.157079      -194.7540
  12   2.0000      -7.157078      -194.7540
  13   2.0000      -7.157078      -194.7540
  14   2.0000      -7.146202      -194.4580
  15   2.0000      -7.146201      -194.4580
  16   2.0000      -7.146200      -194.4580
  17   2.0000      -7.146200      -194.4580
  18   2.0000      -7.145695      -194.4442
  19   2.0000      -7.145694      -194.4442
  20   2.0000      -7.145693      -194.4442
  21   2.0000      -7.145692      -194.4442
  22   2.0000      -0.934691       -25.4342
  23   2.0000      -0.878592       -23.9077
  24   2.0000      -0.836153       -22.7529
  25   2.0000      -0.811810       -22.0905
  26   2.0000      -0.703608       -19.1461
  27   2.0000      -0.546162       -14.8618
  28   2.0000      -0.491839       -13.3836
  29   2.0000      -0.490354       -13.3432
  30   2.0000      -0.429435       -11.6855
  31   2.0000      -0.424218       -11.5436
  32   2.0000      -0.363215        -9.8836
  33   2.0000      -0.341690        -9.2979
  34   2.0000      -0.329973        -8.9790
  35   2.0000      -0.328779        -8.9465
  36   2.0000      -0.323944        -8.8150
  37   2.0000      -0.317105        -8.6289
  38   2.0000      -0.287680        -7.8282
  39   2.0000      -0.234506        -6.3812
  40   0.0000      -0.064244        -1.7482
  41   0.0000      -0.041479        -1.1287
  42   0.0000      -0.036849        -1.0027
  43   0.0000      -0.027351        -0.7443
  44   0.0000       0.090073         2.4510

MULLIKEN ATOMIC CHARGES
-----------------------
   0 C :    0.084556
   1 C :    0.084556
   2 Cl:   -0.042278
   3 Cl:   -0.042277
   4 Cl:   -0.042280
   5 Cl:   -0.042277
Sum of atomic charges:   -0.0000000

LOEWDIN ATOMIC CHARGES
----------------------
   0 C :   -0.352176
   1 C :   -0.352177
   2 Cl:    0.176088
   3 Cl:    0.176089
   4 Cl:    0.176087
   5 Cl:    0.176089

  Mayer bond orders larger than 0.100000
B(  0-C ,  1-C ) :   1.5775 B(  0-C ,  4-Cl) :   1.0824 B(  0-C ,  5-Cl) :   1.0824
B(  1-C ,  2-Cl) :   1.0824 B(  1-C ,  3-Cl) :   1.0824

Dispersion correction           -0.002767380
FINAL SINGLE POINT ENERGY     -1916.861892497727

DIPOLE MOMENT
-------------

Method             : SCF
Type of density    : Electron Density
Multiplicity       :   1
Irrep              :   0
Energy             : -1916.8654404793253434 Eh
Relativity type    :
Basis              : AO
                                X                 Y                 Z
Electronic contribution:     -0.000007046      -0.000004787      -0.000996716
Nuclear contribution   :      0.000006335       0.000013795       0.000715679
                        -----------------------------------------
Total Dipole Moment    :     -0.000000711       0.000009008      -0.000281037
                        -----------------------------------------
Magnitude (a.u.)       :      0.000281182
Magnitude (Debye)      :      0.000714709

Rotational constants in cm-1:             0.056397             0.046389             0.025453
Rotational constants in MHz :          1690.748591          1390.707989           763.060469

                             ****ORCA TERMINATED NORMALLY****
TOTAL RUN TIME: 0 days 0 hours 0 minutes 13 seconds 611 msec
