                         Program Version 6.0.0  -   RELEASE  -
|  1> ! pbe def2-sv(p) def2/J RI DEFGRID1 loosescf d4 GCP(DFT/SV(P)) printgap
|  2> %output
|  3>     printlevel normal
|  4> end
|  5> * xyz 0 1
|  6> C -3.2617731681 -0.4502058469 -0.8526565672
|  7> C -1.7673493595 -0.2853950346 -0.5853861815
|  8> H -1.2617608786 -0.2013232189 -1.5529101864
|  9> C -1.2050057403 -1.49604665 0.1791195288
| 10> C -0.1505105274 -1.1025171724 1.216487514
| 11> C 0.7773304694 0.0114810785 0.7288636638
| 12> H 1.4892891479 0.2649797034 1.5230876703
| 13> C -0.0457399253 1.2478250536 0.4476999904
| 14> O 0.4305270167 2.3694147568 0.4486092509
| 15> C -1.5064503111 1.0116720392 0.1834340057
| 16> C 1.6214413299 -0.3533914609 -0.5216926329
| 17> C 2.6735135176 0.7229098213 -0.7840876954
| 18> C 2.3178433214 -1.7030502834 -0.3505124383
| 19> H -3.6408989377 0.3837569622 -1.4384961975
| 20> H -3.4452099913 -1.3686256457 -1.4045515565
| 21> H -3.8140587106 -0.4923315153 0.083322608
| 22> H -2.0177598837 -2.0093655538 0.6954017933
| 23> H -0.7798404125 -2.2020922861 -0.5345573131
| 24> H -0.6470619801 -0.7456247797 2.1212895519
| 25> H 0.4330080163 -1.9772785661 1.4994251855
| 26> H -2.0050057562 0.9659078561 1.1557927674
| 27> H -1.9110162102 1.8747924635 -0.3488416052
| 28> H 0.9592085935 -0.4085254634 -1.3905532638
| 29> H 3.1840328448 0.5294412108 -1.7244300715
| 30> H 3.4122885198 0.7304293431 0.014711806
| 31> H 2.2232738675 1.7113119628 -0.8362186297
| 32> H 2.8944854073 -1.7184343346 0.5713354021
| 33> H 2.9995965733 -1.8635879608 -1.1821813907
| 34> H 1.6081962118 -2.5241585138 -0.3362411715
| 35> *
| 36>
| 37>                          ****END OF INPUT****

CARTESIAN COORDINATES (ANGSTROEM)
---------------------------------
  C     -3.261773   -0.450206   -0.852657
  C     -1.767349   -0.285395   -0.585386
  H     -1.261761   -0.201323   -1.552910
  C     -1.205006   -1.496047    0.179120
  C     -0.150511   -1.102517    1.216488
  C      0.777330    0.011481    0.728864
  H      1.489289    0.264980    1.523088
  C     -0.045740    1.247825    0.447700
  O      0.430527    2.369415    0.448609
  C     -1.506450    1.011672    0.183434
  C      1.621441   -0.353391   -0.521693
  C      2.673514    0.722910   -0.784088
  C      2.317843   -1.703050   -0.350512
  H     -3.640899    0.383757   -1.438496
  H     -3.445210   -1.368626   -1.404552
  H     -3.814059   -0.492332    0.083323
  H     -2.017760   -2.009366    0.695402
  H     -0.779840   -2.202092   -0.534557
  H     -0.647062   -0.745625    2.121290
  H      0.433008   -1.977279    1.499425
  H     -2.005006    0.965908    1.155793
  H     -1.911016    1.874792   -0.348842
  H      0.959209   -0.408525   -1.390553
  H      3.184033    0.529441   -1.724430
  H      3.412289    0.730429    0.014712
  H      2.223274    1.711312   -0.836219
  H      2.894485   -1.718434    0.571335
  H      2.999597   -1.863588   -1.182181
  H      1.608196   -2.524159   -0.336241

 Total Charge           Charge          ....    0
 Multiplicity           Mult            ....    1
 Number of Electrons    NEL             ....   86
 Basis Dimension        Dim             ....  190

ORBITAL ENERGIES
----------------

  NO   OCC          E(Eh)            E(eV)
   0   2.0000     -18.729897      -509.6664
   1   2.0000      -9.966338      -271.1979
   2   2.0000      -9.906122      -269.5593
   3   2.0000      -9.905807      -269.5507
   4   2.0000      -9.897744      -269.3313
   5   2.0000      -9.891615      -269.1645
   6   2.0000      -9.890851      -269.1437
   7   2.0000      -9.889306      -269.1017
   8   2.0000      -9.880151      -268.8526
   9   2.0000      -9.878381      -268.8044
  10   2.0000      -9.865096      -268.4429
  11   2.0000      -0.928277       -25.2597
  12   2.0000      -0.769882       -20.9496
  13   2.0000      -0.729340       -19.8464
  14   2.0000      -0.678898       -18.4738
  15   2.0000      -0.654985       -17.8231
  16   2.0000      -0.617044       -16.7906
  17   2.0000      -0.607527       -16.5316
  18   2.0000      -0.559602       -15.2276
  19   2.0000      -0.510279       -13.8854
  20   2.0000      -0.508491       -13.8368
  21   2.0000      -0.470496       -12.8029
  22   2.0000      -0.447848       -12.1866
  23   2.0000      -0.417470       -11.3599
  24   2.0000      -0.411936       -11.2093
  25   2.0000      -0.402101       -10.9417
  26   2.0000      -0.386829       -10.5262
  27   2.0000      -0.373801       -10.1717
  28   2.0000      -0.369387       -10.0515
  29   2.0000      -0.354254        -9.6397
  30   2.0000      -0.346865        -9.4387
  31   2.0000      -0.342008        -9.3065
  32   2.0000      -0.340404        -9.2629
  33   2.0000      -0.329511        -8.9664
  34   2.0000      -0.328031        -8.9262
  35   2.0000      -0.312680        -8.5084
  36   2.0000      -0.303297        -8.2531
  37   2.0000      -0.297914        -8.1067
  38   2.0000      -0.290351        -7.9008
  39   2.0000      -0.279802        -7.6138
  40   2.0000      -0.274234        -7.4623
  41   2.0000      -0.268261        -7.2998
  42   2.0000      -0.184823        -5.0293
  43   0.0000      -0.049507        -1.3472
  44   0.0000       0.020780         0.5655
  45   0.0000       0.037029         1.0076
  46   0.0000       0.049395         1.3441
  47   0.0000       0.067845         1.8461

MULLIKEN ATOMIC CHARGES
-----------------------
   0 C :   -0.216929
   1 C :   -0.225453
   2 H :    0.086788
   3 C :   -0.123591
   4 C :   -0.087300
   5 C :   -0.137279
   6 H :    0.074516
   7 C :    0.023230
   8 O :   -0.167475
   9 C :   -0.076557
  10 C :   -0.197602
  11 C :   -0.243075
  12 C :   -0.229522
  13 H :    0.100160
  14 H :    0.104343
  15 H :    0.094050
  16 H :    0.078007
  17 H :    0.087203
  18 H :    0.076408
  19 H :    0.091029
  20 H :    0.097576
  21 H :    0.092120
  22 H :    0.080530
  23 H :    0.094502
  24 H :    0.090751
  25 H :    0.126953
  26 H :    0.096918
  27 H :    0.102532
  28 H :    0.107168
Sum of atomic charges:   -0.0000000

LOEWDIN ATOMIC CHARGES
----------------------
   0 C :   -0.326142
   1 C :   -0.152460
   2 H :    0.117648
   3 C :   -0.220535
   4 C :   -0.219566
   5 C :   -0.158442
   6 H :    0.133042
   7 C :    0.055867
   8 O :   -0.131768
   9 C :   -0.236723
  10 C :   -0.140389
  11 C :   -0.335124
  12 C :   -0.328420
  13 H :    0.119036
  14 H :    0.119848
  15 H :    0.116610
  16 H :    0.120409
  17 H :    0.119407
  18 H :    0.119090
  19 H :    0.121877
  20 H :    0.141712
  21 H :    0.132025
  22 H :    0.115631
  23 H :    0.115829
  24 H :    0.117199
  25 H :    0.126531
  26 H :    0.119592
  27 H :    0.121979
  28 H :    0.116236

  Mayer bond orders larger than 0.100000
B(  0-C ,  1-C ) :   1.1171 B(  0-C , 13-H ) :   0.9476 B(  0-C , 14-H ) :   0.9504
B(  0-C , 15-H ) :   0.9438 B(  1-C ,  2-H ) :   0.8869 B(  1-C ,  3-C ) :   1.0788
B(  1-C ,  9-C ) :   1.1237 B(  3-C ,  4-C ) :   1.1654 B(  3-C , 16-H ) :   0.9086
B(  3-C , 17-H ) :   0.9035 B(  4-C ,  5-C ) :   1.1106 B(  4-C , 18-H ) :   0.8942
B(  4-C , 19-H ) :   0.8970 B(  5-C ,  6-H ) :   0.8591 B(  5-C ,  7-C ) :   0.9400
B(  5-C , 10-C ) :   1.0230 B(  7-C ,  8-O ) :   2.1448 B(  7-C ,  9-C ) :   1.0574
B(  9-C , 20-H ) :   0.8564 B(  9-C , 21-H ) :   0.8950 B( 10-C , 11-C ) :   1.1197
B( 10-C , 12-C ) :   1.1231 B( 10-C , 22-H ) :   0.8862 B( 11-C , 23-H ) :   0.9449
B( 11-C , 24-H ) :   0.9482 B( 11-C , 25-H ) :   0.9300 B( 12-C , 26-H ) :   0.9441
B( 12-C , 27-H ) :   0.9460 B( 12-C , 28-H ) :   0.9332

Dispersion correction           -0.030663025
FINAL SINGLE POINT ENERGY      -466.028938971562

DIPOLE MOMENT
-------------

Method             : SCF
Type of density    : Electron Density
Multiplicity       :   1
Irrep              :   0
Energy             :  -466.1255283771381528 Eh
Relativity type    :
Basis              : AO
                                X                 Y                 Z
Electronic contribution:     -0.101397466       7.455269660       2.816673572
Nuclear contribution   :     -0.293107855      -8.455934874      -2.887224596
                        -----------------------------------------
Total Dipole Moment    :     -0.394505321      -1.000665214      -0.070551023
                        -----------------------------------------
Magnitude (a.u.)       :      1.077934491
Magnitude (Debye)      :      2.739891733

Rotational constants in cm-1:             0.051734             0.028683             0.022357
Rotational constants in MHz :          1550.946623           859.881416           670.235169

                             ****ORCA TERMINATED NORMALLY****
TOTAL RUN TIME: 0 days 0 hours 0 minutes 13 seconds 858 msec
