                         Program Version 6.0.0  -   RELEASE  -
|  1> ! wb97x-v def2-tzvp def2/J RIJCOSX DEFGRID2 scfconv7 GCP(DFT/TZ) printgap
|  2> %output
|  3>     printlevel normal
|  4> end
|  5> * xyz 0 1
|  6> C 0.7263816775206788 -1.200967062236457 -0.21802079342535624
|  7> C -0.7265312093495631 -1.2008666510477117 0.21798515462934093
|  8> N -1.4053729644737811 8.345820475535336e-05 -0.30294410429660734
|  9> C -0.7263405944774144 1.2009085491288323 0.21802364967947016
| 10> C 0.726566242808231 1.2007935696430418 -0.2179992921411952
| 11> N 1.4053986090440376 -0.00014333628830705646 0.3029641851929546
| 12> H 0.769436191852473 -1.2528342129841368 -1.3207001866263854
| 13> H 1.2233869347346082 -2.094085073209902 0.17507775326804803
| 14> H -1.2236728115900806 -2.0938893142238313 -0.17515873917659755
| 15> H -0.7695917038011046 -1.252783349096034 1.320661212484388
| 16> H -2.352350977921966 0.00015189726872218436 0.0639164389758422
| 17> H -1.223349243226574 2.0940240599466002 -0.17507684965140907
| 18> H -0.7693774245455105 1.2527871806629434 1.320702671556041
| 19> H 0.7696130604374587 1.252664854237354 -1.3206790409500933
| 20> H 1.2237173964000407 2.0938293588148684 0.17510112581450066
| 21> H 2.3523960370224266 -0.0002140888199299166 -0.06384695998873861
| 22> *
| 23>
| 24>                          ****END OF INPUT****

CARTESIAN COORDINATES (ANGSTROEM)
---------------------------------
  C      0.726382   -1.200967   -0.218021
  C     -0.726531   -1.200867    0.217985
  N     -1.405373    0.000083   -0.302944
  C     -0.726341    1.200909    0.218024
  C      0.726566    1.200794   -0.217999
  N      1.405399   -0.000143    0.302964
  H      0.769436   -1.252834   -1.320700
  H      1.223387   -2.094085    0.175078
  H     -1.223673   -2.093889   -0.175159
  H     -0.769592   -1.252783    1.320661
  H     -2.352351    0.000152    0.063916
  H     -1.223349    2.094024   -0.175077
  H     -0.769377    1.252787    1.320703
  H      0.769613    1.252665   -1.320679
  H      1.223717    2.093829    0.175101
  H      2.352396   -0.000214   -0.063847

 Total Charge           Charge          ....    0
 Multiplicity           Mult            ....    1
 Number of Electrons    NEL             ....   48
 Basis Dimension        Dim             ....  246

ORBITAL ENERGIES
----------------

  NO   OCC          E(Eh)            E(eV)
   0   2.0000     -16.509179      -449.2376
   1   2.0000     -16.509025      -449.2334
   2   2.0000     -12.063471      -328.2637
   3   2.0000     -12.063122      -328.2542
   4   2.0000     -12.062085      -328.2260
   5   2.0000     -12.062046      -328.2250
   6   2.0000      -1.482012       -40.3276
   7   2.0000      -1.444162       -39.2977
   8   2.0000      -1.271831       -34.6083
   9   2.0000      -1.191586       -32.4247
  10   2.0000      -1.131649       -30.7937
  11   2.0000      -1.033375       -28.1196
  12   2.0000      -0.982990       -26.7485
  13   2.0000      -0.945922       -25.7398
  14   2.0000      -0.920805       -25.0564
  15   2.0000      -0.903379       -24.5822
  16   2.0000      -0.880439       -23.9580
  17   2.0000      -0.859754       -23.3951
  18   2.0000      -0.831031       -22.6135
  19   2.0000      -0.796483       -21.6734
  20   2.0000      -0.790451       -21.5093
  21   2.0000      -0.781678       -21.2705
  22   2.0000      -0.718642       -19.5552
  23   2.0000      -0.688022       -18.7220
  24   0.0000      -0.107208        -2.9173
  25   0.0000      -0.058710        -1.5976
  26   0.0000      -0.053900        -1.4667
  27   0.0000      -0.033854        -0.9212
  28   0.0000      -0.030309        -0.8247

MULLIKEN ATOMIC CHARGES
-----------------------
   0 C :   -0.111808
   1 C :   -0.111812
   2 N :   -0.319453
   3 C :   -0.111805
   4 C :   -0.111799
   5 N :   -0.319449
   6 H :    0.081674
   7 H :    0.097773
   8 H :    0.097772
   9 H :    0.081671
  10 H :    0.184180
  11 H :    0.097772
  12 H :    0.081671
  13 H :    0.081669
  14 H :    0.097770
  15 H :    0.184174
Sum of atomic charges:   -0.0000000

LOEWDIN ATOMIC CHARGES
----------------------
   0 C :   -0.307661
   1 C :   -0.307660
   2 N :   -0.030708
   3 C :   -0.307661
   4 C :   -0.307661
   5 N :   -0.030706
   6 H :    0.117053
   7 H :    0.125904
   8 H :    0.125904
   9 H :    0.117052
  10 H :    0.160115
  11 H :    0.125904
  12 H :    0.117053
  13 H :    0.117053
  14 H :    0.125904
  15 H :    0.160115

  Mayer bond orders larger than 0.100000
B(  0-C ,  1-C ) :   1.0203 B(  0-C ,  5-N ) :   1.0115 B(  0-C ,  6-H ) :   0.9743
B(  0-C ,  7-H ) :   0.9644 B(  1-C ,  2-N ) :   1.0115 B(  1-C ,  8-H ) :   0.9644
B(  1-C ,  9-H ) :   0.9743 B(  2-N ,  3-C ) :   1.0115 B(  2-N , 10-H ) :   0.9409
B(  3-C ,  4-C ) :   1.0203 B(  3-C , 11-H ) :   0.9644 B(  3-C , 12-H ) :   0.9743
B(  4-C ,  5-N ) :   1.0115 B(  4-C , 13-H ) :   0.9743 B(  4-C , 14-H ) :   0.9644
B(  5-N , 15-H ) :   0.9409

FINAL SINGLE POINT ENERGY      -267.945885740939

DIPOLE MOMENT
-------------

Method             : SCF
Type of density    : Electron Density
Multiplicity       :   1
Irrep              :   0
Energy             :  -267.9571829889387686 Eh
Relativity type    :
Basis              : AO
                                X                 Y                 Z
Electronic contribution:     -0.000006035       0.000020976       0.000028972
Nuclear contribution   :      0.000033112      -0.000025326      -0.000017917
                        -----------------------------------------
Total Dipole Moment    :      0.000027076      -0.000004350       0.000011055
                        -----------------------------------------
Magnitude (a.u.)       :      0.000029568
Magnitude (Debye)      :      0.000075156

Rotational constants in cm-1:             0.160085             0.150134             0.087091
Rotational constants in MHz :          4799.228386          4500.914120          2610.919591

                             ****ORCA TERMINATED NORMALLY****
TOTAL RUN TIME: 0 days 0 hours 1 minutes 11 seconds 113 msec
