                         Program Version 6.0.0  -   RELEASE  -
|  1> ! wb97x-v def2-tzvp def2/J RIJCOSX DEFGRID2 scfconv7 GCP(DFT/TZ) printgap
|  2> %output
|  3>     printlevel normal
|  4> end
|  5> %cpcm
|  6>     smd true
|  7>     smdsolvent "water"
|  8> end
|  9> * xyz 0 1
| 10> C 0.7263816775206788 -1.200967062236457 -0.21802079342535624
| 11> C -0.7265312093495631 -1.2008666510477117 0.21798515462934093
| 12> N -1.4053729644737811 8.345820475535336e-05 -0.30294410429660734
| 13> C -0.7263405944774144 1.2009085491288323 0.21802364967947016
| 14> C 0.726566242808231 1.2007935696430418 -0.2179992921411952
| 15> N 1.4053986090440376 -0.00014333628830705646 0.3029641851929546
| 16> H 0.769436191852473 -1.2528342129841368 -1.3207001866263854
| 17> H 1.2233869347346082 -2.094085073209902 0.17507775326804803
| 18> H -1.2236728115900806 -2.0938893142238313 -0.17515873917659755
| 19> H -0.7695917038011046 -1.252783349096034 1.320661212484388
| 20> H -2.352350977921966 0.00015189726872218436 0.0639164389758422
| 21> H -1.223349243226574 2.0940240599466002 -0.17507684965140907
| 22> H -0.7693774245455105 1.2527871806629434 1.320702671556041
| 23> H 0.7696130604374587 1.252664854237354 -1.3206790409500933
| 24> H 1.2237173964000407 2.0938293588148684 0.17510112581450066
| 25> H 2.3523960370224266 -0.0002140888199299166 -0.06384695998873861
| 26> *
| 27>
| 28>                          ****END OF INPUT****

CARTESIAN COORDINATES (ANGSTROEM)
---------------------------------
  C      0.726382   -1.200967   -0.218021
  C     -0.726531   -1.200867    0.217985
  N     -1.405373    0.000083   -0.302944
  C     -0.726341    1.200909    0.218024
  C      0.726566    1.200794   -0.217999
  N      1.405399   -0.000143    0.302964
  H      0.769436   -1.252834   -1.320700
  H      1.223387   -2.094085    0.175078
  H     -1.223673   -2.093889   -0.175159
  H     -0.769592   -1.252783    1.320661
  H     -2.352351    0.000152    0.063916
  H     -1.223349    2.094024   -0.175077
  H     -0.769377    1.252787    1.320703
  H      0.769613    1.252665   -1.320679
  H      1.223717    2.093829    0.175101
  H      2.352396   -0.000214   -0.063847

 Total Charge           Charge          ....    0
 Multiplicity           Mult            ....    1
 Number of Electrons    NEL             ....   48
 Basis Dimension        Dim             ....  246

ORBITAL ENERGIES
----------------

  NO   OCC          E(Eh)            E(eV)
   0   2.0000     -16.506176      -449.1559
   1   2.0000     -16.506022      -449.1517
   2   2.0000     -12.056958      -328.0865
   3   2.0000     -12.056616      -328.0772
   4   2.0000     -12.055581      -328.0490
   5   2.0000     -12.055545      -328.0481
   6   2.0000      -1.478015       -40.2188
   7   2.0000      -1.440138       -39.1881
   8   2.0000      -1.266345       -34.4590
   9   2.0000      -1.186111       -32.2757
  10   2.0000      -1.126216       -30.6459
  11   2.0000      -1.027659       -27.9640
  12   2.0000      -0.977718       -26.6051
  13   2.0000      -0.941901       -25.6304
  14   2.0000      -0.916384       -24.9361
  15   2.0000      -0.898595       -24.4520
  16   2.0000      -0.874725       -23.8025
  17   2.0000      -0.855845       -23.2887
  18   2.0000      -0.824473       -22.4351
  19   2.0000      -0.790583       -21.5129
  20   2.0000      -0.784136       -21.3374
  21   2.0000      -0.775481       -21.1019
  22   2.0000      -0.717335       -19.5197
  23   2.0000      -0.685344       -18.6491
  24   0.0000      -0.101229        -2.7546
  25   0.0000      -0.054224        -1.4755
  26   0.0000      -0.046890        -1.2760
  27   0.0000      -0.028607        -0.7784
  28   0.0000      -0.020924        -0.5694

MULLIKEN ATOMIC CHARGES
-----------------------
   0 C :   -0.130336
   1 C :   -0.130342
   2 N :   -0.390774
   3 C :   -0.130334
   4 C :   -0.130327
   5 N :   -0.390770
   6 H :    0.090208
   7 H :    0.121223
   8 H :    0.121221
   9 H :    0.090207
  10 H :    0.228588
  11 H :    0.121222
  12 H :    0.090205
  13 H :    0.090203
  14 H :    0.121221
  15 H :    0.228583
Sum of atomic charges:   -0.0000000

LOEWDIN ATOMIC CHARGES
----------------------
   0 C :   -0.309874
   1 C :   -0.309873
   2 N :   -0.051140
   3 C :   -0.309874
   4 C :   -0.309874
   5 N :   -0.051138
   6 H :    0.118673
   7 H :    0.130723
   8 H :    0.130723
   9 H :    0.118673
  10 H :    0.172094
  11 H :    0.130723
  12 H :    0.118673
  13 H :    0.118673
  14 H :    0.130723
  15 H :    0.172094

  Mayer bond orders larger than 0.100000
B(  0-C ,  1-C ) :   1.0062 B(  0-C ,  5-N ) :   0.9995 B(  0-C ,  6-H ) :   0.9770
B(  0-C ,  7-H ) :   0.9682 B(  1-C ,  2-N ) :   0.9995 B(  1-C ,  8-H ) :   0.9682
B(  1-C ,  9-H ) :   0.9770 B(  2-N ,  3-C ) :   0.9995 B(  2-N , 10-H ) :   0.9281
B(  3-C ,  4-C ) :   1.0062 B(  3-C , 11-H ) :   0.9682 B(  3-C , 12-H ) :   0.9770
B(  4-C ,  5-N ) :   0.9995 B(  4-C , 13-H ) :   0.9770 B(  4-C , 14-H ) :   0.9682
B(  5-N , 15-H ) :   0.9281

FINAL SINGLE POINT ENERGY      -267.962099350853

DIPOLE MOMENT
-------------

Method             : SCF
Type of density    : Electron Density
Multiplicity       :   1
Irrep              :   0
Energy             :  -267.9733965988526734 Eh
Relativity type    :
Basis              : AO
                                X                 Y                 Z
Electronic contribution:      0.000002955       0.000018933       0.000031736
Nuclear contribution   :      0.000033112      -0.000025326      -0.000017917
                        -----------------------------------------
Total Dipole Moment    :      0.000036067      -0.000006392       0.000013819
                        -----------------------------------------
Magnitude (a.u.)       :      0.000039149
Magnitude (Debye)      :      0.000099508

Rotational constants in cm-1:             0.160085             0.150134             0.087091
Rotational constants in MHz :          4799.228386          4500.914120          2610.919591

                             ****ORCA TERMINATED NORMALLY****
TOTAL RUN TIME: 0 days 0 hours 1 minutes 13 seconds 661 msec
