                         Program Version 6.0.0  -   RELEASE  -
|  1> ! r2scan-3c def2/J RI DEFGRID2 scfconv6 printgap
|  2> %output
|  3>     printlevel normal
|  4> end
|  5> * xyz 0 1
|  6> C -2.5495990806 -0.9001539235 0.3282754909
|  7> C -1.1204889327 -0.4320431694 0.6455512509
|  8> H -0.986145873 -0.3648780201 1.7377564056
|  9> C -0.8308160509 0.938274537 0.0134970281
| 10> H -1.0647662252 0.8896365719 -1.0555638069
| 11> C 0.6506736837 1.2926486681 0.1961849502
| 12> H 0.851229588 1.4456750416 1.2722602228
| 13> C 1.5627178858 0.1595872344 -0.2899281228
| 14> H 1.4858404805 0.0747271415 -1.3829230003
| 15> C 1.1230172148 -1.1778820459 0.3215217719
| 16> H 1.3379838742 -1.1427460661 1.4099854236
| 17> O -0.2518202386 -1.4205304372 0.1225329736
| 18> O 1.8165207377 -2.191030283 -0.3000267119
| 19> O 2.8903024013 0.3829648986 0.1039370197
| 20> O 0.9954209827 2.4565563566 -0.5166023713
| 21> O -1.6495709158 1.9539790839 0.534249382
| 22> O -2.7358626685 -1.1227695907 -1.0434751836
| 23> H -3.2553539707 -0.1177212828 0.6117470184
| 24> H -2.7587902082 -1.8119816236 0.9006818974
| 25> H 1.511627985 -3.051829456 0.0293980622
| 26> H 3.1854820085 1.2204651191 -0.2856670637
| 27> H 0.2770260408 3.1014963296 -0.4245140633
| 28> H -1.5366876134 2.0111553734 1.4951955696
| 29> H -2.0759736973 -1.7683808139 -1.3369268832
| 30> *
| 31>
| 32>                          ****END OF INPUT****

CARTESIAN COORDINATES (ANGSTROEM)
---------------------------------
  C     -2.549599   -0.900154    0.328275
  C     -1.120489   -0.432043    0.645551
  H     -0.986146   -0.364878    1.737756
  C     -0.830816    0.938275    0.013497
  H     -1.064766    0.889637   -1.055564
  C      0.650674    1.292649    0.196185
  H      0.851230    1.445675    1.272260
  C      1.562718    0.159587   -0.289928
  H      1.485840    0.074727   -1.382923
  C      1.123017   -1.177882    0.321522
  H      1.337984   -1.142746    1.409985
  O     -0.251820   -1.420530    0.122533
  O      1.816521   -2.191030   -0.300027
  O      2.890302    0.382965    0.103937
  O      0.995421    2.456556   -0.516602
  O     -1.649571    1.953979    0.534249
  O     -2.735863   -1.122770   -1.043475
  H     -3.255354   -0.117721    0.611747
  H     -2.758790   -1.811982    0.900682
  H      1.511628   -3.051829    0.029398
  H      3.185482    1.220465   -0.285667
  H      0.277026    3.101496   -0.424514
  H     -1.536688    2.011155    1.495196
  H     -2.075974   -1.768381   -1.336927

 Total Charge           Charge          ....    0
 Multiplicity           Mult            ....    1
 Number of Electrons    NEL             ....   96
 Basis Dimension        Dim             ....  318

ORBITAL ENERGIES
----------------

  NO   OCC          E(Eh)            E(eV)
   0   2.0000     -18.980575      -516.4877
   1   2.0000     -18.977933      -516.4158
   2   2.0000     -18.969433      -516.1845
   3   2.0000     -18.963268      -516.0168
   4   2.0000     -18.955690      -515.8106
   5   2.0000     -18.954035      -515.7655
   6   2.0000     -10.145531      -276.0739
   7   2.0000     -10.102939      -274.9150
   8   2.0000     -10.096175      -274.7309
   9   2.0000     -10.094863      -274.6952
  10   2.0000     -10.091622      -274.6070
  11   2.0000     -10.085908      -274.4515
  12   2.0000      -1.058795       -28.8113
  13   2.0000      -1.023556       -27.8524
  14   2.0000      -1.007167       -27.4064
  15   2.0000      -0.997793       -27.1513
  16   2.0000      -0.987667       -26.8758
  17   2.0000      -0.982301       -26.7298
  18   2.0000      -0.755480       -20.5577
  19   2.0000      -0.742112       -20.1939
  20   2.0000      -0.665723       -18.1153
  21   2.0000      -0.624323       -16.9887
  22   2.0000      -0.598631       -16.2896
  23   2.0000      -0.567257       -15.4358
  24   2.0000      -0.522616       -14.2211
  25   2.0000      -0.517893       -14.0926
  26   2.0000      -0.508074       -13.8254
  27   2.0000      -0.485459       -13.2100
  28   2.0000      -0.476515       -12.9666
  29   2.0000      -0.458362       -12.4727
  30   2.0000      -0.449488       -12.2312
  31   2.0000      -0.423451       -11.5227
  32   2.0000      -0.406868       -11.0714
  33   2.0000      -0.406005       -11.0480
  34   2.0000      -0.392258       -10.6739
  35   2.0000      -0.376027       -10.2322
  36   2.0000      -0.347332        -9.4514
  37   2.0000      -0.345104        -9.3907
  38   2.0000      -0.329803        -8.9744
  39   2.0000      -0.329645        -8.9701
  40   2.0000      -0.309654        -8.4261
  41   2.0000      -0.299370        -8.1463
  42   2.0000      -0.284450        -7.7403
  43   2.0000      -0.273237        -7.4352
  44   2.0000      -0.258365        -7.0305
  45   2.0000      -0.248172        -6.7531
  46   2.0000      -0.239757        -6.5241
  47   2.0000      -0.231563        -6.3012
  48   0.0000       0.025863         0.7038
  49   0.0000       0.041050         1.1170
  50   0.0000       0.054379         1.4797
  51   0.0000       0.065594         1.7849
  52   0.0000       0.082398         2.2422

MULLIKEN ATOMIC CHARGES
-----------------------
   0 C :   -0.219647
   1 C :    0.065765
   2 H :    0.164864
   3 C :   -0.204115
   4 H :    0.202480
   5 C :    0.035510
   6 H :    0.161197
   7 C :    0.036004
   8 H :    0.174137
   9 C :   -0.098282
  10 H :    0.140793
  11 O :   -0.221958
  12 O :   -0.378052
  13 O :   -0.421191
  14 O :   -0.435438
  15 O :   -0.417715
  16 O :   -0.423733
  17 H :    0.149358
  18 H :    0.139949
  19 H :    0.307984
  20 H :    0.314740
  21 H :    0.313087
  22 H :    0.301717
  23 H :    0.312547
Sum of atomic charges:   -0.0000000

LOEWDIN ATOMIC CHARGES
----------------------
   0 C :    0.041373
   1 C :    0.101247
   2 H :    0.178734
   3 C :    0.096502
   4 H :    0.210758
   5 C :    0.097732
   6 H :    0.178673
   7 C :    0.128224
   8 H :    0.192318
   9 C :    0.308987
  10 H :    0.180904
  11 O :   -0.690950
  12 O :   -0.477917
  13 O :   -0.555771
  14 O :   -0.580566
  15 O :   -0.578534
  16 O :   -0.587500
  17 H :    0.192282
  18 H :    0.164910
  19 H :    0.283360
  20 H :    0.283135
  21 H :    0.283144
  22 H :    0.272498
  23 H :    0.276458

  Mayer bond orders larger than 0.100000
B(  0-C ,  1-C ) :   0.9552 B(  0-C , 16-O ) :   1.0345 B(  0-C , 17-H ) :   0.9615
B(  0-C , 18-H ) :   0.9810 B(  1-C ,  2-H ) :   0.9144 B(  1-C ,  3-C ) :   0.8561
B(  1-C , 11-O ) :   0.7619 B(  1-C , 16-O ) :  -0.1251 B(  3-C ,  4-H ) :   0.9749
B(  3-C ,  5-C ) :   0.8517 B(  3-C , 15-O ) :   0.9900 B(  5-C ,  6-H ) :   0.9694
B(  5-C ,  7-C ) :   0.8488 B(  5-C , 14-O ) :   0.8912 B(  7-C ,  8-H ) :   0.9752
B(  7-C ,  9-C ) :   0.8629 B(  7-C , 13-O ) :   0.9079 B(  9-C , 10-H ) :   1.0149
B(  9-C , 11-O ) :   0.9170 B(  9-C , 12-O ) :   1.0885 B( 12-O , 19-H ) :   0.8805
B( 13-O , 20-H ) :   0.8810 B( 14-O , 21-H ) :   0.8714 B( 15-O , 22-H ) :   0.8834
B( 16-O , 23-H ) :   0.8728

Dispersion correction           -0.008063709
FINAL SINGLE POINT ENERGY      -687.074910629645

DIPOLE MOMENT
-------------

Method             : SCF
Type of density    : Electron Density
Multiplicity       :   1
Irrep              :   0
Energy             :  -687.0862935041551509 Eh
Relativity type    :
Basis              : AO
                                X                 Y                 Z
Electronic contribution:      2.537601385      -0.470571871      -1.692801728
Nuclear contribution   :     -2.825496817       0.456469165       2.771419801
                        -----------------------------------------
Total Dipole Moment    :     -0.287895431      -0.014102706       1.078618074
                        -----------------------------------------
Magnitude (a.u.)       :      1.116467472
Magnitude (Debye)      :      2.837834786

Rotational constants in cm-1:             0.038865             0.027333             0.017796
Rotational constants in MHz :          1165.144476           819.417413           533.520575

                             ****ORCA TERMINATED NORMALLY****
TOTAL RUN TIME: 0 days 0 hours 0 minutes 48 seconds 748 msec
