                         Program Version 6.0.0  -   RELEASE  -
|  1> ! r2scan-3c def2/J RI DEFGRID2 scfconv6 printgap
|  2> %output
|  3>     printlevel normal
|  4> end
|  5> %cpcm
|  6>     smd true
|  7>     smdsolvent "water"
|  8> end
|  9> * xyz 0 1
| 10> C -2.5495990806 -0.9001539235 0.3282754909
| 11> C -1.1204889327 -0.4320431694 0.6455512509
| 12> H -0.986145873 -0.3648780201 1.7377564056
| 13> C -0.8308160509 0.938274537 0.0134970281
| 14> H -1.0647662252 0.8896365719 -1.0555638069
| 15> C 0.6506736837 1.2926486681 0.1961849502
| 16> H 0.851229588 1.4456750416 1.2722602228
| 17> C 1.5627178858 0.1595872344 -0.2899281228
| 18> H 1.4858404805 0.0747271415 -1.3829230003
| 19> C 1.1230172148 -1.1778820459 0.3215217719
| 20> H 1.3379838742 -1.1427460661 1.4099854236
| 21> O -0.2518202386 -1.4205304372 0.1225329736
| 22> O 1.8165207377 -2.191030283 -0.3000267119
| 23> O 2.8903024013 0.3829648986 0.1039370197
| 24> O 0.9954209827 2.4565563566 -0.5166023713
| 25> O -1.6495709158 1.9539790839 0.534249382
| 26> O -2.7358626685 -1.1227695907 -1.0434751836
| 27> H -3.2553539707 -0.1177212828 0.6117470184
| 28> H -2.7587902082 -1.8119816236 0.9006818974
| 29> H 1.511627985 -3.051829456 0.0293980622
| 30> H 3.1854820085 1.2204651191 -0.2856670637
| 31> H 0.2770260408 3.1014963296 -0.4245140633
| 32> H -1.5366876134 2.0111553734 1.4951955696
| 33> H -2.0759736973 -1.7683808139 -1.3369268832
| 34> *
| 35>
| 36>                          ****END OF INPUT****

CARTESIAN COORDINATES (ANGSTROEM)
---------------------------------
  C     -2.549599   -0.900154    0.328275
  C     -1.120489   -0.432043    0.645551
  H     -0.986146   -0.364878    1.737756
  C     -0.830816    0.938275    0.013497
  H     -1.064766    0.889637   -1.055564
  C      0.650674    1.292649    0.196185
  H      0.851230    1.445675    1.272260
  C      1.562718    0.159587   -0.289928
  H      1.485840    0.074727   -1.382923
  C      1.123017   -1.177882    0.321522
  H      1.337984   -1.142746    1.409985
  O     -0.251820   -1.420530    0.122533
  O      1.816521   -2.191030   -0.300027
  O      2.890302    0.382965    0.103937
  O      0.995421    2.456556   -0.516602
  O     -1.649571    1.953979    0.534249
  O     -2.735863   -1.122770   -1.043475
  H     -3.255354   -0.117721    0.611747
  H     -2.758790   -1.811982    0.900682
  H      1.511628   -3.051829    0.029398
  H      3.185482    1.220465   -0.285667
  H      0.277026    3.101496   -0.424514
  H     -1.536688    2.011155    1.495196
  H     -2.075974   -1.768381   -1.336927

 Total Charge           Charge          ....    0
 Multiplicity           Mult            ....    1
 Number of Electrons    NEL             ....   96
 Basis Dimension        Dim             ....  318

ORBITAL ENERGIES
----------------

  NO   OCC          E(Eh)            E(eV)
   0   2.0000     -18.974403      -516.3197
   1   2.0000     -18.969431      -516.1845
   2   2.0000     -18.963845      -516.0325
   3   2.0000     -18.961658      -515.9729
   4   2.0000     -18.958968      -515.8997
   5   2.0000     -18.956147      -515.8230
   6   2.0000     -10.139142      -275.9001
   7   2.0000     -10.088423      -274.5200
   8   2.0000     -10.087982      -274.5079
   9   2.0000     -10.085471      -274.4396
  10   2.0000     -10.084939      -274.4251
  11   2.0000     -10.076195      -274.1872
  12   2.0000      -1.054497       -28.6943
  13   2.0000      -1.014071       -27.5943
  14   2.0000      -1.005939       -27.3730
  15   2.0000      -0.995831       -27.0979
  16   2.0000      -0.984960       -26.8021
  17   2.0000      -0.980757       -26.6877
  18   2.0000      -0.745943       -20.2981
  19   2.0000      -0.734738       -19.9932
  20   2.0000      -0.658198       -17.9105
  21   2.0000      -0.615767       -16.7559
  22   2.0000      -0.592085       -16.1115
  23   2.0000      -0.557016       -15.1572
  24   2.0000      -0.517667       -14.0864
  25   2.0000      -0.511223       -13.9111
  26   2.0000      -0.499182       -13.5834
  27   2.0000      -0.477928       -13.0051
  28   2.0000      -0.470336       -12.7985
  29   2.0000      -0.450058       -12.2467
  30   2.0000      -0.442296       -12.0355
  31   2.0000      -0.421327       -11.4649
  32   2.0000      -0.402137       -10.9427
  33   2.0000      -0.401275       -10.9192
  34   2.0000      -0.385248       -10.4831
  35   2.0000      -0.371542       -10.1102
  36   2.0000      -0.349283        -9.5045
  37   2.0000      -0.343755        -9.3541
  38   2.0000      -0.329456        -8.9649
  39   2.0000      -0.326411        -8.8821
  40   2.0000      -0.306647        -8.3443
  41   2.0000      -0.296708        -8.0738
  42   2.0000      -0.282753        -7.6941
  43   2.0000      -0.271636        -7.3916
  44   2.0000      -0.253279        -6.8921
  45   2.0000      -0.249089        -6.7781
  46   2.0000      -0.241932        -6.5833
  47   2.0000      -0.225228        -6.1288
  48   0.0000       0.040830         1.1111
  49   0.0000       0.063868         1.7379
  50   0.0000       0.072093         1.9617
  51   0.0000       0.082110         2.2343
  52   0.0000       0.097940         2.6651

MULLIKEN ATOMIC CHARGES
-----------------------
   0 C :   -0.234861
   1 C :    0.076629
   2 H :    0.196902
   3 C :   -0.173257
   4 H :    0.201120
   5 C :    0.018858
   6 H :    0.184035
   7 C :    0.039899
   8 H :    0.184278
   9 C :   -0.084438
  10 H :    0.166828
  11 O :   -0.259592
  12 O :   -0.449946
  13 O :   -0.491361
  14 O :   -0.497756
  15 O :   -0.478959
  16 O :   -0.494887
  17 H :    0.163912
  18 H :    0.157615
  19 H :    0.360678
  20 H :    0.355158
  21 H :    0.349818
  22 H :    0.358243
  23 H :    0.351084
Sum of atomic charges:   -0.0000000

LOEWDIN ATOMIC CHARGES
----------------------
   0 C :    0.041157
   1 C :    0.112463
   2 H :    0.197753
   3 C :    0.099835
   4 H :    0.207865
   5 C :    0.103993
   6 H :    0.191974
   7 C :    0.123328
   8 H :    0.195862
   9 C :    0.308055
  10 H :    0.192943
  11 O :   -0.699386
  12 O :   -0.510451
  13 O :   -0.589027
  14 O :   -0.604463
  15 O :   -0.593755
  16 O :   -0.625412
  17 H :    0.195976
  18 H :    0.174187
  19 H :    0.302746
  20 H :    0.297060
  21 H :    0.295161
  22 H :    0.293550
  23 H :    0.288584

  Mayer bond orders larger than 0.100000
B(  0-C ,  1-C ) :   0.9488 B(  0-C , 16-O ) :   1.0064 B(  0-C , 17-H ) :   0.9633
B(  0-C , 18-H ) :   0.9699 B(  1-C ,  2-H ) :   0.9055 B(  1-C ,  3-C ) :   0.8563
B(  1-C , 11-O ) :   0.7615 B(  1-C , 16-O ) :  -0.1076 B(  3-C ,  4-H ) :   0.9830
B(  3-C ,  5-C ) :   0.8722 B(  3-C , 15-O ) :   0.9739 B(  5-C ,  6-H ) :   0.9620
B(  5-C ,  7-C ) :   0.8899 B(  5-C , 14-O ) :   0.8822 B(  7-C ,  8-H ) :   0.9525
B(  7-C ,  9-C ) :   0.8657 B(  7-C , 13-O ) :   0.8841 B(  9-C , 10-H ) :   1.0058
B(  9-C , 11-O ) :   0.9466 B(  9-C , 12-O ) :   1.0667 B( 12-O , 19-H ) :   0.8542
B( 13-O , 20-H ) :   0.8611 B( 14-O , 21-H ) :   0.8548 B( 15-O , 22-H ) :   0.8567
B( 16-O , 23-H ) :   0.8537

Dispersion correction           -0.008063709
FINAL SINGLE POINT ENERGY      -687.110749430438

DIPOLE MOMENT
-------------

Method             : SCF
Type of density    : Electron Density
Multiplicity       :   1
Irrep              :   0
Energy             :  -687.1221323049479679 Eh
Relativity type    :
Basis              : AO
                                X                 Y                 Z
Electronic contribution:      2.363885367      -0.438208223      -1.034730487
Nuclear contribution   :     -2.825496817       0.456469165       2.771419801
                        -----------------------------------------
Total Dipole Moment    :     -0.461611450       0.018260943       1.736689314
                        -----------------------------------------
Magnitude (a.u.)       :      1.797083294
Magnitude (Debye)      :      4.567822723

Rotational constants in cm-1:             0.038865             0.027333             0.017796
Rotational constants in MHz :          1165.144476           819.417413           533.520575

                             ****ORCA TERMINATED NORMALLY****
TOTAL RUN TIME: 0 days 0 hours 0 minutes 57 seconds 847 msec
