                         Program Version 6.0.0  -   RELEASE  -
|  1> ! pbe def2-sv(p) def2/J RI DEFGRID1 loosescf d4 GCP(DFT/SV(P)) printgap
|  2> %output
|  3>     printlevel normal
|  4> end
|  5> * xyz 0 1
|  6> C 1.8945346945 -0.1052478928 -1.0676053666
|  7> O 1.2267063759 -0.2084176459 0.1919300798
|  8> S -0.3628134772 -0.0460912461 0.1795913046
|  9> O -0.7917966237 -0.4932156435 1.4804639912
| 10> O -0.8912879787 -0.7725355911 -0.9552514582
| 11> C -0.6576336175 1.7055678592 -0.0117605179
| 12> H 1.2283465702 -0.4669299438 -1.850919641
| 13> H 2.7804824853 -0.7328343529 -1.0049462097
| 14> H 2.1794779761 0.930670621 -1.2508073522
| 15> H -1.0845848946 2.0511210747 0.9184516942
| 16> H 0.2878873205 2.1891492743 -0.2093090052
| 17> H -1.3445214805 1.825503713 -0.8372754249
| 18> *
| 19>
| 20>                          ****END OF INPUT****

CARTESIAN COORDINATES (ANGSTROEM)
---------------------------------
  C      1.894535   -0.105248   -1.067605
  O      1.226706   -0.208418    0.191930
  S     -0.362813   -0.046091    0.179591
  O     -0.791797   -0.493216    1.480464
  O     -0.891288   -0.772536   -0.955251
  C     -0.657634    1.705568   -0.011761
  H      1.228347   -0.466930   -1.850920
  H      2.780482   -0.732834   -1.004946
  H      2.179478    0.930671   -1.250807
  H     -1.084585    2.051121    0.918452
  H      0.287887    2.189149   -0.209309
  H     -1.344521    1.825504   -0.837275

 Total Charge           Charge          ....    0
 Multiplicity           Mult            ....    1
 Number of Electrons    NEL             ....   58
 Basis Dimension        Dim             ....  100

ORBITAL ENERGIES
----------------

  NO   OCC          E(Eh)            E(eV)
   0   2.0000     -88.253399     -2401.4971
   1   2.0000     -18.809399      -511.8298
   2   2.0000     -18.743341      -510.0322
   3   2.0000     -18.739281      -509.9218
   4   2.0000      -9.956646      -270.9341
   5   2.0000      -9.932945      -270.2892
   6   2.0000      -7.867357      -214.0817
   7   2.0000      -5.895893      -160.4354
   8   2.0000      -5.892557      -160.3446
   9   2.0000      -5.891651      -160.3200
  10   2.0000      -1.055498       -28.7216
  11   2.0000      -0.950450       -25.8631
  12   2.0000      -0.906686       -24.6722
  13   2.0000      -0.718427       -19.5494
  14   2.0000      -0.668043       -18.1784
  15   2.0000      -0.548148       -14.9159
  16   2.0000      -0.493094       -13.4178
  17   2.0000      -0.451465       -12.2850
  18   2.0000      -0.446067       -12.1381
  19   2.0000      -0.424477       -11.5506
  20   2.0000      -0.414988       -11.2924
  21   2.0000      -0.407680       -11.0935
  22   2.0000      -0.375432       -10.2160
  23   2.0000      -0.334149        -9.0927
  24   2.0000      -0.302229        -8.2241
  25   2.0000      -0.282121        -7.6769
  26   2.0000      -0.269687        -7.3386
  27   2.0000      -0.263127        -7.1600
  28   2.0000      -0.246946        -6.7197
  29   0.0000       0.011481         0.3124
  30   0.0000       0.018184         0.4948
  31   0.0000       0.038105         1.0369
  32   0.0000       0.046073         1.2537
  33   0.0000       0.071227         1.9382

MULLIKEN ATOMIC CHARGES
-----------------------
   0 C :   -0.141982
   1 O :   -0.385259
   2 S :    0.774022
   3 O :   -0.394084
   4 O :   -0.408741
   5 C :   -0.333752
   6 H :    0.139996
   7 H :    0.141529
   8 H :    0.114689
   9 H :    0.171395
  10 H :    0.153953
  11 H :    0.168234
Sum of atomic charges:    0.0000000

LOEWDIN ATOMIC CHARGES
----------------------
   0 C :   -0.231764
   1 O :   -0.286538
   2 S :    1.117041
   3 O :   -0.457961
   4 O :   -0.470421
   5 C :   -0.476127
   6 H :    0.119474
   7 H :    0.131431
   8 H :    0.107506
   9 H :    0.153456
  10 H :    0.143098
  11 H :    0.150805

  Mayer bond orders larger than 0.100000
B(  0-C ,  1-O ) :   0.9272 B(  0-C ,  6-H ) :   0.9305 B(  0-C ,  7-H ) :   0.9565
B(  0-C ,  8-H ) :   0.9464 B(  1-O ,  2-S ) :   0.9607 B(  2-S ,  3-O ) :   1.8077
B(  2-S ,  4-O ) :   1.7391 B(  2-S ,  5-C ) :   0.9070 B(  5-C ,  9-H ) :   0.9300
B(  5-C , 10-H ) :   0.9310 B(  5-C , 11-H ) :   0.9301

Dispersion correction           -0.010185323
FINAL SINGLE POINT ENERGY      -702.672161853640

DIPOLE MOMENT
-------------

Method             : SCF
Type of density    : Electron Density
Multiplicity       :   1
Irrep              :   0
Energy             :  -702.7222204976206967 Eh
Relativity type    :
Basis              : AO
                                X                 Y                 Z
Electronic contribution:     -2.984494712      -3.962514193       3.195204676
Nuclear contribution   :      3.800508634       5.417760046      -3.967501638
                        -----------------------------------------
Total Dipole Moment    :      0.816013922       1.455245853      -0.772296962
                        -----------------------------------------
Magnitude (a.u.)       :      1.838494442
Magnitude (Debye)      :      4.673081495

Rotational constants in cm-1:             0.145708             0.089194             0.084155
Rotational constants in MHz :          4368.229787          2673.975154          2522.914617

                             ****ORCA TERMINATED NORMALLY****
TOTAL RUN TIME: 0 days 0 hours 0 minutes 5 seconds 662 msec
