                         Program Version 6.0.0  -   RELEASE  -
|  1> ! r2scan-3c def2/J RI DEFGRID2 scfconv6 printgap
|  2> %output
|  3>     printlevel normal
|  4> end
|  5> * xyz 0 1
|  6> C -2.3298751333 -1.0491544305 0.5352100938
|  7> C -1.4724523821 -0.0085836692 -0.129689045
|  8> O -1.6954320053 0.3630795718 -1.2656617802
|  9> C -0.3563633287 0.5764836167 0.715790226
| 10> C 0.5393218706 1.5195850033 -0.0937844189
| 11> C 1.4036972518 0.7500455913 -1.0900943749
| 12> C 2.2380756342 -0.3116997647 -0.3806970833
| 13> C 1.3304726062 -1.2655089275 0.3895355897
| 14> C 0.4987550047 -0.4922884704 1.4088000495
| 15> H -3.2700356732 -1.1423062691 -0.002282214
| 16> H -1.8158596237 -2.0073894884 0.4921872187
| 17> H -2.5113023506 -0.8007463152 1.5758686227
| 18> H -0.8710431547 1.1614046284 1.489131307
| 19> H -0.0848970544 2.2353739019 -0.6325411618
| 20> H 1.1821787984 2.0734179679 0.5930659157
| 21> H 0.7564868685 0.274376477 -1.8301360891
| 22> H 2.0559580399 1.4472521464 -1.6196044211
| 23> H 2.8300693849 -0.8659285949 -1.1113909909
| 24> H 2.9281548399 0.1727556032 0.3139236111
| 25> H 0.670739198 -1.7777250112 -0.3152575351
| 26> H 1.9303462665 -2.0206209114 0.900834744
| 27> H -0.1261157939 -1.1738462203 1.9841370798
| 28> H 1.1729724006 0.0105379394 2.1049856934
| 29> *
| 30>
| 31>                          ****END OF INPUT****

CARTESIAN COORDINATES (ANGSTROEM)
---------------------------------
  C     -2.329875   -1.049154    0.535210
  C     -1.472452   -0.008584   -0.129689
  O     -1.695432    0.363080   -1.265662
  C     -0.356363    0.576484    0.715790
  C      0.539322    1.519585   -0.093784
  C      1.403697    0.750046   -1.090094
  C      2.238076   -0.311700   -0.380697
  C      1.330473   -1.265509    0.389536
  C      0.498755   -0.492288    1.408800
  H     -3.270036   -1.142306   -0.002282
  H     -1.815860   -2.007389    0.492187
  H     -2.511302   -0.800746    1.575869
  H     -0.871043    1.161405    1.489131
  H     -0.084897    2.235374   -0.632541
  H      1.182179    2.073418    0.593066
  H      0.756487    0.274376   -1.830136
  H      2.055958    1.447252   -1.619604
  H      2.830069   -0.865929   -1.111391
  H      2.928155    0.172756    0.313924
  H      0.670739   -1.777725   -0.315258
  H      1.930346   -2.020621    0.900835
  H     -0.126116   -1.173846    1.984137
  H      1.172972    0.010538    2.104986

 Total Charge           Charge          ....    0
 Multiplicity           Mult            ....    1
 Number of Electrons    NEL             ....   70
 Basis Dimension        Dim             ....  246

ORBITAL ENERGIES
----------------

  NO   OCC          E(Eh)            E(eV)
   0   2.0000     -18.936877      -515.2986
   1   2.0000     -10.116937      -275.2959
   2   2.0000     -10.042692      -273.2756
   3   2.0000     -10.036201      -273.0989
   4   2.0000     -10.033255      -273.0188
   5   2.0000     -10.028939      -272.9013
   6   2.0000     -10.022495      -272.7260
   7   2.0000     -10.022187      -272.7176
   8   2.0000     -10.016721      -272.5688
   9   2.0000      -1.003280       -27.3006
  10   2.0000      -0.808405       -21.9978
  11   2.0000      -0.737188       -20.0599
  12   2.0000      -0.712063       -19.3762
  13   2.0000      -0.697121       -18.9696
  14   2.0000      -0.597137       -16.2489
  15   2.0000      -0.576399       -15.6846
  16   2.0000      -0.539948       -14.6927
  17   2.0000      -0.476152       -12.9568
  18   2.0000      -0.462220       -12.5776
  19   2.0000      -0.437432       -11.9031
  20   2.0000      -0.426744       -11.6123
  21   2.0000      -0.414092       -11.2680
  22   2.0000      -0.400475       -10.8975
  23   2.0000      -0.390469       -10.6252
  24   2.0000      -0.373826       -10.1723
  25   2.0000      -0.358383        -9.7521
  26   2.0000      -0.349625        -9.5138
  27   2.0000      -0.342220        -9.3123
  28   2.0000      -0.331230        -9.0132
  29   2.0000      -0.323348        -8.7988
  30   2.0000      -0.313502        -8.5308
  31   2.0000      -0.291337        -7.9277
  32   2.0000      -0.271786        -7.3957
  33   2.0000      -0.269237        -7.3263
  34   2.0000      -0.211124        -5.7450
  35   0.0000      -0.046071        -1.2537
  36   0.0000       0.066781         1.8172
  37   0.0000       0.100157         2.7254
  38   0.0000       0.108731         2.9587
  39   0.0000       0.110934         3.0187

MULLIKEN ATOMIC CHARGES
-----------------------
   0 C :   -0.557360
   1 C :    0.206854
   2 O :   -0.345085
   3 C :    0.061269
   4 C :   -0.341007
   5 C :   -0.319581
   6 C :   -0.309118
   7 C :   -0.250565
   8 C :   -0.381637
   9 H :    0.180267
  10 H :    0.178761
  11 H :    0.167168
  12 H :    0.162658
  13 H :    0.160731
  14 H :    0.154337
  15 H :    0.182731
  16 H :    0.146783
  17 H :    0.148430
  18 H :    0.142423
  19 H :    0.144633
  20 H :    0.151600
  21 H :    0.159657
  22 H :    0.156051
Sum of atomic charges:    0.0000000

LOEWDIN ATOMIC CHARGES
----------------------
   0 C :   -0.386677
   1 C :    0.222793
   2 O :   -0.476435
   3 C :   -0.204195
   4 C :   -0.280301
   5 C :   -0.295870
   6 C :   -0.301756
   7 C :   -0.297856
   8 C :   -0.284463
   9 H :    0.176223
  10 H :    0.178472
  11 H :    0.167191
  12 H :    0.182282
  13 H :    0.173657
  14 H :    0.156905
  15 H :    0.171327
  16 H :    0.155271
  17 H :    0.155312
  18 H :    0.153464
  19 H :    0.156994
  20 H :    0.156244
  21 H :    0.159269
  22 H :    0.162149

  Mayer bond orders larger than 0.100000
B(  0-C ,  1-C ) :   0.9019 B(  0-C ,  9-H ) :   0.9797 B(  0-C , 10-H ) :   0.9400
B(  0-C , 11-H ) :   0.9669 B(  1-C ,  2-O ) :   1.9447 B(  1-C ,  3-C ) :   0.8435
B(  2-O ,  3-C ) :  -0.1122 B(  3-C ,  4-C ) :   0.9548 B(  3-C ,  8-C ) :   0.8684
B(  3-C , 12-H ) :   0.8987 B(  4-C ,  5-C ) :   0.9055 B(  4-C , 13-H ) :   0.9406
B(  4-C , 14-H ) :   0.9850 B(  5-C ,  6-C ) :   0.9044 B(  5-C , 15-H ) :   0.9909
B(  5-C , 16-H ) :   0.9404 B(  6-C ,  7-C ) :   0.9140 B(  6-C , 17-H ) :   0.9438
B(  6-C , 18-H ) :   1.0020 B(  7-C ,  8-C ) :   0.8910 B(  7-C , 19-H ) :   0.9840
B(  7-C , 20-H ) :   0.9378 B(  8-C , 21-H ) :   0.9459 B(  8-C , 22-H ) :   0.9809

Dispersion correction           -0.007662051
FINAL SINGLE POINT ENERGY      -388.407851866998

DIPOLE MOMENT
-------------

Method             : SCF
Type of density    : Electron Density
Multiplicity       :   1
Irrep              :   0
Energy             :  -388.4101443308898070 Eh
Relativity type    :
Basis              : AO
                                X                 Y                 Z
Electronic contribution:     -4.250129189       1.917758942      -2.678246740
Nuclear contribution   :      4.522757497      -2.258826409       3.680344144
                        -----------------------------------------
Total Dipole Moment    :      0.272628309      -0.341067468       1.002097403
                        -----------------------------------------
Magnitude (a.u.)       :      1.093093051
Magnitude (Debye)      :      2.778421730

Rotational constants in cm-1:             0.082743             0.046278             0.038081
Rotational constants in MHz :          2480.564299          1387.392303          1141.631920

                             ****ORCA TERMINATED NORMALLY****
TOTAL RUN TIME: 0 days 0 hours 0 minutes 35 seconds 938 msec
