                         Program Version 6.0.0  -   RELEASE  -
|  1> ! r2scan-3c def2/J RI DEFGRID2 scfconv6 printgap
|  2> %output
|  3>     printlevel normal
|  4> end
|  5> %cpcm
|  6>     smd true
|  7>     smdsolvent "water"
|  8> end
|  9> * xyz 0 1
| 10> C -2.3298751333 -1.0491544305 0.5352100938
| 11> C -1.4724523821 -0.0085836692 -0.129689045
| 12> O -1.6954320053 0.3630795718 -1.2656617802
| 13> C -0.3563633287 0.5764836167 0.715790226
| 14> C 0.5393218706 1.5195850033 -0.0937844189
| 15> C 1.4036972518 0.7500455913 -1.0900943749
| 16> C 2.2380756342 -0.3116997647 -0.3806970833
| 17> C 1.3304726062 -1.2655089275 0.3895355897
| 18> C 0.4987550047 -0.4922884704 1.4088000495
| 19> H -3.2700356732 -1.1423062691 -0.002282214
| 20> H -1.8158596237 -2.0073894884 0.4921872187
| 21> H -2.5113023506 -0.8007463152 1.5758686227
| 22> H -0.8710431547 1.1614046284 1.489131307
| 23> H -0.0848970544 2.2353739019 -0.6325411618
| 24> H 1.1821787984 2.0734179679 0.5930659157
| 25> H 0.7564868685 0.274376477 -1.8301360891
| 26> H 2.0559580399 1.4472521464 -1.6196044211
| 27> H 2.8300693849 -0.8659285949 -1.1113909909
| 28> H 2.9281548399 0.1727556032 0.3139236111
| 29> H 0.670739198 -1.7777250112 -0.3152575351
| 30> H 1.9303462665 -2.0206209114 0.900834744
| 31> H -0.1261157939 -1.1738462203 1.9841370798
| 32> H 1.1729724006 0.0105379394 2.1049856934
| 33> *
| 34>
| 35>                          ****END OF INPUT****

CARTESIAN COORDINATES (ANGSTROEM)
---------------------------------
  C     -2.329875   -1.049154    0.535210
  C     -1.472452   -0.008584   -0.129689
  O     -1.695432    0.363080   -1.265662
  C     -0.356363    0.576484    0.715790
  C      0.539322    1.519585   -0.093784
  C      1.403697    0.750046   -1.090094
  C      2.238076   -0.311700   -0.380697
  C      1.330473   -1.265509    0.389536
  C      0.498755   -0.492288    1.408800
  H     -3.270036   -1.142306   -0.002282
  H     -1.815860   -2.007389    0.492187
  H     -2.511302   -0.800746    1.575869
  H     -0.871043    1.161405    1.489131
  H     -0.084897    2.235374   -0.632541
  H      1.182179    2.073418    0.593066
  H      0.756487    0.274376   -1.830136
  H      2.055958    1.447252   -1.619604
  H      2.830069   -0.865929   -1.111391
  H      2.928155    0.172756    0.313924
  H      0.670739   -1.777725   -0.315258
  H      1.930346   -2.020621    0.900835
  H     -0.126116   -1.173846    1.984137
  H      1.172972    0.010538    2.104986

 Total Charge           Charge          ....    0
 Multiplicity           Mult            ....    1
 Number of Electrons    NEL             ....   70
 Basis Dimension        Dim             ....  246

ORBITAL ENERGIES
----------------

  NO   OCC          E(Eh)            E(eV)
   0   2.0000     -18.944710      -515.5118
   1   2.0000     -10.122184      -275.4386
   2   2.0000     -10.034109      -273.0420
   3   2.0000     -10.022240      -272.7190
   4   2.0000     -10.021215      -272.6911
   5   2.0000     -10.016392      -272.5599
   6   2.0000     -10.016137      -272.5529
   7   2.0000     -10.013290      -272.4755
   8   2.0000     -10.012643      -272.4579
   9   2.0000      -1.013682       -27.5837
  10   2.0000      -0.799496       -21.7554
  11   2.0000      -0.729253       -19.8440
  12   2.0000      -0.703372       -19.1397
  13   2.0000      -0.687446       -18.7064
  14   2.0000      -0.589229       -16.0337
  15   2.0000      -0.567190       -15.4340
  16   2.0000      -0.532526       -14.4908
  17   2.0000      -0.474641       -12.9156
  18   2.0000      -0.453692       -12.3456
  19   2.0000      -0.431429       -11.7398
  20   2.0000      -0.420030       -11.4296
  21   2.0000      -0.411354       -11.1935
  22   2.0000      -0.391318       -10.6483
  23   2.0000      -0.388806       -10.5799
  24   2.0000      -0.364734        -9.9249
  25   2.0000      -0.349074        -9.4988
  26   2.0000      -0.340428        -9.2635
  27   2.0000      -0.334798        -9.1103
  28   2.0000      -0.326272        -8.8783
  29   2.0000      -0.323338        -8.7985
  30   2.0000      -0.302794        -8.2394
  31   2.0000      -0.285772        -7.7763
  32   2.0000      -0.262810        -7.1514
  33   2.0000      -0.260704        -7.0941
  34   2.0000      -0.219102        -5.9621
  35   0.0000      -0.047385        -1.2894
  36   0.0000       0.077868         2.1189
  37   0.0000       0.112742         3.0679
  38   0.0000       0.119849         3.2613
  39   0.0000       0.123838         3.3698

MULLIKEN ATOMIC CHARGES
-----------------------
   0 C :   -0.589460
   1 C :    0.243256
   2 O :   -0.444522
   3 C :    0.076275
   4 C :   -0.378484
   5 C :   -0.322680
   6 C :   -0.321243
   7 C :   -0.274921
   8 C :   -0.387624
   9 H :    0.181809
  10 H :    0.209075
  11 H :    0.196251
  12 H :    0.191951
  13 H :    0.157202
  14 H :    0.170725
  15 H :    0.167480
  16 H :    0.155094
  17 H :    0.154623
  18 H :    0.153264
  19 H :    0.157202
  20 H :    0.160219
  21 H :    0.175500
  22 H :    0.169008
Sum of atomic charges:    0.0000000

LOEWDIN ATOMIC CHARGES
----------------------
   0 C :   -0.384585
   1 C :    0.240268
   2 O :   -0.549636
   3 C :   -0.198195
   4 C :   -0.284618
   5 C :   -0.301439
   6 C :   -0.304499
   7 C :   -0.299521
   8 C :   -0.280436
   9 H :    0.176094
  10 H :    0.191666
  11 H :    0.180785
  12 H :    0.195723
  13 H :    0.167856
  14 H :    0.163809
  15 H :    0.164692
  16 H :    0.156566
  17 H :    0.156162
  18 H :    0.157258
  19 H :    0.160273
  20 H :    0.158975
  21 H :    0.165995
  22 H :    0.166806

  Mayer bond orders larger than 0.100000
B(  0-C ,  1-C ) :   0.9196 B(  0-C ,  9-H ) :   0.9770 B(  0-C , 10-H ) :   0.9261
B(  0-C , 11-H ) :   0.9526 B(  1-C ,  2-O ) :   1.8727 B(  1-C ,  3-C ) :   0.8592
B(  2-O ,  3-C ) :  -0.1025 B(  3-C ,  4-C ) :   0.9232 B(  3-C ,  8-C ) :   0.8693
B(  3-C , 12-H ) :   0.8882 B(  4-C ,  5-C ) :   0.9087 B(  4-C , 13-H ) :   0.9546
B(  4-C , 14-H ) :   0.9767 B(  5-C ,  6-C ) :   0.9064 B(  5-C , 15-H ) :   0.9923
B(  5-C , 16-H ) :   0.9405 B(  6-C ,  7-C ) :   0.9098 B(  6-C , 17-H ) :   0.9443
B(  6-C , 18-H ) :   0.9984 B(  7-C ,  8-C ) :   0.8812 B(  7-C , 19-H ) :   0.9854
B(  7-C , 20-H ) :   0.9365 B(  8-C , 21-H ) :   0.9438 B(  8-C , 22-H ) :   0.9789

Dispersion correction           -0.007662051
FINAL SINGLE POINT ENERGY      -388.414183609107

DIPOLE MOMENT
-------------

Method             : SCF
Type of density    : Electron Density
Multiplicity       :   1
Irrep              :   0
Energy             :  -388.4164760729987051 Eh
Relativity type    :
Basis              : AO
                                X                 Y                 Z
Electronic contribution:     -4.133031158       1.723077824      -2.076256786
Nuclear contribution   :      4.522757497      -2.258826409       3.680344144
                        -----------------------------------------
Total Dipole Moment    :      0.389726339      -0.535748586       1.604087358
                        -----------------------------------------
Magnitude (a.u.)       :      1.735514165
Magnitude (Debye)      :      4.411326434

Rotational constants in cm-1:             0.082743             0.046278             0.038081
Rotational constants in MHz :          2480.564299          1387.392303          1141.631920

                             ****ORCA TERMINATED NORMALLY****
TOTAL RUN TIME: 0 days 0 hours 0 minutes 39 seconds 267 msec
