                         Program Version 6.0.0  -   RELEASE  -
|  1> ! r2scan-3c def2/J RI DEFGRID2 scfconv6 printgap
|  2> %output
|  3>     printlevel normal
|  4> end
|  5> * xyz 0 1
|  6> C -2.3171089976 -0.1981153344 0.5672335768
|  7> C -1.2803128005 -0.5839996911 -0.4895536614
|  8> C 0.0085150783 0.1555020444 -0.2410811243
|  9> O 0.1391548396 1.3610667558 -0.2818087354
| 10> O 1.0039868815 -0.6737462733 0.0508181657
| 11> C 2.287374531 -0.1058017055 0.3272646902
| 12> H -1.9917996644 -0.5180726757 1.5537166953
| 13> H -2.4505303887 0.8808644273 0.5785699646
| 14> H -3.2684423028 -0.6699089346 0.3422730034
| 15> H -1.6459699221 -0.2970111476 -1.4763820925
| 16> H -1.0796075779 -1.6539039279 -0.4677601531
| 17> H 2.1863077148 0.7172749617 1.0356690403
| 18> H 2.730738937 0.2706043372 -0.5950938136
| 19> H 2.8830094608 -0.9123953099 0.7429877259
| 20> *
| 21>
| 22>                          ****END OF INPUT****

CARTESIAN COORDINATES (ANGSTROEM)
---------------------------------
  C     -2.317109   -0.198115    0.567234
  C     -1.280313   -0.584000   -0.489554
  C      0.008515    0.155502   -0.241081
  O      0.139155    1.361067   -0.281809
  O      1.003987   -0.673746    0.050818
  C      2.287375   -0.105802    0.327265
  H     -1.991800   -0.518073    1.553717
  H     -2.450530    0.880864    0.578570
  H     -3.268442   -0.669909    0.342273
  H     -1.645970   -0.297011   -1.476382
  H     -1.079608   -1.653904   -0.467760
  H      2.186308    0.717275    1.035669
  H      2.730739    0.270604   -0.595094
  H      2.883009   -0.912395    0.742988

 Total Charge           Charge          ....    0
 Multiplicity           Mult            ....    1
 Number of Electrons    NEL             ....   48
 Basis Dimension        Dim             ....  164

ORBITAL ENERGIES
----------------

  NO   OCC          E(Eh)            E(eV)
   0   2.0000     -19.001008      -517.0437
   1   2.0000     -18.928958      -515.0831
   2   2.0000     -10.152410      -276.2611
   3   2.0000     -10.087337      -274.4904
   4   2.0000     -10.044717      -273.3306
   5   2.0000     -10.029710      -272.9223
   6   2.0000      -1.074211       -29.2308
   7   2.0000      -0.976513       -26.5723
   8   2.0000      -0.760161       -20.6850
   9   2.0000      -0.697830       -18.9889
  10   2.0000      -0.611927       -16.6514
  11   2.0000      -0.533013       -14.5040
  12   2.0000      -0.470648       -12.8070
  13   2.0000      -0.454772       -12.3750
  14   2.0000      -0.446953       -12.1622
  15   2.0000      -0.414257       -11.2725
  16   2.0000      -0.399925       -10.8825
  17   2.0000      -0.374820       -10.1994
  18   2.0000      -0.348952        -9.4955
  19   2.0000      -0.334840        -9.1115
  20   2.0000      -0.323715        -8.8087
  21   2.0000      -0.317340        -8.6353
  22   2.0000      -0.274798        -7.4776
  23   2.0000      -0.237081        -6.4513
  24   0.0000      -0.016668        -0.4536
  25   0.0000       0.064853         1.7648
  26   0.0000       0.097017         2.6400
  27   0.0000       0.119743         3.2584
  28   0.0000       0.129744         3.5305

MULLIKEN ATOMIC CHARGES
-----------------------
   0 C :   -0.460727
   1 C :   -0.292070
   2 C :    0.399610
   3 O :   -0.428959
   4 O :   -0.186136
   5 C :   -0.295347
   6 H :    0.145314
   7 H :    0.170976
   8 H :    0.151131
   9 H :    0.160653
  10 H :    0.160537
  11 H :    0.168389
  12 H :    0.156264
  13 H :    0.150365
Sum of atomic charges:    0.0000000

LOEWDIN ATOMIC CHARGES
----------------------
   0 C :   -0.393651
   1 C :   -0.237454
   2 C :    0.353035
   3 O :   -0.427342
   4 O :   -0.604177
   5 C :   -0.044962
   6 H :    0.154794
   7 H :    0.164495
   8 H :    0.152274
   9 H :    0.177379
  10 H :    0.174162
  11 H :    0.180873
  12 H :    0.174508
  13 H :    0.176065

  Mayer bond orders larger than 0.100000
B(  0-C ,  1-C ) :   0.8997 B(  0-C ,  6-H ) :   0.9746 B(  0-C ,  7-H ) :   0.9729
B(  0-C ,  8-H ) :   0.9725 B(  1-C ,  2-C ) :   0.9544 B(  1-C ,  9-H ) :   0.9530
B(  1-C , 10-H ) :   0.9841 B(  2-C ,  3-O ) :   1.8080 B(  2-C ,  4-O ) :   1.0661
B(  4-O ,  5-C ) :   0.8508 B(  5-C , 11-H ) :   0.9634 B(  5-C , 12-H ) :   0.9601
B(  5-C , 13-H ) :   0.9693

Dispersion correction           -0.002971154
FINAL SINGLE POINT ENERGY      -307.631840487702

DIPOLE MOMENT
-------------

Method             : SCF
Type of density    : Electron Density
Multiplicity       :   1
Irrep              :   0
Energy             :  -307.6382365049136070 Eh
Relativity type    :
Basis              : AO
                                X                 Y                 Z
Electronic contribution:      2.608041715       1.305787962      -1.469761809
Nuclear contribution   :     -2.456320011      -2.037398923       1.604579388
                        -----------------------------------------
Total Dipole Moment    :      0.151721704      -0.731610961       0.134817579
                        -----------------------------------------
Magnitude (a.u.)       :      0.759242948
Magnitude (Debye)      :      1.929842206

Rotational constants in cm-1:             0.260457             0.074676             0.065503
Rotational constants in MHz :          7808.309925          2238.722147          1963.744069

                             ****ORCA TERMINATED NORMALLY****
TOTAL RUN TIME: 0 days 0 hours 0 minutes 18 seconds 315 msec
