                         Program Version 6.0.0  -   RELEASE  -
|  1> ! r2scan-3c def2/J RI DEFGRID2 scfconv6 printgap
|  2> %output
|  3>     printlevel normal
|  4> end
|  5> %cpcm
|  6>     smd true
|  7>     smdsolvent "water"
|  8> end
|  9> * xyz 0 1
| 10> C -2.3171089976 -0.1981153344 0.5672335768
| 11> C -1.2803128005 -0.5839996911 -0.4895536614
| 12> C 0.0085150783 0.1555020444 -0.2410811243
| 13> O 0.1391548396 1.3610667558 -0.2818087354
| 14> O 1.0039868815 -0.6737462733 0.0508181657
| 15> C 2.287374531 -0.1058017055 0.3272646902
| 16> H -1.9917996644 -0.5180726757 1.5537166953
| 17> H -2.4505303887 0.8808644273 0.5785699646
| 18> H -3.2684423028 -0.6699089346 0.3422730034
| 19> H -1.6459699221 -0.2970111476 -1.4763820925
| 20> H -1.0796075779 -1.6539039279 -0.4677601531
| 21> H 2.1863077148 0.7172749617 1.0356690403
| 22> H 2.730738937 0.2706043372 -0.5950938136
| 23> H 2.8830094608 -0.9123953099 0.7429877259
| 24> *
| 25>
| 26>                          ****END OF INPUT****

CARTESIAN COORDINATES (ANGSTROEM)
---------------------------------
  C     -2.317109   -0.198115    0.567234
  C     -1.280313   -0.584000   -0.489554
  C      0.008515    0.155502   -0.241081
  O      0.139155    1.361067   -0.281809
  O      1.003987   -0.673746    0.050818
  C      2.287375   -0.105802    0.327265
  H     -1.991800   -0.518073    1.553717
  H     -2.450530    0.880864    0.578570
  H     -3.268442   -0.669909    0.342273
  H     -1.645970   -0.297011   -1.476382
  H     -1.079608   -1.653904   -0.467760
  H      2.186308    0.717275    1.035669
  H      2.730739    0.270604   -0.595094
  H      2.883009   -0.912395    0.742988

 Total Charge           Charge          ....    0
 Multiplicity           Mult            ....    1
 Number of Electrons    NEL             ....   48
 Basis Dimension        Dim             ....  164

ORBITAL ENERGIES
----------------

  NO   OCC          E(Eh)            E(eV)
   0   2.0000     -19.005689      -517.1711
   1   2.0000     -18.944479      -515.5055
   2   2.0000     -10.162419      -276.5335
   3   2.0000     -10.076457      -274.1943
   4   2.0000     -10.038114      -273.1510
   5   2.0000     -10.021229      -272.6915
   6   2.0000      -1.080602       -29.4047
   7   2.0000      -0.989695       -26.9310
   8   2.0000      -0.755701       -20.5637
   9   2.0000      -0.691880       -18.8270
  10   2.0000      -0.605109       -16.4659
  11   2.0000      -0.531087       -14.4516
  12   2.0000      -0.470933       -12.8147
  13   2.0000      -0.459023       -12.4907
  14   2.0000      -0.450586       -12.2611
  15   2.0000      -0.409919       -11.1545
  16   2.0000      -0.398911       -10.8549
  17   2.0000      -0.371860       -10.1188
  18   2.0000      -0.343349        -9.3430
  19   2.0000      -0.331816        -9.0292
  20   2.0000      -0.321448        -8.7470
  21   2.0000      -0.313627        -8.5342
  22   2.0000      -0.282064        -7.6753
  23   2.0000      -0.253248        -6.8912
  24   0.0000      -0.023928        -0.6511
  25   0.0000       0.070164         1.9093
  26   0.0000       0.105357         2.8669
  27   0.0000       0.129859         3.5336
  28   0.0000       0.139875         3.8062

MULLIKEN ATOMIC CHARGES
-----------------------
   0 C :   -0.490547
   1 C :   -0.304589
   2 C :    0.442979
   3 O :   -0.515215
   4 O :   -0.201492
   5 C :   -0.328113
   6 H :    0.163206
   7 H :    0.166108
   8 H :    0.171050
   9 H :    0.185468
  10 H :    0.175676
  11 H :    0.177600
  12 H :    0.179477
  13 H :    0.178393
Sum of atomic charges:    0.0000000

LOEWDIN ATOMIC CHARGES
----------------------
   0 C :   -0.396729
   1 C :   -0.233785
   2 C :    0.363446
   3 O :   -0.489376
   4 O :   -0.605132
   5 C :   -0.042239
   6 H :    0.159988
   7 H :    0.161277
   8 H :    0.160010
   9 H :    0.186271
  10 H :    0.181683
  11 H :    0.184205
  12 H :    0.182037
  13 H :    0.188345

  Mayer bond orders larger than 0.100000
B(  0-C ,  1-C ) :   0.8847 B(  0-C ,  6-H ) :   0.9712 B(  0-C ,  7-H ) :   0.9738
B(  0-C ,  8-H ) :   0.9666 B(  1-C ,  2-C ) :   0.9570 B(  1-C ,  9-H ) :   0.9458
B(  1-C , 10-H ) :   0.9755 B(  2-C ,  3-O ) :   1.7422 B(  2-C ,  4-O ) :   1.0912
B(  4-O ,  5-C ) :   0.8320 B(  5-C , 11-H ) :   0.9587 B(  5-C , 12-H ) :   0.9538
B(  5-C , 13-H ) :   0.9594

Dispersion correction           -0.002971154
FINAL SINGLE POINT ENERGY      -307.636966644363

DIPOLE MOMENT
-------------

Method             : SCF
Type of density    : Electron Density
Multiplicity       :   1
Irrep              :   0
Energy             :  -307.6433626615745993 Eh
Relativity type    :
Basis              : AO
                                X                 Y                 Z
Electronic contribution:      2.647433088       0.968809103      -1.438566088
Nuclear contribution   :     -2.456320011      -2.037398923       1.604579388
                        -----------------------------------------
Total Dipole Moment    :      0.191113077      -1.068589820       0.166013299
                        -----------------------------------------
Magnitude (a.u.)       :      1.098166120
Magnitude (Debye)      :      2.791316448

Rotational constants in cm-1:             0.260457             0.074676             0.065503
Rotational constants in MHz :          7808.309925          2238.722147          1963.744069

                             ****ORCA TERMINATED NORMALLY****
TOTAL RUN TIME: 0 days 0 hours 0 minutes 20 seconds 892 msec
