                         Program Version 6.0.0  -   RELEASE  -
|  1> ! r2scan-3c def2/J RI DEFGRID2 scfconv6 printgap
|  2> %output
|  3>     printlevel normal
|  4> end
|  5> * xyz 0 1
|  6> C -1.3812967958 -0.5888547678 -1.477e-07
|  7> S 1.3209e-06 0.5922788729 -3.832e-07
|  8> C 1.3812940794 -0.5888616275 -1.39e-07
|  9> H -1.3278782731 -1.2013977725 0.894812584
| 10> H -1.3281197528 -1.2011438301 -0.8950028992
| 11> H -2.2925793093 -0.0014189708 0.0002059179
| 12> H 1.3280948384 -1.2011620631 0.8950070985
| 13> H 2.2925480618 -0.0013808321 -0.0001545736
| 14> H 1.3279247845 -1.2013739383 -0.89485252
| 15> *
| 16>
| 17>                          ****END OF INPUT****

CARTESIAN COORDINATES (ANGSTROEM)
---------------------------------
  C     -1.381297   -0.588855   -0.000000
  S      0.000001    0.592279   -0.000000
  C      1.381294   -0.588862   -0.000000
  H     -1.327878   -1.201398    0.894813
  H     -1.328120   -1.201144   -0.895003
  H     -2.292579   -0.001419    0.000206
  H      1.328095   -1.201162    0.895007
  H      2.292548   -0.001381   -0.000155
  H      1.327925   -1.201374   -0.894853

 Total Charge           Charge          ....    0
 Multiplicity           Mult            ....    1
 Number of Electrons    NEL             ....   34
 Basis Dimension        Dim             ....   95

ORBITAL ENERGIES
----------------

  NO   OCC          E(Eh)            E(eV)
   0   2.0000     -88.546578     -2409.4749
   1   2.0000     -10.054384      -273.5937
   2   2.0000     -10.054378      -273.5935
   3   2.0000      -7.840287      -213.3451
   4   2.0000      -5.788030      -157.5003
   5   2.0000      -5.783917      -157.3884
   6   2.0000      -5.776774      -157.1940
   7   2.0000      -0.761627       -20.7249
   8   2.0000      -0.674263       -18.3476
   9   2.0000      -0.561199       -15.2710
  10   2.0000      -0.414586       -11.2815
  11   2.0000      -0.411524       -11.1981
  12   2.0000      -0.395902       -10.7730
  13   2.0000      -0.380218       -10.3462
  14   2.0000      -0.336666        -9.1611
  15   2.0000      -0.285062        -7.7569
  16   2.0000      -0.189981        -5.1697
  17   0.0000       0.021973         0.5979
  18   0.0000       0.055771         1.5176
  19   0.0000       0.090790         2.4705
  20   0.0000       0.139670         3.8006
  21   0.0000       0.157301         4.2804

MULLIKEN ATOMIC CHARGES
-----------------------
   0 C :   -0.403618
   1 S :   -0.119941
   2 C :   -0.403615
   3 H :    0.154004
   4 H :    0.154016
   5 H :    0.155567
   6 H :    0.154015
   7 H :    0.155566
   8 H :    0.154006
Sum of atomic charges:   -0.0000000

LOEWDIN ATOMIC CHARGES
----------------------
   0 C :   -0.462201
   1 S :   -0.021127
   2 C :   -0.462201
   3 H :    0.153246
   4 H :    0.153244
   5 H :    0.166271
   6 H :    0.153247
   7 H :    0.166273
   8 H :    0.153248

  Mayer bond orders larger than 0.100000
B(  0-C ,  1-S ) :   0.9848 B(  0-C ,  3-H ) :   0.9547 B(  0-C ,  4-H ) :   0.9547
B(  0-C ,  5-H ) :   0.9520 B(  1-S ,  2-C ) :   0.9848 B(  2-C ,  6-H ) :   0.9547
B(  2-C ,  7-H ) :   0.9520 B(  2-C ,  8-H ) :   0.9547

Dispersion correction           -0.001598156
FINAL SINGLE POINT ENERGY      -477.953702626687

DIPOLE MOMENT
-------------

Method             : SCF
Type of density    : Electron Density
Multiplicity       :   1
Irrep              :   0
Energy             :  -477.9608128237245523 Eh
Relativity type    :
Basis              : AO
                                X                 Y                 Z
Electronic contribution:      0.000011046       3.850780630      -0.000011750
Nuclear contribution   :     -0.000009092      -4.527473944       0.000014653
                        -----------------------------------------
Total Dipole Moment    :      0.000001954      -0.676693315       0.000002904
                        -----------------------------------------
Magnitude (a.u.)       :      0.676693315
Magnitude (Debye)      :      1.720017713

Rotational constants in cm-1:             0.588940             0.252476             0.189551
Rotational constants in MHz :         17655.974700          7569.053226          5682.597140

                             ****ORCA TERMINATED NORMALLY****
TOTAL RUN TIME: 0 days 0 hours 0 minutes 6 seconds 65 msec
