                         Program Version 6.0.0  -   RELEASE  -
|  1> ! r2scan-3c def2/J RI DEFGRID2 scfconv6 printgap
|  2> %output
|  3>     printlevel normal
|  4> end
|  5> %cpcm
|  6>     smd true
|  7>     smdsolvent "water"
|  8> end
|  9> * xyz 0 1
| 10> C -1.3812967958 -0.5888547678 -1.477e-07
| 11> S 1.3209e-06 0.5922788729 -3.832e-07
| 12> C 1.3812940794 -0.5888616275 -1.39e-07
| 13> H -1.3278782731 -1.2013977725 0.894812584
| 14> H -1.3281197528 -1.2011438301 -0.8950028992
| 15> H -2.2925793093 -0.0014189708 0.0002059179
| 16> H 1.3280948384 -1.2011620631 0.8950070985
| 17> H 2.2925480618 -0.0013808321 -0.0001545736
| 18> H 1.3279247845 -1.2013739383 -0.89485252
| 19> *
| 20>
| 21>                          ****END OF INPUT****

CARTESIAN COORDINATES (ANGSTROEM)
---------------------------------
  C     -1.381297   -0.588855   -0.000000
  S      0.000001    0.592279   -0.000000
  C      1.381294   -0.588862   -0.000000
  H     -1.327878   -1.201398    0.894813
  H     -1.328120   -1.201144   -0.895003
  H     -2.292579   -0.001419    0.000206
  H      1.328095   -1.201162    0.895007
  H      2.292548   -0.001381   -0.000155
  H      1.327925   -1.201374   -0.894853

 Total Charge           Charge          ....    0
 Multiplicity           Mult            ....    1
 Number of Electrons    NEL             ....   34
 Basis Dimension        Dim             ....   95

ORBITAL ENERGIES
----------------

  NO   OCC          E(Eh)            E(eV)
   0   2.0000     -88.545008     -2409.4322
   1   2.0000     -10.042605      -273.2732
   2   2.0000     -10.042600      -273.2730
   3   2.0000      -7.838737      -213.3029
   4   2.0000      -5.786227      -157.4512
   5   2.0000      -5.782244      -157.3429
   6   2.0000      -5.775685      -157.1644
   7   2.0000      -0.754613       -20.5341
   8   2.0000      -0.663111       -18.0442
   9   2.0000      -0.553303       -15.0561
  10   2.0000      -0.402844       -10.9619
  11   2.0000      -0.400472       -10.8974
  12   2.0000      -0.385190       -10.4815
  13   2.0000      -0.367764       -10.0074
  14   2.0000      -0.326667        -8.8891
  15   2.0000      -0.281990        -7.6733
  16   2.0000      -0.189843        -5.1659
  17   0.0000       0.025396         0.6911
  18   0.0000       0.060596         1.6489
  19   0.0000       0.101665         2.7664
  20   0.0000       0.151005         4.1090
  21   0.0000       0.165375         4.5001

MULLIKEN ATOMIC CHARGES
-----------------------
   0 C :   -0.427354
   1 S :   -0.185737
   2 C :   -0.427351
   3 H :    0.173847
   4 H :    0.173855
   5 H :    0.172518
   6 H :    0.173856
   7 H :    0.172516
   8 H :    0.173850
Sum of atomic charges:    0.0000000

LOEWDIN ATOMIC CHARGES
----------------------
   0 C :   -0.462265
   1 S :   -0.062752
   2 C :   -0.462265
   3 H :    0.161052
   4 H :    0.161048
   5 H :    0.171538
   6 H :    0.161052
   7 H :    0.171539
   8 H :    0.161054

  Mayer bond orders larger than 0.100000
B(  0-C ,  1-S ) :   0.9836 B(  0-C ,  3-H ) :   0.9499 B(  0-C ,  4-H ) :   0.9499
B(  0-C ,  5-H ) :   0.9447 B(  1-S ,  2-C ) :   0.9836 B(  2-C ,  6-H ) :   0.9499
B(  2-C ,  7-H ) :   0.9447 B(  2-C ,  8-H ) :   0.9499

Dispersion correction           -0.001598156
FINAL SINGLE POINT ENERGY      -477.955085187057

DIPOLE MOMENT
-------------

Method             : SCF
Type of density    : Electron Density
Multiplicity       :   1
Irrep              :   0
Energy             :  -477.9621953840947413 Eh
Relativity type    :
Basis              : AO
                                X                 Y                 Z
Electronic contribution:      0.000012988       3.600870833      -0.000010196
Nuclear contribution   :     -0.000009092      -4.527473944       0.000014653
                        -----------------------------------------
Total Dipole Moment    :      0.000003896      -0.926603111       0.000004458
                        -----------------------------------------
Magnitude (a.u.)       :      0.926603111
Magnitude (Debye)      :      2.355237934

Rotational constants in cm-1:             0.588940             0.252476             0.189551
Rotational constants in MHz :         17655.974700          7569.053226          5682.597140

                             ****ORCA TERMINATED NORMALLY****
TOTAL RUN TIME: 0 days 0 hours 0 minutes 7 seconds 13 msec
