                         Program Version 6.0.0  -   RELEASE  -
|  1> ! pbe def2-sv(p) def2/J RI DEFGRID1 loosescf d4 GCP(DFT/SV(P)) printgap
|  2> %output
|  3>     printlevel normal
|  4> end
|  5> * xyz 0 1
|  6> C -2.3649897257 -0.9144357417 0.4480595618
|  7> C -0.9137007644 -0.4537331693 0.6004614049
|  8> H -0.6292098051 -0.556117621 1.6594744873
|  9> C -0.7387403846 1.0237919403 0.1849018631
| 10> H -1.5021225101 1.2696320339 -0.5603486972
| 11> C 0.6602027573 1.236174516 -0.4329315038
| 12> H 0.9392289948 2.2881522653 -0.263817724
| 13> C 1.6672238942 0.3342122311 0.2918932834
| 14> H 2.6610377397 0.490265628 -0.1460853205
| 15> C 1.2834572667 -1.1455631624 0.0235354993
| 16> H 1.5991965781 -1.7611263869 0.8846030899
| 17> O -0.1022960395 -1.3100796969 -0.1834463735
| 18> O 1.9449725289 -1.6523953999 -1.0777198033
| 19> O 1.6463582708 0.6652201479 1.6583834698
| 20> O 0.7337552194 0.9132720648 -1.7968154797
| 21> O -0.9557030877 1.8938691795 1.2644663355
| 22> O -2.8286548922 -0.6085837171 -0.8461658362
| 23> H -2.9639636538 -0.3906806834 1.2046273141
| 24> H -2.3943933511 -1.9938813714 0.6301755568
| 25> H 1.6036688448 -1.1997184556 -1.8685689034
| 26> H 2.4331884793 0.3141090097 2.0984473185
| 27> H 0.0709604379 1.4175385307 -2.2894920191
| 28> H -0.2453955316 1.7620723997 1.9132390992
| 29> H -3.6871019096 -1.0321937085 -0.9833993617
| 30> *
| 31>
| 32>                          ****END OF INPUT****

CARTESIAN COORDINATES (ANGSTROEM)
---------------------------------
  C     -2.364990   -0.914436    0.448060
  C     -0.913701   -0.453733    0.600461
  H     -0.629210   -0.556118    1.659474
  C     -0.738740    1.023792    0.184902
  H     -1.502123    1.269632   -0.560349
  C      0.660203    1.236175   -0.432932
  H      0.939229    2.288152   -0.263818
  C      1.667224    0.334212    0.291893
  H      2.661038    0.490266   -0.146085
  C      1.283457   -1.145563    0.023535
  H      1.599197   -1.761126    0.884603
  O     -0.102296   -1.310080   -0.183446
  O      1.944973   -1.652395   -1.077720
  O      1.646358    0.665220    1.658383
  O      0.733755    0.913272   -1.796815
  O     -0.955703    1.893869    1.264466
  O     -2.828655   -0.608584   -0.846166
  H     -2.963964   -0.390681    1.204627
  H     -2.394393   -1.993881    0.630176
  H      1.603669   -1.199718   -1.868569
  H      2.433188    0.314109    2.098447
  H      0.070960    1.417539   -2.289492
  H     -0.245396    1.762072    1.913239
  H     -3.687102   -1.032194   -0.983399

 Total Charge           Charge          ....    0
 Multiplicity           Mult            ....    1
 Number of Electrons    NEL             ....   96
 Basis Dimension        Dim             ....  192

ORBITAL ENERGIES
----------------

  NO   OCC          E(Eh)            E(eV)
   0   2.0000     -18.776807      -510.9429
   1   2.0000     -18.762919      -510.5650
   2   2.0000     -18.752035      -510.2688
   3   2.0000     -18.747986      -510.1586
   4   2.0000     -18.741641      -509.9860
   5   2.0000     -18.739634      -509.9314
   6   2.0000      -9.977166      -271.4925
   7   2.0000      -9.944275      -270.5975
   8   2.0000      -9.942271      -270.5430
   9   2.0000      -9.935382      -270.3555
  10   2.0000      -9.930679      -270.2275
  11   2.0000      -9.929922      -270.2069
  12   2.0000      -0.973746       -26.4970
  13   2.0000      -0.946919       -25.7670
  14   2.0000      -0.936664       -25.4879
  15   2.0000      -0.925253       -25.1774
  16   2.0000      -0.916440       -24.9376
  17   2.0000      -0.897740       -24.4288
  18   2.0000      -0.694568       -18.9002
  19   2.0000      -0.685587       -18.6558
  20   2.0000      -0.612692       -16.6722
  21   2.0000      -0.583717       -15.8837
  22   2.0000      -0.554042       -15.0762
  23   2.0000      -0.520306       -14.1582
  24   2.0000      -0.504615       -13.7313
  25   2.0000      -0.489120       -13.3096
  26   2.0000      -0.477323       -12.9886
  27   2.0000      -0.456190       -12.4136
  28   2.0000      -0.441110       -12.0032
  29   2.0000      -0.435065       -11.8387
  30   2.0000      -0.412796       -11.2328
  31   2.0000      -0.383775       -10.4430
  32   2.0000      -0.380741       -10.3605
  33   2.0000      -0.365132        -9.9357
  34   2.0000      -0.351748        -9.5716
  35   2.0000      -0.347956        -9.4684
  36   2.0000      -0.331171        -9.0116
  37   2.0000      -0.319891        -8.7047
  38   2.0000      -0.297496        -8.0953
  39   2.0000      -0.297268        -8.0891
  40   2.0000      -0.277233        -7.5439
  41   2.0000      -0.265958        -7.2371
  42   2.0000      -0.253218        -6.8904
  43   2.0000      -0.237311        -6.4576
  44   2.0000      -0.229730        -6.2513
  45   2.0000      -0.216393        -5.8883
  46   2.0000      -0.210178        -5.7192
  47   2.0000      -0.187678        -5.1070
  48   0.0000       0.004352         0.1184
  49   0.0000       0.024022         0.6537
  50   0.0000       0.031612         0.8602
  51   0.0000       0.058929         1.6035
  52   0.0000       0.074138         2.0174

MULLIKEN ATOMIC CHARGES
-----------------------
   0 C :    0.064653
   1 C :    0.036978
   2 H :    0.049893
   3 C :    0.048172
   4 H :    0.068769
   5 C :    0.062099
   6 H :    0.068636
   7 C :   -0.048761
   8 H :    0.083237
   9 C :    0.237893
  10 H :    0.040303
  11 O :   -0.297975
  12 O :   -0.398186
  13 O :   -0.422173
  14 O :   -0.420586
  15 O :   -0.430810
  16 O :   -0.435970
  17 H :    0.073747
  18 H :    0.077496
  19 H :    0.305353
  20 H :    0.317101
  21 H :    0.313169
  22 H :    0.303120
  23 H :    0.303843
Sum of atomic charges:   -0.0000000

LOEWDIN ATOMIC CHARGES
----------------------
   0 C :   -0.123027
   1 C :   -0.068021
   2 H :    0.102025
   3 C :   -0.077084
   4 H :    0.115280
   5 C :   -0.072322
   6 H :    0.103339
   7 C :   -0.095115
   8 H :    0.112838
   9 C :    0.002885
  10 H :    0.087704
  11 O :   -0.149219
  12 O :   -0.299189
  13 O :   -0.312986
  14 O :   -0.312373
  15 O :   -0.316644
  16 O :   -0.339718
  17 H :    0.102196
  18 H :    0.104633
  19 H :    0.280974
  20 H :    0.296571
  21 H :    0.292934
  22 H :    0.275111
  23 H :    0.289209

  Mayer bond orders larger than 0.100000
B(  0-C ,  1-C ) :   1.0617 B(  0-C , 16-O ) :   1.0892 B(  0-C , 17-H ) :   0.9111
B(  0-C , 18-H ) :   0.9086 B(  1-C ,  2-H ) :   0.8750 B(  1-C ,  3-C ) :   0.9814
B(  1-C , 11-O ) :   1.0260 B(  3-C ,  4-H ) :   0.8736 B(  3-C ,  5-C ) :   0.9795
B(  3-C , 15-O ) :   1.0401 B(  5-C ,  6-H ) :   0.8939 B(  5-C ,  7-C ) :   1.0270
B(  5-C , 14-O ) :   1.0424 B(  7-C ,  8-H ) :   0.8988 B(  7-C ,  9-C ) :   0.9284
B(  7-C , 13-O ) :   1.0390 B(  9-C , 10-H ) :   0.9023 B(  9-C , 11-O ) :   1.0361
B(  9-C , 12-O ) :   1.1461 B( 12-O , 19-H ) :   0.8266 B( 13-O , 20-H ) :   0.8407
B( 14-O , 21-H ) :   0.8404 B( 15-O , 22-H ) :   0.8287 B( 16-O , 23-H ) :   0.8496

Dispersion correction           -0.025132198
FINAL SINGLE POINT ENERGY      -685.691309183452

DIPOLE MOMENT
-------------

Method             : SCF
Type of density    : Electron Density
Multiplicity       :   1
Irrep              :   0
Energy             :  -685.8219972465382170 Eh
Relativity type    :
Basis              : AO
                                X                 Y                 Z
Electronic contribution:      1.871078977      -0.394758196      -1.746355647
Nuclear contribution   :     -1.977646171       0.568993727       2.123416088
                        -----------------------------------------
Total Dipole Moment    :     -0.106567194       0.174235532       0.377060441
                        -----------------------------------------
Magnitude (a.u.)       :      0.428822998
Magnitude (Debye)      :      1.089981438

Rotational constants in cm-1:             0.039800             0.028245             0.023319
Rotational constants in MHz :          1193.177924           846.762821           699.081393

                             ****ORCA TERMINATED NORMALLY****
TOTAL RUN TIME: 0 days 0 hours 0 minutes 12 seconds 28 msec
