                         Program Version 6.0.0  -   RELEASE  -
|  1> ! r2scan-3c def2/J RI DEFGRID2 scfconv6 printgap
|  2> %output
|  3>     printlevel normal
|  4> end
|  5> %cpcm
|  6>     smd true
|  7>     smdsolvent "water"
|  8> end
|  9> * xyz 0 1
| 10> C -1.2631383306 -0.7263670338 -0.1054756248
| 11> C -8.52505e-05 -0.0029523254 0.3622584308
| 12> C 1.2580415655 -0.7348036788 -0.1052503131
| 13> O 0.0045925698 1.3520149496 -0.0580977702
| 14> H -2.1449083494 -0.1654720765 0.1942459574
| 15> H -1.2627353059 -0.8270491113 -1.1888216081
| 16> H -1.3086881528 -1.7166531397 0.3372222708
| 17> H -0.0002183098 0.0603011998 1.4565965719
| 18> H 2.1440249345 -0.1854940383 0.2033402738
| 19> H 1.2616774965 -0.8259103896 -1.1895627109
| 20> H 1.2915676187 -1.729268031 0.3291704182
| 21> H 0.0081300449 1.3751831336 -1.0256627484
| 22> *
| 23>
| 24>                          ****END OF INPUT****

CARTESIAN COORDINATES (ANGSTROEM)
---------------------------------
  C     -1.263138   -0.726367   -0.105476
  C     -0.000085   -0.002952    0.362258
  C      1.258042   -0.734804   -0.105250
  O      0.004593    1.352015   -0.058098
  H     -2.144908   -0.165472    0.194246
  H     -1.262735   -0.827049   -1.188822
  H     -1.308688   -1.716653    0.337222
  H     -0.000218    0.060301    1.456597
  H      2.144025   -0.185494    0.203340
  H      1.261677   -0.825910   -1.189563
  H      1.291568   -1.729268    0.329170
  H      0.008130    1.375183   -1.025663

 Total Charge           Charge          ....    0
 Multiplicity           Mult            ....    1
 Number of Electrons    NEL             ....   34
 Basis Dimension        Dim             ....  121

ORBITAL ENERGIES
----------------

  NO   OCC          E(Eh)            E(eV)
   0   2.0000     -18.947377      -515.5843
   1   2.0000     -10.076416      -274.1932
   2   2.0000     -10.009105      -272.3616
   3   2.0000     -10.009040      -272.3598
   4   2.0000      -0.984616       -26.7928
   5   2.0000      -0.728858       -19.8332
   6   2.0000      -0.648153       -17.6371
   7   2.0000      -0.564722       -15.3669
   8   2.0000      -0.443151       -12.0588
   9   2.0000      -0.432164       -11.7598
  10   2.0000      -0.389283       -10.5929
  11   2.0000      -0.374233       -10.1834
  12   2.0000      -0.349464        -9.5094
  13   2.0000      -0.327045        -8.8993
  14   2.0000      -0.316510        -8.6127
  15   2.0000      -0.285084        -7.7575
  16   2.0000      -0.239191        -6.5087
  17   0.0000       0.083315         2.2671
  18   0.0000       0.123491         3.3604
  19   0.0000       0.137569         3.7434
  20   0.0000       0.142726         3.8838
  21   0.0000       0.147175         4.0048

MULLIKEN ATOMIC CHARGES
-----------------------
   0 C :   -0.497393
   1 C :    0.048222
   2 C :   -0.497310
   3 O :   -0.500407
   4 H :    0.159487
   5 H :    0.159257
   6 H :    0.159187
   7 H :    0.144792
   8 H :    0.159518
   9 H :    0.159452
  10 H :    0.159026
  11 H :    0.346169
Sum of atomic charges:    0.0000000

LOEWDIN ATOMIC CHARGES
----------------------
   0 C :   -0.408622
   1 C :    0.034142
   2 C :   -0.408508
   3 O :   -0.648515
   4 H :    0.160125
   5 H :    0.159626
   6 H :    0.163502
   7 H :    0.179822
   8 H :    0.160058
   9 H :    0.159711
  10 H :    0.163541
  11 H :    0.285118

  Mayer bond orders larger than 0.100000
B(  0-C ,  1-C ) :   0.9395 B(  0-C ,  4-H ) :   0.9671 B(  0-C ,  5-H ) :   0.9721
B(  0-C ,  6-H ) :   0.9646 B(  1-C ,  2-C ) :   0.9396 B(  1-C ,  3-O ) :   0.9144
B(  1-C ,  7-H ) :   0.9489 B(  2-C ,  8-H ) :   0.9670 B(  2-C ,  9-H ) :   0.9721
B(  2-C , 10-H ) :   0.9647 B(  3-O , 11-H ) :   0.8703

Dispersion correction           -0.002148618
FINAL SINGLE POINT ENERGY      -194.312173116543

DIPOLE MOMENT
-------------

Method             : SCF
Type of density    : Electron Density
Multiplicity       :   1
Irrep              :   0
Energy             :  -194.3168787747745228 Eh
Relativity type    :
Basis              : AO
                                X                 Y                 Z
Electronic contribution:      0.010699192       2.997206778       0.325352344
Nuclear contribution   :     -0.010392281      -3.746038170      -0.829712823
                        -----------------------------------------
Total Dipole Moment    :      0.000306910      -0.748831393      -0.504360479
                        -----------------------------------------
Magnitude (a.u.)       :      0.902844417
Magnitude (Debye)      :      2.294848134

Rotational constants in cm-1:             0.282599             0.270524             0.159840
Rotational constants in MHz :          8472.101091          8110.099724          4791.868542

                             ****ORCA TERMINATED NORMALLY****
TOTAL RUN TIME: 0 days 0 hours 0 minutes 14 seconds 173 msec
