                         Program Version 6.0.0  -   RELEASE  -
|  1> ! pbe def2-sv(p) def2/J RI DEFGRID1 loosescf d4 GCP(DFT/SV(P)) printgap
|  2> %output
|  3>     printlevel normal
|  4> end
|  5> * xyz 0 1
|  6> C 1.6775300393 -1.209133311 0.0464908878
|  7> C 0.9403604579 0.012564623 -0.4905970709
|  8> H 0.9004945395 -0.0147295134 -1.5890891483
|  9> C -0.5220310738 -0.022186367 -0.0164679138
| 10> F -1.1892128006 -1.0878113859 -0.4948615338
| 11> F -0.6529444535 -0.0568792045 1.3165659849
| 12> F -1.2101125284 1.0624179016 -0.4316147245
| 13> O 1.5642670058 1.1721986514 -0.0203459139
| 14> H 2.6985867767 -1.1876809803 -0.3189925228
| 15> H 1.1877848352 -2.1192755458 -0.2851208831
| 16> H 1.6934885415 -1.1743046275 1.132529283
| 17> H 1.2463858261 1.9628198773 -0.4808117235
| 18> *
| 19>
| 20>                          ****END OF INPUT****

CARTESIAN COORDINATES (ANGSTROEM)
---------------------------------
  C      1.677530   -1.209133    0.046491
  C      0.940360    0.012565   -0.490597
  H      0.900495   -0.014730   -1.589089
  C     -0.522031   -0.022186   -0.016468
  F     -1.189213   -1.087811   -0.494862
  F     -0.652944   -0.056879    1.316566
  F     -1.210113    1.062418   -0.431615
  O      1.564267    1.172199   -0.020346
  H      2.698587   -1.187681   -0.318993
  H      1.187785   -2.119276   -0.285121
  H      1.693489   -1.174305    1.132529
  H      1.246386    1.962820   -0.480812

 Total Charge           Charge          ....    0
 Multiplicity           Mult            ....    1
 Number of Electrons    NEL             ....   58
 Basis Dimension        Dim             ....  108

ORBITAL ENERGIES
----------------

  NO   OCC          E(Eh)            E(eV)
   0   2.0000     -24.285367      -660.8384
   1   2.0000     -24.284051      -660.8026
   2   2.0000     -24.283333      -660.7831
   3   2.0000     -18.772110      -510.8151
   4   2.0000     -10.116030      -275.2712
   5   2.0000      -9.969711      -271.2896
   6   2.0000      -9.892400      -269.1859
   7   2.0000      -1.187978       -32.3265
   8   2.0000      -1.095178       -29.8013
   9   2.0000      -1.094021       -29.7698
  10   2.0000      -0.950459       -25.8633
  11   2.0000      -0.714633       -19.4462
  12   2.0000      -0.627639       -17.0789
  13   2.0000      -0.569133       -15.4869
  14   2.0000      -0.528741       -14.3878
  15   2.0000      -0.522171       -14.2090
  16   2.0000      -0.513480       -13.9725
  17   2.0000      -0.470331       -12.7984
  18   2.0000      -0.399212       -10.8631
  19   2.0000      -0.396478       -10.7887
  20   2.0000      -0.386843       -10.5265
  21   2.0000      -0.372100       -10.1253
  22   2.0000      -0.363819        -9.9000
  23   2.0000      -0.350821        -9.5463
  24   2.0000      -0.350136        -9.5277
  25   2.0000      -0.334333        -9.0977
  26   2.0000      -0.330697        -8.9987
  27   2.0000      -0.297955        -8.1078
  28   2.0000      -0.244089        -6.6420
  29   0.0000       0.016099         0.4381
  30   0.0000       0.054833         1.4921
  31   0.0000       0.083190         2.2637
  32   0.0000       0.095450         2.5973
  33   0.0000       0.101436         2.7602

MULLIKEN ATOMIC CHARGES
-----------------------
   0 C :   -0.257152
   1 C :   -0.037864
   2 H :    0.086815
   3 C :    0.385643
   4 F :   -0.143895
   5 F :   -0.136562
   6 F :   -0.152754
   7 O :   -0.412157
   8 H :    0.120623
   9 H :    0.117148
  10 H :    0.121507
  11 H :    0.308647
Sum of atomic charges:   -0.0000000

LOEWDIN ATOMIC CHARGES
----------------------
   0 C :   -0.340246
   1 C :   -0.097126
   2 H :    0.114724
   3 C :    0.095854
   4 F :   -0.051341
   5 F :   -0.040814
   6 F :   -0.059622
   7 O :   -0.309811
   8 H :    0.132410
   9 H :    0.131416
  10 H :    0.132321
  11 H :    0.292237

  Mayer bond orders larger than 0.100000
B(  0-C ,  1-C ) :   1.0957 B(  0-C ,  8-H ) :   0.9416 B(  0-C ,  9-H ) :   0.9415
B(  0-C , 10-H ) :   0.9405 B(  1-C ,  2-H ) :   0.8886 B(  1-C ,  3-C ) :   0.9494
B(  1-C ,  7-O ) :   1.0639 B(  3-C ,  4-F ) :   1.1457 B(  3-C ,  5-F ) :   1.1648
B(  3-C ,  6-F ) :   1.1548 B(  7-O , 11-H ) :   0.8418

Dispersion correction           -0.008160634
FINAL SINGLE POINT ENERGY      -491.116170048361

DIPOLE MOMENT
-------------

Method             : SCF
Type of density    : Electron Density
Multiplicity       :   1
Irrep              :   0
Energy             :  -491.1872827597297260 Eh
Relativity type    :
Basis              : AO
                                X                 Y                 Z
Electronic contribution:     -9.681946759       2.374619001       1.203660032
Nuclear contribution   :     10.100184033      -2.282981249      -1.807910965
                        -----------------------------------------
Total Dipole Moment    :      0.418237274       0.091637751      -0.604250933
                        -----------------------------------------
Magnitude (a.u.)       :      0.740566732
Magnitude (Debye)      :      1.882371038

Rotational constants in cm-1:             0.117858             0.079567             0.065198
Rotational constants in MHz :          3533.293938          2385.356717          1954.577680

                             ****ORCA TERMINATED NORMALLY****
TOTAL RUN TIME: 0 days 0 hours 0 minutes 5 seconds 932 msec
