                         Program Version 6.0.0  -   RELEASE  -
|  1> ! pbe def2-sv(p) def2/J RI DEFGRID1 loosescf d4 GCP(DFT/SV(P)) printgap
|  2> %output
|  3>     printlevel normal
|  4> end
|  5> * xyz 0 1
|  6> C -2.2796730677 -0.722647341 -0.7371220427
|  7> C -1.0917490463 -0.5719232167 0.2243183865
|  8> H -1.3449075055 -0.9830631878 1.2169211544
|  9> C -0.7169108489 0.9158883505 0.4281986893
| 10> H -1.5750872889 1.5197546824 0.110755465
| 11> C 0.5005289148 1.2703503712 -0.4345891606
| 12> H 0.7888971339 2.3060558332 -0.2007331667
| 13> C 1.6882031839 0.3670822162 -0.0315249831
| 14> H 2.4075563924 0.3334498358 -0.8609961357
| 15> C 1.2089996775 -1.084969945 0.2500415906
| 16> H 1.144866585 -1.221079231 1.3462879209
| 17> O -0.0384392161 -1.3340521327 -0.3390212788
| 18> O 2.1060854947 -2.0267086778 -0.2309520231
| 19> O 2.2749857481 0.9403138745 1.1145387153
| 20> O 0.1459769306 1.1316516162 -1.7827365823
| 21> O -0.4934478695 1.2198464111 1.7852339982
| 22> O -3.4389253682 -0.0789820369 -0.2833143822
| 23> H -2.4502809837 -1.7917038425 -0.909432564
| 24> H -2.0114186876 -0.2513959479 -1.6847180806
| 25> H 1.8088762744 -2.3134480563 -1.1085395043
| 26> H 3.0993836123 0.4809721588 1.3309376229
| 27> H 0.8273833034 1.5240682742 -2.3477285662
| 28> H 0.4588281464 1.1797130711 1.9773060431
| 29> H -3.7539847895 -0.5059850015 0.5263291241
| 30> *
| 31>
| 32>                          ****END OF INPUT****

CARTESIAN COORDINATES (ANGSTROEM)
---------------------------------
  C     -2.279673   -0.722647   -0.737122
  C     -1.091749   -0.571923    0.224318
  H     -1.344908   -0.983063    1.216921
  C     -0.716911    0.915888    0.428199
  H     -1.575087    1.519755    0.110755
  C      0.500529    1.270350   -0.434589
  H      0.788897    2.306056   -0.200733
  C      1.688203    0.367082   -0.031525
  H      2.407556    0.333450   -0.860996
  C      1.209000   -1.084970    0.250042
  H      1.144867   -1.221079    1.346288
  O     -0.038439   -1.334052   -0.339021
  O      2.106085   -2.026709   -0.230952
  O      2.274986    0.940314    1.114539
  O      0.145977    1.131652   -1.782737
  O     -0.493448    1.219846    1.785234
  O     -3.438925   -0.078982   -0.283314
  H     -2.450281   -1.791704   -0.909433
  H     -2.011419   -0.251396   -1.684718
  H      1.808876   -2.313448   -1.108540
  H      3.099384    0.480972    1.330938
  H      0.827383    1.524068   -2.347729
  H      0.458828    1.179713    1.977306
  H     -3.753985   -0.505985    0.526329

 Total Charge           Charge          ....    0
 Multiplicity           Mult            ....    1
 Number of Electrons    NEL             ....   96
 Basis Dimension        Dim             ....  192

ORBITAL ENERGIES
----------------

  NO   OCC          E(Eh)            E(eV)
   0   2.0000     -18.779993      -511.0296
   1   2.0000     -18.771372      -510.7950
   2   2.0000     -18.763884      -510.5913
   3   2.0000     -18.759240      -510.4649
   4   2.0000     -18.747367      -510.1418
   5   2.0000     -18.735737      -509.8253
   6   2.0000      -9.988913      -271.8121
   7   2.0000      -9.948888      -270.7230
   8   2.0000      -9.947785      -270.6930
   9   2.0000      -9.935966      -270.3714
  10   2.0000      -9.932889      -270.2876
  11   2.0000      -9.923724      -270.0383
  12   2.0000      -0.987528       -26.8720
  13   2.0000      -0.953853       -25.9556
  14   2.0000      -0.940680       -25.5972
  15   2.0000      -0.925596       -25.1868
  16   2.0000      -0.917030       -24.9537
  17   2.0000      -0.908482       -24.7211
  18   2.0000      -0.696463       -18.9517
  19   2.0000      -0.689452       -18.7609
  20   2.0000      -0.613746       -16.7009
  21   2.0000      -0.592945       -16.1348
  22   2.0000      -0.564117       -15.3504
  23   2.0000      -0.526748       -14.3335
  24   2.0000      -0.507623       -13.8131
  25   2.0000      -0.489755       -13.3269
  26   2.0000      -0.472323       -12.8526
  27   2.0000      -0.459988       -12.5169
  28   2.0000      -0.448519       -12.2048
  29   2.0000      -0.444263       -12.0890
  30   2.0000      -0.415870       -11.3164
  31   2.0000      -0.395566       -10.7639
  32   2.0000      -0.388156       -10.5623
  33   2.0000      -0.368988       -10.0407
  34   2.0000      -0.353693        -9.6245
  35   2.0000      -0.346770        -9.4361
  36   2.0000      -0.328846        -8.9484
  37   2.0000      -0.319897        -8.7048
  38   2.0000      -0.312730        -8.5098
  39   2.0000      -0.300734        -8.1834
  40   2.0000      -0.275274        -7.4906
  41   2.0000      -0.263893        -7.1809
  42   2.0000      -0.257456        -7.0057
  43   2.0000      -0.245984        -6.6936
  44   2.0000      -0.240305        -6.5390
  45   2.0000      -0.222490        -6.0543
  46   2.0000      -0.205681        -5.5969
  47   2.0000      -0.197966        -5.3869
  48   0.0000       0.007686         0.2091
  49   0.0000       0.016785         0.4567
  50   0.0000       0.029525         0.8034
  51   0.0000       0.043448         1.1823
  52   0.0000       0.052947         1.4408

MULLIKEN ATOMIC CHARGES
-----------------------
   0 C :    0.058461
   1 C :    0.041983
   2 H :    0.053627
   3 C :    0.011422
   4 H :    0.090771
   5 C :    0.037546
   6 H :    0.080939
   7 C :    0.016304
   8 H :    0.042685
   9 C :    0.211171
  10 H :    0.042852
  11 O :   -0.309756
  12 O :   -0.400528
  13 O :   -0.419182
  14 O :   -0.401589
  15 O :   -0.430515
  16 O :   -0.427712
  17 H :    0.078065
  18 H :    0.096722
  19 H :    0.305269
  20 H :    0.316585
  21 H :    0.303235
  22 H :    0.302613
  23 H :    0.299031
Sum of atomic charges:    0.0000000

LOEWDIN ATOMIC CHARGES
----------------------
   0 C :   -0.130298
   1 C :   -0.072235
   2 H :    0.098848
   3 C :   -0.067569
   4 H :    0.122171
   5 C :   -0.073890
   6 H :    0.107727
   7 C :   -0.100317
   8 H :    0.100654
   9 C :    0.001784
  10 H :    0.089031
  11 O :   -0.147998
  12 O :   -0.309824
  13 O :   -0.309907
  14 O :   -0.307989
  15 O :   -0.325896
  16 O :   -0.324913
  17 H :    0.098248
  18 H :    0.121098
  19 H :    0.289349
  20 H :    0.296693
  21 H :    0.288485
  22 H :    0.271315
  23 H :    0.285435

  Mayer bond orders larger than 0.100000
B(  0-C ,  1-C ) :   1.0332 B(  0-C , 16-O ) :   1.0617 B(  0-C , 17-H ) :   0.9168
B(  0-C , 18-H ) :   0.9077 B(  1-C ,  2-H ) :   0.8899 B(  1-C ,  3-C ) :   0.9522
B(  1-C , 11-O ) :   0.9671 B(  3-C ,  4-H ) :   0.8876 B(  3-C ,  5-C ) :   1.0381
B(  3-C , 15-O ) :   1.0790 B(  5-C ,  6-H ) :   0.8982 B(  5-C ,  7-C ) :   0.9509
B(  5-C , 14-O ) :   1.0681 B(  7-C ,  8-H ) :   0.8808 B(  7-C ,  9-C ) :   0.9565
B(  7-C , 13-O ) :   1.0282 B(  9-C , 10-H ) :   0.8773 B(  9-C , 11-O ) :   1.0782
B(  9-C , 12-O ) :   1.1203 B( 12-O , 19-H ) :   0.8396 B( 13-O , 20-H ) :   0.8382
B( 14-O , 21-H ) :   0.8448 B( 15-O , 22-H ) :   0.8110 B( 16-O , 23-H ) :   0.8509

Dispersion correction           -0.024811679
FINAL SINGLE POINT ENERGY      -685.685316533020

DIPOLE MOMENT
-------------

Method             : SCF
Type of density    : Electron Density
Multiplicity       :   1
Irrep              :   0
Energy             :  -685.8161854623533600 Eh
Relativity type    :
Basis              : AO
                                X                 Y                 Z
Electronic contribution:      1.667622785      -0.506782361       0.202691099
Nuclear contribution   :     -0.554556466       0.257999255      -0.562382210
                        -----------------------------------------
Total Dipole Moment    :      1.113066320      -0.248783106      -0.359691112
                        -----------------------------------------
Magnitude (a.u.)       :      1.195904412
Magnitude (Debye)      :      3.039747442

Rotational constants in cm-1:             0.043876             0.024773             0.021450
Rotational constants in MHz :          1315.358137           742.681337           643.053175

                             ****ORCA TERMINATED NORMALLY****
TOTAL RUN TIME: 0 days 0 hours 0 minutes 12 seconds 150 msec
