                         Program Version 6.0.0  -   RELEASE  -
|  1> ! wb97x-v def2-tzvp def2/J RIJCOSX DEFGRID2 scfconv7 GCP(DFT/TZ) printgap
|  2> %output
|  3>     printlevel normal
|  4> end
|  5> * xyz 0 1
|  6> C -3.238847095798829 -0.027933597708779737 0.9800600567553465
|  7> O -1.7990975978212358 0.002426493756003444 0.8080008153134648
|  8> C -1.3519223153806226 -0.126139469931189 -0.4553773509059496
|  9> O -2.102644816399826 -0.2673936193825757 -1.4090766917484379
| 10> C 0.1490971549759514 -0.07120081251723302 -0.5402819422049763
| 11> C 0.8103662482090157 -1.2046264299942238 0.2647343970111897
| 12> C 2.330648382397647 -1.1473893131445663 0.10730513618541031
| 13> C 2.8806791415682707 0.2148120460586229 0.534231924230451
| 14> C 2.2063058461336196 1.3488774516975501 -0.2399076552896963
| 15> C 0.6858751981250918 1.2984059629525697 -0.08348553572651062
| 16> H -3.4042602464400358 0.09737890906721586 2.0495087839369406
| 17> H -3.6398104706573084 -0.9865922132091074 0.6423843181459792
| 18> H -3.702373137442564 0.7905066290987768 0.42419418496511074
| 19> H 0.3912618009188074 -0.20626775231861963 -1.6007021876392928
| 20> H 0.5460229655766469 -1.094734727036448 1.323684933835923
| 21> H 0.42406186846868754 -2.1735419640264015 -0.0721603384421819
| 22> H 2.791324957723566 -1.9472378176718437 0.6981105963709452
| 23> H 2.5928243911130835 -1.3323864761900173 -0.9433802769806731
| 24> H 2.699522253554315 0.3554496051970098 1.6088537013719337
| 25> H 3.9658695314980115 0.24800157208514428 0.38441286763740695
| 26> H 2.5784683425212447 2.320373713415063 0.1046580615575628
| 27> H 2.463170786838506 1.2661863481861342 -1.3049228272589657
| 28> H 0.41925853414772557 1.4540859261260246 0.9690840890236812
| 29> H 0.2113431608391407 2.0964156149826167 -0.6661072187034021
| 30> *
| 31>
| 32>                          ****END OF INPUT****

CARTESIAN COORDINATES (ANGSTROEM)
---------------------------------
  C     -3.238847   -0.027934    0.980060
  O     -1.799098    0.002426    0.808001
  C     -1.351922   -0.126139   -0.455377
  O     -2.102645   -0.267394   -1.409077
  C      0.149097   -0.071201   -0.540282
  C      0.810366   -1.204626    0.264734
  C      2.330648   -1.147389    0.107305
  C      2.880679    0.214812    0.534232
  C      2.206306    1.348877   -0.239908
  C      0.685875    1.298406   -0.083486
  H     -3.404260    0.097379    2.049509
  H     -3.639810   -0.986592    0.642384
  H     -3.702373    0.790507    0.424194
  H      0.391262   -0.206268   -1.600702
  H      0.546023   -1.094735    1.323685
  H      0.424062   -2.173542   -0.072160
  H      2.791325   -1.947238    0.698111
  H      2.592824   -1.332386   -0.943380
  H      2.699522    0.355450    1.608854
  H      3.965870    0.248002    0.384413
  H      2.578468    2.320374    0.104658
  H      2.463171    1.266186   -1.304923
  H      0.419259    1.454086    0.969084
  H      0.211343    2.096416   -0.666107

 Total Charge           Charge          ....    0
 Multiplicity           Mult            ....    1
 Number of Electrons    NEL             ....   78
 Basis Dimension        Dim             ....  394

ORBITAL ENERGIES
----------------

  NO   OCC          E(Eh)            E(eV)
   0   2.0000     -21.717284      -590.9574
   1   2.0000     -21.651850      -589.1768
   2   2.0000     -12.170422      -331.1740
   3   2.0000     -12.102281      -329.3198
   4   2.0000     -12.060315      -328.1779
   5   2.0000     -12.048289      -327.8506
   6   2.0000     -12.047922      -327.8406
   7   2.0000     -12.044259      -327.7409
   8   2.0000     -12.044005      -327.7340
   9   2.0000     -12.042218      -327.6854
  10   2.0000      -1.755334       -47.7651
  11   2.0000      -1.686434       -45.8902
  12   2.0000      -1.355371       -36.8815
  13   2.0000      -1.296168       -35.2705
  14   2.0000      -1.255030       -34.1511
  15   2.0000      -1.249078       -33.9891
  16   2.0000      -1.143942       -31.1282
  17   2.0000      -1.106339       -30.1050
  18   2.0000      -1.103241       -30.0207
  19   2.0000      -1.058345       -28.7990
  20   2.0000      -1.028200       -27.9787
  21   2.0000      -0.999538       -27.1988
  22   2.0000      -0.993375       -27.0311
  23   2.0000      -0.943758       -25.6810
  24   2.0000      -0.901486       -24.5307
  25   2.0000      -0.896627       -24.3984
  26   2.0000      -0.880693       -23.9649
  27   2.0000      -0.875983       -23.8367
  28   2.0000      -0.874078       -23.7849
  29   2.0000      -0.846316       -23.0294
  30   2.0000      -0.843062       -22.9409
  31   2.0000      -0.833708       -22.6864
  32   2.0000      -0.826156       -22.4808
  33   2.0000      -0.823338       -22.4042
  34   2.0000      -0.788690       -21.4613
  35   2.0000      -0.781817       -21.2743
  36   2.0000      -0.766886       -20.8680
  37   2.0000      -0.755760       -20.5653
  38   2.0000      -0.742068       -20.1927
  39   0.0000      -0.308554        -8.3962
  40   0.0000      -0.180160        -4.9024
  41   0.0000      -0.102227        -2.7817
  42   0.0000      -0.050807        -1.3825
  43   0.0000      -0.032816        -0.8930

MULLIKEN ATOMIC CHARGES
-----------------------
   0 C :   -0.195539
   1 O :   -0.242308
   2 C :    0.256810
   3 O :   -0.348448
   4 C :    0.064469
   5 C :   -0.257489
   6 C :   -0.171078
   7 C :   -0.186404
   8 C :   -0.171558
   9 C :   -0.257851
  10 H :    0.126425
  11 H :    0.130336
  12 H :    0.130471
  13 H :    0.090661
  14 H :    0.111850
  15 H :    0.110785
  16 H :    0.103251
  17 H :    0.092975
  18 H :    0.088794
  19 H :    0.104703
  20 H :    0.103081
  21 H :    0.093333
  22 H :    0.111248
  23 H :    0.111484
Sum of atomic charges:   -0.0000000

LOEWDIN ATOMIC CHARGES
----------------------
   0 C :   -0.287130
   1 O :    0.232216
   2 C :   -0.442059
   3 O :    0.081378
   4 C :   -0.214360
   5 C :   -0.224808
   6 C :   -0.256835
   7 C :   -0.259197
   8 C :   -0.256915
   9 C :   -0.224162
  10 H :    0.109012
  11 H :    0.111428
  12 H :    0.111525
  13 H :    0.164848
  14 H :    0.139746
  15 H :    0.137221
  16 H :    0.132624
  17 H :    0.134843
  18 H :    0.134196
  19 H :    0.131745
  20 H :    0.132643
  21 H :    0.134904
  22 H :    0.139696
  23 H :    0.137440

  Mayer bond orders larger than 0.100000
B(  0-C ,  1-O ) :   0.9119 B(  0-C , 10-H ) :   0.9731 B(  0-C , 11-H ) :   0.9787
B(  0-C , 12-H ) :   0.9787 B(  1-O ,  2-C ) :   1.1843 B(  2-C ,  3-O ) :   2.0741
B(  2-C ,  4-C ) :   0.9636 B(  4-C ,  5-C ) :   0.9582 B(  4-C ,  9-C ) :   0.9569
B(  4-C , 13-H ) :   0.9507 B(  5-C ,  6-C ) :   0.9842 B(  5-C , 14-H ) :   0.9702
B(  5-C , 15-H ) :   0.9730 B(  6-C ,  7-C ) :   0.9878 B(  6-C , 16-H ) :   0.9771
B(  6-C , 17-H ) :   0.9725 B(  7-C ,  8-C ) :   0.9876 B(  7-C , 18-H ) :   0.9742
B(  7-C , 19-H ) :   0.9765 B(  8-C ,  9-C ) :   0.9844 B(  8-C , 20-H ) :   0.9771
B(  8-C , 21-H ) :   0.9727 B(  9-C , 22-H ) :   0.9703 B(  9-C , 23-H ) :   0.9724

FINAL SINGLE POINT ENERGY      -463.785310759604

DIPOLE MOMENT
-------------

Method             : SCF
Type of density    : Electron Density
Multiplicity       :   1
Irrep              :   0
Energy             :  -463.8020322871045096 Eh
Relativity type    :
Basis              : AO
                                X                 Y                 Z
Electronic contribution:     -7.423223542      -0.706483362      -2.519303461
Nuclear contribution   :      7.791810070       0.821775264       3.306984375
                        -----------------------------------------
Total Dipole Moment    :      0.368586529       0.115291902       0.787680915
                        -----------------------------------------
Magnitude (a.u.)       :      0.877262489
Magnitude (Debye)      :      2.229824041

Rotational constants in cm-1:             0.091339             0.024799             0.023975
Rotational constants in MHz :          2738.278796           743.465045           718.748222

                             ****ORCA TERMINATED NORMALLY****
TOTAL RUN TIME: 0 days 0 hours 4 minutes 25 seconds 131 msec
