                         Program Version 6.0.0  -   RELEASE  -
|  1> ! wb97x-v def2-tzvp def2/J RIJCOSX DEFGRID2 scfconv7 GCP(DFT/TZ) printgap
|  2> %output
|  3>     printlevel normal
|  4> end
|  5> %cpcm
|  6>     smd true
|  7>     smdsolvent "water"
|  8> end
|  9> * xyz 0 1
| 10> C -3.238847095798829 -0.027933597708779737 0.9800600567553465
| 11> O -1.7990975978212358 0.002426493756003444 0.8080008153134648
| 12> C -1.3519223153806226 -0.126139469931189 -0.4553773509059496
| 13> O -2.102644816399826 -0.2673936193825757 -1.4090766917484379
| 14> C 0.1490971549759514 -0.07120081251723302 -0.5402819422049763
| 15> C 0.8103662482090157 -1.2046264299942238 0.2647343970111897
| 16> C 2.330648382397647 -1.1473893131445663 0.10730513618541031
| 17> C 2.8806791415682707 0.2148120460586229 0.534231924230451
| 18> C 2.2063058461336196 1.3488774516975501 -0.2399076552896963
| 19> C 0.6858751981250918 1.2984059629525697 -0.08348553572651062
| 20> H -3.4042602464400358 0.09737890906721586 2.0495087839369406
| 21> H -3.6398104706573084 -0.9865922132091074 0.6423843181459792
| 22> H -3.702373137442564 0.7905066290987768 0.42419418496511074
| 23> H 0.3912618009188074 -0.20626775231861963 -1.6007021876392928
| 24> H 0.5460229655766469 -1.094734727036448 1.323684933835923
| 25> H 0.42406186846868754 -2.1735419640264015 -0.0721603384421819
| 26> H 2.791324957723566 -1.9472378176718437 0.6981105963709452
| 27> H 2.5928243911130835 -1.3323864761900173 -0.9433802769806731
| 28> H 2.699522253554315 0.3554496051970098 1.6088537013719337
| 29> H 3.9658695314980115 0.24800157208514428 0.38441286763740695
| 30> H 2.5784683425212447 2.320373713415063 0.1046580615575628
| 31> H 2.463170786838506 1.2661863481861342 -1.3049228272589657
| 32> H 0.41925853414772557 1.4540859261260246 0.9690840890236812
| 33> H 0.2113431608391407 2.0964156149826167 -0.6661072187034021
| 34> *
| 35>
| 36>                          ****END OF INPUT****

CARTESIAN COORDINATES (ANGSTROEM)
---------------------------------
  C     -3.238847   -0.027934    0.980060
  O     -1.799098    0.002426    0.808001
  C     -1.351922   -0.126139   -0.455377
  O     -2.102645   -0.267394   -1.409077
  C      0.149097   -0.071201   -0.540282
  C      0.810366   -1.204626    0.264734
  C      2.330648   -1.147389    0.107305
  C      2.880679    0.214812    0.534232
  C      2.206306    1.348877   -0.239908
  C      0.685875    1.298406   -0.083486
  H     -3.404260    0.097379    2.049509
  H     -3.639810   -0.986592    0.642384
  H     -3.702373    0.790507    0.424194
  H      0.391262   -0.206268   -1.600702
  H      0.546023   -1.094735    1.323685
  H      0.424062   -2.173542   -0.072160
  H      2.791325   -1.947238    0.698111
  H      2.592824   -1.332386   -0.943380
  H      2.699522    0.355450    1.608854
  H      3.965870    0.248002    0.384413
  H      2.578468    2.320374    0.104658
  H      2.463171    1.266186   -1.304923
  H      0.419259    1.454086    0.969084
  H      0.211343    2.096416   -0.666107

 Total Charge           Charge          ....    0
 Multiplicity           Mult            ....    1
 Number of Electrons    NEL             ....   78
 Basis Dimension        Dim             ....  394

ORBITAL ENERGIES
----------------

  NO   OCC          E(Eh)            E(eV)
   0   2.0000     -21.722803      -591.1075
   1   2.0000     -21.667776      -589.6102
   2   2.0000     -12.182203      -331.4946
   3   2.0000     -12.092353      -329.0497
   4   2.0000     -12.055420      -328.0447
   5   2.0000     -12.038941      -327.5962
   6   2.0000     -12.038608      -327.5872
   7   2.0000     -12.032098      -327.4100
   8   2.0000     -12.031968      -327.4065
   9   2.0000     -12.029579      -327.3415
  10   2.0000      -1.763733       -47.9936
  11   2.0000      -1.700602       -46.2757
  12   2.0000      -1.348121       -36.6842
  13   2.0000      -1.291940       -35.1555
  14   2.0000      -1.244384       -33.8614
  15   2.0000      -1.242744       -33.8168
  16   2.0000      -1.144093       -31.1323
  17   2.0000      -1.107257       -30.1300
  18   2.0000      -1.092959       -29.7409
  19   2.0000      -1.069895       -29.1133
  20   2.0000      -1.022004       -27.8101
  21   2.0000      -0.997234       -27.1361
  22   2.0000      -0.996615       -27.1193
  23   2.0000      -0.945073       -25.7167
  24   2.0000      -0.912833       -24.8394
  25   2.0000      -0.898585       -24.4517
  26   2.0000      -0.878755       -23.9121
  27   2.0000      -0.866715       -23.5845
  28   2.0000      -0.866404       -23.5760
  29   2.0000      -0.838325       -22.8120
  30   2.0000      -0.834798       -22.7160
  31   2.0000      -0.828380       -22.5414
  32   2.0000      -0.816335       -22.2136
  33   2.0000      -0.815185       -22.1823
  34   2.0000      -0.779381       -21.2080
  35   2.0000      -0.770687       -20.9715
  36   2.0000      -0.756743       -20.5920
  37   2.0000      -0.745321       -20.2812
  38   2.0000      -0.730677       -19.8827
  39   0.0000      -0.315160        -8.5759
  40   0.0000      -0.175076        -4.7641
  41   0.0000      -0.105810        -2.8792
  42   0.0000      -0.047725        -1.2987
  43   0.0000      -0.024730        -0.6729

MULLIKEN ATOMIC CHARGES
-----------------------
   0 C :   -0.236027
   1 O :   -0.263641
   2 C :    0.361823
   3 O :   -0.472456
   4 C :    0.043381
   5 C :   -0.264788
   6 C :   -0.194440
   7 C :   -0.207138
   8 C :   -0.194883
   9 C :   -0.263901
  10 H :    0.156046
  11 H :    0.150139
  12 H :    0.150168
  13 H :    0.099680
  14 H :    0.116832
  15 H :    0.124244
  16 H :    0.115599
  17 H :    0.103859
  18 H :    0.098884
  19 H :    0.115889
  20 H :    0.115450
  21 H :    0.104169
  22 H :    0.116850
  23 H :    0.124260
Sum of atomic charges:   -0.0000000

LOEWDIN ATOMIC CHARGES
----------------------
   0 C :   -0.283762
   1 O :    0.230478
   2 C :   -0.424004
   3 O :    0.016890
   4 C :   -0.213434
   5 C :   -0.223986
   6 C :   -0.257169
   7 C :   -0.261168
   8 C :   -0.257271
   9 C :   -0.223206
  10 H :    0.119132
  11 H :    0.115990
  12 H :    0.116108
  13 H :    0.167878
  14 H :    0.140717
  15 H :    0.140325
  16 H :    0.135032
  17 H :    0.137623
  18 H :    0.136422
  19 H :    0.133402
  20 H :    0.135053
  21 H :    0.137662
  22 H :    0.140848
  23 H :    0.140441

  Mayer bond orders larger than 0.100000
B(  0-C ,  1-O ) :   0.8868 B(  0-C , 10-H ) :   0.9677 B(  0-C , 11-H ) :   0.9730
B(  0-C , 12-H ) :   0.9731 B(  1-O ,  2-C ) :   1.2085 B(  2-C ,  3-O ) :   1.9436
B(  2-C ,  4-C ) :   0.9599 B(  4-C ,  5-C ) :   0.9631 B(  4-C ,  9-C ) :   0.9617
B(  4-C , 13-H ) :   0.9546 B(  5-C ,  6-C ) :   0.9871 B(  5-C , 14-H ) :   0.9679
B(  5-C , 15-H ) :   0.9693 B(  6-C ,  7-C ) :   0.9895 B(  6-C , 16-H ) :   0.9736
B(  6-C , 17-H ) :   0.9712 B(  7-C ,  8-C ) :   0.9893 B(  7-C , 18-H ) :   0.9725
B(  7-C , 19-H ) :   0.9737 B(  8-C ,  9-C ) :   0.9871 B(  8-C , 20-H ) :   0.9736
B(  8-C , 21-H ) :   0.9713 B(  9-C , 22-H ) :   0.9679 B(  9-C , 23-H ) :   0.9687

FINAL SINGLE POINT ENERGY      -463.791092119750

DIPOLE MOMENT
-------------

Method             : SCF
Type of density    : Electron Density
Multiplicity       :   1
Irrep              :   0
Energy             :  -463.8078136472495316 Eh
Relativity type    :
Basis              : AO
                                X                 Y                 Z
Electronic contribution:     -7.266861022      -0.664823038      -2.241386622
Nuclear contribution   :      7.791810070       0.821775264       3.306984375
                        -----------------------------------------
Total Dipole Moment    :      0.524949049       0.156952226       1.065597754
                        -----------------------------------------
Magnitude (a.u.)       :      1.198208695
Magnitude (Debye)      :      3.045604465

Rotational constants in cm-1:             0.091339             0.024799             0.023975
Rotational constants in MHz :          2738.278796           743.465045           718.748222

                             ****ORCA TERMINATED NORMALLY****
TOTAL RUN TIME: 0 days 0 hours 4 minutes 32 seconds 751 msec
