                         Program Version 6.0.0  -   RELEASE  -
|  1> ! pbe def2-sv(p) def2/J RI DEFGRID1 loosescf d4 GCP(DFT/SV(P)) printgap
|  2> %output
|  3>     printlevel normal
|  4> end
|  5> * xyz 0 1
|  6> C -1.6834915753 -1.3571599698 -0.5547198717
|  7> C -1.1307353193 -0.5064328381 0.6075193458
|  8> H -1.86643252 -0.5027079548 1.4206331031
|  9> C -0.8761865722 0.954325602 0.1714474247
| 10> H -1.2401310521 1.0894965226 -0.8532321984
| 11> C 0.6255325611 1.2695899416 0.2097884834
| 12> H 0.9465172017 1.3828272423 1.2595138048
| 13> C 1.4222647344 0.1146861844 -0.4035692711
| 14> H 1.0791768019 -0.0526864992 -1.4351285802
| 15> C 1.1816352923 -1.1640544056 0.4139230035
| 16> H 2.0008501953 -1.253240238 1.1421281607
| 17> O 0.0183958266 -1.0971005892 1.2056646857
| 18> O 1.1641678902 -2.2467107542 -0.4585231064
| 19> O 2.8003120221 0.3754016304 -0.386000361
| 20> O 0.933533764 2.4352614065 -0.5146382998
| 21> O -1.6004060691 1.8867902192 0.9381209654
| 22> O -2.8236922118 -0.7849660389 -1.1394290048
| 23> H -1.8885059517 -2.3681592411 -0.1832529476
| 24> H -0.9380594971 -1.4278811805 -1.3491426617
| 25> H 1.238735864 -3.0791919446 0.0324785809
| 26> H 2.9466612872 1.2410691724 -0.8001276584
| 27> H 0.3101351334 3.1337805078 -0.2658486651
| 28> H -1.3566051592 1.8056038233 1.8724049709
| 29> H -3.5538452588 -0.7848120348 -0.503972495
| 30> *
| 31>
| 32>                          ****END OF INPUT****

CARTESIAN COORDINATES (ANGSTROEM)
---------------------------------
  C     -1.683492   -1.357160   -0.554720
  C     -1.130735   -0.506433    0.607519
  H     -1.866433   -0.502708    1.420633
  C     -0.876187    0.954326    0.171447
  H     -1.240131    1.089497   -0.853232
  C      0.625533    1.269590    0.209788
  H      0.946517    1.382827    1.259514
  C      1.422265    0.114686   -0.403569
  H      1.079177   -0.052686   -1.435129
  C      1.181635   -1.164054    0.413923
  H      2.000850   -1.253240    1.142128
  O      0.018396   -1.097101    1.205665
  O      1.164168   -2.246711   -0.458523
  O      2.800312    0.375402   -0.386000
  O      0.933534    2.435261   -0.514638
  O     -1.600406    1.886790    0.938121
  O     -2.823692   -0.784966   -1.139429
  H     -1.888506   -2.368159   -0.183253
  H     -0.938059   -1.427881   -1.349143
  H      1.238736   -3.079192    0.032479
  H      2.946661    1.241069   -0.800128
  H      0.310135    3.133781   -0.265849
  H     -1.356605    1.805604    1.872405
  H     -3.553845   -0.784812   -0.503972

 Total Charge           Charge          ....    0
 Multiplicity           Mult            ....    1
 Number of Electrons    NEL             ....   96
 Basis Dimension        Dim             ....  192

ORBITAL ENERGIES
----------------

  NO   OCC          E(Eh)            E(eV)
   0   2.0000     -18.770021      -510.7582
   1   2.0000     -18.762392      -510.5506
   2   2.0000     -18.759676      -510.4767
   3   2.0000     -18.757128      -510.4074
   4   2.0000     -18.753806      -510.3170
   5   2.0000     -18.745329      -510.0863
   6   2.0000      -9.985222      -271.7117
   7   2.0000      -9.945045      -270.6184
   8   2.0000      -9.941408      -270.5195
   9   2.0000      -9.940495      -270.4946
  10   2.0000      -9.939994      -270.4810
  11   2.0000      -9.930261      -270.2161
  12   2.0000      -0.980148       -26.6712
  13   2.0000      -0.947605       -25.7856
  14   2.0000      -0.933826       -25.4107
  15   2.0000      -0.927877       -25.2488
  16   2.0000      -0.914576       -24.8869
  17   2.0000      -0.912691       -24.8356
  18   2.0000      -0.702038       -19.1034
  19   2.0000      -0.690908       -18.8006
  20   2.0000      -0.620857       -16.8944
  21   2.0000      -0.585577       -15.9344
  22   2.0000      -0.572194       -15.5702
  23   2.0000      -0.512378       -13.9425
  24   2.0000      -0.506960       -13.7951
  25   2.0000      -0.493421       -13.4267
  26   2.0000      -0.484002       -13.1704
  27   2.0000      -0.463874       -12.6227
  28   2.0000      -0.436755       -11.8847
  29   2.0000      -0.427749       -11.6396
  30   2.0000      -0.413333       -11.2474
  31   2.0000      -0.398327       -10.8390
  32   2.0000      -0.383026       -10.4227
  33   2.0000      -0.378712       -10.3053
  34   2.0000      -0.360105        -9.7990
  35   2.0000      -0.347223        -9.4484
  36   2.0000      -0.331670        -9.0252
  37   2.0000      -0.312416        -8.5013
  38   2.0000      -0.304869        -8.2959
  39   2.0000      -0.296881        -8.0786
  40   2.0000      -0.282675        -7.6920
  41   2.0000      -0.259671        -7.0660
  42   2.0000      -0.251581        -6.8459
  43   2.0000      -0.249734        -6.7956
  44   2.0000      -0.242125        -6.5886
  45   2.0000      -0.223413        -6.0794
  46   2.0000      -0.214192        -5.8285
  47   2.0000      -0.202101        -5.4995
  48   0.0000       0.018184         0.4948
  49   0.0000       0.021950         0.5973
  50   0.0000       0.026363         0.7174
  51   0.0000       0.036755         1.0002
  52   0.0000       0.058824         1.6007

MULLIKEN ATOMIC CHARGES
-----------------------
   0 C :    0.010945
   1 C :    0.007132
   2 H :    0.049975
   3 C :    0.047430
   4 H :    0.084820
   5 C :    0.066284
   6 H :    0.039460
   7 C :    0.011808
   8 H :    0.073707
   9 C :    0.211626
  10 H :    0.072066
  11 O :   -0.311962
  12 O :   -0.384303
  13 O :   -0.416900
  14 O :   -0.426738
  15 O :   -0.424079
  16 O :   -0.422146
  17 H :    0.074791
  18 H :    0.116516
  19 H :    0.303626
  20 H :    0.309773
  21 H :    0.307385
  22 H :    0.298995
  23 H :    0.299789
Sum of atomic charges:    0.0000000

LOEWDIN ATOMIC CHARGES
----------------------
   0 C :   -0.144530
   1 C :   -0.077369
   2 H :    0.107401
   3 C :   -0.085366
   4 H :    0.124116
   5 C :   -0.081873
   6 H :    0.097755
   7 C :   -0.075549
   8 H :    0.110492
   9 C :    0.001118
  10 H :    0.106339
  11 O :   -0.151473
  12 O :   -0.298142
  13 O :   -0.315304
  14 O :   -0.325707
  15 O :   -0.316263
  16 O :   -0.326096
  17 H :    0.098227
  18 H :    0.119240
  19 H :    0.287734
  20 H :    0.288246
  21 H :    0.288856
  22 H :    0.282466
  23 H :    0.285684

  Mayer bond orders larger than 0.100000
B(  0-C ,  1-C ) :   1.0242 B(  0-C , 16-O ) :   1.0513 B(  0-C , 17-H ) :   0.9158
B(  0-C , 18-H ) :   0.9074 B(  1-C ,  2-H ) :   0.8911 B(  1-C ,  3-C ) :   0.9672
B(  1-C , 11-O ) :   1.0314 B(  3-C ,  4-H ) :   0.8670 B(  3-C ,  5-C ) :   1.0190
B(  3-C , 15-O ) :   1.0094 B(  5-C ,  6-H ) :   0.8611 B(  5-C ,  7-C ) :   1.0106
B(  5-C , 14-O ) :   1.0770 B(  7-C ,  8-H ) :   0.8805 B(  7-C ,  9-C ) :   0.9917
B(  7-C , 13-O ) :   1.0847 B(  9-C , 10-H ) :   0.8854 B(  9-C , 11-O ) :   1.0460
B(  9-C , 12-O ) :   1.1428 B( 12-O , 19-H ) :   0.8411 B( 13-O , 20-H ) :   0.8353
B( 14-O , 21-H ) :   0.8341 B( 15-O , 22-H ) :   0.8496 B( 16-O , 23-H ) :   0.8503

Dispersion correction           -0.024568225
FINAL SINGLE POINT ENERGY      -685.692437704639

DIPOLE MOMENT
-------------

Method             : SCF
Type of density    : Electron Density
Multiplicity       :   1
Irrep              :   0
Energy             :  -685.8224093253320461 Eh
Relativity type    :
Basis              : AO
                                X                 Y                 Z
Electronic contribution:      1.719953864       0.645192409       0.666051557
Nuclear contribution   :     -2.170671361      -0.757030067       0.310394282
                        -----------------------------------------
Total Dipole Moment    :     -0.450717497      -0.111837658       0.976445839
                        -----------------------------------------
Magnitude (a.u.)       :      1.081249463
Magnitude (Debye)      :      2.748317722

Rotational constants in cm-1:             0.036342             0.029429             0.019830
Rotational constants in MHz :          1089.519750           882.260822           594.479403

                             ****ORCA TERMINATED NORMALLY****
TOTAL RUN TIME: 0 days 0 hours 0 minutes 12 seconds 343 msec
