                         Program Version 6.0.0  -   RELEASE  -
|  1> ! pbe def2-sv(p) def2/J RI DEFGRID1 loosescf d4 GCP(DFT/SV(P)) printgap
|  2> %output
|  3>     printlevel normal
|  4> end
|  5> * xyz 0 1
|  6> C 1.6860757609 -1.0704202641 0.1617982816
|  7> C 1.0396236757 0.2595990697 -0.2101935136
|  8> C -0.4589568762 0.3418333891 -0.0394236249
|  9> O -1.0506003528 1.4007001639 -0.0705531669
| 10> O -1.1380962796 -0.7846992117 0.1354708957
| 11> H 1.3908811229 -1.8660683661 -0.5183425704
| 12> H 2.7655064635 -0.968941867 0.0910360201
| 13> H 1.446095545 -1.3494755798 1.1852584369
| 14> H 1.4618953608 1.0751604172 0.3795982322
| 15> H 1.2400310337 0.5003805278 -1.2575608529
| 16> H -0.5732036766 -1.5805474184 0.1360077728
| 17> *
| 18>
| 19>                          ****END OF INPUT****

CARTESIAN COORDINATES (ANGSTROEM)
---------------------------------
  C      1.686076   -1.070420    0.161798
  C      1.039624    0.259599   -0.210194
  C     -0.458957    0.341833   -0.039424
  O     -1.050600    1.400700   -0.070553
  O     -1.138096   -0.784699    0.135471
  H      1.390881   -1.866068   -0.518343
  H      2.765506   -0.968942    0.091036
  H      1.446096   -1.349476    1.185258
  H      1.461895    1.075160    0.379598
  H      1.240031    0.500381   -1.257561
  H     -0.573204   -1.580547    0.136008

 Total Charge           Charge          ....    0
 Multiplicity           Mult            ....    1
 Number of Electrons    NEL             ....   40
 Basis Dimension        Dim             ....   82

ORBITAL ENERGIES
----------------

  NO   OCC          E(Eh)            E(eV)
   0   2.0000     -18.801275      -511.6087
   1   2.0000     -18.723844      -509.5017
   2   2.0000     -10.011198      -272.4186
   3   2.0000      -9.914438      -269.7856
   4   2.0000      -9.909986      -269.6644
   5   2.0000      -1.004493       -27.3336
   6   2.0000      -0.907996       -24.7078
   7   2.0000      -0.722344       -19.6560
   8   2.0000      -0.606066       -16.4919
   9   2.0000      -0.566434       -15.4134
  10   2.0000      -0.468761       -12.7556
  11   2.0000      -0.442858       -12.0508
  12   2.0000      -0.394355       -10.7310
  13   2.0000      -0.380988       -10.3672
  14   2.0000      -0.365016        -9.9326
  15   2.0000      -0.348919        -9.4946
  16   2.0000      -0.331597        -9.0232
  17   2.0000      -0.318339        -8.6624
  18   2.0000      -0.263627        -7.1737
  19   2.0000      -0.212203        -5.7743
  20   0.0000      -0.020720        -0.5638
  21   0.0000       0.003283         0.0893
  22   0.0000       0.057134         1.5547
  23   0.0000       0.075250         2.0476
  24   0.0000       0.081731         2.2240

MULLIKEN ATOMIC CHARGES
-----------------------
   0 C :   -0.350399
   1 C :   -0.222604
   2 C :    0.096784
   3 O :   -0.189618
   4 O :   -0.276587
   5 H :    0.116488
   6 H :    0.124273
   7 H :    0.126344
   8 H :    0.129273
   9 H :    0.135208
  10 H :    0.310837
Sum of atomic charges:    0.0000000

LOEWDIN ATOMIC CHARGES
----------------------
   0 C :   -0.361493
   1 C :   -0.273483
   2 C :    0.020127
   3 O :   -0.159181
   4 O :   -0.197979
   5 H :    0.119322
   6 H :    0.136298
   7 H :    0.124792
   8 H :    0.147343
   9 H :    0.148913
  10 H :    0.295340

  Mayer bond orders larger than 0.100000
B(  0-C ,  1-C ) :   1.1117 B(  0-C ,  5-H ) :   0.9387 B(  0-C ,  6-H ) :   0.9370
B(  0-C ,  7-H ) :   0.9524 B(  1-C ,  2-C ) :   1.0045 B(  1-C ,  8-H ) :   0.9091
B(  1-C ,  9-H ) :   0.9020 B(  2-C ,  3-O ) :   2.1219 B(  2-C ,  4-O ) :   1.2478
B(  4-O , 10-H ) :   0.8155

Dispersion correction           -0.006600399
FINAL SINGLE POINT ENERGY      -267.810550996201

DIPOLE MOMENT
-------------

Method             : SCF
Type of density    : Electron Density
Multiplicity       :   1
Irrep              :   0
Energy             :  -267.8550032481064704 Eh
Relativity type    :
Basis              : AO
                                X                 Y                 Z
Electronic contribution:     -5.942021465       2.741461392      -0.061640919
Nuclear contribution   :      7.220717295      -3.921325162       0.015971839
                        -----------------------------------------
Total Dipole Moment    :      1.278695830      -1.179863770      -0.045669080
                        -----------------------------------------
Magnitude (a.u.)       :      1.740467525
Magnitude (Debye)      :      4.423916874

Rotational constants in cm-1:             0.324847             0.131990             0.097817
Rotational constants in MHz :          9738.680307          3956.955505          2932.485152

                             ****ORCA TERMINATED NORMALLY****
TOTAL RUN TIME: 0 days 0 hours 0 minutes 5 seconds 485 msec
