                         Program Version 6.0.0  -   RELEASE  -
|  1> ! wb97x-v def2-tzvp def2/J RIJCOSX DEFGRID2 scfconv7 GCP(DFT/TZ) printgap
|  2> %output
|  3>     printlevel normal
|  4> end
|  5> * xyz 0 1
|  6> C -3.836466232952962 -0.6940266125144536 0.03985105913185439
|  7> O -2.3933513340503807 -0.8195715699498557 0.055701267970467615
|  8> C -1.7055254583967516 0.3366420172694738 -0.04045215519720344
|  9> O -2.25669297295418 1.4266149374461474 -0.13050849024317718
| 10> C -0.24657792229302522 0.13929797192767046 -0.02251852715767497
| 11> C 0.5818639148332387 1.269093231762271 -0.07388751448328112
| 12> C 1.958185342378641 1.1394365432722713 -0.05937680500979243
| 13> C 2.527618293691423 -0.1357372275177313 0.005081968117953246
| 14> C 1.7166814542033517 -1.2733325789490804 0.055301500273877736
| 15> C 0.33900223239276817 -1.1324189571192897 0.04233498947007882
| 16> O 3.889834213574925 -0.21240324923728077 0.015808370892719963
| 17> H -4.1736750777157745 -0.09311653680871276 0.8882610167085451
| 18> H -4.21445155010636 -1.712662544675237 0.12183991111798713
| 19> H -4.166551838203261 -0.2387475825160615 -0.8973534663470594
| 20> H 0.135191780164147 2.2558830664577934 -0.1243339374919614
| 21> H 2.6031775485589703 2.010625290287744 -0.09733682941394826
| 22> H 2.172136789053739 -2.258174776076202 0.10389198629972124
| 23> H -0.28299022252202244 -2.018531195513577 0.08067330447021548
| 24> H 4.162494747324903 -1.1405223681013812 0.057443337281480836
| 25> *
| 26>
| 27>                          ****END OF INPUT****

CARTESIAN COORDINATES (ANGSTROEM)
---------------------------------
  C     -3.836466   -0.694027    0.039851
  O     -2.393351   -0.819572    0.055701
  C     -1.705525    0.336642   -0.040452
  O     -2.256693    1.426615   -0.130508
  C     -0.246578    0.139298   -0.022519
  C      0.581864    1.269093   -0.073888
  C      1.958185    1.139437   -0.059377
  C      2.527618   -0.135737    0.005082
  C      1.716681   -1.273333    0.055302
  C      0.339002   -1.132419    0.042335
  O      3.889834   -0.212403    0.015808
  H     -4.173675   -0.093117    0.888261
  H     -4.214452   -1.712663    0.121840
  H     -4.166552   -0.238748   -0.897353
  H      0.135192    2.255883   -0.124334
  H      2.603178    2.010625   -0.097337
  H      2.172137   -2.258175    0.103892
  H     -0.282990   -2.018531    0.080673
  H      4.162495   -1.140522    0.057443

 Total Charge           Charge          ....    0
 Multiplicity           Mult            ....    1
 Number of Electrons    NEL             ....   80
 Basis Dimension        Dim             ....  389

ORBITAL ENERGIES
----------------

  NO   OCC          E(Eh)            E(eV)
   0   2.0000     -21.718740      -590.9969
   1   2.0000     -21.717989      -590.9765
   2   2.0000     -21.651429      -589.1653
   3   2.0000     -12.176344      -331.3352
   4   2.0000     -12.131664      -330.1194
   5   2.0000     -12.102545      -329.3270
   6   2.0000     -12.071781      -328.4899
   7   2.0000     -12.066854      -328.3558
   8   2.0000     -12.063752      -328.2714
   9   2.0000     -12.063296      -328.2590
  10   2.0000     -12.056469      -328.0732
  11   2.0000      -1.755685       -47.7746
  12   2.0000      -1.735692       -47.2306
  13   2.0000      -1.686412       -45.8896
  14   2.0000      -1.401951       -38.1490
  15   2.0000      -1.319187       -35.8969
  16   2.0000      -1.293358       -35.1941
  17   2.0000      -1.268917       -34.5290
  18   2.0000      -1.183889       -32.2153
  19   2.0000      -1.142858       -31.0987
  20   2.0000      -1.122242       -30.5378
  21   2.0000      -1.081862       -29.4390
  22   2.0000      -1.060054       -28.8455
  23   2.0000      -1.036363       -28.2009
  24   2.0000      -1.018874       -27.7250
  25   2.0000      -0.994468       -27.0609
  26   2.0000      -0.967961       -26.3396
  27   2.0000      -0.963967       -26.2309
  28   2.0000      -0.951836       -25.9008
  29   2.0000      -0.913352       -24.8536
  30   2.0000      -0.902698       -24.5637
  31   2.0000      -0.895083       -24.3564
  32   2.0000      -0.889480       -24.2040
  33   2.0000      -0.858705       -23.3666
  34   2.0000      -0.839745       -22.8506
  35   2.0000      -0.823729       -22.4148
  36   2.0000      -0.820691       -22.3321
  37   2.0000      -0.782866       -21.3029
  38   2.0000      -0.659580       -17.9481
  39   2.0000      -0.656101       -17.8534
  40   0.0000      -0.341365        -9.2890
  41   0.0000      -0.248182        -6.7534
  42   0.0000      -0.218174        -5.9368
  43   0.0000      -0.182552        -4.9675
  44   0.0000      -0.148368        -4.0373

MULLIKEN ATOMIC CHARGES
-----------------------
   0 C :   -0.192020
   1 O :   -0.245873
   2 C :    0.343290
   3 O :   -0.369950
   4 C :    0.072161
   5 C :   -0.164996
   6 C :   -0.174121
   7 C :    0.256098
   8 C :   -0.171365
   9 C :   -0.218409
  10 O :   -0.378024
  11 H :    0.130813
  12 H :    0.125964
  13 H :    0.130916
  14 H :    0.152389
  15 H :    0.129198
  16 H :    0.114939
  17 H :    0.141904
  18 H :    0.317089
Sum of atomic charges:    0.0000000

LOEWDIN ATOMIC CHARGES
----------------------
   0 C :   -0.288035
   1 O :    0.226905
   2 C :   -0.425615
   3 O :    0.078721
   4 C :   -0.141154
   5 C :   -0.066167
   6 C :   -0.116295
   7 C :   -0.252081
   8 C :   -0.144121
   9 C :   -0.081713
  10 O :    0.084830
  11 H :    0.111955
  12 H :    0.109055
  13 H :    0.111915
  14 H :    0.158299
  15 H :    0.150192
  16 H :    0.141552
  17 H :    0.152732
  18 H :    0.189025

  Mayer bond orders larger than 0.100000
B(  0-C ,  1-O ) :   0.9070 B(  0-C , 11-H ) :   0.9778 B(  0-C , 12-H ) :   0.9738
B(  0-C , 13-H ) :   0.9780 B(  1-O ,  2-C ) :   1.2273 B(  1-O ,  4-C ) :  -0.1254
B(  2-C ,  3-O ) :   2.0300 B(  2-C ,  4-C ) :   0.9747 B(  4-C ,  5-C ) :   1.3883
B(  4-C ,  9-C ) :   1.3984 B(  5-C ,  6-C ) :   1.4560 B(  5-C , 14-H ) :   0.9546
B(  6-C ,  7-C ) :   1.3784 B(  6-C , 15-H ) :   0.9802 B(  7-C ,  8-C ) :   1.3466
B(  7-C , 10-O ) :   1.1728 B(  8-C ,  9-C ) :   1.4527 B(  8-C , 16-H ) :   0.9533
B(  9-C , 17-H ) :   0.9436 B( 10-O , 18-H ) :   0.8862

FINAL SINGLE POINT ENERGY      -535.388142077075

DIPOLE MOMENT
-------------

Method             : SCF
Type of density    : Electron Density
Multiplicity       :   1
Irrep              :   0
Energy             :  -535.3990256742747533 Eh
Relativity type    :
Basis              : AO
                                X                 Y                 Z
Electronic contribution:      3.904784744       1.651131401      -0.112483514
Nuclear contribution   :     -3.546871017      -2.936125892       0.196151139
                        -----------------------------------------
Total Dipole Moment    :      0.357913727      -1.284994490       0.083667625
                        -----------------------------------------
Magnitude (a.u.)       :      1.336530339
Magnitude (Debye)      :      3.397190143

Rotational constants in cm-1:             0.115148             0.019264             0.016557
Rotational constants in MHz :          3452.040518           577.528784           496.366376

                             ****ORCA TERMINATED NORMALLY****
TOTAL RUN TIME: 0 days 0 hours 3 minutes 39 seconds 503 msec
