                         Program Version 6.0.0  -   RELEASE  -
|  1> ! wb97x-v def2-tzvp def2/J RIJCOSX DEFGRID2 scfconv7 GCP(DFT/TZ) printgap
|  2> %output
|  3>     printlevel normal
|  4> end
|  5> %cpcm
|  6>     smd true
|  7>     smdsolvent "water"
|  8> end
|  9> * xyz 0 1
| 10> C -3.836466232952962 -0.6940266125144536 0.03985105913185439
| 11> O -2.3933513340503807 -0.8195715699498557 0.055701267970467615
| 12> C -1.7055254583967516 0.3366420172694738 -0.04045215519720344
| 13> O -2.25669297295418 1.4266149374461474 -0.13050849024317718
| 14> C -0.24657792229302522 0.13929797192767046 -0.02251852715767497
| 15> C 0.5818639148332387 1.269093231762271 -0.07388751448328112
| 16> C 1.958185342378641 1.1394365432722713 -0.05937680500979243
| 17> C 2.527618293691423 -0.1357372275177313 0.005081968117953246
| 18> C 1.7166814542033517 -1.2733325789490804 0.055301500273877736
| 19> C 0.33900223239276817 -1.1324189571192897 0.04233498947007882
| 20> O 3.889834213574925 -0.21240324923728077 0.015808370892719963
| 21> H -4.1736750777157745 -0.09311653680871276 0.8882610167085451
| 22> H -4.21445155010636 -1.712662544675237 0.12183991111798713
| 23> H -4.166551838203261 -0.2387475825160615 -0.8973534663470594
| 24> H 0.135191780164147 2.2558830664577934 -0.1243339374919614
| 25> H 2.6031775485589703 2.010625290287744 -0.09733682941394826
| 26> H 2.172136789053739 -2.258174776076202 0.10389198629972124
| 27> H -0.28299022252202244 -2.018531195513577 0.08067330447021548
| 28> H 4.162494747324903 -1.1405223681013812 0.057443337281480836
| 29> *
| 30>
| 31>                          ****END OF INPUT****

CARTESIAN COORDINATES (ANGSTROEM)
---------------------------------
  C     -3.836466   -0.694027    0.039851
  O     -2.393351   -0.819572    0.055701
  C     -1.705525    0.336642   -0.040452
  O     -2.256693    1.426615   -0.130508
  C     -0.246578    0.139298   -0.022519
  C      0.581864    1.269093   -0.073888
  C      1.958185    1.139437   -0.059377
  C      2.527618   -0.135737    0.005082
  C      1.716681   -1.273333    0.055302
  C      0.339002   -1.132419    0.042335
  O      3.889834   -0.212403    0.015808
  H     -4.173675   -0.093117    0.888261
  H     -4.214452   -1.712663    0.121840
  H     -4.166552   -0.238748   -0.897353
  H      0.135192    2.255883   -0.124334
  H      2.603178    2.010625   -0.097337
  H      2.172137   -2.258175    0.103892
  H     -0.282990   -2.018531    0.080673
  H      4.162495   -1.140522    0.057443

 Total Charge           Charge          ....    0
 Multiplicity           Mult            ....    1
 Number of Electrons    NEL             ....   80
 Basis Dimension        Dim             ....  389

ORBITAL ENERGIES
----------------

  NO   OCC          E(Eh)            E(eV)
   0   2.0000     -21.723741      -591.1331
   1   2.0000     -21.710077      -590.7612
   2   2.0000     -21.666948      -589.5876
   3   2.0000     -12.189233      -331.6859
   4   2.0000     -12.127592      -330.0086
   5   2.0000     -12.092956      -329.0661
   6   2.0000     -12.067755      -328.3803
   7   2.0000     -12.066229      -328.3388
   8   2.0000     -12.063549      -328.2659
   9   2.0000     -12.054953      -328.0320
  10   2.0000     -12.052916      -327.9765
  11   2.0000      -1.764252       -48.0077
  12   2.0000      -1.727008       -46.9943
  13   2.0000      -1.700643       -46.2768
  14   2.0000      -1.400007       -38.0961
  15   2.0000      -1.318925       -35.8898
  16   2.0000      -1.289492       -35.0889
  17   2.0000      -1.267357       -34.4865
  18   2.0000      -1.179832       -32.1049
  19   2.0000      -1.141928       -31.0735
  20   2.0000      -1.124009       -30.5858
  21   2.0000      -1.080620       -29.4052
  22   2.0000      -1.070938       -29.1417
  23   2.0000      -1.037080       -28.2204
  24   2.0000      -1.015564       -27.6349
  25   2.0000      -0.999144       -27.1881
  26   2.0000      -0.969714       -26.3873
  27   2.0000      -0.957223       -26.0474
  28   2.0000      -0.948304       -25.8047
  29   2.0000      -0.913417       -24.8554
  30   2.0000      -0.910909       -24.7871
  31   2.0000      -0.903586       -24.5878
  32   2.0000      -0.884733       -24.0748
  33   2.0000      -0.866092       -23.5676
  34   2.0000      -0.832031       -22.6407
  35   2.0000      -0.817554       -22.2468
  36   2.0000      -0.815177       -22.1821
  37   2.0000      -0.781611       -21.2687
  38   2.0000      -0.658358       -17.9148
  39   2.0000      -0.653709       -17.7883
  40   0.0000      -0.346780        -9.4364
  41   0.0000      -0.244823        -6.6620
  42   0.0000      -0.219409        -5.9704
  43   0.0000      -0.178778        -4.8648
  44   0.0000      -0.140465        -3.8222

MULLIKEN ATOMIC CHARGES
-----------------------
   0 C :   -0.233235
   1 O :   -0.259717
   2 C :    0.423030
   3 O :   -0.483031
   4 C :    0.101436
   5 C :   -0.200462
   6 C :   -0.236718
   7 C :    0.285099
   8 C :   -0.232296
   9 C :   -0.229679
  10 O :   -0.448716
  11 H :    0.149937
  12 H :    0.156898
  13 H :    0.149987
  14 H :    0.164479
  15 H :    0.162283
  16 H :    0.175440
  17 H :    0.171719
  18 H :    0.383543
Sum of atomic charges:    0.0000000

LOEWDIN ATOMIC CHARGES
----------------------
   0 C :   -0.284525
   1 O :    0.226708
   2 C :   -0.414000
   3 O :    0.017735
   4 C :   -0.152807
   5 C :   -0.078374
   6 C :   -0.123713
   7 C :   -0.252364
   8 C :   -0.129080
   9 C :   -0.082910
  10 O :    0.066952
  11 H :    0.116304
  12 H :    0.119573
  13 H :    0.116267
  14 H :    0.160185
  15 H :    0.157988
  16 H :    0.160093
  17 H :    0.160037
  18 H :    0.215932

  Mayer bond orders larger than 0.100000
B(  0-C ,  1-O ) :   0.8805 B(  0-C , 11-H ) :   0.9723 B(  0-C , 12-H ) :   0.9683
B(  0-C , 13-H ) :   0.9726 B(  1-O ,  2-C ) :   1.2522 B(  1-O ,  4-C ) :  -0.1201
B(  2-C ,  3-O ) :   1.9132 B(  2-C ,  4-C ) :   0.9958 B(  4-C ,  5-C ) :   1.3330
B(  4-C ,  9-C ) :   1.3408 B(  5-C ,  6-C ) :   1.4830 B(  5-C , 14-H ) :   0.9651
B(  6-C ,  7-C ) :   1.3532 B(  6-C , 15-H ) :   0.9817 B(  7-C ,  8-C ) :   1.3439
B(  7-C , 10-O ) :   1.1390 B(  8-C ,  9-C ) :   1.4290 B(  8-C , 16-H ) :   0.9666
B(  9-C , 17-H ) :   0.9558 B( 10-O , 18-H ) :   0.8435

FINAL SINGLE POINT ENERGY      -535.401954281713

DIPOLE MOMENT
-------------

Method             : SCF
Type of density    : Electron Density
Multiplicity       :   1
Irrep              :   0
Energy             :  -535.4128378789125691 Eh
Relativity type    :
Basis              : AO
                                X                 Y                 Z
Electronic contribution:      4.180752399       1.028429749      -0.073313122
Nuclear contribution   :     -3.546871017      -2.936125892       0.196151139
                        -----------------------------------------
Total Dipole Moment    :      0.633881382      -1.907696143       0.122838017
                        -----------------------------------------
Magnitude (a.u.)       :      2.014000833
Magnitude (Debye)      :      5.119183290

Rotational constants in cm-1:             0.115148             0.019264             0.016557
Rotational constants in MHz :          3452.040518           577.528784           496.366376

                             ****ORCA TERMINATED NORMALLY****
TOTAL RUN TIME: 0 days 0 hours 3 minutes 44 seconds 806 msec
