                         Program Version 6.0.0  -   RELEASE  -
|  1> ! r2scan-3c def2/J RI DEFGRID2 scfconv6 printgap
|  2> %output
|  3>     printlevel normal
|  4> end
|  5> * xyz 0 1
|  6> C -2.9289138497 -4.75213e-05 -0.0080094242
|  7> C -2.2392534448 1.2017746277 -0.0008817536
|  8> C -0.8555782041 1.2090045371 0.0133835891
|  9> C -0.1705508323 7.92126e-05 0.0246660395
| 10> C -0.8554762323 -1.2089300114 0.0133589296
| 11> C -2.2391708709 -1.2018279043 -0.0008752665
| 12> C 1.3252449927 3.24753e-05 0.008242187
| 13> F 1.8707011148 1.075321096 0.6084551526
| 14> F 1.8706285774 -1.0743151271 0.61025555
| 15> F 1.8329333788 -0.0010601725 -1.2507061992
| 16> H -4.0072165683 -6.9561e-05 -0.0195169929
| 17> H -2.7755788739 2.1367799237 -0.0072270331
| 18> H -0.3067206012 2.1377853344 0.021219522
| 19> H -0.3065201405 -2.1376336742 0.0212290698
| 20> H -2.7754132549 -2.1368581772 -0.0070570531
| 21> *
| 22>
| 23>                          ****END OF INPUT****

CARTESIAN COORDINATES (ANGSTROEM)
---------------------------------
  C     -2.928914   -0.000048   -0.008009
  C     -2.239253    1.201775   -0.000882
  C     -0.855578    1.209005    0.013384
  C     -0.170551    0.000079    0.024666
  C     -0.855476   -1.208930    0.013359
  C     -2.239171   -1.201828   -0.000875
  C      1.325245    0.000032    0.008242
  F      1.870701    1.075321    0.608455
  F      1.870629   -1.074315    0.610256
  F      1.832933   -0.001060   -1.250706
  H     -4.007217   -0.000070   -0.019517
  H     -2.775579    2.136780   -0.007227
  H     -0.306721    2.137785    0.021220
  H     -0.306520   -2.137634    0.021229
  H     -2.775413   -2.136858   -0.007057

 Total Charge           Charge          ....    0
 Multiplicity           Mult            ....    1
 Number of Electrons    NEL             ....   74
 Basis Dimension        Dim             ....  230

ORBITAL ENERGIES
----------------

  NO   OCC          E(Eh)            E(eV)
   0   2.0000     -24.514312      -667.0683
   1   2.0000     -24.514299      -667.0680
   2   2.0000     -24.507637      -666.8867
   3   2.0000     -10.281926      -279.7854
   4   2.0000     -10.072594      -274.0892
   5   2.0000     -10.061181      -273.7787
   6   2.0000     -10.061166      -273.7782
   7   2.0000     -10.057610      -273.6815
   8   2.0000     -10.056702      -273.6568
   9   2.0000     -10.056582      -273.6535
  10   2.0000      -1.269937       -34.5567
  11   2.0000      -1.182351       -32.1734
  12   2.0000      -1.175389       -31.9840
  13   2.0000      -0.854709       -23.2578
  14   2.0000      -0.764128       -20.7930
  15   2.0000      -0.740974       -20.1629
  16   2.0000      -0.670640       -18.2490
  17   2.0000      -0.603270       -16.4158
  18   2.0000      -0.599578       -16.3153
  19   2.0000      -0.548723       -14.9315
  20   2.0000      -0.546708       -14.8767
  21   2.0000      -0.541595       -14.7375
  22   2.0000      -0.482910       -13.1407
  23   2.0000      -0.444873       -12.1056
  24   2.0000      -0.438282       -11.9263
  25   2.0000      -0.422124       -11.4866
  26   2.0000      -0.420984       -11.4556
  27   2.0000      -0.415582       -11.3086
  28   2.0000      -0.387793       -10.5524
  29   2.0000      -0.378369       -10.2959
  30   2.0000      -0.378020       -10.2865
  31   2.0000      -0.362412        -9.8617
  32   2.0000      -0.361603        -9.8397
  33   2.0000      -0.336262        -9.1502
  34   2.0000      -0.333189        -9.0665
  35   2.0000      -0.261412        -7.1134
  36   2.0000      -0.260104        -7.0778
  37   0.0000      -0.064512        -1.7555
  38   0.0000      -0.053239        -1.4487
  39   0.0000       0.070482         1.9179
  40   0.0000       0.082505         2.2451
  41   0.0000       0.093734         2.5506

MULLIKEN ATOMIC CHARGES
-----------------------
   0 C :   -0.117143
   1 C :   -0.143044
   2 C :   -0.181986
   3 C :    0.102084
   4 C :   -0.181900
   5 C :   -0.143084
   6 C :    0.538593
   7 F :   -0.220130
   8 F :   -0.220132
   9 F :   -0.214212
  10 H :    0.151193
  11 H :    0.150317
  12 H :    0.164574
  13 H :    0.164554
  14 H :    0.150316
Sum of atomic charges:    0.0000000

LOEWDIN ATOMIC CHARGES
----------------------
   0 C :   -0.146268
   1 C :   -0.151812
   2 C :   -0.122028
   3 C :   -0.070881
   4 C :   -0.122015
   5 C :   -0.151804
   6 C :    0.532518
   7 F :   -0.213905
   8 F :   -0.213912
   9 F :   -0.218922
  10 H :    0.170345
  11 H :    0.171216
  12 H :    0.183130
  13 H :    0.183124
  14 H :    0.171214

  Mayer bond orders larger than 0.100000
B(  0-C ,  1-C ) :   1.4134 B(  0-C ,  5-C ) :   1.4134 B(  0-C , 10-H ) :   0.9444
B(  1-C ,  2-C ) :   1.3987 B(  1-C , 11-H ) :   0.9516 B(  2-C ,  3-C ) :   1.4176
B(  2-C , 12-H ) :   0.9429 B(  3-C ,  4-C ) :   1.4176 B(  3-C ,  6-C ) :   0.9788
B(  4-C ,  5-C ) :   1.3988 B(  4-C , 13-H ) :   0.9428 B(  5-C , 14-H ) :   0.9516
B(  6-C ,  7-F ) :   1.0397 B(  6-C ,  8-F ) :   1.0397 B(  6-C ,  9-F ) :   1.0187

Dispersion correction           -0.004868563
FINAL SINGLE POINT ENERGY      -569.230365772638

DIPOLE MOMENT
-------------

Method             : SCF
Type of density    : Electron Density
Multiplicity       :   1
Irrep              :   0
Energy             :  -569.2343621879268767 Eh
Relativity type    :
Basis              : AO
                                X                 Y                 Z
Electronic contribution:     13.518498889       0.000027159      -0.009841676
Nuclear contribution   :    -14.707292211       0.000053829       0.037757453
                        -----------------------------------------
Total Dipole Moment    :     -1.188793322       0.000080988       0.027915777
                        -----------------------------------------
Magnitude (a.u.)       :      1.189121045
Magnitude (Debye)      :      3.022505495

Rotational constants in cm-1:             0.095804             0.031507             0.027045
Rotational constants in MHz :          2872.138849           944.551246           810.780772

                             ****ORCA TERMINATED NORMALLY****
TOTAL RUN TIME: 0 days 0 hours 0 minutes 25 seconds 171 msec
