                         Program Version 6.0.0  -   RELEASE  -
|  1> ! r2scan-3c def2/J RI DEFGRID2 scfconv6 printgap
|  2> %output
|  3>     printlevel normal
|  4> end
|  5> %cpcm
|  6>     smd true
|  7>     smdsolvent "water"
|  8> end
|  9> * xyz 0 1
| 10> C -2.9289138497 -4.75213e-05 -0.0080094242
| 11> C -2.2392534448 1.2017746277 -0.0008817536
| 12> C -0.8555782041 1.2090045371 0.0133835891
| 13> C -0.1705508323 7.92126e-05 0.0246660395
| 14> C -0.8554762323 -1.2089300114 0.0133589296
| 15> C -2.2391708709 -1.2018279043 -0.0008752665
| 16> C 1.3252449927 3.24753e-05 0.008242187
| 17> F 1.8707011148 1.075321096 0.6084551526
| 18> F 1.8706285774 -1.0743151271 0.61025555
| 19> F 1.8329333788 -0.0010601725 -1.2507061992
| 20> H -4.0072165683 -6.9561e-05 -0.0195169929
| 21> H -2.7755788739 2.1367799237 -0.0072270331
| 22> H -0.3067206012 2.1377853344 0.021219522
| 23> H -0.3065201405 -2.1376336742 0.0212290698
| 24> H -2.7754132549 -2.1368581772 -0.0070570531
| 25> *
| 26>
| 27>                          ****END OF INPUT****

CARTESIAN COORDINATES (ANGSTROEM)
---------------------------------
  C     -2.928914   -0.000048   -0.008009
  C     -2.239253    1.201775   -0.000882
  C     -0.855578    1.209005    0.013384
  C     -0.170551    0.000079    0.024666
  C     -0.855476   -1.208930    0.013359
  C     -2.239171   -1.201828   -0.000875
  C      1.325245    0.000032    0.008242
  F      1.870701    1.075321    0.608455
  F      1.870629   -1.074315    0.610256
  F      1.832933   -0.001060   -1.250706
  H     -4.007217   -0.000070   -0.019517
  H     -2.775579    2.136780   -0.007227
  H     -0.306721    2.137785    0.021220
  H     -0.306520   -2.137634    0.021229
  H     -2.775413   -2.136858   -0.007057

 Total Charge           Charge          ....    0
 Multiplicity           Mult            ....    1
 Number of Electrons    NEL             ....   74
 Basis Dimension        Dim             ....  230

ORBITAL ENERGIES
----------------

  NO   OCC          E(Eh)            E(eV)
   0   2.0000     -24.520416      -667.2344
   1   2.0000     -24.520406      -667.2342
   2   2.0000     -24.515347      -667.0965
   3   2.0000     -10.285427      -279.8807
   4   2.0000     -10.065071      -273.8845
   5   2.0000     -10.050413      -273.4856
   6   2.0000     -10.050400      -273.4853
   7   2.0000     -10.044310      -273.3196
   8   2.0000     -10.043564      -273.2993
   9   2.0000     -10.043418      -273.2953
  10   2.0000      -1.276477       -34.7347
  11   2.0000      -1.188590       -32.3432
  12   2.0000      -1.183021       -32.1916
  13   2.0000      -0.845650       -23.0113
  14   2.0000      -0.756916       -20.5967
  15   2.0000      -0.729581       -19.8529
  16   2.0000      -0.669986       -18.2312
  17   2.0000      -0.595995       -16.2179
  18   2.0000      -0.593294       -16.1443
  19   2.0000      -0.555714       -15.1217
  20   2.0000      -0.550582       -14.9821
  21   2.0000      -0.533410       -14.5148
  22   2.0000      -0.472006       -12.8439
  23   2.0000      -0.437724       -11.9111
  24   2.0000      -0.433424       -11.7941
  25   2.0000      -0.425854       -11.5881
  26   2.0000      -0.420934       -11.4542
  27   2.0000      -0.403211       -10.9719
  28   2.0000      -0.393111       -10.6971
  29   2.0000      -0.382124       -10.3981
  30   2.0000      -0.373718       -10.1694
  31   2.0000      -0.369122       -10.0443
  32   2.0000      -0.357256        -9.7214
  33   2.0000      -0.324046        -8.8177
  34   2.0000      -0.321944        -8.7605
  35   2.0000      -0.253985        -6.9113
  36   2.0000      -0.251135        -6.8337
  37   0.0000      -0.056900        -1.5483
  38   0.0000      -0.043697        -1.1890
  39   0.0000       0.085597         2.3292
  40   0.0000       0.090038         2.4501
  41   0.0000       0.095042         2.5862

MULLIKEN ATOMIC CHARGES
-----------------------
   0 C :   -0.138639
   1 C :   -0.186284
   2 C :   -0.198131
   3 C :    0.088865
   4 C :   -0.198066
   5 C :   -0.186316
   6 C :    0.546604
   7 F :   -0.225058
   8 F :   -0.225071
   9 F :   -0.224907
  10 H :    0.186592
  11 H :    0.185299
  12 H :    0.194910
  13 H :    0.194906
  14 H :    0.185297
Sum of atomic charges:    0.0000000

LOEWDIN ATOMIC CHARGES
----------------------
   0 C :   -0.147776
   1 C :   -0.155746
   2 C :   -0.127431
   3 C :   -0.084218
   4 C :   -0.127427
   5 C :   -0.155738
   6 C :    0.531760
   7 F :   -0.218942
   8 F :   -0.218956
   9 F :   -0.227728
  10 H :    0.182023
  11 H :    0.182969
  12 H :    0.192123
  13 H :    0.192120
  14 H :    0.182966

  Mayer bond orders larger than 0.100000
B(  0-C ,  1-C ) :   1.3853 B(  0-C ,  5-C ) :   1.3852 B(  0-C , 10-H ) :   0.9468
B(  1-C ,  2-C ) :   1.3867 B(  1-C , 11-H ) :   0.9564 B(  2-C ,  3-C ) :   1.3775
B(  2-C , 12-H ) :   0.9440 B(  3-C ,  4-C ) :   1.3775 B(  3-C ,  6-C ) :   0.9809
B(  4-C ,  5-C ) :   1.3867 B(  4-C , 13-H ) :   0.9440 B(  5-C , 14-H ) :   0.9564
B(  6-C ,  7-F ) :   1.0377 B(  6-C ,  8-F ) :   1.0376 B(  6-C ,  9-F ) :   1.0136

Dispersion correction           -0.004868563
FINAL SINGLE POINT ENERGY      -569.230998511226

DIPOLE MOMENT
-------------

Method             : SCF
Type of density    : Electron Density
Multiplicity       :   1
Irrep              :   0
Energy             :  -569.2349949265150144 Eh
Relativity type    :
Basis              : AO
                                X                 Y                 Z
Electronic contribution:     13.210381490       0.000059385      -0.007247018
Nuclear contribution   :    -14.707292211       0.000053829       0.037757453
                        -----------------------------------------
Total Dipole Moment    :     -1.496910721       0.000113214       0.030510435
                        -----------------------------------------
Magnitude (a.u.)       :      1.497221629
Magnitude (Debye)      :      3.805634942

Rotational constants in cm-1:             0.095804             0.031507             0.027045
Rotational constants in MHz :          2872.138849           944.551246           810.780772

                             ****ORCA TERMINATED NORMALLY****
TOTAL RUN TIME: 0 days 0 hours 0 minutes 30 seconds 28 msec
