                         Program Version 6.0.0  -   RELEASE  -
|  1> ! r2scan-3c def2/J RI DEFGRID2 scfconv6 printgap
|  2> %output
|  3>     printlevel normal
|  4> end
|  5> * xyz 0 1
|  6> C -2.9730487891 1.2547324347 -0.000766692
|  7> C -1.7489545518 0.3889931194 0.0005425107
|  8> C -1.8366462659 -0.9905439103 0.0004683122
|  9> C -0.6888516284 -1.7697801601 0.0001398531
| 10> C 0.5628157994 -1.1841548795 -0.0001148914
| 11> C 0.6666380739 0.2197322621 -2.96028e-05
| 12> C -0.4876631154 0.9822530416 0.0003075569
| 13> O 1.9421114798 0.7177486019 -0.0002036314
| 14> C 2.1130654548 2.1200525512 0.0003985076
| 15> O 1.7198377166 -1.9091143588 -0.0003394797
| 16> H -2.9742500319 1.9110165441 0.8676730273
| 17> H -2.9933554757 1.8799164704 -0.8918229382
| 18> H -3.8736098849 0.6479220682 0.019219296
| 19> H -2.8023510085 -1.472140426 0.0006442019
| 20> H -0.7709094555 -2.846820131 0.0001524417
| 21> H -0.4252216682 2.0587693177 0.0003839422
| 22> H 1.6768947623 2.5713468991 0.8958896407
| 23> H 1.675571298 2.5724058379 -0.8938982341
| 24> H 3.189611689 2.2752172203 -0.0003316411
| 25> H 1.5143767861 -2.8563998958 -0.0005564284
| 26> *
| 27>
| 28>                          ****END OF INPUT****

CARTESIAN COORDINATES (ANGSTROEM)
---------------------------------
  C     -2.973049    1.254732   -0.000767
  C     -1.748955    0.388993    0.000543
  C     -1.836646   -0.990544    0.000468
  C     -0.688852   -1.769780    0.000140
  C      0.562816   -1.184155   -0.000115
  C      0.666638    0.219732   -0.000030
  C     -0.487663    0.982253    0.000308
  O      1.942111    0.717749   -0.000204
  C      2.113065    2.120053    0.000399
  O      1.719838   -1.909114   -0.000339
  H     -2.974250    1.911017    0.867673
  H     -2.993355    1.879916   -0.891823
  H     -3.873610    0.647922    0.019219
  H     -2.802351   -1.472140    0.000644
  H     -0.770909   -2.846820    0.000152
  H     -0.425222    2.058769    0.000384
  H      1.676895    2.571347    0.895890
  H      1.675571    2.572406   -0.893898
  H      3.189612    2.275217   -0.000332
  H      1.514377   -2.856400   -0.000556

 Total Charge           Charge          ....    0
 Multiplicity           Mult            ....    1
 Number of Electrons    NEL             ....   74
 Basis Dimension        Dim             ....  250

ORBITAL ENERGIES
----------------

  NO   OCC          E(Eh)            E(eV)
   0   2.0000     -18.980371      -516.4821
   1   2.0000     -18.978435      -516.4295
   2   2.0000     -10.089840      -274.5585
   3   2.0000     -10.089019      -274.5362
   4   2.0000     -10.083029      -274.3732
   5   2.0000     -10.034432      -273.0508
   6   2.0000     -10.029991      -272.9299
   7   2.0000     -10.027026      -272.8492
   8   2.0000     -10.023712      -272.7591
   9   2.0000     -10.022965      -272.7388
  10   2.0000      -1.033645       -28.1269
  11   2.0000      -1.013666       -27.5833
  12   2.0000      -0.820470       -22.3261
  13   2.0000      -0.737696       -20.0737
  14   2.0000      -0.718586       -19.5537
  15   2.0000      -0.671875       -18.2826
  16   2.0000      -0.642934       -17.4951
  17   2.0000      -0.585370       -15.9287
  18   2.0000      -0.551128       -14.9970
  19   2.0000      -0.515136       -14.0176
  20   2.0000      -0.478131       -13.0106
  21   2.0000      -0.461823       -12.5668
  22   2.0000      -0.435178       -11.8418
  23   2.0000      -0.421577       -11.4717
  24   2.0000      -0.406854       -11.0711
  25   2.0000      -0.391155       -10.6439
  26   2.0000      -0.388726       -10.5778
  27   2.0000      -0.372039       -10.1237
  28   2.0000      -0.369452       -10.0533
  29   2.0000      -0.347450        -9.4546
  30   2.0000      -0.327331        -8.9071
  31   2.0000      -0.312934        -8.5154
  32   2.0000      -0.308223        -8.3872
  33   2.0000      -0.293849        -7.9960
  34   2.0000      -0.283788        -7.7223
  35   2.0000      -0.216356        -5.8873
  36   2.0000      -0.182285        -4.9602
  37   0.0000      -0.021962        -0.5976
  38   0.0000      -0.004928        -0.1341
  39   0.0000       0.047996         1.3060
  40   0.0000       0.072992         1.9862
  41   0.0000       0.082759         2.2520

MULLIKEN ATOMIC CHARGES
-----------------------
   0 C :   -0.542792
   1 C :    0.180335
   2 C :   -0.245208
   3 C :   -0.319515
   4 C :    0.312972
   5 C :    0.187183
   6 C :   -0.319946
   7 O :   -0.181763
   8 C :   -0.322023
   9 O :   -0.409661
  10 H :    0.158065
  11 H :    0.159490
  12 H :    0.149530
  13 H :    0.146167
  14 H :    0.136173
  15 H :    0.145806
  16 H :    0.150738
  17 H :    0.150659
  18 H :    0.155212
  19 H :    0.308579
Sum of atomic charges:    0.0000000

LOEWDIN ATOMIC CHARGES
----------------------
   0 C :   -0.389975
   1 C :   -0.109235
   2 C :   -0.179664
   3 C :   -0.164101
   4 C :    0.202144
   5 C :    0.207572
   6 C :   -0.163089
   7 O :   -0.663222
   8 C :   -0.051346
   9 O :   -0.479004
  10 H :    0.161446
  11 H :    0.161660
  12 H :    0.158587
  13 H :    0.167393
  14 H :    0.168904
  15 H :    0.177779
  16 H :    0.163879
  17 H :    0.163859
  18 H :    0.180684
  19 H :    0.285730

  Mayer bond orders larger than 0.100000
B(  0-C ,  1-C ) :   0.7832 B(  0-C , 10-H ) :   0.9794 B(  0-C , 11-H ) :   0.9782
B(  0-C , 12-H ) :   0.9954 B(  1-C ,  2-C ) :   1.4674 B(  1-C ,  6-C ) :   1.3594
B(  2-C ,  3-C ) :   1.3888 B(  2-C , 13-H ) :   0.9243 B(  3-C ,  4-C ) :   1.2885
B(  3-C , 14-H ) :   0.9525 B(  4-C ,  5-C ) :   1.4928 B(  4-C ,  9-O ) :   0.8971
B(  5-C ,  6-C ) :   1.3408 B(  5-C ,  7-O ) :   1.0673 B(  5-C ,  9-O ) :   0.1421
B(  6-C , 15-H ) :   0.9281 B(  7-O ,  8-C ) :   0.8580 B(  8-C , 16-H ) :   0.9631
B(  8-C , 17-H ) :   0.9631 B(  8-C , 18-H ) :   0.9679 B(  9-O , 19-H ) :   0.8844

Dispersion correction           -0.006538469
FINAL SINGLE POINT ENERGY      -461.199125468262

DIPOLE MOMENT
-------------

Method             : SCF
Type of density    : Electron Density
Multiplicity       :   1
Irrep              :   0
Energy             :  -461.2025897443616032 Eh
Relativity type    :
Basis              : AO
                                X                 Y                 Z
Electronic contribution:      5.062669086      -6.138745867       0.001491719
Nuclear contribution   :     -5.371405357       6.306768824      -0.002491093
                        -----------------------------------------
Total Dipole Moment    :     -0.308736270       0.168022958      -0.000999374
                        -----------------------------------------
Magnitude (a.u.)       :      0.351497934
Magnitude (Debye)      :      0.893436745

Rotational constants in cm-1:             0.061998             0.039608             0.024390
Rotational constants in MHz :          1858.641577          1187.414498           731.193744

                             ****ORCA TERMINATED NORMALLY****
TOTAL RUN TIME: 0 days 0 hours 0 minutes 30 seconds 988 msec
