                         Program Version 6.0.0  -   RELEASE  -
|  1> ! r2scan-3c def2/J RI DEFGRID2 scfconv6 printgap
|  2> %output
|  3>     printlevel normal
|  4> end
|  5> %cpcm
|  6>     smd true
|  7>     smdsolvent "water"
|  8> end
|  9> * xyz 0 1
| 10> C -2.9730487891 1.2547324347 -0.000766692
| 11> C -1.7489545518 0.3889931194 0.0005425107
| 12> C -1.8366462659 -0.9905439103 0.0004683122
| 13> C -0.6888516284 -1.7697801601 0.0001398531
| 14> C 0.5628157994 -1.1841548795 -0.0001148914
| 15> C 0.6666380739 0.2197322621 -2.96028e-05
| 16> C -0.4876631154 0.9822530416 0.0003075569
| 17> O 1.9421114798 0.7177486019 -0.0002036314
| 18> C 2.1130654548 2.1200525512 0.0003985076
| 19> O 1.7198377166 -1.9091143588 -0.0003394797
| 20> H -2.9742500319 1.9110165441 0.8676730273
| 21> H -2.9933554757 1.8799164704 -0.8918229382
| 22> H -3.8736098849 0.6479220682 0.019219296
| 23> H -2.8023510085 -1.472140426 0.0006442019
| 24> H -0.7709094555 -2.846820131 0.0001524417
| 25> H -0.4252216682 2.0587693177 0.0003839422
| 26> H 1.6768947623 2.5713468991 0.8958896407
| 27> H 1.675571298 2.5724058379 -0.8938982341
| 28> H 3.189611689 2.2752172203 -0.0003316411
| 29> H 1.5143767861 -2.8563998958 -0.0005564284
| 30> *
| 31>
| 32>                          ****END OF INPUT****

CARTESIAN COORDINATES (ANGSTROEM)
---------------------------------
  C     -2.973049    1.254732   -0.000767
  C     -1.748955    0.388993    0.000543
  C     -1.836646   -0.990544    0.000468
  C     -0.688852   -1.769780    0.000140
  C      0.562816   -1.184155   -0.000115
  C      0.666638    0.219732   -0.000030
  C     -0.487663    0.982253    0.000308
  O      1.942111    0.717749   -0.000204
  C      2.113065    2.120053    0.000399
  O      1.719838   -1.909114   -0.000339
  H     -2.974250    1.911017    0.867673
  H     -2.993355    1.879916   -0.891823
  H     -3.873610    0.647922    0.019219
  H     -2.802351   -1.472140    0.000644
  H     -0.770909   -2.846820    0.000152
  H     -0.425222    2.058769    0.000384
  H      1.676895    2.571347    0.895890
  H      1.675571    2.572406   -0.893898
  H      3.189612    2.275217   -0.000332
  H      1.514377   -2.856400   -0.000556

 Total Charge           Charge          ....    0
 Multiplicity           Mult            ....    1
 Number of Electrons    NEL             ....   74
 Basis Dimension        Dim             ....  250

ORBITAL ENERGIES
----------------

  NO   OCC          E(Eh)            E(eV)
   0   2.0000     -18.987542      -516.6773
   1   2.0000     -18.981573      -516.5149
   2   2.0000     -10.093703      -274.6636
   3   2.0000     -10.092311      -274.6257
   4   2.0000     -10.072698      -274.0921
   5   2.0000     -10.037145      -273.1246
   6   2.0000     -10.030253      -272.9371
   7   2.0000     -10.027953      -272.8745
   8   2.0000     -10.023880      -272.7636
   9   2.0000     -10.016611      -272.5658
  10   2.0000      -1.039520       -28.2868
  11   2.0000      -1.017703       -27.6931
  12   2.0000      -0.823690       -22.4138
  13   2.0000      -0.738126       -20.0854
  14   2.0000      -0.719565       -19.5804
  15   2.0000      -0.669131       -18.2080
  16   2.0000      -0.640938       -17.4408
  17   2.0000      -0.584198       -15.8968
  18   2.0000      -0.550965       -14.9925
  19   2.0000      -0.514461       -13.9992
  20   2.0000      -0.477274       -12.9873
  21   2.0000      -0.464268       -12.6334
  22   2.0000      -0.434406       -11.8208
  23   2.0000      -0.419134       -11.4052
  24   2.0000      -0.402951       -10.9649
  25   2.0000      -0.389413       -10.5965
  26   2.0000      -0.386833       -10.5263
  27   2.0000      -0.373391       -10.1605
  28   2.0000      -0.370040       -10.0693
  29   2.0000      -0.343684        -9.3521
  30   2.0000      -0.328012        -8.9257
  31   2.0000      -0.312470        -8.5027
  32   2.0000      -0.311700        -8.4818
  33   2.0000      -0.297756        -8.1023
  34   2.0000      -0.287852        -7.8329
  35   2.0000      -0.221126        -6.0171
  36   2.0000      -0.188719        -5.1353
  37   0.0000      -0.025723        -0.7000
  38   0.0000      -0.009833        -0.2676
  39   0.0000       0.051572         1.4034
  40   0.0000       0.088755         2.4151
  41   0.0000       0.096250         2.6191

MULLIKEN ATOMIC CHARGES
-----------------------
   0 C :   -0.559599
   1 C :    0.125182
   2 C :   -0.268522
   3 C :   -0.320278
   4 C :    0.248859
   5 C :    0.156580
   6 C :   -0.296609
   7 O :   -0.234991
   8 C :   -0.329221
   9 O :   -0.466194
  10 H :    0.174302
  11 H :    0.175453
  12 H :    0.169306
  13 H :    0.178212
  14 H :    0.182943
  15 H :    0.181930
  16 H :    0.170665
  17 H :    0.170625
  18 H :    0.173157
  19 H :    0.368198
Sum of atomic charges:    0.0000000

LOEWDIN ATOMIC CHARGES
----------------------
   0 C :   -0.394507
   1 C :   -0.117713
   2 C :   -0.192694
   3 C :   -0.162916
   4 C :    0.186853
   5 C :    0.192557
   6 C :   -0.163531
   7 O :   -0.699825
   8 C :   -0.046627
   9 O :   -0.504429
  10 H :    0.167901
  11 H :    0.168077
  12 H :    0.164406
  13 H :    0.178563
  14 H :    0.187256
  15 H :    0.192313
  16 H :    0.174281
  17 H :    0.174273
  18 H :    0.187435
  19 H :    0.308324

  Mayer bond orders larger than 0.100000
B(  0-C ,  1-C ) :   0.8109 B(  0-C , 10-H ) :   0.9713 B(  0-C , 11-H ) :   0.9702
B(  0-C , 12-H ) :   0.9897 B(  1-C ,  2-C ) :   1.4167 B(  1-C ,  6-C ) :   1.3293
B(  2-C ,  3-C ) :   1.3349 B(  2-C , 13-H ) :   0.9461 B(  3-C ,  4-C ) :   1.2878
B(  3-C , 14-H ) :   0.9719 B(  4-C ,  5-C ) :   1.4430 B(  4-C ,  9-O ) :   0.9048
B(  5-C ,  6-C ) :   1.3394 B(  5-C ,  7-O ) :   1.0373 B(  5-C ,  9-O ) :   0.1355
B(  6-C , 15-H ) :   0.9346 B(  7-O ,  8-C ) :   0.8503 B(  8-C , 16-H ) :   0.9545
B(  8-C , 17-H ) :   0.9545 B(  8-C , 18-H ) :   0.9604 B(  9-O , 19-H ) :   0.8539

Dispersion correction           -0.006538469
FINAL SINGLE POINT ENERGY      -461.210975371045

DIPOLE MOMENT
-------------

Method             : SCF
Type of density    : Electron Density
Multiplicity       :   1
Irrep              :   0
Energy             :  -461.2144396471448431 Eh
Relativity type    :
Basis              : AO
                                X                 Y                 Z
Electronic contribution:      4.753512248      -6.066490200       0.001003992
Nuclear contribution   :     -5.371405357       6.306768824      -0.002491093
                        -----------------------------------------
Total Dipole Moment    :     -0.617893108       0.240278624      -0.001487101
                        -----------------------------------------
Magnitude (a.u.)       :      0.662969020
Magnitude (Debye)      :      1.685133330

Rotational constants in cm-1:             0.061998             0.039608             0.024390
Rotational constants in MHz :          1858.641577          1187.414498           731.193744

                             ****ORCA TERMINATED NORMALLY****
TOTAL RUN TIME: 0 days 0 hours 0 minutes 40 seconds 380 msec
