                         Program Version 6.0.0  -   RELEASE  -
|  1> ! pbe def2-sv(p) def2/J RI DEFGRID1 loosescf d4 GCP(DFT/SV(P)) printgap
|  2> %output
|  3>     printlevel normal
|  4> end
|  5> * xyz 0 1
|  6> C -2.5554524523 -1.2044e-06 3.8541e-06
|  7> C -1.8673808763 -1.2062209983 4.82359e-05
|  8> C -0.486386459 -1.2145816213 4.89294e-05
|  9> C 0.1972777781 2.199e-07 3.88996e-05
| 10> C -0.4863886621 1.2145812308 7.4994e-06
| 11> C -1.8673835011 1.2062200686 -3.73889e-05
| 12> N 1.6194043755 2.463e-07 3.50899e-05
| 13> O 2.2045790472 -1.0730659819 -0.000143363
| 14> O 2.2045756976 1.0730677588 8.1079e-05
| 15> H -3.6339013224 -2.0922e-06 -0.0001668815
| 16> H -2.4077514444 -2.13882611 1.1987e-06
| 17> H 0.0766730225 -2.1347374598 0.0001433578
| 18> H 0.0766696833 2.1347375543 -0.0002121299
| 19> H -2.4077546716 2.1388239412 -0.0005756328
| 20> *
| 21>
| 22>                          ****END OF INPUT****

CARTESIAN COORDINATES (ANGSTROEM)
---------------------------------
  C     -2.555452   -0.000001    0.000004
  C     -1.867381   -1.206221    0.000048
  C     -0.486386   -1.214582    0.000049
  C      0.197278    0.000000    0.000039
  C     -0.486389    1.214581    0.000007
  C     -1.867384    1.206220   -0.000037
  N      1.619404    0.000000    0.000035
  O      2.204579   -1.073066   -0.000143
  O      2.204576    1.073068    0.000081
  H     -3.633901   -0.000002   -0.000167
  H     -2.407751   -2.138826    0.000001
  H      0.076673   -2.134737    0.000143
  H      0.076670    2.134738   -0.000212
  H     -2.407755    2.138824   -0.000576

 Total Charge           Charge          ....    0
 Multiplicity           Mult            ....    1
 Number of Electrons    NEL             ....   64
 Basis Dimension        Dim             ....  136

ORBITAL ENERGIES
----------------

  NO   OCC          E(Eh)            E(eV)
   0   2.0000     -18.774691      -510.8853
   1   2.0000     -18.774665      -510.8846
   2   2.0000     -14.209072      -386.6485
   3   2.0000      -9.956210      -270.9222
   4   2.0000      -9.927680      -270.1459
   5   2.0000      -9.925056      -270.0745
   6   2.0000      -9.925021      -270.0736
   7   2.0000      -9.923865      -270.0421
   8   2.0000      -9.923842      -270.0415
   9   2.0000      -1.128639       -30.7118
  10   2.0000      -0.956035       -26.0150
  11   2.0000      -0.816982       -22.2312
  12   2.0000      -0.742946       -20.2166
  13   2.0000      -0.702893       -19.1267
  14   2.0000      -0.639591       -17.4042
  15   2.0000      -0.573450       -15.6044
  16   2.0000      -0.538331       -14.6487
  17   2.0000      -0.499273       -13.5859
  18   2.0000      -0.490240       -13.3401
  19   2.0000      -0.459638       -12.5074
  20   2.0000      -0.454533       -12.3685
  21   2.0000      -0.423479       -11.5234
  22   2.0000      -0.419349       -11.4111
  23   2.0000      -0.406369       -11.0579
  24   2.0000      -0.361266        -9.8306
  25   2.0000      -0.349285        -9.5045
  26   2.0000      -0.331135        -9.0106
  27   2.0000      -0.271120        -7.3775
  28   2.0000      -0.263173        -7.1613
  29   2.0000      -0.259217        -7.0536
  30   2.0000      -0.258133        -7.0241
  31   2.0000      -0.231189        -6.2910
  32   0.0000      -0.120159        -3.2697
  33   0.0000      -0.063866        -1.7379
  34   0.0000      -0.034601        -0.9415
  35   0.0000       0.026955         0.7335
  36   0.0000       0.067406         1.8342

MULLIKEN ATOMIC CHARGES
-----------------------
   0 C :   -0.017228
   1 C :   -0.053469
   2 C :   -0.108813
   3 C :    0.204003
   4 C :   -0.108811
   5 C :   -0.053470
   6 N :    0.202145
   7 O :   -0.216658
   8 O :   -0.216658
   9 H :    0.071241
  10 H :    0.071606
  11 H :    0.077252
  12 H :    0.077252
  13 H :    0.071606
Sum of atomic charges:    0.0000000

LOEWDIN ATOMIC CHARGES
----------------------
   0 C :   -0.096973
   1 C :   -0.112970
   2 C :   -0.100354
   3 C :   -0.041410
   4 C :   -0.100354
   5 C :   -0.112971
   6 N :    0.255101
   7 O :   -0.188106
   8 O :   -0.188106
   9 H :    0.131704
  10 H :    0.133154
  11 H :    0.144065
  12 H :    0.144065
  13 H :    0.133154

  Mayer bond orders larger than 0.100000
B(  0-C ,  1-C ) :   1.3679 B(  0-C ,  5-C ) :   1.3679 B(  0-C ,  9-H ) :   0.9648
B(  1-C ,  2-C ) :   1.3412 B(  1-C , 10-H ) :   0.9638 B(  2-C ,  3-C ) :   1.3737
B(  2-C , 11-H ) :   0.9488 B(  3-C ,  4-C ) :   1.3737 B(  3-C ,  6-N ) :   0.8877
B(  4-C ,  5-C ) :   1.3412 B(  4-C , 12-H ) :   0.9488 B(  5-C , 13-H ) :   0.9638
B(  6-N ,  7-O ) :   1.5374 B(  6-N ,  8-O ) :   1.5374 B(  7-O ,  8-O ) :   0.3022

Dispersion correction           -0.014674005
FINAL SINGLE POINT ENERGY      -435.889582597565

DIPOLE MOMENT
-------------

Method             : SCF
Type of density    : Electron Density
Multiplicity       :   1
Irrep              :   0
Energy             :  -435.9310220677926395 Eh
Relativity type    :
Basis              : AO
                                X                 Y                 Z
Electronic contribution:      5.984306990       0.000003034       0.000623943
Nuclear contribution   :     -7.708905890      -0.000003881      -0.000760734
                        -----------------------------------------
Total Dipole Moment    :     -1.724598900      -0.000000847      -0.000136791
                        -----------------------------------------
Magnitude (a.u.)       :      1.724598906
Magnitude (Debye)      :      4.383582049

Rotational constants in cm-1:             0.134171             0.043717             0.032973
Rotational constants in MHz :          4022.345958          1310.589904           988.507299

                             ****ORCA TERMINATED NORMALLY****
TOTAL RUN TIME: 0 days 0 hours 0 minutes 7 seconds 803 msec
