                         Program Version 6.0.0  -   RELEASE  -
|  1> ! r2scan-3c def2/J RI DEFGRID2 scfconv6 printgap
|  2> %output
|  3>     printlevel normal
|  4> end
|  5> * xyz 0 1
|  6> C 1.9018587212 -1.049086855 0.0796413067
|  7> C 1.1020733428 0.1862205297 0.4829844312
|  8> C -0.3656707688 0.2020300659 0.0046267851
|  9> C -1.0281292849 1.5005567621 0.4750355909
| 10> C -1.1468587805 -0.999739902 0.5461954068
| 11> O -0.4305191114 0.2305593166 -1.4191844668
| 12> H 2.9268864639 -0.9451744917 0.4271123358
| 13> H 1.9270513919 -1.1620880995 -1.0018110023
| 14> H 1.4867912305 -1.9511542735 0.5209800567
| 15> H 1.5906567367 1.0714641515 0.0694334271
| 16> H 1.1045975536 0.278392463 1.5699093798
| 17> H -0.4870223002 2.3546945815 0.0767386631
| 18> H -2.0496784443 1.5426146247 0.1067661948
| 19> H -1.0341859541 1.5525898611 1.5590512033
| 20> H -2.1890618935 -0.9221174599 0.2455084052
| 21> H -0.7474033729 -1.9324700483 0.1561400816
| 22> H -1.0946825504 -1.0218461144 1.63069515
| 23> H -0.1206512039 -0.6178744615 -1.7621268394
| 24> *
| 25>
| 26>                          ****END OF INPUT****

CARTESIAN COORDINATES (ANGSTROEM)
---------------------------------
  C      1.901859   -1.049087    0.079641
  C      1.102073    0.186221    0.482984
  C     -0.365671    0.202030    0.004627
  C     -1.028129    1.500557    0.475036
  C     -1.146859   -0.999740    0.546195
  O     -0.430519    0.230559   -1.419184
  H      2.926886   -0.945174    0.427112
  H      1.927051   -1.162088   -1.001811
  H      1.486791   -1.951154    0.520980
  H      1.590657    1.071464    0.069433
  H      1.104598    0.278392    1.569909
  H     -0.487022    2.354695    0.076739
  H     -2.049678    1.542615    0.106766
  H     -1.034186    1.552590    1.559051
  H     -2.189062   -0.922117    0.245508
  H     -0.747403   -1.932470    0.156140
  H     -1.094683   -1.021846    1.630695
  H     -0.120651   -0.617874   -1.762127

 Total Charge           Charge          ....    0
 Multiplicity           Mult            ....    1
 Number of Electrons    NEL             ....   50
 Basis Dimension        Dim             ....  179

ORBITAL ENERGIES
----------------

  NO   OCC          E(Eh)            E(eV)
   0   2.0000     -18.941995      -515.4379
   1   2.0000     -10.086656      -274.4719
   2   2.0000     -10.024209      -272.7726
   3   2.0000     -10.022230      -272.7188
   4   2.0000     -10.018359      -272.6134
   5   2.0000     -10.013092      -272.4701
   6   2.0000      -0.981490       -26.7077
   7   2.0000      -0.762651       -20.7528
   8   2.0000      -0.705591       -19.2001
   9   2.0000      -0.657863       -17.9014
  10   2.0000      -0.596431       -16.2297
  11   2.0000      -0.531609       -14.4658
  12   2.0000      -0.460497       -12.5308
  13   2.0000      -0.429874       -11.6975
  14   2.0000      -0.410406       -11.1677
  15   2.0000      -0.406995       -11.0749
  16   2.0000      -0.371525       -10.1097
  17   2.0000      -0.358929        -9.7669
  18   2.0000      -0.349646        -9.5144
  19   2.0000      -0.335785        -9.1372
  20   2.0000      -0.324024        -8.8171
  21   2.0000      -0.315743        -8.5918
  22   2.0000      -0.304164        -8.2767
  23   2.0000      -0.279882        -7.6160
  24   2.0000      -0.232017        -6.3135
  25   0.0000       0.059360         1.6153
  26   0.0000       0.103204         2.8083
  27   0.0000       0.110682         3.0118
  28   0.0000       0.119139         3.2419
  29   0.0000       0.136169         3.7054

MULLIKEN ATOMIC CHARGES
-----------------------
   0 C :   -0.536451
   1 C :   -0.186363
   2 C :    0.149071
   3 C :   -0.471131
   4 C :   -0.488519
   5 O :   -0.411565
   6 H :    0.153212
   7 H :    0.145145
   8 H :    0.155671
   9 H :    0.153727
  10 H :    0.137345
  11 H :    0.153449
  12 H :    0.156933
  13 H :    0.145709
  14 H :    0.159634
  15 H :    0.145648
  16 H :    0.152874
  17 H :    0.285611
Sum of atomic charges:   -0.0000000

LOEWDIN ATOMIC CHARGES
----------------------
   0 C :   -0.423409
   1 C :   -0.287528
   2 C :    0.055355
   3 C :   -0.372102
   4 C :   -0.389203
   5 O :   -0.600489
   6 H :    0.155276
   7 H :    0.148788
   8 H :    0.151318
   9 H :    0.165906
  10 H :    0.159307
  11 H :    0.164836
  12 H :    0.164156
  13 H :    0.158169
  14 H :    0.164424
  15 H :    0.155264
  16 H :    0.160777
  17 H :    0.269157

  Mayer bond orders larger than 0.100000
B(  0-C ,  1-C ) :   0.8549 B(  0-C ,  6-H ) :   0.9689 B(  0-C ,  7-H ) :   0.9848
B(  0-C ,  8-H ) :   0.9847 B(  1-C ,  2-C ) :   0.9092 B(  1-C ,  9-H ) :   0.9687
B(  1-C , 10-H ) :   0.9725 B(  2-C ,  3-C ) :   0.9444 B(  2-C ,  4-C ) :   0.9438
B(  2-C ,  5-O ) :   0.8370 B(  3-C , 11-H ) :   0.9739 B(  3-C , 12-H ) :   0.9735
B(  3-C , 13-H ) :   0.9820 B(  4-C , 14-H ) :   0.9700 B(  4-C , 15-H ) :   0.9658
B(  4-C , 16-H ) :   0.9743 B(  5-O , 17-H ) :   0.9010

Dispersion correction           -0.004528682
FINAL SINGLE POINT ENERGY      -272.908813683493

DIPOLE MOMENT
-------------

Method             : SCF
Type of density    : Electron Density
Multiplicity       :   1
Irrep              :   0
Energy             :  -272.9139484335963175 Eh
Relativity type    :
Basis              : AO
                                X                 Y                 Z
Electronic contribution:     -1.018992826       1.220700796      -2.971309250
Nuclear contribution   :      1.225698997      -1.641150403       3.354823899
                        -----------------------------------------
Total Dipole Moment    :      0.206706171      -0.420449607       0.383514649
                        -----------------------------------------
Magnitude (a.u.)       :      0.605465770
Magnitude (Debye)      :      1.538971684

Rotational constants in cm-1:             0.151482             0.086205             0.084468
Rotational constants in MHz :          4541.303587          2584.363093          2532.272358

                             ****ORCA TERMINATED NORMALLY****
TOTAL RUN TIME: 0 days 0 hours 0 minutes 19 seconds 725 msec
