                         Program Version 6.0.0  -   RELEASE  -
|  1> ! r2scan-3c def2/J RI DEFGRID2 scfconv6 printgap
|  2> %output
|  3>     printlevel normal
|  4> end
|  5> %cpcm
|  6>     smd true
|  7>     smdsolvent "water"
|  8> end
|  9> * xyz 0 1
| 10> C 1.9018587212 -1.049086855 0.0796413067
| 11> C 1.1020733428 0.1862205297 0.4829844312
| 12> C -0.3656707688 0.2020300659 0.0046267851
| 13> C -1.0281292849 1.5005567621 0.4750355909
| 14> C -1.1468587805 -0.999739902 0.5461954068
| 15> O -0.4305191114 0.2305593166 -1.4191844668
| 16> H 2.9268864639 -0.9451744917 0.4271123358
| 17> H 1.9270513919 -1.1620880995 -1.0018110023
| 18> H 1.4867912305 -1.9511542735 0.5209800567
| 19> H 1.5906567367 1.0714641515 0.0694334271
| 20> H 1.1045975536 0.278392463 1.5699093798
| 21> H -0.4870223002 2.3546945815 0.0767386631
| 22> H -2.0496784443 1.5426146247 0.1067661948
| 23> H -1.0341859541 1.5525898611 1.5590512033
| 24> H -2.1890618935 -0.9221174599 0.2455084052
| 25> H -0.7474033729 -1.9324700483 0.1561400816
| 26> H -1.0946825504 -1.0218461144 1.63069515
| 27> H -0.1206512039 -0.6178744615 -1.7621268394
| 28> *
| 29>
| 30>                          ****END OF INPUT****

CARTESIAN COORDINATES (ANGSTROEM)
---------------------------------
  C      1.901859   -1.049087    0.079641
  C      1.102073    0.186221    0.482984
  C     -0.365671    0.202030    0.004627
  C     -1.028129    1.500557    0.475036
  C     -1.146859   -0.999740    0.546195
  O     -0.430519    0.230559   -1.419184
  H      2.926886   -0.945174    0.427112
  H      1.927051   -1.162088   -1.001811
  H      1.486791   -1.951154    0.520980
  H      1.590657    1.071464    0.069433
  H      1.104598    0.278392    1.569909
  H     -0.487022    2.354695    0.076739
  H     -2.049678    1.542615    0.106766
  H     -1.034186    1.552590    1.559051
  H     -2.189062   -0.922117    0.245508
  H     -0.747403   -1.932470    0.156140
  H     -1.094683   -1.021846    1.630695
  H     -0.120651   -0.617874   -1.762127

 Total Charge           Charge          ....    0
 Multiplicity           Mult            ....    1
 Number of Electrons    NEL             ....   50
 Basis Dimension        Dim             ....  179

ORBITAL ENERGIES
----------------

  NO   OCC          E(Eh)            E(eV)
   0   2.0000     -18.947071      -515.5760
   1   2.0000     -10.082848      -274.3682
   2   2.0000     -10.015801      -272.5438
   3   2.0000     -10.009469      -272.3715
   4   2.0000     -10.008393      -272.3422
   5   2.0000     -10.008063      -272.3333
   6   2.0000      -0.985307       -26.8116
   7   2.0000      -0.756208       -20.5775
   8   2.0000      -0.697013       -18.9667
   9   2.0000      -0.650711       -17.7067
  10   2.0000      -0.588077       -16.0024
  11   2.0000      -0.528801       -14.3894
  12   2.0000      -0.455430       -12.3929
  13   2.0000      -0.423002       -11.5105
  14   2.0000      -0.403177       -10.9710
  15   2.0000      -0.400568       -10.9000
  16   2.0000      -0.364046        -9.9062
  17   2.0000      -0.350966        -9.5503
  18   2.0000      -0.342898        -9.3307
  19   2.0000      -0.329805        -8.9745
  20   2.0000      -0.319187        -8.6855
  21   2.0000      -0.309543        -8.4231
  22   2.0000      -0.297155        -8.0860
  23   2.0000      -0.277514        -7.5515
  24   2.0000      -0.236429        -6.4336
  25   0.0000       0.074929         2.0389
  26   0.0000       0.115765         3.1501
  27   0.0000       0.121200         3.2980
  28   0.0000       0.128350         3.4926
  29   0.0000       0.146012         3.9732

MULLIKEN ATOMIC CHARGES
-----------------------
   0 C :   -0.551562
   1 C :   -0.231042
   2 C :    0.195395
   3 C :   -0.524620
   4 C :   -0.531079
   5 O :   -0.503667
   6 H :    0.162075
   7 H :    0.159993
   8 H :    0.165123
   9 H :    0.158302
  10 H :    0.155673
  11 H :    0.162567
  12 H :    0.165769
  13 H :    0.170380
  14 H :    0.163152
  15 H :    0.168766
  16 H :    0.171814
  17 H :    0.342960
Sum of atomic charges:   -0.0000000

LOEWDIN ATOMIC CHARGES
----------------------
   0 C :   -0.428002
   1 C :   -0.288797
   2 C :    0.056293
   3 C :   -0.382694
   4 C :   -0.393225
   5 O :   -0.638668
   6 H :    0.156305
   7 H :    0.154594
   8 H :    0.155511
   9 H :    0.164894
  10 H :    0.165784
  11 H :    0.164653
  12 H :    0.164117
  13 H :    0.167138
  14 H :    0.164098
  15 H :    0.163426
  16 H :    0.167395
  17 H :    0.287180

  Mayer bond orders larger than 0.100000
B(  0-C ,  1-C ) :   0.8683 B(  0-C ,  6-H ) :   0.9687 B(  0-C ,  7-H ) :   0.9776
B(  0-C ,  8-H ) :   0.9795 B(  1-C ,  2-C ) :   0.9112 B(  1-C ,  9-H ) :   0.9704
B(  1-C , 10-H ) :   0.9706 B(  2-C ,  3-C ) :   0.9333 B(  2-C ,  4-C ) :   0.9398
B(  2-C ,  5-O ) :   0.8172 B(  3-C , 11-H ) :   0.9719 B(  3-C , 12-H ) :   0.9731
B(  3-C , 13-H ) :   0.9756 B(  4-C , 14-H ) :   0.9662 B(  4-C , 15-H ) :   0.9620
B(  4-C , 16-H ) :   0.9699 B(  5-O , 17-H ) :   0.8749

Dispersion correction           -0.004528682
FINAL SINGLE POINT ENERGY      -272.915089460335

DIPOLE MOMENT
-------------

Method             : SCF
Type of density    : Electron Density
Multiplicity       :   1
Irrep              :   0
Energy             :  -272.9202242104378797 Eh
Relativity type    :
Basis              : AO
                                X                 Y                 Z
Electronic contribution:     -0.929503672       0.979834883      -2.790547117
Nuclear contribution   :      1.225698997      -1.641150403       3.354823899
                        -----------------------------------------
Total Dipole Moment    :      0.296195325      -0.661315520       0.564276782
                        -----------------------------------------
Magnitude (a.u.)       :      0.918410678
Magnitude (Debye)      :      2.334414425

Rotational constants in cm-1:             0.151482             0.086205             0.084468
Rotational constants in MHz :          4541.303587          2584.363093          2532.272358

                             ****ORCA TERMINATED NORMALLY****
TOTAL RUN TIME: 0 days 0 hours 0 minutes 23 seconds 794 msec
