                         Program Version 6.0.0  -   RELEASE  -
|  1> ! pbe def2-sv(p) def2/J RI DEFGRID1 loosescf d4 GCP(DFT/SV(P)) printgap
|  2> %output
|  3>     printlevel normal
|  4> end
|  5> * xyz 0 1
|  6> C -2.2831520813 -1.1084657667 -0.0838219067
|  7> C -0.9020880909 -0.5520957949 0.291608197
|  8> H -0.7529500127 -0.5960774583 1.3806977567
|  9> C -0.7391786628 0.9164424422 -0.1355515182
| 10> H -1.2613620233 1.0715559044 -1.0897213042
| 11> C 0.7603898031 1.2499297904 -0.3656510552
| 12> H 0.9293986689 2.2801568751 -0.0281974111
| 13> C 1.6654091866 0.3028170158 0.4414184845
| 14> H 2.7132174673 0.5062046413 0.1744342063
| 15> C 1.3878494445 -1.1524329261 0.0225747189
| 16> H 1.6265112071 -1.799740185 0.8886776855
| 17> O 0.0454545801 -1.3764040305 -0.3594323741
| 18> O 2.1858465897 -1.4466814109 -1.0708814304
| 19> O 1.4674030526 0.3935975179 1.8273031658
| 20> O 1.10335676 1.2377396114 -1.7277667293
| 21> O -1.2997019265 1.7077277224 0.8825421942
| 22> O -3.3417346786 -0.2557986208 0.254969184
| 23> H -2.4012614769 -2.0957359054 0.3815165785
| 24> H -2.3222271352 -1.2310544831 -1.1689090837
| 25> H 2.0055850514 -2.3506487156 -1.3740217245
| 26> H 1.7058460968 1.2794847964 2.1373328636
| 27> H 1.2721507311 0.3259216756 -2.0124995986
| 28> H -1.4613189809 2.6024502148 0.5524281382
| 29> H -3.2833052172 -0.0255482087 1.1934245944
| 30> *
| 31>
| 32>                          ****END OF INPUT****

CARTESIAN COORDINATES (ANGSTROEM)
---------------------------------
  C     -2.283152   -1.108466   -0.083822
  C     -0.902088   -0.552096    0.291608
  H     -0.752950   -0.596077    1.380698
  C     -0.739179    0.916442   -0.135552
  H     -1.261362    1.071556   -1.089721
  C      0.760390    1.249930   -0.365651
  H      0.929399    2.280157   -0.028197
  C      1.665409    0.302817    0.441418
  H      2.713217    0.506205    0.174434
  C      1.387849   -1.152433    0.022575
  H      1.626511   -1.799740    0.888678
  O      0.045455   -1.376404   -0.359432
  O      2.185847   -1.446681   -1.070881
  O      1.467403    0.393598    1.827303
  O      1.103357    1.237740   -1.727767
  O     -1.299702    1.707728    0.882542
  O     -3.341735   -0.255799    0.254969
  H     -2.401261   -2.095736    0.381517
  H     -2.322227   -1.231054   -1.168909
  H      2.005585   -2.350649   -1.374022
  H      1.705846    1.279485    2.137333
  H      1.272151    0.325922   -2.012500
  H     -1.461319    2.602450    0.552428
  H     -3.283305   -0.025548    1.193425

 Total Charge           Charge          ....    0
 Multiplicity           Mult            ....    1
 Number of Electrons    NEL             ....   96
 Basis Dimension        Dim             ....  192

ORBITAL ENERGIES
----------------

  NO   OCC          E(Eh)            E(eV)
   0   2.0000     -18.778397      -510.9862
   1   2.0000     -18.771814      -510.8070
   2   2.0000     -18.762570      -510.5555
   3   2.0000     -18.753870      -510.3188
   4   2.0000     -18.741264      -509.9757
   5   2.0000     -18.740557      -509.9565
   6   2.0000      -9.993586      -271.9393
   7   2.0000      -9.946338      -270.6536
   8   2.0000      -9.938275      -270.4342
   9   2.0000      -9.937768      -270.4204
  10   2.0000      -9.933927      -270.3159
  11   2.0000      -9.926356      -270.1099
  12   2.0000      -0.991385       -26.9770
  13   2.0000      -0.942414       -25.6444
  14   2.0000      -0.933729       -25.4081
  15   2.0000      -0.923216       -25.1220
  16   2.0000      -0.917653       -24.9706
  17   2.0000      -0.914738       -24.8913
  18   2.0000      -0.694070       -18.8866
  19   2.0000      -0.689394       -18.7594
  20   2.0000      -0.621250       -16.9051
  21   2.0000      -0.584331       -15.9005
  22   2.0000      -0.565317       -15.3831
  23   2.0000      -0.522328       -14.2133
  24   2.0000      -0.507543       -13.8109
  25   2.0000      -0.492707       -13.4072
  26   2.0000      -0.471819       -12.8389
  27   2.0000      -0.451001       -12.2723
  28   2.0000      -0.444905       -12.1065
  29   2.0000      -0.437687       -11.9101
  30   2.0000      -0.422424       -11.4947
  31   2.0000      -0.404268       -11.0007
  32   2.0000      -0.375243       -10.2109
  33   2.0000      -0.364677        -9.9234
  34   2.0000      -0.355431        -9.6718
  35   2.0000      -0.346503        -9.4288
  36   2.0000      -0.330305        -8.9881
  37   2.0000      -0.325234        -8.8501
  38   2.0000      -0.301027        -8.1913
  39   2.0000      -0.296411        -8.0658
  40   2.0000      -0.282953        -7.6995
  41   2.0000      -0.264072        -7.1858
  42   2.0000      -0.258496        -7.0340
  43   2.0000      -0.244492        -6.6530
  44   2.0000      -0.235294        -6.4027
  45   2.0000      -0.216625        -5.8947
  46   2.0000      -0.214188        -5.8284
  47   2.0000      -0.192296        -5.2327
  48   0.0000       0.010932         0.2975
  49   0.0000       0.025813         0.7024
  50   0.0000       0.026090         0.7100
  51   0.0000       0.045663         1.2426
  52   0.0000       0.059815         1.6277

MULLIKEN ATOMIC CHARGES
-----------------------
   0 C :    0.085790
   1 C :   -0.035775
   2 H :    0.076642
   3 C :    0.097551
   4 H :    0.059377
   5 C :    0.051474
   6 H :    0.039570
   7 C :   -0.004176
   8 H :    0.087038
   9 C :    0.172446
  10 H :    0.071382
  11 O :   -0.319526
  12 O :   -0.388285
  13 O :   -0.403286
  14 O :   -0.418196
  15 O :   -0.419330
  16 O :   -0.429207
  17 H :    0.074976
  18 H :    0.081359
  19 H :    0.313511
  20 H :    0.308188
  21 H :    0.299016
  22 H :    0.302237
  23 H :    0.297225
Sum of atomic charges:   -0.0000000

LOEWDIN ATOMIC CHARGES
----------------------
   0 C :   -0.122897
   1 C :   -0.074527
   2 H :    0.107726
   3 C :   -0.075902
   4 H :    0.108188
   5 C :   -0.076546
   6 H :    0.102867
   7 C :   -0.090967
   8 H :    0.112574
   9 C :    0.004660
  10 H :    0.093647
  11 O :   -0.158990
  12 O :   -0.291112
  13 O :   -0.307289
  14 O :   -0.319433
  15 O :   -0.317990
  16 O :   -0.328964
  17 H :    0.095572
  18 H :    0.112474
  19 H :    0.294294
  20 H :    0.291190
  21 H :    0.272655
  22 H :    0.287475
  23 H :    0.281294

  Mayer bond orders larger than 0.100000
B(  0-C ,  1-C ) :   1.0436 B(  0-C , 16-O ) :   1.0890 B(  0-C , 17-H ) :   0.9233
B(  0-C , 18-H ) :   0.9097 B(  1-C ,  2-H ) :   0.8686 B(  1-C ,  3-C ) :   1.0114
B(  1-C , 11-O ) :   1.0108 B(  3-C ,  4-H ) :   0.8850 B(  3-C ,  5-C ) :   0.9405
B(  3-C , 15-O ) :   1.0568 B(  5-C ,  6-H ) :   0.8887 B(  5-C ,  7-C ) :   1.0139
B(  5-C , 14-O ) :   1.0779 B(  7-C ,  8-H ) :   0.8961 B(  7-C ,  9-C ) :   0.9607
B(  7-C , 13-O ) :   1.0677 B(  9-C , 10-H ) :   0.9048 B(  9-C , 11-O ) :   1.0360
B(  9-C , 12-O ) :   1.1262 B( 12-O , 19-H ) :   0.8379 B( 13-O , 20-H ) :   0.8436
B( 14-O , 21-H ) :   0.8222 B( 15-O , 22-H ) :   0.8460 B( 16-O , 23-H ) :   0.8431

Dispersion correction           -0.024858472
FINAL SINGLE POINT ENERGY      -685.689173773673

DIPOLE MOMENT
-------------

Method             : SCF
Type of density    : Electron Density
Multiplicity       :   1
Irrep              :   0
Energy             :  -685.8199700679926991 Eh
Relativity type    :
Basis              : AO
                                X                 Y                 Z
Electronic contribution:      1.623014742       0.015474055      -0.473460638
Nuclear contribution   :     -1.151302883      -0.027134109       0.968295576
                        -----------------------------------------
Total Dipole Moment    :      0.471711859      -0.011660054       0.494834939
                        -----------------------------------------
Magnitude (a.u.)       :      0.683746774
Magnitude (Debye)      :      1.737946183

Rotational constants in cm-1:             0.044059             0.024973             0.021780
Rotational constants in MHz :          1320.855865           748.662156           652.938397

                             ****ORCA TERMINATED NORMALLY****
TOTAL RUN TIME: 0 days 0 hours 0 minutes 12 seconds 31 msec
