                         Program Version 6.0.0  -   RELEASE  -
|  1> ! r2scan-3c def2/J RI DEFGRID2 scfconv6 printgap
|  2> %output
|  3>     printlevel normal
|  4> end
|  5> * xyz 0 1
|  6> C -1.2628034104 1.2592312639 0.7260818845
|  7> C -0.5212155203 0.3151987126 0.0292716797
|  8> C -1.1742375628 -0.7486483001 -0.5922819546
|  9> C -2.558858101 -0.8712154029 -0.5042731669
| 10> C -3.2978447594 0.0749254556 0.2033234866
| 11> C -2.6402762201 1.141467024 0.8144206046
| 12> Cl -3.548575716 2.3140024852 1.6824774767
| 13> Cl -5.0063916093 -0.0784155938 0.3129818273
| 14> Cl -3.3599789885 -2.1863185766 -1.2689250867
| 15> Cl -0.2758372641 -1.9056115139 -1.493597815
| 16> C 0.9502983393 0.4421065443 -0.0634686627
| 17> C 1.5381590278 1.4458641781 -0.8330538465
| 18> C 2.9147188054 1.5641448455 -0.9376218205
| 19> C 3.7264169891 0.6667280154 -0.2620222556
| 20> C 3.169605323 -0.3449784945 0.5197455222
| 21> C 1.7836822977 -0.4472345592 0.6129761458
| 22> Cl 1.0870909172 -1.676761734 1.5929643636
| 23> Cl 4.1782701902 -1.4571387061 1.3606167607
| 24> Cl 5.4343170275 0.7995693423 -0.3880003805
| 25> Cl 0.5272855792 2.5410871411 -1.6918587973
| 26> H -0.7640750701 2.0847948217 1.2068934266
| 27> H 3.3532793873 2.3424981245 -1.5396386525
| 28> *
| 29>
| 30>                          ****END OF INPUT****

CARTESIAN COORDINATES (ANGSTROEM)
---------------------------------
  C     -1.262803    1.259231    0.726082
  C     -0.521216    0.315199    0.029272
  C     -1.174238   -0.748648   -0.592282
  C     -2.558858   -0.871215   -0.504273
  C     -3.297845    0.074925    0.203323
  C     -2.640276    1.141467    0.814421
  Cl    -3.548576    2.314002    1.682477
  Cl    -5.006392   -0.078416    0.312982
  Cl    -3.359979   -2.186319   -1.268925
  Cl    -0.275837   -1.905612   -1.493598
  C      0.950298    0.442107   -0.063469
  C      1.538159    1.445864   -0.833054
  C      2.914719    1.564145   -0.937622
  C      3.726417    0.666728   -0.262022
  C      3.169605   -0.344978    0.519746
  C      1.783682   -0.447235    0.612976
  Cl     1.087091   -1.676762    1.592964
  Cl     4.178270   -1.457139    1.360617
  Cl     5.434317    0.799569   -0.388000
  Cl     0.527286    2.541087   -1.691859
  H     -0.764075    2.084795    1.206893
  H      3.353279    2.342498   -1.539639

 Total Charge           Charge          ....    0
 Multiplicity           Mult            ....    1
 Number of Electrons    NEL             ....  210
 Basis Dimension        Dim             ....  454

ORBITAL ENERGIES
----------------

  NO   OCC          E(Eh)            E(eV)
   0   2.0000    -101.247809     -2755.0929
   1   2.0000    -101.247719     -2755.0905
   2   2.0000    -101.246987     -2755.0706
   3   2.0000    -101.245663     -2755.0346
   4   2.0000    -101.244885     -2755.0134
   5   2.0000    -101.244569     -2755.0048
   6   2.0000    -101.243777     -2754.9832
   7   2.0000    -101.243233     -2754.9684
   8   2.0000     -10.142722      -275.9975
   9   2.0000     -10.141749      -275.9710
  10   2.0000     -10.140110      -275.9264
  11   2.0000     -10.139537      -275.9108
  12   2.0000     -10.139135      -275.8999
  13   2.0000     -10.138346      -275.8784
  14   2.0000     -10.135937      -275.8129
  15   2.0000     -10.134766      -275.7810
  16   2.0000     -10.100069      -274.8368
  17   2.0000     -10.097162      -274.7577
  18   2.0000     -10.084892      -274.4239
  19   2.0000     -10.081890      -274.3422
  20   2.0000      -9.403668      -255.8868
  21   2.0000      -9.403636      -255.8859
  22   2.0000      -9.402791      -255.8630
  23   2.0000      -9.401285      -255.8220
  24   2.0000      -9.400550      -255.8020
  25   2.0000      -9.400248      -255.7937
  26   2.0000      -9.399602      -255.7762
  27   2.0000      -9.399073      -255.7618
  28   2.0000      -7.150187      -194.5665
  29   2.0000      -7.150067      -194.5632
  30   2.0000      -7.149394      -194.5449
  31   2.0000      -7.148008      -194.5072
  32   2.0000      -7.147268      -194.4870
  33   2.0000      -7.146966      -194.4788
  34   2.0000      -7.146175      -194.4573
  35   2.0000      -7.145600      -194.4417
  36   2.0000      -7.139955      -194.2881
  37   2.0000      -7.139916      -194.2870
  38   2.0000      -7.139219      -194.2680
  39   2.0000      -7.139086      -194.2644
  40   2.0000      -7.139067      -194.2639
  41   2.0000      -7.138142      -194.2387
  42   2.0000      -7.137579      -194.2234
  43   2.0000      -7.136880      -194.2044
  44   2.0000      -7.136569      -194.1959
  45   2.0000      -7.136552      -194.1954
  46   2.0000      -7.135854      -194.1765
  47   2.0000      -7.135780      -194.1745
  48   2.0000      -7.135483      -194.1664
  49   2.0000      -7.135328      -194.1621
  50   2.0000      -7.135017      -194.1537
  51   2.0000      -7.134550      -194.1410
  52   2.0000      -0.935337       -25.4518
  53   2.0000      -0.925239       -25.1770
  54   2.0000      -0.887391       -24.1471
  55   2.0000      -0.881868       -23.9968
  56   2.0000      -0.875091       -23.8124
  57   2.0000      -0.858661       -23.3654
  58   2.0000      -0.837787       -22.7974
  59   2.0000      -0.829393       -22.5689
  60   2.0000      -0.815998       -22.2044
  61   2.0000      -0.803401       -21.8617
  62   2.0000      -0.760272       -20.6881
  63   2.0000      -0.724165       -19.7055
  64   2.0000      -0.717338       -19.5198
  65   2.0000      -0.702986       -19.1292
  66   2.0000      -0.630561       -17.1584
  67   2.0000      -0.612703       -16.6725
  68   2.0000      -0.601573       -16.3696
  69   2.0000      -0.582415       -15.8483
  70   2.0000      -0.525377       -14.2962
  71   2.0000      -0.521131       -14.1807
  72   2.0000      -0.510604       -13.8942
  73   2.0000      -0.499528       -13.5928
  74   2.0000      -0.473322       -12.8797
  75   2.0000      -0.460763       -12.5380
  76   2.0000      -0.446183       -12.1413
  77   2.0000      -0.444788       -12.1033
  78   2.0000      -0.443715       -12.0741
  79   2.0000      -0.436463       -11.8768
  80   2.0000      -0.434872       -11.8335
  81   2.0000      -0.418219       -11.3803
  82   2.0000      -0.401061       -10.9134
  83   2.0000      -0.396551       -10.7907
  84   2.0000      -0.389584       -10.6011
  85   2.0000      -0.381249       -10.3743
  86   2.0000      -0.373899       -10.1743
  87   2.0000      -0.367042        -9.9877
  88   2.0000      -0.354327        -9.6417
  89   2.0000      -0.333911        -9.0862
  90   2.0000      -0.328681        -8.9439
  91   2.0000      -0.326029        -8.8717
  92   2.0000      -0.324145        -8.8204
  93   2.0000      -0.319029        -8.6812
  94   2.0000      -0.316052        -8.6002
  95   2.0000      -0.315390        -8.5822
  96   2.0000      -0.304400        -8.2832
  97   2.0000      -0.303138        -8.2488
  98   2.0000      -0.302625        -8.2348
  99   2.0000      -0.289686        -7.8827
 100   2.0000      -0.284585        -7.7439
 101   2.0000      -0.259994        -7.0748
 102   2.0000      -0.250691        -6.8217
 103   2.0000      -0.245028        -6.6676
 104   2.0000      -0.241108        -6.5609
 105   0.0000      -0.091081        -2.4785
 106   0.0000      -0.080355        -2.1866
 107   0.0000      -0.073848        -2.0095
 108   0.0000      -0.068258        -1.8574
 109   0.0000      -0.064610        -1.7581

MULLIKEN ATOMIC CHARGES
-----------------------
   0 C :   -0.268769
   1 C :    0.103113
   2 C :    0.068011
   3 C :    0.019064
   4 C :    0.075848
   5 C :    0.106659
   6 Cl:   -0.088574
   7 Cl:   -0.062188
   8 Cl:   -0.062103
   9 Cl:   -0.063375
  10 C :    0.089704
  11 C :    0.177060
  12 C :   -0.425873
  13 C :    0.192108
  14 C :   -0.009149
  15 C :    0.082513
  16 Cl:   -0.058181
  17 Cl:   -0.064046
  18 Cl:   -0.081468
  19 Cl:   -0.085886
  20 H :    0.176320
  21 H :    0.179213
Sum of atomic charges:    0.0000000

LOEWDIN ATOMIC CHARGES
----------------------
   0 C :   -0.137020
   1 C :   -0.095890
   2 C :   -0.167180
   3 C :   -0.187475
   4 C :   -0.190730
   5 C :   -0.178665
   6 Cl:    0.173324
   7 Cl:    0.187953
   8 Cl:    0.188608
   9 Cl:    0.201236
  10 C :   -0.105134
  11 C :   -0.141738
  12 C :   -0.172318
  13 C :   -0.170992
  14 C :   -0.197897
  15 C :   -0.155255
  16 Cl:    0.209358
  17 Cl:    0.184165
  18 Cl:    0.179633
  19 Cl:    0.189984
  20 H :    0.193139
  21 H :    0.192893

  Mayer bond orders larger than 0.100000
B(  0-C ,  1-C ) :   1.3758 B(  0-C ,  5-C ) :   1.3268 B(  0-C , 20-H ) :   0.9192
B(  1-C ,  2-C ) :   1.2747 B(  1-C ,  9-Cl) :  -0.1113 B(  1-C , 10-C ) :   0.7591
B(  1-C , 11-C ) :  -0.1047 B(  2-C ,  3-C ) :   1.0809 B(  2-C ,  9-Cl) :   1.2684
B(  2-C , 10-C ) :  -0.1067 B(  3-C ,  4-C ) :   1.0996 B(  3-C ,  8-Cl) :   1.2817
B(  4-C ,  5-C ) :   1.2229 B(  4-C ,  7-Cl) :   1.2466 B(  5-C ,  6-Cl) :   1.0809
B( 10-C , 11-C ) :   1.3402 B( 10-C , 15-C ) :   1.2195 B( 11-C , 12-C ) :   1.3069
B( 11-C , 19-Cl) :   1.0242 B( 12-C , 13-C ) :   1.3085 B( 12-C , 19-Cl) :   0.1061
B( 12-C , 21-H ) :   0.9190 B( 13-C , 14-C ) :   1.2249 B( 13-C , 18-Cl) :   1.0768
B( 14-C , 15-C ) :   1.0873 B( 14-C , 17-Cl) :   1.2550 B( 15-C , 16-Cl) :   1.2429

Dispersion correction           -0.017193953
FINAL SINGLE POINT ENERGY     -4139.794834203296

DIPOLE MOMENT
-------------

Method             : SCF
Type of density    : Electron Density
Multiplicity       :   1
Irrep              :   0
Energy             : -4139.7922028963130288 Eh
Relativity type    :
Basis              : AO
                                X                 Y                 Z
Electronic contribution:     -3.363972732      -5.894927332       0.411218555
Nuclear contribution   :      3.722781965       6.367679124      -0.455332040
                        -----------------------------------------
Total Dipole Moment    :      0.358809233       0.472751792      -0.044113485
                        -----------------------------------------
Magnitude (a.u.)       :      0.595133869
Magnitude (Debye)      :      1.512710078

Rotational constants in cm-1:             0.010546             0.003496             0.003175
Rotational constants in MHz :           316.176096           104.798179            95.191790

                             ****ORCA TERMINATED NORMALLY****
TOTAL RUN TIME: 0 days 0 hours 1 minutes 27 seconds 804 msec
