                         Program Version 6.0.0  -   RELEASE  -
|  1> ! r2scan-3c def2/J RI DEFGRID2 scfconv6 printgap
|  2> %output
|  3>     printlevel normal
|  4> end
|  5> %cpcm
|  6>     smd true
|  7>     smdsolvent "water"
|  8> end
|  9> * xyz 0 1
| 10> C -1.2628034104 1.2592312639 0.7260818845
| 11> C -0.5212155203 0.3151987126 0.0292716797
| 12> C -1.1742375628 -0.7486483001 -0.5922819546
| 13> C -2.558858101 -0.8712154029 -0.5042731669
| 14> C -3.2978447594 0.0749254556 0.2033234866
| 15> C -2.6402762201 1.141467024 0.8144206046
| 16> Cl -3.548575716 2.3140024852 1.6824774767
| 17> Cl -5.0063916093 -0.0784155938 0.3129818273
| 18> Cl -3.3599789885 -2.1863185766 -1.2689250867
| 19> Cl -0.2758372641 -1.9056115139 -1.493597815
| 20> C 0.9502983393 0.4421065443 -0.0634686627
| 21> C 1.5381590278 1.4458641781 -0.8330538465
| 22> C 2.9147188054 1.5641448455 -0.9376218205
| 23> C 3.7264169891 0.6667280154 -0.2620222556
| 24> C 3.169605323 -0.3449784945 0.5197455222
| 25> C 1.7836822977 -0.4472345592 0.6129761458
| 26> Cl 1.0870909172 -1.676761734 1.5929643636
| 27> Cl 4.1782701902 -1.4571387061 1.3606167607
| 28> Cl 5.4343170275 0.7995693423 -0.3880003805
| 29> Cl 0.5272855792 2.5410871411 -1.6918587973
| 30> H -0.7640750701 2.0847948217 1.2068934266
| 31> H 3.3532793873 2.3424981245 -1.5396386525
| 32> *
| 33>
| 34>                          ****END OF INPUT****

CARTESIAN COORDINATES (ANGSTROEM)
---------------------------------
  C     -1.262803    1.259231    0.726082
  C     -0.521216    0.315199    0.029272
  C     -1.174238   -0.748648   -0.592282
  C     -2.558858   -0.871215   -0.504273
  C     -3.297845    0.074925    0.203323
  C     -2.640276    1.141467    0.814421
  Cl    -3.548576    2.314002    1.682477
  Cl    -5.006392   -0.078416    0.312982
  Cl    -3.359979   -2.186319   -1.268925
  Cl    -0.275837   -1.905612   -1.493598
  C      0.950298    0.442107   -0.063469
  C      1.538159    1.445864   -0.833054
  C      2.914719    1.564145   -0.937622
  C      3.726417    0.666728   -0.262022
  C      3.169605   -0.344978    0.519746
  C      1.783682   -0.447235    0.612976
  Cl     1.087091   -1.676762    1.592964
  Cl     4.178270   -1.457139    1.360617
  Cl     5.434317    0.799569   -0.388000
  Cl     0.527286    2.541087   -1.691859
  H     -0.764075    2.084795    1.206893
  H      3.353279    2.342498   -1.539639

 Total Charge           Charge          ....    0
 Multiplicity           Mult            ....    1
 Number of Electrons    NEL             ....  210
 Basis Dimension        Dim             ....  454

ORBITAL ENERGIES
----------------

  NO   OCC          E(Eh)            E(eV)
   0   2.0000    -101.244236     -2754.9957
   1   2.0000    -101.244082     -2754.9915
   2   2.0000    -101.243002     -2754.9621
   3   2.0000    -101.242779     -2754.9561
   4   2.0000    -101.242011     -2754.9352
   5   2.0000    -101.241814     -2754.9298
   6   2.0000    -101.240330     -2754.8894
   7   2.0000    -101.239821     -2754.8756
   8   2.0000     -10.136112      -275.8176
   9   2.0000     -10.135519      -275.8015
  10   2.0000     -10.135278      -275.7949
  11   2.0000     -10.133200      -275.7384
  12   2.0000     -10.132264      -275.7129
  13   2.0000     -10.131335      -275.6876
  14   2.0000     -10.129210      -275.6298
  15   2.0000     -10.128911      -275.6217
  16   2.0000     -10.092004      -274.6174
  17   2.0000     -10.090457      -274.5753
  18   2.0000     -10.073118      -274.1035
  19   2.0000     -10.072658      -274.0910
  20   2.0000      -9.399996      -255.7869
  21   2.0000      -9.399853      -255.7830
  22   2.0000      -9.398909      -255.7573
  23   2.0000      -9.398516      -255.7466
  24   2.0000      -9.397928      -255.7306
  25   2.0000      -9.397722      -255.7250
  26   2.0000      -9.396253      -255.6850
  27   2.0000      -9.395822      -255.6733
  28   2.0000      -7.146615      -194.4693
  29   2.0000      -7.146479      -194.4656
  30   2.0000      -7.145427      -194.4369
  31   2.0000      -7.145125      -194.4287
  32   2.0000      -7.144401      -194.4090
  33   2.0000      -7.144222      -194.4042
  34   2.0000      -7.142703      -194.3628
  35   2.0000      -7.142176      -194.3485
  36   2.0000      -7.136337      -194.1896
  37   2.0000      -7.136177      -194.1853
  38   2.0000      -7.135295      -194.1613
  39   2.0000      -7.135207      -194.1589
  40   2.0000      -7.135162      -194.1576
  41   2.0000      -7.134829      -194.1486
  42   2.0000      -7.134320      -194.1347
  43   2.0000      -7.134239      -194.1325
  44   2.0000      -7.134004      -194.1261
  45   2.0000      -7.133855      -194.1221
  46   2.0000      -7.133390      -194.1094
  47   2.0000      -7.133163      -194.1032
  48   2.0000      -7.132547      -194.0865
  49   2.0000      -7.132139      -194.0754
  50   2.0000      -7.131751      -194.0648
  51   2.0000      -7.131383      -194.0548
  52   2.0000      -0.929612       -25.2960
  53   2.0000      -0.919882       -25.0313
  54   2.0000      -0.882849       -24.0235
  55   2.0000      -0.875979       -23.8366
  56   2.0000      -0.869601       -23.6631
  57   2.0000      -0.855276       -23.2732
  58   2.0000      -0.833648       -22.6847
  59   2.0000      -0.828016       -22.5315
  60   2.0000      -0.811276       -22.0759
  61   2.0000      -0.796409       -21.6714
  62   2.0000      -0.753984       -20.5170
  63   2.0000      -0.716979       -19.5100
  64   2.0000      -0.710957       -19.3461
  65   2.0000      -0.697258       -18.9733
  66   2.0000      -0.624127       -16.9834
  67   2.0000      -0.605273       -16.4703
  68   2.0000      -0.594974       -16.1901
  69   2.0000      -0.576201       -15.6792
  70   2.0000      -0.518777       -14.1166
  71   2.0000      -0.514143       -13.9905
  72   2.0000      -0.504068       -13.7164
  73   2.0000      -0.493761       -13.4359
  74   2.0000      -0.467900       -12.7322
  75   2.0000      -0.455174       -12.3859
  76   2.0000      -0.440290       -11.9809
  77   2.0000      -0.438873       -11.9423
  78   2.0000      -0.437890       -11.9156
  79   2.0000      -0.431131       -11.7317
  80   2.0000      -0.427671       -11.6375
  81   2.0000      -0.412415       -11.2224
  82   2.0000      -0.392816       -10.6891
  83   2.0000      -0.390226       -10.6186
  84   2.0000      -0.382267       -10.4020
  85   2.0000      -0.376814       -10.2536
  86   2.0000      -0.367664       -10.0047
  87   2.0000      -0.361546        -9.8382
  88   2.0000      -0.351327        -9.5601
  89   2.0000      -0.330688        -8.9985
  90   2.0000      -0.326618        -8.8877
  91   2.0000      -0.323928        -8.8145
  92   2.0000      -0.322810        -8.7841
  93   2.0000      -0.316711        -8.6181
  94   2.0000      -0.311730        -8.4826
  95   2.0000      -0.310202        -8.4410
  96   2.0000      -0.301673        -8.2089
  97   2.0000      -0.299317        -8.1448
  98   2.0000      -0.296612        -8.0712
  99   2.0000      -0.286253        -7.7894
 100   2.0000      -0.283874        -7.7246
 101   2.0000      -0.253816        -6.9067
 102   2.0000      -0.244847        -6.6626
 103   2.0000      -0.239426        -6.5151
 104   2.0000      -0.236114        -6.4250
 105   0.0000      -0.083879        -2.2825
 106   0.0000      -0.072789        -1.9807
 107   0.0000      -0.067077        -1.8253
 108   0.0000      -0.061786        -1.6813
 109   0.0000      -0.059629        -1.6226

MULLIKEN ATOMIC CHARGES
-----------------------
   0 C :   -0.256390
   1 C :    0.060768
   2 C :    0.075158
   3 C :    0.028098
   4 C :    0.092013
   5 C :    0.097890
   6 Cl:   -0.100314
   7 Cl:   -0.078817
   8 Cl:   -0.078577
   9 Cl:   -0.076614
  10 C :    0.142358
  11 C :    0.160528
  12 C :   -0.399669
  13 C :    0.176167
  14 C :    0.003036
  15 C :    0.073862
  16 Cl:   -0.075487
  17 Cl:   -0.083115
  18 Cl:   -0.095064
  19 Cl:   -0.097083
  20 H :    0.215905
  21 H :    0.215348
Sum of atomic charges:    0.0000000

LOEWDIN ATOMIC CHARGES
----------------------
   0 C :   -0.124663
   1 C :   -0.093405
   2 C :   -0.166741
   3 C :   -0.186847
   4 C :   -0.188781
   5 C :   -0.177511
   6 Cl:    0.165505
   7 Cl:    0.177165
   8 Cl:    0.177631
   9 Cl:    0.192624
  10 C :   -0.097790
  11 C :   -0.137667
  12 C :   -0.158569
  13 C :   -0.169746
  14 C :   -0.196456
  15 C :   -0.155241
  16 Cl:    0.198364
  17 Cl:    0.171541
  18 Cl:    0.170871
  19 Cl:    0.185058
  20 H :    0.208063
  21 H :    0.206596

  Mayer bond orders larger than 0.100000
B(  0-C ,  1-C ) :   1.4156 B(  0-C ,  5-C ) :   1.3130 B(  0-C , 20-H ) :   0.9110
B(  1-C ,  2-C ) :   1.2514 B(  1-C ,  9-Cl) :  -0.1006 B(  1-C , 10-C ) :   0.7551
B(  2-C ,  3-C ) :   1.0818 B(  2-C ,  9-Cl) :   1.2556 B(  2-C , 10-C ) :  -0.1137
B(  3-C ,  4-C ) :   1.1061 B(  3-C ,  8-Cl) :   1.2629 B(  4-C ,  5-C ) :   1.2141
B(  4-C ,  7-Cl) :   1.2266 B(  5-C ,  6-Cl) :   1.0863 B( 10-C , 11-C ) :   1.3345
B( 10-C , 15-C ) :   1.2251 B( 11-C , 12-C ) :   1.3250 B( 11-C , 19-Cl) :   1.0202
B( 12-C , 13-C ) :   1.3270 B( 12-C , 19-Cl) :   0.1009 B( 12-C , 21-H ) :   0.8995
B( 13-C , 14-C ) :   1.2186 B( 13-C , 18-Cl) :   1.0761 B( 14-C , 15-C ) :   1.0922
B( 14-C , 17-Cl) :   1.2306 B( 15-C , 16-Cl) :   1.2231

Dispersion correction           -0.017193953
FINAL SINGLE POINT ENERGY     -4139.794065829708

DIPOLE MOMENT
-------------

Method             : SCF
Type of density    : Electron Density
Multiplicity       :   1
Irrep              :   0
Energy             : -4139.7914345227245576 Eh
Relativity type    :
Basis              : AO
                                X                 Y                 Z
Electronic contribution:     -3.163377189      -5.464556897       0.405553283
Nuclear contribution   :      3.722781965       6.367679124      -0.455332040
                        -----------------------------------------
Total Dipole Moment    :      0.559404776       0.903122227      -0.049778756
                        -----------------------------------------
Magnitude (a.u.)       :      1.063504295
Magnitude (Debye)      :      2.703213089

Rotational constants in cm-1:             0.010546             0.003496             0.003175
Rotational constants in MHz :           316.176096           104.798179            95.191790

                             ****ORCA TERMINATED NORMALLY****
TOTAL RUN TIME: 0 days 0 hours 1 minutes 52 seconds 753 msec
