                         Program Version 6.0.0  -   RELEASE  -
|  1> ! wb97x-v def2-tzvp def2/J RIJCOSX DEFGRID2 scfconv7 GCP(DFT/TZ) printgap
|  2> %output
|  3>     printlevel normal
|  4> end
|  5> * xyz 0 1
|  6> C -0.44903306936477366 -1.3599722925974824 -6.415504954223354e-05
|  7> C 0.2718189879368597 -0.2102040796927505 -0.0009732192771925788
|  8> C -0.40362643669638554 1.068957279147782 0.00039453549808407843
|  9> O 0.14403846613885127 2.1705446752310116 0.0023483189255347112
| 10> N -1.7958733044690742 0.9725351045148227 -0.0006967500138524085
| 11> C -2.5527528314381205 -0.17816121568197762 -0.00017031223652158923
| 12> O -3.776601826850521 -0.18115275857591964 -0.00035816164232053656
| 13> N -1.8025267513019392 -1.3424290994176302 0.0005973128026986099
| 14> C 1.7594114762708284 -0.22755187113395087 -0.0004261519158258426
| 15> F 2.249882825248193 -1.48782223498537 -0.007471127948474284
| 16> F 2.282658274747847 0.4053118806448669 -1.0827980696427026
| 17> F 2.2814764850307587 0.39277899551626544 1.090024245799574
| 18> H 0.005401122977313559 -2.3437683907656868 0.0002981227704218308
| 19> H -2.3147416904702562 1.8454203517068033 -0.0004552602331205899
| 20> H -2.318405011174494 -2.2146228453848327 0.0011431218121761672
| 21> *
| 22>
| 23>                          ****END OF INPUT****

CARTESIAN COORDINATES (ANGSTROEM)
---------------------------------
  C     -0.449033   -1.359972   -0.000064
  C      0.271819   -0.210204   -0.000973
  C     -0.403626    1.068957    0.000395
  O      0.144038    2.170545    0.002348
  N     -1.795873    0.972535   -0.000697
  C     -2.552753   -0.178161   -0.000170
  O     -3.776602   -0.181153   -0.000358
  N     -1.802527   -1.342429    0.000597
  C      1.759411   -0.227552   -0.000426
  F      2.249883   -1.487822   -0.007471
  F      2.282658    0.405312   -1.082798
  F      2.281476    0.392779    1.090024
  H      0.005401   -2.343768    0.000298
  H     -2.314742    1.845420   -0.000455
  H     -2.318405   -2.214623    0.001143

 Total Charge           Charge          ....    0
 Multiplicity           Mult            ....    1
 Number of Electrons    NEL             ....   90
 Basis Dimension        Dim             ....  390

ORBITAL ENERGIES
----------------

  NO   OCC          E(Eh)            E(eV)
   0   2.0000     -27.612465      -751.3734
   1   2.0000     -27.596589      -750.9414
   2   2.0000     -27.596450      -750.9376
   3   2.0000     -21.678704      -589.9075
   4   2.0000     -21.670914      -589.6955
   5   2.0000     -16.631507      -452.5663
   6   2.0000     -16.609156      -451.9581
   7   2.0000     -12.316962      -335.1616
   8   2.0000     -12.231125      -332.8258
   9   2.0000     -12.198260      -331.9315
  10   2.0000     -12.172212      -331.2227
  11   2.0000     -12.106763      -329.4418
  12   2.0000      -2.064233       -56.1706
  13   2.0000      -2.018249       -54.9194
  14   2.0000      -2.007390       -54.6239
  15   2.0000      -1.748673       -47.5838
  16   2.0000      -1.726273       -46.9743
  17   2.0000      -1.622785       -44.1582
  18   2.0000      -1.561474       -42.4899
  19   2.0000      -1.423188       -38.7269
  20   2.0000      -1.362710       -37.0812
  21   2.0000      -1.274983       -34.6940
  22   2.0000      -1.264264       -34.4024
  23   2.0000      -1.253622       -34.1128
  24   2.0000      -1.252387       -34.0792
  25   2.0000      -1.211231       -32.9593
  26   2.0000      -1.169685       -31.8288
  27   2.0000      -1.168301       -31.7911
  28   2.0000      -1.152274       -31.3550
  29   2.0000      -1.150669       -31.3113
  30   2.0000      -1.143899       -31.1271
  31   2.0000      -1.138700       -30.9856
  32   2.0000      -1.125637       -30.6301
  33   2.0000      -1.086348       -29.5610
  34   2.0000      -1.068714       -29.0812
  35   2.0000      -1.047065       -28.4921
  36   2.0000      -1.013823       -27.5875
  37   2.0000      -0.989796       -26.9337
  38   2.0000      -0.974622       -26.5208
  39   2.0000      -0.934085       -25.4178
  40   2.0000      -0.902909       -24.5694
  41   2.0000      -0.895305       -24.3625
  42   2.0000      -0.878632       -23.9088
  43   2.0000      -0.846250       -23.0276
  44   2.0000      -0.738367       -20.0920
  45   0.0000      -0.367016        -9.9870
  46   0.0000      -0.343466        -9.3462
  47   0.0000      -0.284682        -7.7466
  48   0.0000      -0.261169        -7.1068
  49   0.0000      -0.260356        -7.0846

MULLIKEN ATOMIC CHARGES
-----------------------
   0 C :    0.017364
   1 C :   -0.122644
   2 C :    0.183467
   3 O :   -0.314845
   4 N :   -0.212269
   5 C :    0.301102
   6 O :   -0.342210
   7 N :   -0.213140
   8 C :    0.465010
   9 F :   -0.167932
  10 F :   -0.151188
  11 F :   -0.151435
  12 H :    0.187925
  13 H :    0.260683
  14 H :    0.260112
Sum of atomic charges:   -0.0000000

LOEWDIN ATOMIC CHARGES
----------------------
   0 C :   -0.104909
   1 C :   -0.147501
   2 C :   -0.375528
   3 O :    0.090714
   4 N :    0.208476
   5 C :   -0.476519
   6 O :    0.062510
   7 N :    0.191124
   8 C :   -0.600664
   9 F :    0.188023
  10 F :    0.188535
  11 F :    0.188059
  12 H :    0.160854
  13 H :    0.214933
  14 H :    0.211892

  Mayer bond orders larger than 0.100000
B(  0-C ,  1-C ) :   1.6785 B(  0-C ,  7-N ) :   1.2084 B(  0-C , 12-H ) :   0.9140
B(  1-C ,  2-C ) :   1.0257 B(  1-C ,  8-C ) :   1.0104 B(  2-C ,  3-O ) :   2.1786
B(  2-C ,  4-N ) :   1.1302 B(  4-N ,  5-C ) :   1.1657 B(  4-N , 13-H ) :   0.8852
B(  5-C ,  6-O ) :   2.1350 B(  5-C ,  7-N ) :   1.0877 B(  7-N , 14-H ) :   0.9025
B(  8-C ,  9-F ) :   1.1398 B(  8-C , 10-F ) :   1.1745 B(  8-C , 11-F ) :   1.1741

FINAL SINGLE POINT ENERGY      -751.938236012550

DIPOLE MOMENT
-------------

Method             : SCF
Type of density    : Electron Density
Multiplicity       :   1
Irrep              :   0
Energy             :  -751.9527599566497429 Eh
Relativity type    :
Basis              : AO
                                X                 Y                 Z
Electronic contribution:     10.027548557       0.136876002      -0.002276777
Nuclear contribution   :    -10.728497810      -1.878765769       0.001175877
                        -----------------------------------------
Total Dipole Moment    :     -0.700949253      -1.741889766      -0.001100900
                        -----------------------------------------
Magnitude (a.u.)       :      1.877634423
Magnitude (Debye)      :      4.772567420

Rotational constants in cm-1:             0.065155             0.021349             0.017584
Rotational constants in MHz :          1953.299692           640.017146           527.167517

                             ****ORCA TERMINATED NORMALLY****
TOTAL RUN TIME: 0 days 0 hours 4 minutes 31 seconds 169 msec
