                         Program Version 6.0.0  -   RELEASE  -
|  1> ! wb97x-v def2-tzvp def2/J RIJCOSX DEFGRID2 scfconv7 GCP(DFT/TZ) printgap
|  2> %output
|  3>     printlevel normal
|  4> end
|  5> %cpcm
|  6>     smd true
|  7>     smdsolvent "water"
|  8> end
|  9> * xyz 0 1
| 10> C -0.44903306936477366 -1.3599722925974824 -6.415504954223354e-05
| 11> C 0.2718189879368597 -0.2102040796927505 -0.0009732192771925788
| 12> C -0.40362643669638554 1.068957279147782 0.00039453549808407843
| 13> O 0.14403846613885127 2.1705446752310116 0.0023483189255347112
| 14> N -1.7958733044690742 0.9725351045148227 -0.0006967500138524085
| 15> C -2.5527528314381205 -0.17816121568197762 -0.00017031223652158923
| 16> O -3.776601826850521 -0.18115275857591964 -0.00035816164232053656
| 17> N -1.8025267513019392 -1.3424290994176302 0.0005973128026986099
| 18> C 1.7594114762708284 -0.22755187113395087 -0.0004261519158258426
| 19> F 2.249882825248193 -1.48782223498537 -0.007471127948474284
| 20> F 2.282658274747847 0.4053118806448669 -1.0827980696427026
| 21> F 2.2814764850307587 0.39277899551626544 1.090024245799574
| 22> H 0.005401122977313559 -2.3437683907656868 0.0002981227704218308
| 23> H -2.3147416904702562 1.8454203517068033 -0.0004552602331205899
| 24> H -2.318405011174494 -2.2146228453848327 0.0011431218121761672
| 25> *
| 26>
| 27>                          ****END OF INPUT****

CARTESIAN COORDINATES (ANGSTROEM)
---------------------------------
  C     -0.449033   -1.359972   -0.000064
  C      0.271819   -0.210204   -0.000973
  C     -0.403626    1.068957    0.000395
  O      0.144038    2.170545    0.002348
  N     -1.795873    0.972535   -0.000697
  C     -2.552753   -0.178161   -0.000170
  O     -3.776602   -0.181153   -0.000358
  N     -1.802527   -1.342429    0.000597
  C      1.759411   -0.227552   -0.000426
  F      2.249883   -1.487822   -0.007471
  F      2.282658    0.405312   -1.082798
  F      2.281476    0.392779    1.090024
  H      0.005401   -2.343768    0.000298
  H     -2.314742    1.845420   -0.000455
  H     -2.318405   -2.214623    0.001143

 Total Charge           Charge          ....    0
 Multiplicity           Mult            ....    1
 Number of Electrons    NEL             ....   90
 Basis Dimension        Dim             ....  390

ORBITAL ENERGIES
----------------

  NO   OCC          E(Eh)            E(eV)
   0   2.0000     -27.607797      -751.2464
   1   2.0000     -27.601608      -751.0779
   2   2.0000     -27.601457      -751.0738
   3   2.0000     -21.672817      -589.7473
   4   2.0000     -21.670730      -589.6905
   5   2.0000     -16.605613      -451.8617
   6   2.0000     -16.595024      -451.5736
   7   2.0000     -12.314091      -335.0835
   8   2.0000     -12.220986      -332.5499
   9   2.0000     -12.194885      -331.8397
  10   2.0000     -12.147954      -330.5626
  11   2.0000     -12.087074      -328.9060
  12   2.0000      -2.064835       -56.1870
  13   2.0000      -2.018359       -54.9223
  14   2.0000      -2.013271       -54.7839
  15   2.0000      -1.743280       -47.4370
  16   2.0000      -1.729064       -47.0502
  17   2.0000      -1.600836       -43.5610
  18   2.0000      -1.543057       -41.9887
  19   2.0000      -1.414819       -38.4992
  20   2.0000      -1.352370       -36.7999
  21   2.0000      -1.264720       -34.4148
  22   2.0000      -1.258540       -34.2466
  23   2.0000      -1.255875       -34.1741
  24   2.0000      -1.239188       -33.7200
  25   2.0000      -1.203364       -32.7452
  26   2.0000      -1.169682       -31.8287
  27   2.0000      -1.169102       -31.8129
  28   2.0000      -1.155703       -31.4483
  29   2.0000      -1.154412       -31.4132
  30   2.0000      -1.150260       -31.3002
  31   2.0000      -1.121357       -30.5137
  32   2.0000      -1.112087       -30.2614
  33   2.0000      -1.087045       -29.5800
  34   2.0000      -1.063689       -28.9444
  35   2.0000      -1.029974       -28.0270
  36   2.0000      -1.002065       -27.2676
  37   2.0000      -0.978029       -26.6135
  38   2.0000      -0.954579       -25.9754
  39   2.0000      -0.937653       -25.5148
  40   2.0000      -0.896550       -24.3964
  41   2.0000      -0.877862       -23.8878
  42   2.0000      -0.876790       -23.8587
  43   2.0000      -0.834891       -22.7185
  44   2.0000      -0.720460       -19.6047
  45   0.0000      -0.346456        -9.4275
  46   0.0000      -0.330129        -8.9833
  47   0.0000      -0.284612        -7.7447
  48   0.0000      -0.256173        -6.9708
  49   0.0000      -0.249596        -6.7919

MULLIKEN ATOMIC CHARGES
-----------------------
   0 C :    0.016995
   1 C :   -0.088783
   2 C :    0.244955
   3 O :   -0.460023
   4 N :   -0.199782
   5 C :    0.355558
   6 O :   -0.462223
   7 N :   -0.190509
   8 C :    0.457049
   9 F :   -0.167893
  10 F :   -0.171284
  11 F :   -0.171414
  12 H :    0.225704
  13 H :    0.297900
  14 H :    0.313750
Sum of atomic charges:   -0.0000000

LOEWDIN ATOMIC CHARGES
----------------------
   0 C :   -0.056263
   1 C :   -0.153318
   2 C :   -0.363494
   3 O :    0.003206
   4 N :    0.226098
   5 C :   -0.454206
   6 O :   -0.004313
   7 N :    0.222494
   8 C :   -0.600412
   9 F :    0.189903
  10 F :    0.173516
  11 F :    0.173119
  12 H :    0.179793
  13 H :    0.229079
  14 H :    0.234797

  Mayer bond orders larger than 0.100000
B(  0-C ,  1-C ) :   1.6056 B(  0-C ,  7-N ) :   1.2516 B(  0-C , 12-H ) :   0.9258
B(  1-C ,  2-C ) :   1.0506 B(  1-C ,  8-C ) :   1.0122 B(  2-C ,  3-O ) :   2.0462
B(  2-C ,  4-N ) :   1.1649 B(  4-N ,  5-C ) :   1.1780 B(  4-N , 13-H ) :   0.8618
B(  5-C ,  6-O ) :   2.0261 B(  5-C ,  7-N ) :   1.1257 B(  7-N , 14-H ) :   0.8698
B(  8-C ,  9-F ) :   1.1563 B(  8-C , 10-F ) :   1.1574 B(  8-C , 11-F ) :   1.1573

FINAL SINGLE POINT ENERGY      -751.962814259269

DIPOLE MOMENT
-------------

Method             : SCF
Type of density    : Electron Density
Multiplicity       :   1
Irrep              :   0
Energy             :  -751.9773382033688449 Eh
Relativity type    :
Basis              : AO
                                X                 Y                 Z
Electronic contribution:      9.803541155      -0.755253771      -0.002712793
Nuclear contribution   :    -10.728497810      -1.878765769       0.001175877
                        -----------------------------------------
Total Dipole Moment    :     -0.924956655      -2.634019540      -0.001536916
                        -----------------------------------------
Magnitude (a.u.)       :      2.791703085
Magnitude (Debye)      :      7.095945318

Rotational constants in cm-1:             0.065155             0.021349             0.017584
Rotational constants in MHz :          1953.299692           640.017146           527.167517

                             ****ORCA TERMINATED NORMALLY****
TOTAL RUN TIME: 0 days 0 hours 4 minutes 18 seconds 203 msec
