                         Program Version 6.0.0  -   RELEASE  -
|  1> ! wb97x-v def2-tzvp def2/J RIJCOSX DEFGRID2 scfconv7 GCP(DFT/TZ) printgap
|  2> %output
|  3>     printlevel normal
|  4> end
|  5> * xyz 0 1
|  6> C 2.5042422818507295 0.05400237432694972 0.05739401702500853
|  7> C 1.0056898926331437 0.07562873937491077 0.008881077485201191
|  8> C 0.3049507111184934 1.2120589775325117 -0.10021456194151888
|  9> C -1.196341150545988 1.2830434388125562 -0.10941990293249741
| 10> C -1.836415682768474 -0.028978802944576262 0.34784856768188305
| 11> C -1.1447553589108257 -1.2163816582387335 -0.318835130509866
| 12> C 0.32806782333225737 -1.2696048173174876 0.08764787294460055
| 13> H 2.855172061173077 -0.4658005892954215 0.9585378796679039
| 14> H 2.927279945458297 1.0626722341665191 0.05383280593915366
| 15> H 2.9146116845598398 -0.4984206376697835 -0.7976889625185954
| 16> H 0.8451346634517547 2.1556952984639253 -0.17896282039463562
| 17> H -1.5249904442428008 2.11070175475441 0.5323075792003694
| 18> H -1.5479385873765492 1.5380873778832 -1.1207477838844981
| 19> H -1.7360203247542767 -0.12263742216317887 1.4374530218930341
| 20> H -2.9081673319969785 -0.02497961957388594 0.12125391050544244
| 21> H -1.64218473466946 -2.1562104207119144 -0.0554156973802006
| 22> H -1.2176283339550198 -1.1074991782158567 -1.409329094067406
| 23> H 0.42440127029547586 -1.65573989849658 1.1138786719675555
| 24> H 0.8752616006982497 -1.9806248288363555 -0.5457535474375148
| 25> *
| 26>
| 27>                          ****END OF INPUT****

CARTESIAN COORDINATES (ANGSTROEM)
---------------------------------
  C      2.504242    0.054002    0.057394
  C      1.005690    0.075629    0.008881
  C      0.304951    1.212059   -0.100215
  C     -1.196341    1.283043   -0.109420
  C     -1.836416   -0.028979    0.347849
  C     -1.144755   -1.216382   -0.318835
  C      0.328068   -1.269605    0.087648
  H      2.855172   -0.465801    0.958538
  H      2.927280    1.062672    0.053833
  H      2.914612   -0.498421   -0.797689
  H      0.845135    2.155695   -0.178963
  H     -1.524990    2.110702    0.532308
  H     -1.547939    1.538087   -1.120748
  H     -1.736020   -0.122637    1.437453
  H     -2.908167   -0.024980    0.121254
  H     -1.642185   -2.156210   -0.055416
  H     -1.217628   -1.107499   -1.409329
  H      0.424401   -1.655740    1.113879
  H      0.875262   -1.980625   -0.545754

 Total Charge           Charge          ....    0
 Multiplicity           Mult            ....    1
 Number of Electrons    NEL             ....   54
 Basis Dimension        Dim             ....  289

ORBITAL ENERGIES
----------------

  NO   OCC          E(Eh)            E(eV)
   0   2.0000     -12.044503      -327.7476
   1   2.0000     -12.040357      -327.6348
   2   2.0000     -12.039380      -327.6082
   3   2.0000     -12.037601      -327.5598
   4   2.0000     -12.036265      -327.5234
   5   2.0000     -12.035353      -327.4986
   6   2.0000     -12.030778      -327.3741
   7   2.0000      -1.348475       -36.6939
   8   2.0000      -1.274354       -34.6769
   9   2.0000      -1.246638       -33.9227
  10   2.0000      -1.177663       -32.0458
  11   2.0000      -1.112490       -30.2724
  12   2.0000      -1.068230       -29.0680
  13   2.0000      -0.956542       -26.0288
  14   2.0000      -0.916393       -24.9363
  15   2.0000      -0.888939       -24.1892
  16   2.0000      -0.875413       -23.8212
  17   2.0000      -0.853839       -23.2341
  18   2.0000      -0.838567       -22.8186
  19   2.0000      -0.828883       -22.5551
  20   2.0000      -0.818357       -22.2686
  21   2.0000      -0.803893       -21.8750
  22   2.0000      -0.797896       -21.7118
  23   2.0000      -0.768062       -20.9000
  24   2.0000      -0.752267       -20.4702
  25   2.0000      -0.746932       -20.3250
  26   2.0000      -0.626516       -17.0484
  27   0.0000      -0.188741        -5.1359
  28   0.0000      -0.037069        -1.0087
  29   0.0000      -0.024070        -0.6550
  30   0.0000      -0.020100        -0.5469
  31   0.0000      -0.013662        -0.3718

MULLIKEN ATOMIC CHARGES
-----------------------
   0 C :   -0.343972
   1 C :    0.008644
   2 C :   -0.227267
   3 C :   -0.119124
   4 C :   -0.188010
   5 C :   -0.174505
   6 C :   -0.168494
   7 H :    0.111040
   8 H :    0.111484
   9 H :    0.114274
  10 H :    0.102676
  11 H :    0.099513
  12 H :    0.093417
  13 H :    0.089353
  14 H :    0.100699
  15 H :    0.102059
  16 H :    0.089340
  17 H :    0.097923
  18 H :    0.100950
Sum of atomic charges:    0.0000000

LOEWDIN ATOMIC CHARGES
----------------------
   0 C :   -0.260595
   1 C :   -0.202019
   2 C :   -0.154634
   3 C :   -0.251077
   4 C :   -0.252511
   5 C :   -0.250564
   6 C :   -0.221001
   7 H :    0.124152
   8 H :    0.122706
   9 H :    0.123126
  10 H :    0.136524
  11 H :    0.136501
  12 H :    0.137817
  13 H :    0.135403
  14 H :    0.129743
  15 H :    0.129948
  16 H :    0.136197
  17 H :    0.140784
  18 H :    0.139499

  Mayer bond orders larger than 0.100000
B(  0-C ,  1-C ) :   0.9552 B(  0-C ,  7-H ) :   0.9717 B(  0-C ,  8-H ) :   0.9911
B(  0-C ,  9-H ) :   0.9757 B(  1-C ,  2-C ) :   1.9056 B(  1-C ,  6-C ) :   0.9764
B(  2-C ,  3-C ) :   0.9897 B(  2-C , 10-H ) :   0.9645 B(  3-C ,  4-C ) :   1.0092
B(  3-C , 11-H ) :   0.9723 B(  3-C , 12-H ) :   0.9591 B(  4-C ,  5-C ) :   0.9689
B(  4-C , 13-H ) :   0.9771 B(  4-C , 14-H ) :   0.9785 B(  5-C ,  6-C ) :   1.0070
B(  5-C , 15-H ) :   0.9799 B(  5-C , 16-H ) :   0.9765 B(  6-C , 17-H ) :   0.9577
B(  6-C , 18-H ) :   0.9715

FINAL SINGLE POINT ENERGY      -273.976652769336

DIPOLE MOMENT
-------------

Method             : SCF
Type of density    : Electron Density
Multiplicity       :   1
Irrep              :   0
Energy             :  -273.9890698887360259 Eh
Relativity type    :
Basis              : AO
                                X                 Y                 Z
Electronic contribution:     -0.300430555       0.991410516      -0.116567466
Nuclear contribution   :      0.265885348      -1.093241029       0.127237677
                        -----------------------------------------
Total Dipole Moment    :     -0.034545207      -0.101830513       0.010670211
                        -----------------------------------------
Magnitude (a.u.)       :      0.108058679
Magnitude (Debye)      :      0.274663333

Rotational constants in cm-1:             0.150027             0.075655             0.054129
Rotational constants in MHz :          4497.683262          2268.066070          1622.760889

                             ****ORCA TERMINATED NORMALLY****
TOTAL RUN TIME: 0 days 0 hours 2 minutes 25 seconds 679 msec
