                         Program Version 6.0.0  -   RELEASE  -
|  1> ! r2scan-3c def2/J RI DEFGRID2 scfconv6 printgap
|  2> %output
|  3>     printlevel normal
|  4> end
|  5> * xyz 0 1
|  6> C 1.1718604465 1.451347688 -0.3175766691
|  7> C 0.711719519 -0.0034106948 -0.4355078445
|  8> C 1.5873685162 -0.9175455159 0.426027897
|  9> C -0.7254491049 -0.1110346517 0.0487562284
| 10> O -1.0492129943 0.2265140664 1.1701645487
| 11> C -1.7031095319 -0.6618086187 -0.9441553808
| 12> H 1.0487775741 1.7944332914 0.7073140986
| 13> H 2.2187676146 1.5369500261 -0.5948749501
| 14> H 0.5830607794 2.0934352252 -0.9686265549
| 15> H 0.7707971106 -0.3218631232 -1.4787261402
| 16> H 1.4886965378 -0.6417591758 1.4737668327
| 17> H 2.6292164025 -0.8211000129 0.1330057877
| 18> H 1.2861334715 -1.9564634687 0.3129283822
| 19> H -1.3764478458 -1.650403464 -1.2582836569
| 20> H -1.7177959762 -0.0204478272 -1.8224385848
| 21> H -2.6980139287 -0.7192014199 -0.5114215388
| 22> *
| 23>
| 24>                          ****END OF INPUT****

CARTESIAN COORDINATES (ANGSTROEM)
---------------------------------
  C      1.171860    1.451348   -0.317577
  C      0.711720   -0.003411   -0.435508
  C      1.587369   -0.917546    0.426028
  C     -0.725449   -0.111035    0.048756
  O     -1.049213    0.226514    1.170165
  C     -1.703110   -0.661809   -0.944155
  H      1.048778    1.794433    0.707314
  H      2.218768    1.536950   -0.594875
  H      0.583061    2.093435   -0.968627
  H      0.770797   -0.321863   -1.478726
  H      1.488697   -0.641759    1.473767
  H      2.629216   -0.821100    0.133006
  H      1.286133   -1.956463    0.312928
  H     -1.376448   -1.650403   -1.258284
  H     -1.717796   -0.020448   -1.822439
  H     -2.698014   -0.719201   -0.511422

 Total Charge           Charge          ....    0
 Multiplicity           Mult            ....    1
 Number of Electrons    NEL             ....   48
 Basis Dimension        Dim             ....  169

ORBITAL ENERGIES
----------------

  NO   OCC          E(Eh)            E(eV)
   0   2.0000     -18.937330      -515.3110
   1   2.0000     -10.116423      -275.2819
   2   2.0000     -10.045656      -273.3562
   3   2.0000     -10.035159      -273.0706
   4   2.0000     -10.026572      -272.8369
   5   2.0000     -10.025105      -272.7970
   6   2.0000      -1.003645       -27.3106
   7   2.0000      -0.776588       -21.1320
   8   2.0000      -0.713846       -19.4247
   9   2.0000      -0.658975       -17.9316
  10   2.0000      -0.588218       -16.0062
  11   2.0000      -0.488625       -13.2961
  12   2.0000      -0.450798       -12.2668
  13   2.0000      -0.425794       -11.5864
  14   2.0000      -0.425082       -11.5671
  15   2.0000      -0.391102       -10.6424
  16   2.0000      -0.379406       -10.3242
  17   2.0000      -0.376669       -10.2497
  18   2.0000      -0.361740        -9.8434
  19   2.0000      -0.330405        -8.9908
  20   2.0000      -0.328385        -8.9358
  21   2.0000      -0.310188        -8.4407
  22   2.0000      -0.307515        -8.3679
  23   2.0000      -0.212869        -5.7925
  24   0.0000      -0.046019        -1.2522
  25   0.0000       0.067682         1.8417
  26   0.0000       0.116812         3.1786
  27   0.0000       0.121380         3.3029
  28   0.0000       0.124007         3.3744

MULLIKEN ATOMIC CHARGES
-----------------------
   0 C :   -0.493318
   1 C :   -0.042786
   2 C :   -0.491094
   3 C :    0.286739
   4 O :   -0.355959
   5 C :   -0.490062
   6 H :    0.176971
   7 H :    0.147841
   8 H :    0.144721
   9 H :    0.148675
  10 H :    0.176376
  11 H :    0.149071
  12 H :    0.144141
  13 H :    0.160310
  14 H :    0.162183
  15 H :    0.176192
Sum of atomic charges:   -0.0000000

LOEWDIN ATOMIC CHARGES
----------------------
   0 C :   -0.390320
   1 C :   -0.229443
   2 C :   -0.389334
   3 C :    0.222339
   4 O :   -0.466413
   5 C :   -0.382608
   6 H :    0.169111
   7 H :    0.154046
   8 H :    0.155581
   9 H :    0.159063
  10 H :    0.168253
  11 H :    0.154488
  12 H :    0.155367
  13 H :    0.173403
  14 H :    0.173928
  15 H :    0.172540

  Mayer bond orders larger than 0.100000
B(  0-C ,  1-C ) :   0.9097 B(  0-C ,  6-H ) :   0.9765 B(  0-C ,  7-H ) :   0.9750
B(  0-C ,  8-H ) :   0.9703 B(  1-C ,  2-C ) :   0.9079 B(  1-C ,  3-C ) :   0.8578
B(  1-C ,  9-H ) :   0.9449 B(  2-C , 10-H ) :   0.9775 B(  2-C , 11-H ) :   0.9742
B(  2-C , 12-H ) :   0.9693 B(  3-C ,  4-O ) :   1.9566 B(  3-C ,  5-C ) :   0.9165
B(  5-C , 13-H ) :   0.9417 B(  5-C , 14-H ) :   0.9433 B(  5-C , 15-H ) :   0.9895

Dispersion correction           -0.003902164
FINAL SINGLE POINT ENERGY      -271.704857936790

DIPOLE MOMENT
-------------

Method             : SCF
Type of density    : Electron Density
Multiplicity       :   1
Irrep              :   0
Energy             :  -271.7084388172906984 Eh
Relativity type    :
Basis              : AO
                                X                 Y                 Z
Electronic contribution:     -3.607633331       0.359889531       2.731160441
Nuclear contribution   :      3.955871567      -0.659378961      -3.742206504
                        -----------------------------------------
Total Dipole Moment    :      0.348238237      -0.299489430      -1.011046063
                        -----------------------------------------
Magnitude (a.u.)       :      1.110485448
Magnitude (Debye)      :      2.822629690

Rotational constants in cm-1:             0.159880             0.086205             0.083395
Rotational constants in MHz :          4793.071740          2584.372602          2500.125914

                             ****ORCA TERMINATED NORMALLY****
TOTAL RUN TIME: 0 days 0 hours 0 minutes 20 seconds 354 msec
