                         Program Version 6.0.0  -   RELEASE  -
|  1> ! r2scan-3c def2/J RI DEFGRID2 scfconv6 printgap
|  2> %output
|  3>     printlevel normal
|  4> end
|  5> %cpcm
|  6>     smd true
|  7>     smdsolvent "water"
|  8> end
|  9> * xyz 0 1
| 10> C 1.1718604465 1.451347688 -0.3175766691
| 11> C 0.711719519 -0.0034106948 -0.4355078445
| 12> C 1.5873685162 -0.9175455159 0.426027897
| 13> C -0.7254491049 -0.1110346517 0.0487562284
| 14> O -1.0492129943 0.2265140664 1.1701645487
| 15> C -1.7031095319 -0.6618086187 -0.9441553808
| 16> H 1.0487775741 1.7944332914 0.7073140986
| 17> H 2.2187676146 1.5369500261 -0.5948749501
| 18> H 0.5830607794 2.0934352252 -0.9686265549
| 19> H 0.7707971106 -0.3218631232 -1.4787261402
| 20> H 1.4886965378 -0.6417591758 1.4737668327
| 21> H 2.6292164025 -0.8211000129 0.1330057877
| 22> H 1.2861334715 -1.9564634687 0.3129283822
| 23> H -1.3764478458 -1.650403464 -1.2582836569
| 24> H -1.7177959762 -0.0204478272 -1.8224385848
| 25> H -2.6980139287 -0.7192014199 -0.5114215388
| 26> *
| 27>
| 28>                          ****END OF INPUT****

CARTESIAN COORDINATES (ANGSTROEM)
---------------------------------
  C      1.171860    1.451348   -0.317577
  C      0.711720   -0.003411   -0.435508
  C      1.587369   -0.917546    0.426028
  C     -0.725449   -0.111035    0.048756
  O     -1.049213    0.226514    1.170165
  C     -1.703110   -0.661809   -0.944155
  H      1.048778    1.794433    0.707314
  H      2.218768    1.536950   -0.594875
  H      0.583061    2.093435   -0.968627
  H      0.770797   -0.321863   -1.478726
  H      1.488697   -0.641759    1.473767
  H      2.629216   -0.821100    0.133006
  H      1.286133   -1.956463    0.312928
  H     -1.376448   -1.650403   -1.258284
  H     -1.717796   -0.020448   -1.822439
  H     -2.698014   -0.719201   -0.511422

 Total Charge           Charge          ....    0
 Multiplicity           Mult            ....    1
 Number of Electrons    NEL             ....   48
 Basis Dimension        Dim             ....  169

ORBITAL ENERGIES
----------------

  NO   OCC          E(Eh)            E(eV)
   0   2.0000     -18.946519      -515.5610
   1   2.0000     -10.122500      -275.4472
   2   2.0000     -10.036990      -273.1204
   3   2.0000     -10.022853      -272.7357
   4   2.0000     -10.016914      -272.5741
   5   2.0000     -10.016083      -272.5515
   6   2.0000      -1.015473       -27.6324
   7   2.0000      -0.768950       -20.9242
   8   2.0000      -0.704372       -19.1669
   9   2.0000      -0.649875       -17.6840
  10   2.0000      -0.580688       -15.8013
  11   2.0000      -0.486684       -13.2433
  12   2.0000      -0.446728       -12.1561
  13   2.0000      -0.422517       -11.4973
  14   2.0000      -0.418373       -11.3845
  15   2.0000      -0.389763       -10.6060
  16   2.0000      -0.373293       -10.1578
  17   2.0000      -0.364874        -9.9287
  18   2.0000      -0.355025        -9.6607
  19   2.0000      -0.328177        -8.9302
  20   2.0000      -0.323605        -8.8057
  21   2.0000      -0.303756        -8.2656
  22   2.0000      -0.300516        -8.1775
  23   2.0000      -0.222235        -6.0473
  24   0.0000      -0.048297        -1.3142
  25   0.0000       0.078717         2.1420
  26   0.0000       0.128344         3.4924
  27   0.0000       0.134428         3.6580
  28   0.0000       0.136443         3.7128

MULLIKEN ATOMIC CHARGES
-----------------------
   0 C :   -0.535995
   1 C :   -0.005991
   2 C :   -0.533586
   3 C :    0.322250
   4 O :   -0.463171
   5 C :   -0.521512
   6 H :    0.167105
   7 H :    0.167221
   8 H :    0.166112
   9 H :    0.172494
  10 H :    0.167983
  11 H :    0.168147
  12 H :    0.166222
  13 H :    0.192449
  14 H :    0.194319
  15 H :    0.175955
Sum of atomic charges:   -0.0000000

LOEWDIN ATOMIC CHARGES
----------------------
   0 C :   -0.396016
   1 C :   -0.220765
   2 C :   -0.394506
   3 C :    0.241065
   4 O :   -0.542984
   5 C :   -0.379417
   6 H :    0.163542
   7 H :    0.161221
   8 H :    0.161631
   9 H :    0.170960
  10 H :    0.163246
  11 H :    0.161578
  12 H :    0.161883
  13 H :    0.188093
  14 H :    0.188630
  15 H :    0.171841

  Mayer bond orders larger than 0.100000
B(  0-C ,  1-C ) :   0.8910 B(  0-C ,  6-H ) :   0.9770 B(  0-C ,  7-H ) :   0.9693
B(  0-C ,  8-H ) :   0.9686 B(  1-C ,  2-C ) :   0.8900 B(  1-C ,  3-C ) :   0.8751
B(  1-C ,  9-H ) :   0.9362 B(  2-C , 10-H ) :   0.9773 B(  2-C , 11-H ) :   0.9684
B(  2-C , 12-H ) :   0.9673 B(  3-C ,  4-O ) :   1.8778 B(  3-C ,  5-C ) :   0.9395
B(  5-C , 13-H ) :   0.9274 B(  5-C , 14-H ) :   0.9285 B(  5-C , 15-H ) :   0.9858

Dispersion correction           -0.003902164
FINAL SINGLE POINT ENERGY      -271.710733862925

DIPOLE MOMENT
-------------

Method             : SCF
Type of density    : Electron Density
Multiplicity       :   1
Irrep              :   0
Energy             :  -271.7143147434263142 Eh
Relativity type    :
Basis              : AO
                                X                 Y                 Z
Electronic contribution:     -3.447545007       0.192831713       2.182273660
Nuclear contribution   :      3.955871567      -0.659378961      -3.742206504
                        -----------------------------------------
Total Dipole Moment    :      0.508326561      -0.466547248      -1.559932844
                        -----------------------------------------
Magnitude (a.u.)       :      1.705711788
Magnitude (Debye)      :      4.335574812

Rotational constants in cm-1:             0.159880             0.086205             0.083395
Rotational constants in MHz :          4793.071740          2584.372602          2500.125914

                             ****ORCA TERMINATED NORMALLY****
TOTAL RUN TIME: 0 days 0 hours 0 minutes 22 seconds 795 msec
