                         Program Version 6.0.0  -   RELEASE  -
|  1> ! wb97x-v def2-tzvp def2/J RIJCOSX DEFGRID2 scfconv7 GCP(DFT/TZ) printgap
|  2> %output
|  3>     printlevel normal
|  4> end
|  5> * xyz 0 1
|  6> C -0.6396540421009729 0.9830598149569306 -3.703200963739955e-05
|  7> C 0.7279438676740084 0.9137722830911222 -2.8598389582462298e-05
|  8> N 1.14701258773508 -0.40455906695925126 -2.5616390300087585e-05
|  9> C 0.03210090454979729 -1.1171701467962392 -3.39508583258097e-05
| 10> N -1.0695931998179364 -0.32378411272895563 -3.993072100948945e-05
| 11> H -1.3284444708278407 1.8137544722248058 -3.941764411599776e-05
| 12> H 1.4312232053157417 1.7341474229647742 -2.7523149142788682e-05
| 13> H -0.03491478414714991 -2.1963695875208793 -3.729833404982099e-05
| 14> H -2.029668352930264 -0.6370495849596304 -4.9433044313428306e-05
| 15> *
| 16>
| 17>                          ****END OF INPUT****

CARTESIAN COORDINATES (ANGSTROEM)
---------------------------------
  C     -0.639654    0.983060   -0.000037
  C      0.727944    0.913772   -0.000029
  N      1.147013   -0.404559   -0.000026
  C      0.032101   -1.117170   -0.000034
  N     -1.069593   -0.323784   -0.000040
  H     -1.328444    1.813754   -0.000039
  H      1.431223    1.734147   -0.000028
  H     -0.034915   -2.196370   -0.000037
  H     -2.029668   -0.637050   -0.000049

 Total Charge           Charge          ....    0
 Multiplicity           Mult            ....    1
 Number of Electrons    NEL             ....   36
 Basis Dimension        Dim             ....  179

ORBITAL ENERGIES
----------------

  NO   OCC          E(Eh)            E(eV)
   0   2.0000     -16.588712      -451.4018
   1   2.0000     -16.507724      -449.1980
   2   2.0000     -12.102266      -329.3194
   3   2.0000     -12.076530      -328.6191
   4   2.0000     -12.058745      -328.1351
   5   2.0000      -1.601030       -43.5662
   6   2.0000      -1.461707       -39.7751
   7   2.0000      -1.288153       -35.0524
   8   2.0000      -1.145705       -31.1762
   9   2.0000      -1.117740       -30.4152
  10   2.0000      -1.045622       -28.4528
  11   2.0000      -0.935332       -25.4517
  12   2.0000      -0.910982       -24.7891
  13   2.0000      -0.896718       -24.4009
  14   2.0000      -0.878574       -23.9072
  15   2.0000      -0.785278       -21.3685
  16   2.0000      -0.750966       -20.4348
  17   2.0000      -0.632292       -17.2055
  18   0.0000      -0.250449        -6.8151
  19   0.0000      -0.188805        -5.1376
  20   0.0000      -0.078497        -2.1360
  21   0.0000      -0.050030        -1.3614
  22   0.0000      -0.029215        -0.7950

MULLIKEN ATOMIC CHARGES
-----------------------
   0 C :   -0.089605
   1 C :   -0.104381
   2 N :   -0.279221
   3 C :    0.047184
   4 N :   -0.211980
   5 H :    0.140284
   6 H :    0.124450
   7 H :    0.139506
   8 H :    0.233761
Sum of atomic charges:    0.0000000

LOEWDIN ATOMIC CHARGES
----------------------
   0 C :   -0.248929
   1 C :   -0.259548
   2 N :    0.070225
   3 C :   -0.304123
   4 N :    0.171072
   5 H :    0.129433
   6 H :    0.127693
   7 H :    0.125860
   8 H :    0.188317

  Mayer bond orders larger than 0.100000
B(  0-C ,  1-C ) :   1.6638 B(  0-C ,  4-N ) :   1.1618 B(  0-C ,  5-H ) :   0.9536
B(  1-C ,  2-N ) :   1.3633 B(  1-C ,  6-H ) :   0.9773 B(  2-N ,  3-C ) :   1.6852
B(  3-C ,  4-N ) :   1.2381 B(  3-C ,  7-H ) :   0.9659 B(  4-N ,  8-H ) :   0.9192

FINAL SINGLE POINT ENERGY      -226.231736938692

DIPOLE MOMENT
-------------

Method             : SCF
Type of density    : Electron Density
Multiplicity       :   1
Irrep              :   0
Energy             :  -226.2362550444916280 Eh
Relativity type    :
Basis              : AO
                                X                 Y                 Z
Electronic contribution:      0.348331216      -0.683115384       0.000005701
Nuclear contribution   :     -1.870660672       0.672778610      -0.000019087
                        -----------------------------------------
Total Dipole Moment    :     -1.522329456      -0.010336774      -0.000013386
                        -----------------------------------------
Magnitude (a.u.)       :      1.522364550
Magnitude (Debye)      :      3.869543167

Rotational constants in cm-1:             0.324269             0.313589             0.159420
Rotational constants in MHz :          9721.349610          9401.157976          4779.286556

                             ****ORCA TERMINATED NORMALLY****
TOTAL RUN TIME: 0 days 0 hours 0 minutes 55 seconds 425 msec
