                         Program Version 6.0.0  -   RELEASE  -
|  1> ! wb97x-v def2-tzvp def2/J RIJCOSX DEFGRID2 scfconv7 GCP(DFT/TZ) printgap
|  2> %output
|  3>     printlevel normal
|  4> end
|  5> %cpcm
|  6>     smd true
|  7>     smdsolvent "water"
|  8> end
|  9> * xyz 0 1
| 10> C -0.6396540421009729 0.9830598149569306 -3.703200963739955e-05
| 11> C 0.7279438676740084 0.9137722830911222 -2.8598389582462298e-05
| 12> N 1.14701258773508 -0.40455906695925126 -2.5616390300087585e-05
| 13> C 0.03210090454979729 -1.1171701467962392 -3.39508583258097e-05
| 14> N -1.0695931998179364 -0.32378411272895563 -3.993072100948945e-05
| 15> H -1.3284444708278407 1.8137544722248058 -3.941764411599776e-05
| 16> H 1.4312232053157417 1.7341474229647742 -2.7523149142788682e-05
| 17> H -0.03491478414714991 -2.1963695875208793 -3.729833404982099e-05
| 18> H -2.029668352930264 -0.6370495849596304 -4.9433044313428306e-05
| 19> *
| 20>
| 21>                          ****END OF INPUT****

CARTESIAN COORDINATES (ANGSTROEM)
---------------------------------
  C     -0.639654    0.983060   -0.000037
  C      0.727944    0.913772   -0.000029
  N      1.147013   -0.404559   -0.000026
  C      0.032101   -1.117170   -0.000034
  N     -1.069593   -0.323784   -0.000040
  H     -1.328444    1.813754   -0.000039
  H      1.431223    1.734147   -0.000028
  H     -0.034915   -2.196370   -0.000037
  H     -2.029668   -0.637050   -0.000049

 Total Charge           Charge          ....    0
 Multiplicity           Mult            ....    1
 Number of Electrons    NEL             ....   36
 Basis Dimension        Dim             ....  179

ORBITAL ENERGIES
----------------

  NO   OCC          E(Eh)            E(eV)
   0   2.0000     -16.578752      -451.1308
   1   2.0000     -16.513783      -449.3629
   2   2.0000     -12.099518      -329.2446
   3   2.0000     -12.071417      -328.4799
   4   2.0000     -12.057507      -328.1014
   5   2.0000      -1.597087       -43.4589
   6   2.0000      -1.461636       -39.7731
   7   2.0000      -1.285010       -34.9669
   8   2.0000      -1.137745       -30.9596
   9   2.0000      -1.114712       -30.3329
  10   2.0000      -1.039755       -28.2932
  11   2.0000      -0.930886       -25.3307
  12   2.0000      -0.902713       -24.5641
  13   2.0000      -0.892212       -24.2783
  14   2.0000      -0.876680       -23.8557
  15   2.0000      -0.794739       -21.6259
  16   2.0000      -0.754874       -20.5412
  17   2.0000      -0.631452       -17.1827
  18   0.0000      -0.248712        -6.7678
  19   0.0000      -0.190191        -5.1754
  20   0.0000      -0.061399        -1.6708
  21   0.0000      -0.037699        -1.0258
  22   0.0000      -0.007866        -0.2141

MULLIKEN ATOMIC CHARGES
-----------------------
   0 C :   -0.136504
   1 C :   -0.161428
   2 N :   -0.373886
   3 C :    0.027382
   4 N :   -0.201209
   5 H :    0.190225
   6 H :    0.167302
   7 H :    0.188559
   8 H :    0.299560
Sum of atomic charges:    0.0000000

LOEWDIN ATOMIC CHARGES
----------------------
   0 C :   -0.239676
   1 C :   -0.291700
   2 N :    0.007920
   3 C :   -0.300461
   4 N :    0.193168
   5 H :    0.144242
   6 H :    0.133675
   7 H :    0.139354
   8 H :    0.213478

  Mayer bond orders larger than 0.100000
B(  0-C ,  1-C ) :   1.6699 B(  0-C ,  4-N ) :   1.1811 B(  0-C ,  5-H ) :   0.9520
B(  1-C ,  2-N ) :   1.3622 B(  1-C ,  6-H ) :   0.9618 B(  2-N ,  3-C ) :   1.6565
B(  3-C ,  4-N ) :   1.2806 B(  3-C ,  7-H ) :   0.9535 B(  4-N ,  8-H ) :   0.8872

FINAL SINGLE POINT ENERGY      -226.247054810133

DIPOLE MOMENT
-------------

Method             : SCF
Type of density    : Electron Density
Multiplicity       :   1
Irrep              :   0
Energy             :  -226.2515729159329680 Eh
Relativity type    :
Basis              : AO
                                X                 Y                 Z
Electronic contribution:     -0.250757784      -0.701014126       0.000000627
Nuclear contribution   :     -1.870660672       0.672778610      -0.000019087
                        -----------------------------------------
Total Dipole Moment    :     -2.121418456      -0.028235516      -0.000018460
                        -----------------------------------------
Magnitude (a.u.)       :      2.121606351
Magnitude (Debye)      :      5.392694781

Rotational constants in cm-1:             0.324269             0.313589             0.159420
Rotational constants in MHz :          9721.349610          9401.157976          4779.286556

                             ****ORCA TERMINATED NORMALLY****
TOTAL RUN TIME: 0 days 0 hours 0 minutes 56 seconds 859 msec
