                         Program Version 6.0.0  -   RELEASE  -
|  1> ! pbe def2-sv(p) def2/J RI DEFGRID1 loosescf d4 GCP(DFT/SV(P)) printgap
|  2> %output
|  3>     printlevel normal
|  4> end
|  5> * xyz 0 1
|  6> C -4.0851087227 0.0042425462 0.0041708004
|  7> C -3.3980461993 0.9346756332 0.7652744573
|  8> C -2.0140744744 0.9249267695 0.7567789861
|  9> C -1.2991776857 0.0005481836 0.0002866837
| 10> C -2.0185453415 -0.9219377585 -0.7542728793
| 11> C -3.4025683401 -0.9279830134 -0.7588774026
| 12> Cl -1.1430408597 -2.0734815447 -1.7112123018
| 13> C 0.180230978 -0.0009768442 -0.0010506934
| 14> C 0.8996953506 0.9203620551 -0.7579559443
| 15> C 2.284458297 0.9332770556 -0.7683918805
| 16> C 2.9612986935 -0.0011927254 -0.0006205002
| 17> C 2.2840605893 -0.9359043107 0.7665016031
| 18> C 0.8992964194 -0.9228017487 0.75563806
| 19> Cl 0.0354252773 -2.0715054721 1.7114576585
| 20> Cl 4.6867792646 -0.0007362071 0.0003494475
| 21> Cl 0.0363166587 2.0687038118 -1.7147184233
| 22> Cl -1.1329322966 2.0742415419 1.7112610301
| 23> H -5.162597373 0.0057236393 0.0055006241
| 24> H -3.9237454659 1.6615572294 1.3615305532
| 25> H -3.9319585555 -1.6531608854 -1.3538351814
| 26> H 2.8195118795 1.6548810018 -1.3624824553
| 27> H 2.8188735526 -1.6575175792 1.3608248929
| 28> *
| 29>
| 30>                          ****END OF INPUT****

CARTESIAN COORDINATES (ANGSTROEM)
---------------------------------
  C     -4.085109    0.004243    0.004171
  C     -3.398046    0.934676    0.765274
  C     -2.014074    0.924927    0.756779
  C     -1.299178    0.000548    0.000287
  C     -2.018545   -0.921938   -0.754273
  C     -3.402568   -0.927983   -0.758877
  Cl    -1.143041   -2.073482   -1.711212
  C      0.180231   -0.000977   -0.001051
  C      0.899695    0.920362   -0.757956
  C      2.284458    0.933277   -0.768392
  C      2.961299   -0.001193   -0.000621
  C      2.284061   -0.935904    0.766502
  C      0.899296   -0.922802    0.755638
  Cl     0.035425   -2.071505    1.711458
  Cl     4.686779   -0.000736    0.000349
  Cl     0.036317    2.068704   -1.714718
  Cl    -1.132932    2.074242    1.711261
  H     -5.162597    0.005724    0.005501
  H     -3.923745    1.661557    1.361531
  H     -3.931959   -1.653161   -1.353835
  H      2.819512    1.654881   -1.362482
  H      2.818874   -1.657518    1.360825

 Total Charge           Charge          ....    0
 Multiplicity           Mult            ....    1
 Number of Electrons    NEL             ....  162
 Basis Dimension        Dim             ....  268

ORBITAL ENERGIES
----------------

  NO   OCC          E(Eh)            E(eV)
   0   2.0000    -100.653813     -2738.9295
   1   2.0000    -100.653800     -2738.9291
   2   2.0000    -100.653523     -2738.9216
   3   2.0000    -100.649329     -2738.8075
   4   2.0000    -100.649314     -2738.8071
   5   2.0000      -9.971823      -271.3471
   6   2.0000      -9.970859      -271.3209
   7   2.0000      -9.970851      -271.3206
   8   2.0000      -9.966961      -271.2148
   9   2.0000      -9.966939      -271.2142
  10   2.0000      -9.932486      -270.2767
  11   2.0000      -9.931942      -270.2619
  12   2.0000      -9.919292      -269.9177
  13   2.0000      -9.919289      -269.9176
  14   2.0000      -9.919279      -269.9173
  15   2.0000      -9.914832      -269.7963
  16   2.0000      -9.914828      -269.7962
  17   2.0000      -9.189503      -250.0591
  18   2.0000      -9.189387      -250.0559
  19   2.0000      -9.189377      -250.0557
  20   2.0000      -9.184992      -249.9363
  21   2.0000      -9.184981      -249.9360
  22   2.0000      -7.020919      -191.0489
  23   2.0000      -7.020835      -191.0466
  24   2.0000      -7.020830      -191.0465
  25   2.0000      -7.016381      -190.9254
  26   2.0000      -7.016374      -190.9253
  27   2.0000      -7.009512      -190.7385
  28   2.0000      -7.009451      -190.7369
  29   2.0000      -7.009446      -190.7367
  30   2.0000      -7.008778      -190.7185
  31   2.0000      -7.008637      -190.7147
  32   2.0000      -7.008632      -190.7146
  33   2.0000      -7.005046      -190.6170
  34   2.0000      -7.005039      -190.6168
  35   2.0000      -7.004294      -190.5965
  36   2.0000      -7.004288      -190.5964
  37   2.0000      -0.855933       -23.2911
  38   2.0000      -0.833927       -22.6923
  39   2.0000      -0.812094       -22.0982
  40   2.0000      -0.810540       -22.0559
  41   2.0000      -0.805016       -21.9056
  42   2.0000      -0.758688       -20.6449
  43   2.0000      -0.747206       -20.3325
  44   2.0000      -0.713818       -19.4240
  45   2.0000      -0.675830       -18.3903
  46   2.0000      -0.668082       -18.1794
  47   2.0000      -0.657914       -17.9027
  48   2.0000      -0.577982       -15.7277
  49   2.0000      -0.561067       -15.2674
  50   2.0000      -0.551450       -15.0057
  51   2.0000      -0.542578       -14.7643
  52   2.0000      -0.496255       -13.5038
  53   2.0000      -0.471164       -12.8210
  54   2.0000      -0.465833       -12.6760
  55   2.0000      -0.454925       -12.3791
  56   2.0000      -0.432612       -11.7720
  57   2.0000      -0.420908       -11.4535
  58   2.0000      -0.409709       -11.1487
  59   2.0000      -0.405866       -11.0442
  60   2.0000      -0.403848       -10.9893
  61   2.0000      -0.389624       -10.6022
  62   2.0000      -0.381577       -10.3832
  63   2.0000      -0.370677       -10.0866
  64   2.0000      -0.353692        -9.6245
  65   2.0000      -0.346125        -9.4185
  66   2.0000      -0.343980        -9.3602
  67   2.0000      -0.338311        -9.2059
  68   2.0000      -0.331558        -9.0222
  69   2.0000      -0.322129        -8.7656
  70   2.0000      -0.292686        -7.9644
  71   2.0000      -0.284794        -7.7496
  72   2.0000      -0.284406        -7.7391
  73   2.0000      -0.280171        -7.6238
  74   2.0000      -0.274643        -7.4734
  75   2.0000      -0.272509        -7.4154
  76   2.0000      -0.271103        -7.3771
  77   2.0000      -0.237503        -6.4628
  78   2.0000      -0.230441        -6.2706
  79   2.0000      -0.226479        -6.1628
  80   2.0000      -0.225684        -6.1412
  81   0.0000      -0.068021        -1.8510
  82   0.0000      -0.062446        -1.6992
  83   0.0000      -0.055092        -1.4991
  84   0.0000      -0.054234        -1.4758
  85   0.0000      -0.030591        -0.8324

MULLIKEN ATOMIC CHARGES
-----------------------
   0 C :   -0.035937
   1 C :   -0.088850
   2 C :    0.077002
   3 C :    0.010122
   4 C :    0.076998
   5 C :   -0.088925
   6 Cl:   -0.058138
   7 C :    0.019464
   8 C :    0.067587
   9 C :   -0.107205
  10 C :    0.126918
  11 C :   -0.107224
  12 C :    0.067675
  13 Cl:   -0.049229
  14 Cl:   -0.067713
  15 Cl:   -0.049247
  16 Cl:   -0.058123
  17 H :    0.070296
  18 H :    0.050516
  19 H :    0.050486
  20 H :    0.046760
  21 H :    0.046768
Sum of atomic charges:    0.0000000

LOEWDIN ATOMIC CHARGES
----------------------
   0 C :   -0.106817
   1 C :   -0.141351
   2 C :   -0.113003
   3 C :   -0.083130
   4 C :   -0.113043
   5 C :   -0.141360
   6 Cl:    0.150147
   7 C :   -0.087313
   8 C :   -0.111651
   9 C :   -0.160712
  10 C :   -0.124374
  11 C :   -0.160715
  12 C :   -0.111637
  13 Cl:    0.162689
  14 Cl:    0.147048
  15 Cl:    0.162661
  16 Cl:    0.150183
  17 H :    0.133502
  18 H :    0.134549
  19 H :    0.134548
  20 H :    0.139889
  21 H :    0.139889

  Mayer bond orders larger than 0.100000
B(  0-C ,  1-C ) :   1.3344 B(  0-C ,  5-C ) :   1.3344 B(  0-C , 17-H ) :   0.9577
B(  1-C ,  2-C ) :   1.3708 B(  1-C , 18-H ) :   0.9701 B(  2-C ,  3-C ) :   1.4264
B(  2-C , 16-Cl) :   1.0393 B(  3-C ,  4-C ) :   1.4264 B(  3-C ,  7-C ) :   0.9667
B(  4-C ,  5-C ) :   1.3707 B(  4-C ,  6-Cl) :   1.0393 B(  5-C , 19-H ) :   0.9701
B(  7-C ,  8-C ) :   1.4250 B(  7-C , 12-C ) :   1.4250 B(  8-C ,  9-C ) :   1.3378
B(  8-C , 15-Cl) :   1.0392 B(  9-C , 10-C ) :   1.3242 B(  9-C , 20-H ) :   0.9732
B( 10-C , 11-C ) :   1.3243 B( 10-C , 14-Cl) :   0.9649 B( 11-C , 12-C ) :   1.3378
B( 11-C , 21-H ) :   0.9732 B( 12-C , 13-Cl) :   1.0392

Dispersion correction           -0.045664786
FINAL SINGLE POINT ENERGY     -2758.690746664441

DIPOLE MOMENT
-------------

Method             : SCF
Type of density    : Electron Density
Multiplicity       :   1
Irrep              :   0
Energy             : -2758.7171090222927887 Eh
Relativity type    :
Basis              : AO
                                X                 Y                 Z
Electronic contribution:      9.688967022      -0.013478493      -0.013588229
Nuclear contribution   :    -10.255762151       0.014501946       0.014667282
                        -----------------------------------------
Total Dipole Moment    :     -0.566795128       0.001023453       0.001079052
                        -----------------------------------------
Magnitude (a.u.)       :      0.566797079
Magnitude (Debye)      :      1.440683682

Rotational constants in cm-1:             0.014270             0.007426             0.006760
Rotational constants in MHz :           427.803532           222.631210           202.648545

                             ****ORCA TERMINATED NORMALLY****
TOTAL RUN TIME: 0 days 0 hours 0 minutes 18 seconds 459 msec
