                         Program Version 6.0.0  -   RELEASE  -
|  1> ! r2scan-3c def2/J RI DEFGRID2 scfconv6 printgap
|  2> %output
|  3>     printlevel normal
|  4> end
|  5> * xyz 0 1
|  6> C -1.7361938019 -0.3981206475 -0.9812784135
|  7> C -0.6732226358 0.3887617421 -0.2127826287
|  8> C -1.2145856193 0.7464740262 1.1709873958
|  9> C 0.6731421418 -0.3886278835 -0.2127361477
| 10> C 1.7363208347 0.3979525647 -0.9813325382
| 11> C 1.2145523617 -0.7464035635 1.1710137144
| 12> H -1.9430722413 -1.3425047392 -0.4818293181
| 13> H -2.6633019382 0.1680095476 -1.0396352353
| 14> H -1.4010567625 -0.6089740407 -1.9944436389
| 15> H -0.5109595499 1.3327578923 -0.7449696153
| 16> H -1.4603826562 -0.1456743577 1.7406394338
| 17> H -0.4989873848 1.3374750646 1.735019019
| 18> H -2.1230087471 1.3351763483 1.060048859
| 19> H 0.5107808058 -1.3326244496 -0.7448951814
| 20> H 1.9438204526 1.3420161212 -0.4815875099
| 21> H 2.6631305108 -0.1685973965 -1.0403955398
| 22> H 1.4007831689 0.6093678863 -1.9942356383
| 23> H 0.4985335604 -1.3368478861 1.735376854
| 24> H 1.4609466096 0.145792203 1.7404837472
| 25> H 2.1226159016 -1.3358040407 1.0601319002
| 26> *
| 27>
| 28>                          ****END OF INPUT****

CARTESIAN COORDINATES (ANGSTROEM)
---------------------------------
  C     -1.736194   -0.398121   -0.981278
  C     -0.673223    0.388762   -0.212783
  C     -1.214586    0.746474    1.170987
  C      0.673142   -0.388628   -0.212736
  C      1.736321    0.397953   -0.981333
  C      1.214552   -0.746404    1.171014
  H     -1.943072   -1.342505   -0.481829
  H     -2.663302    0.168010   -1.039635
  H     -1.401057   -0.608974   -1.994444
  H     -0.510960    1.332758   -0.744970
  H     -1.460383   -0.145674    1.740639
  H     -0.498987    1.337475    1.735019
  H     -2.123009    1.335176    1.060049
  H      0.510781   -1.332624   -0.744895
  H      1.943820    1.342016   -0.481588
  H      2.663131   -0.168597   -1.040396
  H      1.400783    0.609368   -1.994236
  H      0.498534   -1.336848    1.735377
  H      1.460947    0.145792    1.740484
  H      2.122616   -1.335804    1.060132

 Total Charge           Charge          ....    0
 Multiplicity           Mult            ....    1
 Number of Electrons    NEL             ....   50
 Basis Dimension        Dim             ....  184

ORBITAL ENERGIES
----------------

  NO   OCC          E(Eh)            E(eV)
   0   2.0000     -10.028663      -272.8938
   1   2.0000     -10.028558      -272.8909
   2   2.0000     -10.012519      -272.4545
   3   2.0000     -10.012515      -272.4544
   4   2.0000     -10.011826      -272.4356
   5   2.0000     -10.011795      -272.4348
   6   2.0000      -0.783335       -21.3156
   7   2.0000      -0.714848       -19.4520
   8   2.0000      -0.653777       -17.7902
   9   2.0000      -0.639703       -17.4072
  10   2.0000      -0.571214       -15.5435
  11   2.0000      -0.508337       -13.8325
  12   2.0000      -0.426630       -11.6092
  13   2.0000      -0.424117       -11.5408
  14   2.0000      -0.409774       -11.1505
  15   2.0000      -0.368286       -10.0216
  16   2.0000      -0.367836       -10.0093
  17   2.0000      -0.356752        -9.7077
  18   2.0000      -0.352919        -9.6034
  19   2.0000      -0.337871        -9.1939
  20   2.0000      -0.313440        -8.5291
  21   2.0000      -0.312164        -8.4944
  22   2.0000      -0.280906        -7.6439
  23   2.0000      -0.276349        -7.5198
  24   2.0000      -0.273594        -7.4449
  25   0.0000       0.078699         2.1415
  26   0.0000       0.115900         3.1538
  27   0.0000       0.117058         3.1853
  28   0.0000       0.123888         3.3712
  29   0.0000       0.135883         3.6976

MULLIKEN ATOMIC CHARGES
-----------------------
   0 C :   -0.502078
   1 C :   -0.028562
   2 C :   -0.502856
   3 C :   -0.028740
   4 C :   -0.502020
   5 C :   -0.502788
   6 H :    0.150965
   7 H :    0.139847
   8 H :    0.147324
   9 H :    0.153392
  10 H :    0.153791
  11 H :    0.143706
  12 H :    0.144514
  13 H :    0.153395
  14 H :    0.150942
  15 H :    0.139864
  16 H :    0.147311
  17 H :    0.143665
  18 H :    0.153798
  19 H :    0.144530
Sum of atomic charges:   -0.0000000

LOEWDIN ATOMIC CHARGES
----------------------
   0 C :   -0.416128
   1 C :   -0.240362
   2 C :   -0.414127
   3 C :   -0.240373
   4 C :   -0.416125
   5 C :   -0.414149
   6 H :    0.152201
   7 H :    0.150589
   8 H :    0.151992
   9 H :    0.157339
  10 H :    0.152514
  11 H :    0.152659
  12 H :    0.153329
  13 H :    0.157337
  14 H :    0.152195
  15 H :    0.150595
  16 H :    0.151986
  17 H :    0.152666
  18 H :    0.152521
  19 H :    0.153341

  Mayer bond orders larger than 0.100000
B(  0-C ,  1-C ) :   0.8930 B(  0-C ,  6-H ) :   0.9860 B(  0-C ,  7-H ) :   0.9749
B(  0-C ,  8-H ) :   0.9746 B(  1-C ,  2-C ) :   0.9034 B(  1-C ,  3-C ) :   0.8693
B(  1-C ,  9-H ) :   0.9711 B(  2-C , 10-H ) :   0.9935 B(  2-C , 11-H ) :   0.9706
B(  2-C , 12-H ) :   0.9697 B(  3-C ,  4-C ) :   0.8930 B(  3-C ,  5-C ) :   0.9033
B(  3-C , 13-H ) :   0.9712 B(  4-C , 14-H ) :   0.9860 B(  4-C , 15-H ) :   0.9749
B(  4-C , 16-H ) :   0.9746 B(  5-C , 17-H ) :   0.9706 B(  5-C , 18-H ) :   0.9935
B(  5-C , 19-H ) :   0.9697

Dispersion correction           -0.005235537
FINAL SINGLE POINT ENERGY      -236.982227015519

DIPOLE MOMENT
-------------

Method             : SCF
Type of density    : Electron Density
Multiplicity       :   1
Irrep              :   0
Energy             :  -236.9867806009337414 Eh
Relativity type    :
Basis              : AO
                                X                 Y                 Z
Electronic contribution:      0.000099010       0.000424427      -0.534358166
Nuclear contribution   :     -0.000148483      -0.000405143       0.515714831
                        -----------------------------------------
Total Dipole Moment    :     -0.000049473       0.000019285      -0.018643335
                        -----------------------------------------
Magnitude (a.u.)       :      0.018643411
Magnitude (Debye)      :      0.047387784

Rotational constants in cm-1:             0.142828             0.086404             0.069130
Rotational constants in MHz :          4281.884917          2590.316172          2072.479353

                             ****ORCA TERMINATED NORMALLY****
TOTAL RUN TIME: 0 days 0 hours 0 minutes 17 seconds 628 msec
