                         Program Version 6.0.0  -   RELEASE  -
|  1> ! r2scan-3c def2/J RI DEFGRID2 scfconv6 printgap
|  2> %output
|  3>     printlevel normal
|  4> end
|  5> %cpcm
|  6>     smd true
|  7>     smdsolvent "water"
|  8> end
|  9> * xyz 0 1
| 10> C -1.7361938019 -0.3981206475 -0.9812784135
| 11> C -0.6732226358 0.3887617421 -0.2127826287
| 12> C -1.2145856193 0.7464740262 1.1709873958
| 13> C 0.6731421418 -0.3886278835 -0.2127361477
| 14> C 1.7363208347 0.3979525647 -0.9813325382
| 15> C 1.2145523617 -0.7464035635 1.1710137144
| 16> H -1.9430722413 -1.3425047392 -0.4818293181
| 17> H -2.6633019382 0.1680095476 -1.0396352353
| 18> H -1.4010567625 -0.6089740407 -1.9944436389
| 19> H -0.5109595499 1.3327578923 -0.7449696153
| 20> H -1.4603826562 -0.1456743577 1.7406394338
| 21> H -0.4989873848 1.3374750646 1.735019019
| 22> H -2.1230087471 1.3351763483 1.060048859
| 23> H 0.5107808058 -1.3326244496 -0.7448951814
| 24> H 1.9438204526 1.3420161212 -0.4815875099
| 25> H 2.6631305108 -0.1685973965 -1.0403955398
| 26> H 1.4007831689 0.6093678863 -1.9942356383
| 27> H 0.4985335604 -1.3368478861 1.735376854
| 28> H 1.4609466096 0.145792203 1.7404837472
| 29> H 2.1226159016 -1.3358040407 1.0601319002
| 30> *
| 31>
| 32>                          ****END OF INPUT****

CARTESIAN COORDINATES (ANGSTROEM)
---------------------------------
  C     -1.736194   -0.398121   -0.981278
  C     -0.673223    0.388762   -0.212783
  C     -1.214586    0.746474    1.170987
  C      0.673142   -0.388628   -0.212736
  C      1.736321    0.397953   -0.981333
  C      1.214552   -0.746404    1.171014
  H     -1.943072   -1.342505   -0.481829
  H     -2.663302    0.168010   -1.039635
  H     -1.401057   -0.608974   -1.994444
  H     -0.510960    1.332758   -0.744970
  H     -1.460383   -0.145674    1.740639
  H     -0.498987    1.337475    1.735019
  H     -2.123009    1.335176    1.060049
  H      0.510781   -1.332624   -0.744895
  H      1.943820    1.342016   -0.481588
  H      2.663131   -0.168597   -1.040396
  H      1.400783    0.609368   -1.994236
  H      0.498534   -1.336848    1.735377
  H      1.460947    0.145792    1.740484
  H      2.122616   -1.335804    1.060132

 Total Charge           Charge          ....    0
 Multiplicity           Mult            ....    1
 Number of Electrons    NEL             ....   50
 Basis Dimension        Dim             ....  184

ORBITAL ENERGIES
----------------

  NO   OCC          E(Eh)            E(eV)
   0   2.0000     -10.021197      -272.6906
   1   2.0000     -10.021092      -272.6878
   2   2.0000     -10.004914      -272.2475
   3   2.0000     -10.004911      -272.2475
   4   2.0000     -10.003840      -272.2183
   5   2.0000     -10.003807      -272.2174
   6   2.0000      -0.775729       -21.1087
   7   2.0000      -0.707508       -19.2523
   8   2.0000      -0.646587       -17.5945
   9   2.0000      -0.632640       -17.2150
  10   2.0000      -0.564149       -15.3513
  11   2.0000      -0.500964       -13.6319
  12   2.0000      -0.418910       -11.3991
  13   2.0000      -0.416688       -11.3387
  14   2.0000      -0.402380       -10.9493
  15   2.0000      -0.360892        -9.8204
  16   2.0000      -0.360350        -9.8056
  17   2.0000      -0.349351        -9.5063
  18   2.0000      -0.345443        -9.4000
  19   2.0000      -0.330146        -8.9837
  20   2.0000      -0.305822        -8.3218
  21   2.0000      -0.304738        -8.2923
  22   2.0000      -0.273537        -7.4433
  23   2.0000      -0.268559        -7.3079
  24   2.0000      -0.266192        -7.2434
  25   0.0000       0.087106         2.3703
  26   0.0000       0.122711         3.3391
  27   0.0000       0.122849         3.3429
  28   0.0000       0.131922         3.5898
  29   0.0000       0.141433         3.8486

MULLIKEN ATOMIC CHARGES
-----------------------
   0 C :   -0.545049
   1 C :   -0.008466
   2 C :   -0.552118
   3 C :   -0.008629
   4 C :   -0.544991
   5 C :   -0.552081
   6 H :    0.161304
   7 H :    0.150565
   8 H :    0.157152
   9 H :    0.157659
  10 H :    0.167125
  11 H :    0.156930
  12 H :    0.154947
  13 H :    0.157657
  14 H :    0.161281
  15 H :    0.150581
  16 H :    0.157139
  17 H :    0.156901
  18 H :    0.167127
  19 H :    0.154964
Sum of atomic charges:   -0.0000000

LOEWDIN ATOMIC CHARGES
----------------------
   0 C :   -0.424682
   1 C :   -0.237994
   2 C :   -0.423183
   3 C :   -0.238005
   4 C :   -0.424681
   5 C :   -0.423209
   6 H :    0.154588
   7 H :    0.152553
   8 H :    0.154158
   9 H :    0.158578
  10 H :    0.155443
  11 H :    0.155425
  12 H :    0.155122
  13 H :    0.158575
  14 H :    0.154581
  15 H :    0.152559
  16 H :    0.154152
  17 H :    0.155437
  18 H :    0.155449
  19 H :    0.155134

  Mayer bond orders larger than 0.100000
B(  0-C ,  1-C ) :   0.8852 B(  0-C ,  6-H ) :   0.9834 B(  0-C ,  7-H ) :   0.9740
B(  0-C ,  8-H ) :   0.9722 B(  1-C ,  2-C ) :   0.8871 B(  1-C ,  3-C ) :   0.8698
B(  1-C ,  9-H ) :   0.9729 B(  2-C , 10-H ) :   0.9919 B(  2-C , 11-H ) :   0.9699
B(  2-C , 12-H ) :   0.9679 B(  3-C ,  4-C ) :   0.8852 B(  3-C ,  5-C ) :   0.8871
B(  3-C , 13-H ) :   0.9730 B(  4-C , 14-H ) :   0.9834 B(  4-C , 15-H ) :   0.9740
B(  4-C , 16-H ) :   0.9722 B(  5-C , 17-H ) :   0.9699 B(  5-C , 18-H ) :   0.9919
B(  5-C , 19-H ) :   0.9679

Dispersion correction           -0.005235537
FINAL SINGLE POINT ENERGY      -236.978678631399

DIPOLE MOMENT
-------------

Method             : SCF
Type of density    : Electron Density
Multiplicity       :   1
Irrep              :   0
Energy             :  -236.9832322168136329 Eh
Relativity type    :
Basis              : AO
                                X                 Y                 Z
Electronic contribution:      0.000063849       0.000427292      -0.536691340
Nuclear contribution   :     -0.000148483      -0.000405143       0.515714831
                        -----------------------------------------
Total Dipole Moment    :     -0.000084634       0.000022150      -0.020976509
                        -----------------------------------------
Magnitude (a.u.)       :      0.020976691
Magnitude (Debye)      :      0.053318512

Rotational constants in cm-1:             0.142828             0.086404             0.069130
Rotational constants in MHz :          4281.884917          2590.316172          2072.479353

                             ****ORCA TERMINATED NORMALLY****
TOTAL RUN TIME: 0 days 0 hours 0 minutes 21 seconds 363 msec
