                         Program Version 6.0.0  -   RELEASE  -
|  1> ! r2scan-3c def2/J RI DEFGRID2 scfconv6 printgap
|  2> %output
|  3>     printlevel normal
|  4> end
|  5> %cpcm
|  6>     smd true
|  7>     smdsolvent "water"
|  8> end
|  9> * xyz 0 1
| 10> C -3.0829903909 0.4062566804 0.0002016151
| 11> C -1.6252395053 0.0548488153 -0.0002333035
| 12> C -1.1974958239 -1.2625706734 -0.0001866917
| 13> C 0.1534399309 -1.5680232445 -4.6132e-06
| 14> C 1.0999736548 -0.555671222 7.3937e-05
| 15> C 0.6912658305 0.7836984492 6.83741e-05
| 16> C -0.6634377495 1.060534325 -6.31356e-05
| 17> C 1.7252359611 1.8669084841 -6.10487e-05
| 18> O 2.4414269016 -0.8139917538 0.0001056283
| 19> H -3.3309137069 0.9914661135 0.8843403637
| 20> H -3.3283824848 1.00516213 -0.8753512754
| 21> H -3.6970745122 -0.4901164992 -0.0074720622
| 22> H -1.92061346 -2.064949251 -0.0002520458
| 23> H 0.4707146919 -2.6014956913 -4.73395e-05
| 24> H -0.983506171 2.0929281254 -4.09762e-05
| 25> H 2.366680811 1.7693689739 0.8746415338
| 26> H 2.361384104 1.774193111 -0.879179178
| 27> H 1.2592393264 2.8478221535 0.0039156874
| 28> H 2.5971963398 -1.7695081477 0.0002099118
| 29> *
| 30>
| 31>                          ****END OF INPUT****

CARTESIAN COORDINATES (ANGSTROEM)
---------------------------------
  C     -3.082990    0.406257    0.000202
  C     -1.625240    0.054849   -0.000233
  C     -1.197496   -1.262571   -0.000187
  C      0.153440   -1.568023   -0.000005
  C      1.099974   -0.555671    0.000074
  C      0.691266    0.783698    0.000068
  C     -0.663438    1.060534   -0.000063
  C      1.725236    1.866908   -0.000061
  O      2.441427   -0.813992    0.000106
  H     -3.330914    0.991466    0.884340
  H     -3.328382    1.005162   -0.875351
  H     -3.697075   -0.490116   -0.007472
  H     -1.920613   -2.064949   -0.000252
  H      0.470715   -2.601496   -0.000047
  H     -0.983506    2.092928   -0.000041
  H      2.366681    1.769369    0.874642
  H      2.361384    1.774193   -0.879179
  H      1.259239    2.847822    0.003916
  H      2.597196   -1.769508    0.000210

 Total Charge           Charge          ....    0
 Multiplicity           Mult            ....    1
 Number of Electrons    NEL             ....   66
 Basis Dimension        Dim             ....  226

ORBITAL ENERGIES
----------------

  NO   OCC          E(Eh)            E(eV)
   0   2.0000     -18.980333      -516.4811
   1   2.0000     -10.088558      -274.5236
   2   2.0000     -10.037966      -273.1469
   3   2.0000     -10.032142      -272.9885
   4   2.0000     -10.027111      -272.8516
   5   2.0000     -10.025706      -272.8133
   6   2.0000     -10.024473      -272.7798
   7   2.0000     -10.018777      -272.6248
   8   2.0000     -10.015739      -272.5421
   9   2.0000      -1.022804       -27.8319
  10   2.0000      -0.824881       -22.4461
  11   2.0000      -0.746330       -20.3087
  12   2.0000      -0.724208       -19.7067
  13   2.0000      -0.653963       -17.7952
  14   2.0000      -0.641673       -17.4608
  15   2.0000      -0.582413       -15.8483
  16   2.0000      -0.537288       -14.6204
  17   2.0000      -0.506286       -13.7767
  18   2.0000      -0.453914       -12.3516
  19   2.0000      -0.424377       -11.5479
  20   2.0000      -0.402263       -10.9461
  21   2.0000      -0.397115       -10.8061
  22   2.0000      -0.379064       -10.3148
  23   2.0000      -0.374073       -10.1791
  24   2.0000      -0.366716        -9.9789
  25   2.0000      -0.354688        -9.6515
  26   2.0000      -0.354193        -9.6381
  27   2.0000      -0.331641        -9.0244
  28   2.0000      -0.311457        -8.4752
  29   2.0000      -0.298670        -8.1272
  30   2.0000      -0.296362        -8.0644
  31   2.0000      -0.229322        -6.2402
  32   2.0000      -0.195613        -5.3229
  33   0.0000      -0.028256        -0.7689
  34   0.0000      -0.011527        -0.3137
  35   0.0000       0.076147         2.0721
  36   0.0000       0.089149         2.4259
  37   0.0000       0.106536         2.8990

MULLIKEN ATOMIC CHARGES
-----------------------
   0 C :   -0.565213
   1 C :    0.147156
   2 C :   -0.231490
   3 C :   -0.359043
   4 C :    0.359078
   5 C :    0.017095
   6 C :   -0.277459
   7 C :   -0.578316
   8 O :   -0.454498
   9 H :    0.173312
  10 H :    0.172932
  11 H :    0.168576
  12 H :    0.177921
  13 H :    0.178304
  14 H :    0.176811
  15 H :    0.178055
  16 H :    0.178340
  17 H :    0.171168
  18 H :    0.367268
Sum of atomic charges:    0.0000000

LOEWDIN ATOMIC CHARGES
----------------------
   0 C :   -0.396619
   1 C :   -0.126834
   2 C :   -0.179348
   3 C :   -0.167723
   4 C :    0.169076
   5 C :   -0.084431
   6 C :   -0.164508
   7 C :   -0.382612
   8 O :   -0.523597
   9 H :    0.167332
  10 H :    0.167280
  11 H :    0.163772
  12 H :    0.178465
  13 H :    0.184910
  14 H :    0.181311
  15 H :    0.171849
  16 H :    0.171864
  17 H :    0.165305
  18 H :    0.304508

  Mayer bond orders larger than 0.100000
B(  0-C ,  1-C ) :   0.7981 B(  0-C ,  9-H ) :   0.9713 B(  0-C , 10-H ) :   0.9717
B(  0-C , 11-H ) :   0.9918 B(  1-C ,  2-C ) :   1.4028 B(  1-C ,  6-C ) :   1.3797
B(  2-C ,  3-C ) :   1.3483 B(  2-C , 12-H ) :   0.9470 B(  3-C ,  4-C ) :   1.3040
B(  3-C , 13-H ) :   0.9720 B(  4-C ,  5-C ) :   1.4201 B(  4-C ,  8-O ) :   0.9414
B(  5-C ,  6-C ) :   1.4300 B(  5-C ,  7-C ) :   0.7994 B(  6-C , 14-H ) :   0.9397
B(  7-C , 15-H ) :   0.9732 B(  7-C , 16-H ) :   0.9730 B(  7-C , 17-H ) :   0.9843
B(  8-O , 18-H ) :   0.8533

Dispersion correction           -0.006142954
FINAL SINGLE POINT ENERGY      -386.013055270082

DIPOLE MOMENT
-------------

Method             : SCF
Type of density    : Electron Density
Multiplicity       :   1
Irrep              :   0
Energy             :  -386.0141235343924677 Eh
Relativity type    :
Basis              : AO
                                X                 Y                 Z
Electronic contribution:      3.792716385      -3.837521799      -0.000332445
Nuclear contribution   :     -3.909075439       3.323005400       0.000718908
                        -----------------------------------------
Total Dipole Moment    :     -0.116359054      -0.514516399       0.000386463
                        -----------------------------------------
Magnitude (a.u.)       :      0.527509909
Magnitude (Debye)      :      1.340823631

Rotational constants in cm-1:             0.101362             0.043913             0.030990
Rotational constants in MHz :          3038.741420          1316.479611           929.045458

                             ****ORCA TERMINATED NORMALLY****
TOTAL RUN TIME: 0 days 0 hours 0 minutes 38 seconds 915 msec
