                         Program Version 6.0.0  -   RELEASE  -
|  1> ! wb97x-v def2-tzvp def2/J RIJCOSX DEFGRID2 scfconv7 GCP(DFT/TZ) printgap
|  2> %output
|  3>     printlevel normal
|  4> end
|  5> * xyz 0 1
|  6> C -3.4355067517524946 0.5662470066902293 0.023542172618855935
|  7> C -1.938786930436128 0.48205918924536206 0.06661897650869379
|  8> C -1.1432197945543097 1.5078159697540559 -0.25971106379544123
|  9> C 0.3547964887343155 1.4532790074480386 -0.28513568583568527
| 10> C 0.8739478015518529 0.007166133223923727 -0.2801281675746899
| 11> H 0.6056714407670246 -0.4398772838122306 -1.2461135374172192
| 12> C 0.13171762878213156 -0.7610078508114921 0.8188794427662442
| 13> C -1.3624531279785057 -0.8346414805914363 0.5219208394130815
| 14> H -1.8936741736691514 -1.1415386317141016 1.4359018990304342
| 15> O -1.6524359385520049 -1.8132947279074965 -0.5147873983979218
| 16> C 2.3771151076380024 -0.06105917107641479 -0.14520404962739322
| 17> C 3.1399167813161166 -0.4194664821400701 -1.1832255610252655
| 18> C 2.9750039756901705 0.2832583196762263 1.188363775503492
| 19> H -3.8689682269583683 0.32659988185182304 1.0024978325650804
| 20> H -3.849478570646278 -0.15756887578262727 -0.6884526332672133
| 21> H -3.770789480971422 1.5642574512715268 -0.27142708786639286
| 22> H -1.600995384479023 2.457474921462521 -0.5361454336809085
| 23> H 0.7238976422905352 1.9783265297278336 -1.1748937849077312
| 24> H 0.7557005836211631 2.004941986822869 0.5779937971495569
| 25> H 0.5259785053306454 -1.7786741295515682 0.9276751999073538
| 26> H 0.2672569088366825 -0.25295671158993965 1.7824454084496961
| 27> H -1.4352937163658899 -2.6802576811640377 -0.14742871187433204
| 28> H 4.223241616547637 -0.46275932141589343 -1.102786540167694
| 29> H 2.6986146627935454 -0.683342489090072 -2.1413388837085825
| 30> H 2.662379831671596 -0.4366565277603951 1.95302347849125
| 31> H 4.066632266160013 0.27985573411859044 1.1426761292654197
| 32> H 2.6457834374358695 1.2686225497514614 1.5354724565763556
| 33> *
| 34>
| 35>                          ****END OF INPUT****

CARTESIAN COORDINATES (ANGSTROEM)
---------------------------------
  C     -3.435507    0.566247    0.023542
  C     -1.938787    0.482059    0.066619
  C     -1.143220    1.507816   -0.259711
  C      0.354796    1.453279   -0.285136
  C      0.873948    0.007166   -0.280128
  H      0.605671   -0.439877   -1.246114
  C      0.131718   -0.761008    0.818879
  C     -1.362453   -0.834641    0.521921
  H     -1.893674   -1.141539    1.435902
  O     -1.652436   -1.813295   -0.514787
  C      2.377115   -0.061059   -0.145204
  C      3.139917   -0.419466   -1.183226
  C      2.975004    0.283258    1.188364
  H     -3.868968    0.326600    1.002498
  H     -3.849479   -0.157569   -0.688453
  H     -3.770789    1.564257   -0.271427
  H     -1.600995    2.457475   -0.536145
  H      0.723898    1.978327   -1.174894
  H      0.755701    2.004942    0.577994
  H      0.525979   -1.778674    0.927675
  H      0.267257   -0.252957    1.782445
  H     -1.435294   -2.680258   -0.147429
  H      4.223242   -0.462759   -1.102787
  H      2.698615   -0.683342   -2.141339
  H      2.662380   -0.436657    1.953023
  H      4.066632    0.279856    1.142676
  H      2.645783    1.268623    1.535472

 Total Charge           Charge          ....    0
 Multiplicity           Mult            ....    1
 Number of Electrons    NEL             ....   84
 Basis Dimension        Dim             ....  437

ORBITAL ENERGIES
----------------

  NO   OCC          E(Eh)            E(eV)
   0   2.0000     -21.669144      -589.6474
   1   2.0000     -12.099588      -329.2465
   2   2.0000     -12.054737      -328.0261
   3   2.0000     -12.049101      -327.8727
   4   2.0000     -12.047884      -327.8396
   5   2.0000     -12.045629      -327.7782
   6   2.0000     -12.044852      -327.7571
   7   2.0000     -12.041396      -327.6630
   8   2.0000     -12.040710      -327.6444
   9   2.0000     -12.033923      -327.4597
  10   2.0000     -12.029273      -327.3331
  11   2.0000      -1.665786       -45.3283
  12   2.0000      -1.364164       -37.1208
  13   2.0000      -1.324999       -36.0551
  14   2.0000      -1.267826       -34.4993
  15   2.0000      -1.256233       -34.1838
  16   2.0000      -1.187726       -32.3197
  17   2.0000      -1.182685       -32.1825
  18   2.0000      -1.135126       -30.8884
  19   2.0000      -1.098737       -29.8981
  20   2.0000      -1.029196       -28.0059
  21   2.0000      -1.005102       -27.3502
  22   2.0000      -0.979394       -26.6507
  23   2.0000      -0.940158       -25.5830
  24   2.0000      -0.928690       -25.2709
  25   2.0000      -0.911153       -24.7937
  26   2.0000      -0.898000       -24.4358
  27   2.0000      -0.892850       -24.2957
  28   2.0000      -0.876891       -23.8614
  29   2.0000      -0.855361       -23.2756
  30   2.0000      -0.836793       -22.7703
  31   2.0000      -0.833304       -22.6753
  32   2.0000      -0.827617       -22.5206
  33   2.0000      -0.814222       -22.1561
  34   2.0000      -0.813201       -22.1283
  35   2.0000      -0.805254       -21.9121
  36   2.0000      -0.801228       -21.8025
  37   2.0000      -0.774993       -21.0886
  38   2.0000      -0.768786       -20.9197
  39   2.0000      -0.759499       -20.6670
  40   2.0000      -0.644979       -17.5508
  41   2.0000      -0.639303       -17.3963
  42   0.0000      -0.222740        -6.0611
  43   0.0000      -0.199119        -5.4183
  44   0.0000      -0.116674        -3.1749
  45   0.0000      -0.058093        -1.5808
  46   0.0000      -0.049070        -1.3353

MULLIKEN ATOMIC CHARGES
-----------------------
   0 C :   -0.354619
   1 C :    0.002227
   2 C :   -0.195237
   3 C :   -0.149565
   4 C :    0.051539
   5 H :    0.080847
   6 C :   -0.288456
   7 C :    0.111895
   8 H :    0.083290
   9 O :   -0.439300
  10 C :    0.026167
  11 C :   -0.292455
  12 C :   -0.384028
  13 H :    0.104897
  14 H :    0.135847
  15 H :    0.109423
  16 H :    0.108106
  17 H :    0.110876
  18 H :    0.089675
  19 H :    0.108405
  20 H :    0.102913
  21 H :    0.293524
  22 H :    0.106681
  23 H :    0.115372
  24 H :    0.127569
  25 H :    0.116354
  26 H :    0.118053
Sum of atomic charges:    0.0000000

LOEWDIN ATOMIC CHARGES
----------------------
   0 C :   -0.256518
   1 C :   -0.179967
   2 C :   -0.129908
   3 C :   -0.210925
   4 C :   -0.206069
   5 H :    0.165297
   6 C :   -0.205671
   7 C :   -0.288030
   8 H :    0.138207
   9 O :   -0.033011
  10 C :   -0.205523
  11 C :   -0.193181
  12 C :   -0.254527
  13 H :    0.122212
  14 H :    0.130279
  15 H :    0.122724
  16 H :    0.139950
  17 H :    0.144313
  18 H :    0.141189
  19 H :    0.136720
  20 H :    0.144406
  21 H :    0.165112
  22 H :    0.117775
  23 H :    0.120859
  24 H :    0.126283
  25 H :    0.125160
  26 H :    0.122842

  Mayer bond orders larger than 0.100000
B(  0-C ,  1-C ) :   0.9612 B(  0-C , 13-H ) :   0.9731 B(  0-C , 14-H ) :   0.9732
B(  0-C , 15-H ) :   0.9898 B(  1-C ,  2-C ) :   1.8938 B(  1-C ,  7-C ) :   0.9787
B(  2-C ,  3-C ) :   0.9865 B(  2-C , 16-H ) :   0.9615 B(  3-C ,  4-C ) :   1.0250
B(  3-C , 17-H ) :   0.9715 B(  3-C , 18-H ) :   0.9474 B(  4-C ,  5-H ) :   0.9842
B(  4-C ,  6-C ) :   0.9405 B(  4-C , 10-C ) :   0.8748 B(  6-C ,  7-C ) :   1.0058
B(  6-C , 19-H ) :   0.9791 B(  6-C , 20-H ) :   0.9535 B(  7-C ,  8-H ) :   0.9819
B(  7-C ,  9-O ) :   1.1167 B(  9-O , 21-H ) :   0.9057 B( 10-C , 11-C ) :   1.9368
B( 10-C , 12-C ) :   0.9587 B( 11-C , 22-H ) :   0.9658 B( 11-C , 23-H ) :   0.9696
B( 12-C , 24-H ) :   0.9731 B( 12-C , 25-H ) :   0.9838 B( 12-C , 26-H ) :   0.9750

FINAL SINGLE POINT ENERGY      -465.919018998230

DIPOLE MOMENT
-------------

Method             : SCF
Type of density    : Electron Density
Multiplicity       :   1
Irrep              :   0
Energy             :  -465.9367536827299432 Eh
Relativity type    :
Basis              : AO
                                X                 Y                 Z
Electronic contribution:     -2.426853005      -1.819762956      -2.133224829
Nuclear contribution   :      2.557902994       1.749043241       2.810185943
                        -----------------------------------------
Total Dipole Moment    :      0.131049989      -0.070719715       0.676961114
                        -----------------------------------------
Magnitude (a.u.)       :      0.693146253
Magnitude (Debye)      :      1.761837758

Rotational constants in cm-1:             0.070618             0.022187             0.019964
Rotational constants in MHz :          2117.068062           665.152671           598.520085

                             ****ORCA TERMINATED NORMALLY****
TOTAL RUN TIME: 0 days 0 hours 5 minutes 26 seconds 516 msec
