                         Program Version 6.0.0  -   RELEASE  -
|  1> ! wb97x-v def2-tzvp def2/J RIJCOSX DEFGRID2 scfconv7 GCP(DFT/TZ) printgap
|  2> %output
|  3>     printlevel normal
|  4> end
|  5> %cpcm
|  6>     smd true
|  7>     smdsolvent "water"
|  8> end
|  9> * xyz 0 1
| 10> C -3.4355067517524946 0.5662470066902293 0.023542172618855935
| 11> C -1.938786930436128 0.48205918924536206 0.06661897650869379
| 12> C -1.1432197945543097 1.5078159697540559 -0.25971106379544123
| 13> C 0.3547964887343155 1.4532790074480386 -0.28513568583568527
| 14> C 0.8739478015518529 0.007166133223923727 -0.2801281675746899
| 15> H 0.6056714407670246 -0.4398772838122306 -1.2461135374172192
| 16> C 0.13171762878213156 -0.7610078508114921 0.8188794427662442
| 17> C -1.3624531279785057 -0.8346414805914363 0.5219208394130815
| 18> H -1.8936741736691514 -1.1415386317141016 1.4359018990304342
| 19> O -1.6524359385520049 -1.8132947279074965 -0.5147873983979218
| 20> C 2.3771151076380024 -0.06105917107641479 -0.14520404962739322
| 21> C 3.1399167813161166 -0.4194664821400701 -1.1832255610252655
| 22> C 2.9750039756901705 0.2832583196762263 1.188363775503492
| 23> H -3.8689682269583683 0.32659988185182304 1.0024978325650804
| 24> H -3.849478570646278 -0.15756887578262727 -0.6884526332672133
| 25> H -3.770789480971422 1.5642574512715268 -0.27142708786639286
| 26> H -1.600995384479023 2.457474921462521 -0.5361454336809085
| 27> H 0.7238976422905352 1.9783265297278336 -1.1748937849077312
| 28> H 0.7557005836211631 2.004941986822869 0.5779937971495569
| 29> H 0.5259785053306454 -1.7786741295515682 0.9276751999073538
| 30> H 0.2672569088366825 -0.25295671158993965 1.7824454084496961
| 31> H -1.4352937163658899 -2.6802576811640377 -0.14742871187433204
| 32> H 4.223241616547637 -0.46275932141589343 -1.102786540167694
| 33> H 2.6986146627935454 -0.683342489090072 -2.1413388837085825
| 34> H 2.662379831671596 -0.4366565277603951 1.95302347849125
| 35> H 4.066632266160013 0.27985573411859044 1.1426761292654197
| 36> H 2.6457834374358695 1.2686225497514614 1.5354724565763556
| 37> *
| 38>
| 39>                          ****END OF INPUT****

CARTESIAN COORDINATES (ANGSTROEM)
---------------------------------
  C     -3.435507    0.566247    0.023542
  C     -1.938787    0.482059    0.066619
  C     -1.143220    1.507816   -0.259711
  C      0.354796    1.453279   -0.285136
  C      0.873948    0.007166   -0.280128
  H      0.605671   -0.439877   -1.246114
  C      0.131718   -0.761008    0.818879
  C     -1.362453   -0.834641    0.521921
  H     -1.893674   -1.141539    1.435902
  O     -1.652436   -1.813295   -0.514787
  C      2.377115   -0.061059   -0.145204
  C      3.139917   -0.419466   -1.183226
  C      2.975004    0.283258    1.188364
  H     -3.868968    0.326600    1.002498
  H     -3.849479   -0.157569   -0.688453
  H     -3.770789    1.564257   -0.271427
  H     -1.600995    2.457475   -0.536145
  H      0.723898    1.978327   -1.174894
  H      0.755701    2.004942    0.577994
  H      0.525979   -1.778674    0.927675
  H      0.267257   -0.252957    1.782445
  H     -1.435294   -2.680258   -0.147429
  H      4.223242   -0.462759   -1.102787
  H      2.698615   -0.683342   -2.141339
  H      2.662380   -0.436657    1.953023
  H      4.066632    0.279856    1.142676
  H      2.645783    1.268623    1.535472

 Total Charge           Charge          ....    0
 Multiplicity           Mult            ....    1
 Number of Electrons    NEL             ....   84
 Basis Dimension        Dim             ....  437

ORBITAL ENERGIES
----------------

  NO   OCC          E(Eh)            E(eV)
   0   2.0000     -21.671150      -589.7020
   1   2.0000     -12.093230      -329.0735
   2   2.0000     -12.053307      -327.9872
   3   2.0000     -12.045226      -327.7673
   4   2.0000     -12.043596      -327.7229
   5   2.0000     -12.038958      -327.5967
   6   2.0000     -12.037565      -327.5588
   7   2.0000     -12.033974      -327.4611
   8   2.0000     -12.030169      -327.3575
   9   2.0000     -12.030144      -327.3569
  10   2.0000     -12.025132      -327.2205
  11   2.0000      -1.668137       -45.3923
  12   2.0000      -1.359702       -36.9994
  13   2.0000      -1.322003       -35.9735
  14   2.0000      -1.262899       -34.3652
  15   2.0000      -1.250658       -34.0321
  16   2.0000      -1.181114       -32.1397
  17   2.0000      -1.179356       -32.0919
  18   2.0000      -1.131013       -30.7764
  19   2.0000      -1.093669       -29.7602
  20   2.0000      -1.028639       -27.9907
  21   2.0000      -1.002747       -27.2861
  22   2.0000      -0.977378       -26.5958
  23   2.0000      -0.938599       -25.5406
  24   2.0000      -0.925854       -25.1938
  25   2.0000      -0.908322       -24.7167
  26   2.0000      -0.893488       -24.3130
  27   2.0000      -0.889421       -24.2024
  28   2.0000      -0.872670       -23.7466
  29   2.0000      -0.849009       -23.1027
  30   2.0000      -0.830150       -22.5895
  31   2.0000      -0.825220       -22.4554
  32   2.0000      -0.822115       -22.3709
  33   2.0000      -0.809138       -22.0178
  34   2.0000      -0.807556       -21.9747
  35   2.0000      -0.798158       -21.7190
  36   2.0000      -0.796065       -21.6620
  37   2.0000      -0.769009       -20.9258
  38   2.0000      -0.761353       -20.7175
  39   2.0000      -0.753478       -20.5032
  40   2.0000      -0.643603       -17.5133
  41   2.0000      -0.637810       -17.3557
  42   0.0000      -0.220494        -6.0000
  43   0.0000      -0.197726        -5.3804
  44   0.0000      -0.112666        -3.0658
  45   0.0000      -0.045435        -1.2364
  46   0.0000      -0.040777        -1.1096

MULLIKEN ATOMIC CHARGES
-----------------------
   0 C :   -0.388168
   1 C :   -0.049174
   2 C :   -0.244001
   3 C :   -0.160640
   4 C :    0.065876
   5 H :    0.077444
   6 C :   -0.300790
   7 C :    0.143282
   8 H :    0.118648
   9 O :   -0.556621
  10 C :   -0.024448
  11 C :   -0.387221
  12 C :   -0.424524
  13 H :    0.133331
  14 H :    0.131628
  15 H :    0.135440
  16 H :    0.147275
  17 H :    0.123002
  18 H :    0.120162
  19 H :    0.133271
  20 H :    0.124813
  21 H :    0.356315
  22 H :    0.147379
  23 H :    0.148980
  24 H :    0.148834
  25 H :    0.137579
  26 H :    0.142326
Sum of atomic charges:    0.0000000

LOEWDIN ATOMIC CHARGES
----------------------
   0 C :   -0.264535
   1 C :   -0.195103
   2 C :   -0.136902
   3 C :   -0.211481
   4 C :   -0.209410
   5 H :    0.161369
   6 C :   -0.201565
   7 C :   -0.281577
   8 H :    0.148855
   9 O :   -0.073774
  10 C :   -0.209151
  11 C :   -0.218784
  12 C :   -0.256876
  13 H :    0.128708
  14 H :    0.127141
  15 H :    0.127930
  16 H :    0.147204
  17 H :    0.146454
  18 H :    0.149136
  19 H :    0.144110
  20 H :    0.151021
  21 H :    0.187999
  22 H :    0.123504
  23 H :    0.125067
  24 H :    0.132449
  25 H :    0.128421
  26 H :    0.129789

  Mayer bond orders larger than 0.100000
B(  0-C ,  1-C ) :   0.9642 B(  0-C , 13-H ) :   0.9727 B(  0-C , 14-H ) :   0.9664
B(  0-C , 15-H ) :   0.9878 B(  1-C ,  2-C ) :   1.8872 B(  1-C ,  7-C ) :   0.9674
B(  2-C ,  3-C ) :   0.9852 B(  2-C , 16-H ) :   0.9636 B(  3-C ,  4-C ) :   1.0088
B(  3-C , 17-H ) :   0.9665 B(  3-C , 18-H ) :   0.9428 B(  4-C ,  5-H ) :   0.9845
B(  4-C ,  6-C ) :   0.9253 B(  4-C , 10-C ) :   0.8698 B(  6-C ,  7-C ) :   1.0073
B(  6-C , 19-H ) :   0.9763 B(  6-C , 20-H ) :   0.9535 B(  7-C ,  8-H ) :   0.9891
B(  7-C ,  9-O ) :   1.0528 B(  9-O , 21-H ) :   0.8703 B( 10-C , 11-C ) :   1.9172
B( 10-C , 12-C ) :   0.9702 B( 11-C , 22-H ) :   0.9686 B( 11-C , 23-H ) :   0.9683
B( 12-C , 24-H ) :   0.9664 B( 12-C , 25-H ) :   0.9802 B( 12-C , 26-H ) :   0.9684

FINAL SINGLE POINT ENERGY      -465.927146549368

DIPOLE MOMENT
-------------

Method             : SCF
Type of density    : Electron Density
Multiplicity       :   1
Irrep              :   0
Energy             :  -465.9448812338679886 Eh
Relativity type    :
Basis              : AO
                                X                 Y                 Z
Electronic contribution:     -2.362499018      -1.794981125      -1.665444080
Nuclear contribution   :      2.557902994       1.749043241       2.810185943
                        -----------------------------------------
Total Dipole Moment    :      0.195403976      -0.045937884       1.144741862
                        -----------------------------------------
Magnitude (a.u.)       :      1.162207785
Magnitude (Debye)      :      2.954097422

Rotational constants in cm-1:             0.070618             0.022187             0.019964
Rotational constants in MHz :          2117.068062           665.152671           598.520085

                             ****ORCA TERMINATED NORMALLY****
TOTAL RUN TIME: 0 days 0 hours 5 minutes 36 seconds 594 msec
