                         Program Version 6.0.0  -   RELEASE  -
|  1> ! pbe def2-sv(p) def2/J RI DEFGRID1 loosescf d4 GCP(DFT/SV(P)) printgap
|  2> %output
|  3>     printlevel normal
|  4> end
|  5> * xyz 0 1
|  6> C -2.0012925073 -0.7320667574 1.2566983873
|  7> C -1.5150188786 0.004350303 4.0645e-06
|  8> C -2.0021256648 -0.732554148 -1.2560695051
|  9> C -2.1324605157 1.405714108 -0.0001052066
| 10> C 0.0060808824 0.0323453605 -0.0002694853
| 11> C 0.7409491824 1.2117908385 -0.0002262426
| 12> C 2.1263070674 1.1933230823 -2.93621e-05
| 13> C 2.8118493814 -0.0070328401 0.00010432
| 14> C 2.0951543706 -1.1914434397 -3.16821e-05
| 15> C 0.7132266416 -1.1681299244 -0.0002161311
| 16> H -3.0884782143 -0.7472189096 1.283165984
| 17> H -1.6454782098 -1.7581746062 1.2773121601
| 18> H -1.6400947069 -0.227701701 2.1505297261
| 19> H -1.6423532647 -0.2280166888 -2.1503690405
| 20> H -1.6455954373 -1.758398726 -1.2770339906
| 21> H -3.0893316731 -0.7485171116 -1.2813074212
| 22> H -1.8386105575 1.9623906194 -0.8867776596
| 23> H -3.2171094856 1.3220086126 0.0001888849
| 24> H -1.8381789819 1.9627096173 0.8862125415
| 25> H 0.2440159332 2.1680156742 -0.0003224776
| 26> H 2.6706402057 2.1265785663 7.36774e-05
| 27> H 3.8915803804 -0.0212241456 0.0003406343
| 28> H 2.6149440143 -2.1385343238 -5.9431e-06
| 29> H 0.1820727347 -2.1081209217 -0.0003286682
| 30> *
| 31>
| 32>                          ****END OF INPUT****

CARTESIAN COORDINATES (ANGSTROEM)
---------------------------------
  C     -2.001293   -0.732067    1.256698
  C     -1.515019    0.004350    0.000004
  C     -2.002126   -0.732554   -1.256070
  C     -2.132461    1.405714   -0.000105
  C      0.006081    0.032345   -0.000269
  C      0.740949    1.211791   -0.000226
  C      2.126307    1.193323   -0.000029
  C      2.811849   -0.007033    0.000104
  C      2.095154   -1.191443   -0.000032
  C      0.713227   -1.168130   -0.000216
  H     -3.088478   -0.747219    1.283166
  H     -1.645478   -1.758175    1.277312
  H     -1.640095   -0.227702    2.150530
  H     -1.642353   -0.228017   -2.150369
  H     -1.645595   -1.758399   -1.277034
  H     -3.089332   -0.748517   -1.281307
  H     -1.838611    1.962391   -0.886778
  H     -3.217109    1.322009    0.000189
  H     -1.838179    1.962710    0.886213
  H      0.244016    2.168016   -0.000322
  H      2.670640    2.126579    0.000074
  H      3.891580   -0.021224    0.000341
  H      2.614944   -2.138534   -0.000006
  H      0.182073   -2.108121   -0.000329

 Total Charge           Charge          ....    0
 Multiplicity           Mult            ....    1
 Number of Electrons    NEL             ....   74
 Basis Dimension        Dim             ....  168

ORBITAL ENERGIES
----------------

  NO   OCC          E(Eh)            E(eV)
   0   2.0000      -9.912809      -269.7412
   1   2.0000      -9.899571      -269.3810
   2   2.0000      -9.886576      -269.0274
   3   2.0000      -9.886308      -269.0201
   4   2.0000      -9.885962      -269.0107
   5   2.0000      -9.885474      -268.9974
   6   2.0000      -9.884082      -268.9596
   7   2.0000      -9.875055      -268.7139
   8   2.0000      -9.875054      -268.7139
   9   2.0000      -9.874888      -268.7094
  10   2.0000      -0.779584       -21.2135
  11   2.0000      -0.737126       -20.0582
  12   2.0000      -0.666319       -18.1315
  13   2.0000      -0.656465       -17.8633
  14   2.0000      -0.614833       -16.7304
  15   2.0000      -0.614511       -16.7217
  16   2.0000      -0.546499       -14.8710
  17   2.0000      -0.533850       -14.5268
  18   2.0000      -0.490504       -13.3473
  19   2.0000      -0.456799       -12.4301
  20   2.0000      -0.410398       -11.1675
  21   2.0000      -0.407399       -11.0859
  22   2.0000      -0.396318       -10.7844
  23   2.0000      -0.392234       -10.6732
  24   2.0000      -0.376224       -10.2376
  25   2.0000      -0.368562       -10.0291
  26   2.0000      -0.353911        -9.6304
  27   2.0000      -0.333947        -9.0872
  28   2.0000      -0.325875        -8.8675
  29   2.0000      -0.323310        -8.7977
  30   2.0000      -0.319964        -8.7067
  31   2.0000      -0.307053        -8.3553
  32   2.0000      -0.292325        -7.9546
  33   2.0000      -0.280584        -7.6351
  34   2.0000      -0.274723        -7.4756
  35   2.0000      -0.224878        -6.1192
  36   2.0000      -0.217003        -5.9050
  37   0.0000      -0.031735        -0.8636
  38   0.0000      -0.027856        -0.7580
  39   0.0000       0.032859         0.8941
  40   0.0000       0.054189         1.4746
  41   0.0000       0.069732         1.8975

MULLIKEN ATOMIC CHARGES
-----------------------
   0 C :   -0.210627
   1 C :   -0.265576
   2 C :   -0.210627
   3 C :   -0.198700
   4 C :    0.195362
   5 C :   -0.144061
   6 C :   -0.042363
   7 C :   -0.045566
   8 C :   -0.047785
   9 C :   -0.150882
  10 H :    0.093430
  11 H :    0.099441
  12 H :    0.102649
  13 H :    0.102629
  14 H :    0.099444
  15 H :    0.093424
  16 H :    0.102497
  17 H :    0.095965
  18 H :    0.102501
  19 H :    0.038306
  20 H :    0.046798
  21 H :    0.049682
  22 H :    0.047453
  23 H :    0.046602
Sum of atomic charges:   -0.0000000

LOEWDIN ATOMIC CHARGES
----------------------
   0 C :   -0.310096
   1 C :   -0.093372
   2 C :   -0.310104
   3 C :   -0.317995
   4 C :   -0.017267
   5 C :   -0.129348
   6 C :   -0.121780
   7 C :   -0.129068
   8 C :   -0.122260
   9 C :   -0.119837
  10 H :    0.116085
  11 H :    0.115775
  12 H :    0.120899
  13 H :    0.120892
  14 H :    0.115772
  15 H :    0.116089
  16 H :    0.118684
  17 H :    0.119148
  18 H :    0.118683
  19 H :    0.123349
  20 H :    0.121883
  21 H :    0.122017
  22 H :    0.121998
  23 H :    0.119854

  Mayer bond orders larger than 0.100000
B(  0-C ,  1-C ) :   1.0651 B(  0-C , 10-H ) :   0.9457 B(  0-C , 11-H ) :   0.9433
B(  0-C , 12-H ) :   0.9486 B(  1-C ,  2-C ) :   1.0651 B(  1-C ,  3-C ) :   1.1287
B(  1-C ,  4-C ) :   0.9388 B(  2-C , 13-H ) :   0.9486 B(  2-C , 14-H ) :   0.9433
B(  2-C , 15-H ) :   0.9457 B(  3-C , 16-H ) :   0.9305 B(  3-C , 17-H ) :   0.9415
B(  3-C , 18-H ) :   0.9305 B(  4-C ,  5-C ) :   1.4322 B(  4-C ,  9-C ) :   1.3597
B(  5-C ,  6-C ) :   1.3455 B(  5-C , 19-H ) :   0.9470 B(  6-C ,  7-C ) :   1.3889
B(  6-C , 20-H ) :   0.9609 B(  7-C ,  8-C ) :   1.3653 B(  7-C , 21-H ) :   0.9659
B(  8-C ,  9-C ) :   1.3952 B(  8-C , 22-H ) :   0.9622 B(  9-C , 23-H ) :   0.9583

Dispersion correction           -0.026155439
FINAL SINGLE POINT ENERGY      -388.579336062523

DIPOLE MOMENT
-------------

Method             : SCF
Type of density    : Electron Density
Multiplicity       :   1
Irrep              :   0
Energy             :  -388.6479667262901785 Eh
Relativity type    :
Basis              : AO
                                X                 Y                 Z
Electronic contribution:      9.275309960       0.170296936      -0.001458089
Nuclear contribution   :     -9.421047974      -0.182195754       0.001574626
                        -----------------------------------------
Total Dipole Moment    :     -0.145738015      -0.011898818       0.000116537
                        -----------------------------------------
Magnitude (a.u.)       :      0.146222995
Magnitude (Debye)      :      0.371669317

Rotational constants in cm-1:             0.086177             0.032087             0.027629
Rotational constants in MHz :          2583.508459           961.935312           828.304300

                             ****ORCA TERMINATED NORMALLY****
TOTAL RUN TIME: 0 days 0 hours 0 minutes 10 seconds 499 msec
