                         Program Version 6.0.0  -   RELEASE  -
|  1> ! r2scan-3c def2/J RI DEFGRID2 scfconv6 printgap
|  2> %output
|  3>     printlevel normal
|  4> end
|  5> * xyz 0 1
|  6> C -2.6264350521 0.0238038124 -0.3683208096
|  7> O -1.3566237505 0.5504563304 0.0361635011
|  8> C -0.4535805695 -0.2898758481 0.4999144157
|  9> O -0.6190633242 -1.4824002422 0.6185193398
| 10> C 0.8403116887 0.4274231186 0.8275258398
| 11> Cl 1.842396733 0.3343062626 -0.6563485134
| 12> H -3.2534241362 -0.1215048933 0.5111864825
| 13> H -2.4912928772 -0.9305017901 -0.8777479849
| 14> H -3.057620427 0.7679045064 -1.0308948135
| 15> H 1.3810109821 -0.0833771517 1.6207691306
| 16> H 0.6668952713 1.4791158043 1.0418574343
| 17> *
| 18>
| 19>                          ****END OF INPUT****

CARTESIAN COORDINATES (ANGSTROEM)
---------------------------------
  C     -2.626435    0.023804   -0.368321
  O     -1.356624    0.550456    0.036164
  C     -0.453581   -0.289876    0.499914
  O     -0.619063   -1.482400    0.618519
  C      0.840312    0.427423    0.827526
  Cl     1.842397    0.334306   -0.656349
  H     -3.253424   -0.121505    0.511186
  H     -2.491293   -0.930502   -0.877748
  H     -3.057620    0.767905   -1.030895
  H      1.381011   -0.083377    1.620769
  H      0.666895    1.479116    1.041857

 Total Charge           Charge          ....    0
 Multiplicity           Mult            ....    1
 Number of Electrons    NEL             ....   56
 Basis Dimension        Dim             ....  157

ORBITAL ENERGIES
----------------

  NO   OCC          E(Eh)            E(eV)
   0   2.0000    -101.218299     -2754.2900
   1   2.0000     -19.017631      -517.4961
   2   2.0000     -18.946223      -515.5529
   3   2.0000     -10.173717      -276.8409
   4   2.0000     -10.112940      -275.1871
   5   2.0000     -10.098731      -274.8004
   6   2.0000      -9.373879      -255.0762
   7   2.0000      -7.120712      -193.7644
   8   2.0000      -7.109768      -193.4666
   9   2.0000      -7.109519      -193.4598
  10   2.0000      -1.093138       -29.7458
  11   2.0000      -0.995408       -27.0864
  12   2.0000      -0.836214       -22.7545
  13   2.0000      -0.730788       -19.8858
  14   2.0000      -0.663928       -18.0664
  15   2.0000      -0.552653       -15.0384
  16   2.0000      -0.491755       -13.3813
  17   2.0000      -0.470183       -12.7943
  18   2.0000      -0.466655       -12.6983
  19   2.0000      -0.422284       -11.4909
  20   2.0000      -0.418139       -11.3781
  21   2.0000      -0.399339       -10.8666
  22   2.0000      -0.364502        -9.9186
  23   2.0000      -0.339177        -9.2295
  24   2.0000      -0.293983        -7.9997
  25   2.0000      -0.288690        -7.8557
  26   2.0000      -0.277700        -7.5566
  27   2.0000      -0.250649        -6.8205
  28   0.0000      -0.059759        -1.6261
  29   0.0000       0.024850         0.6762
  30   0.0000       0.060504         1.6464
  31   0.0000       0.091551         2.4912
  32   0.0000       0.120257         3.2723

MULLIKEN ATOMIC CHARGES
-----------------------
   0 C :   -0.287033
   1 O :   -0.178488
   2 C :    0.394765
   3 O :   -0.407118
   4 C :   -0.206997
   5 Cl:   -0.153215
   6 H :    0.156581
   7 H :    0.176157
   8 H :    0.155522
   9 H :    0.178721
  10 H :    0.171106
Sum of atomic charges:    0.0000000

LOEWDIN ATOMIC CHARGES
----------------------
   0 C :   -0.037327
   1 O :   -0.591527
   2 C :    0.319017
   3 O :   -0.405895
   4 C :   -0.241942
   5 Cl:    0.061933
   6 H :    0.175539
   7 H :    0.186095
   8 H :    0.179169
   9 H :    0.178015
  10 H :    0.176923

  Mayer bond orders larger than 0.100000
B(  0-C ,  1-O ) :   0.8433 B(  0-C ,  6-H ) :   0.9581 B(  0-C ,  7-H ) :   0.9616
B(  0-C ,  8-H ) :   0.9679 B(  1-O ,  2-C ) :   1.0823 B(  2-C ,  3-O ) :   1.8344
B(  2-C ,  4-C ) :   0.9504 B(  4-C ,  5-Cl) :   0.9992 B(  4-C ,  9-H ) :   0.9547
B(  4-C , 10-H ) :   0.9596

Dispersion correction           -0.002600886
FINAL SINGLE POINT ENERGY      -727.902758083903

DIPOLE MOMENT
-------------

Method             : SCF
Type of density    : Electron Density
Multiplicity       :   1
Irrep              :   0
Energy             :  -727.9104372577751292 Eh
Relativity type    :
Basis              : AO
                                X                 Y                 Z
Electronic contribution:      8.124911086       0.154347135      -1.799210354
Nuclear contribution   :     -8.838943298       0.580404200       2.077590361
                        -----------------------------------------
Total Dipole Moment    :     -0.714032212       0.734751335       0.278380008
                        -----------------------------------------
Magnitude (a.u.)       :      1.061695320
Magnitude (Debye)      :      2.698615041

Rotational constants in cm-1:             0.201551             0.054003             0.049136
Rotational constants in MHz :          6042.341950          1618.974386          1473.047313

                             ****ORCA TERMINATED NORMALLY****
TOTAL RUN TIME: 0 days 0 hours 0 minutes 15 seconds 316 msec
