                         Program Version 6.0.0  -   RELEASE  -
|  1> ! r2scan-3c def2/J RI DEFGRID2 scfconv6 printgap
|  2> %output
|  3>     printlevel normal
|  4> end
|  5> %cpcm
|  6>     smd true
|  7>     smdsolvent "water"
|  8> end
|  9> * xyz 0 1
| 10> C -2.6264350521 0.0238038124 -0.3683208096
| 11> O -1.3566237505 0.5504563304 0.0361635011
| 12> C -0.4535805695 -0.2898758481 0.4999144157
| 13> O -0.6190633242 -1.4824002422 0.6185193398
| 14> C 0.8403116887 0.4274231186 0.8275258398
| 15> Cl 1.842396733 0.3343062626 -0.6563485134
| 16> H -3.2534241362 -0.1215048933 0.5111864825
| 17> H -2.4912928772 -0.9305017901 -0.8777479849
| 18> H -3.057620427 0.7679045064 -1.0308948135
| 19> H 1.3810109821 -0.0833771517 1.6207691306
| 20> H 0.6668952713 1.4791158043 1.0418574343
| 21> *
| 22>
| 23>                          ****END OF INPUT****

CARTESIAN COORDINATES (ANGSTROEM)
---------------------------------
  C     -2.626435    0.023804   -0.368321
  O     -1.356624    0.550456    0.036164
  C     -0.453581   -0.289876    0.499914
  O     -0.619063   -1.482400    0.618519
  C      0.840312    0.427423    0.827526
  Cl     1.842397    0.334306   -0.656349
  H     -3.253424   -0.121505    0.511186
  H     -2.491293   -0.930502   -0.877748
  H     -3.057620    0.767905   -1.030895
  H      1.381011   -0.083377    1.620769
  H      0.666895    1.479116    1.041857

 Total Charge           Charge          ....    0
 Multiplicity           Mult            ....    1
 Number of Electrons    NEL             ....   56
 Basis Dimension        Dim             ....  157

ORBITAL ENERGIES
----------------

  NO   OCC          E(Eh)            E(eV)
   0   2.0000    -101.220293     -2754.3442
   1   2.0000     -19.016310      -517.4601
   2   2.0000     -18.955429      -515.8034
   3   2.0000     -10.178452      -276.9698
   4   2.0000     -10.103312      -274.9251
   5   2.0000     -10.080855      -274.3140
   6   2.0000      -9.376033      -255.1348
   7   2.0000      -7.122557      -193.8146
   8   2.0000      -7.112061      -193.5290
   9   2.0000      -7.111824      -193.5226
  10   2.0000      -1.093266       -29.7493
  11   2.0000      -1.002325       -27.2746
  12   2.0000      -0.835251       -22.7283
  13   2.0000      -0.723191       -19.6790
  14   2.0000      -0.655091       -17.8259
  15   2.0000      -0.543737       -14.7958
  16   2.0000      -0.487703       -13.2711
  17   2.0000      -0.468906       -12.7596
  18   2.0000      -0.465229       -12.6595
  19   2.0000      -0.418667       -11.3925
  20   2.0000      -0.411259       -11.1909
  21   2.0000      -0.391239       -10.6461
  22   2.0000      -0.362434        -9.8623
  23   2.0000      -0.333681        -9.0799
  24   2.0000      -0.295863        -8.0508
  25   2.0000      -0.292286        -7.9535
  26   2.0000      -0.279146        -7.5959
  27   2.0000      -0.259470        -7.0605
  28   0.0000      -0.060568        -1.6481
  29   0.0000       0.027399         0.7456
  30   0.0000       0.072227         1.9654
  31   0.0000       0.104626         2.8470
  32   0.0000       0.130046         3.5387

MULLIKEN ATOMIC CHARGES
-----------------------
   0 C :   -0.317116
   1 O :   -0.185975
   2 C :    0.432133
   3 O :   -0.483976
   4 C :   -0.229423
   5 Cl:   -0.188255
   6 H :    0.184657
   7 H :    0.181299
   8 H :    0.181956
   9 H :    0.213978
  10 H :    0.210722
Sum of atomic charges:   -0.0000000

LOEWDIN ATOMIC CHARGES
----------------------
   0 C :   -0.033395
   1 O :   -0.588363
   2 C :    0.328385
   3 O :   -0.462593
   4 C :   -0.231292
   5 Cl:    0.038895
   6 H :    0.185768
   7 H :    0.188106
   8 H :    0.190701
   9 H :    0.190953
  10 H :    0.192835

  Mayer bond orders larger than 0.100000
B(  0-C ,  1-O ) :   0.8257 B(  0-C ,  6-H ) :   0.9503 B(  0-C ,  7-H ) :   0.9567
B(  0-C ,  8-H ) :   0.9578 B(  1-O ,  2-C ) :   1.1123 B(  2-C ,  3-O ) :   1.7768
B(  2-C ,  4-C ) :   0.9431 B(  4-C ,  5-Cl) :   0.9590 B(  4-C ,  9-H ) :   0.9460
B(  4-C , 10-H ) :   0.9483

Dispersion correction           -0.002600886
FINAL SINGLE POINT ENERGY      -727.910139554071

DIPOLE MOMENT
-------------

Method             : SCF
Type of density    : Electron Density
Multiplicity       :   1
Irrep              :   0
Energy             :  -727.9178187279434269 Eh
Relativity type    :
Basis              : AO
                                X                 Y                 Z
Electronic contribution:      7.943499656       0.486711257      -1.658358009
Nuclear contribution   :     -8.838943298       0.580404200       2.077590361
                        -----------------------------------------
Total Dipole Moment    :     -0.895443642       1.067115457       0.419232353
                        -----------------------------------------
Magnitude (a.u.)       :      1.454754440
Magnitude (Debye)      :      3.697691925

Rotational constants in cm-1:             0.201551             0.054003             0.049136
Rotational constants in MHz :          6042.341950          1618.974386          1473.047313

                             ****ORCA TERMINATED NORMALLY****
TOTAL RUN TIME: 0 days 0 hours 0 minutes 17 seconds 613 msec
