                         Program Version 6.0.0  -   RELEASE  -
|  1> ! pbe def2-sv(p) def2/J RI DEFGRID1 loosescf d4 GCP(DFT/SV(P)) printgap
|  2> %output
|  3>     printlevel normal
|  4> end
|  5> * xyz 0 1
|  6> C -1.0006583306 -1.6005615165 -4.2272e-06
|  7> S -0.4689177888 0.0897081979 2.9463e-06
|  8> O -0.8000756381 0.7699174041 1.2244684828
|  9> O -0.8001957463 0.769956262 -1.2244124005
| 10> Cl 1.5791627937 -0.0718702111 -2.79351e-05
| 11> H -0.607851153 -2.0575751624 0.8975909865
| 12> H -2.083466673 -1.5821242917 0.0017315966
| 13> H -0.6106400995 -2.056671918 -0.8992735742
| 14> *
| 15>
| 16>                          ****END OF INPUT****

CARTESIAN COORDINATES (ANGSTROEM)
---------------------------------
  C     -1.000658   -1.600562   -0.000004
  S     -0.468918    0.089708    0.000003
  O     -0.800076    0.769917    1.224468
  O     -0.800196    0.769956   -1.224412
  Cl     1.579163   -0.071870   -0.000028
  H     -0.607851   -2.057575    0.897591
  H     -2.083467   -1.582124    0.001732
  H     -0.610640   -2.056672   -0.899274

 Total Charge           Charge          ....    0
 Multiplicity           Mult            ....    1
 Number of Electrons    NEL             ....   58
 Basis Dimension        Dim             ....   84

ORBITAL ENERGIES
----------------

  NO   OCC          E(Eh)            E(eV)
   0   2.0000    -100.648559     -2738.7865
   1   2.0000     -88.266127     -2401.8434
   2   2.0000     -18.770620      -510.7745
   3   2.0000     -18.770525      -510.7720
   4   2.0000      -9.954397      -270.8729
   5   2.0000      -9.186938      -249.9893
   6   2.0000      -7.883440      -214.5193
   7   2.0000      -7.017655      -190.9601
   8   2.0000      -7.006955      -190.6690
   9   2.0000      -7.006546      -190.6578
  10   2.0000      -5.911470      -160.8593
  11   2.0000      -5.908657      -160.7827
  12   2.0000      -5.907476      -160.7506
  13   2.0000      -1.048867       -28.5411
  14   2.0000      -0.932844       -25.3840
  15   2.0000      -0.788715       -21.4620
  16   2.0000      -0.731314       -19.9001
  17   2.0000      -0.564552       -15.3622
  18   2.0000      -0.486776       -13.2458
  19   2.0000      -0.453328       -12.3357
  20   2.0000      -0.452025       -12.3002
  21   2.0000      -0.418535       -11.3889
  22   2.0000      -0.402253       -10.9459
  23   2.0000      -0.323305        -8.7976
  24   2.0000      -0.319573        -8.6960
  25   2.0000      -0.302428        -8.2295
  26   2.0000      -0.286621        -7.7993
  27   2.0000      -0.282728        -7.6934
  28   2.0000      -0.261780        -7.1234
  29   0.0000      -0.082064        -2.2331
  30   0.0000       0.016485         0.4486
  31   0.0000       0.033745         0.9182
  32   0.0000       0.039026         1.0620
  33   0.0000       0.053925         1.4674

MULLIKEN ATOMIC CHARGES
-----------------------
   0 C :   -0.309236
   1 S :    0.636796
   2 O :   -0.360464
   3 O :   -0.360454
   4 Cl:   -0.132981
   5 H :    0.171462
   6 H :    0.183397
   7 H :    0.171479
Sum of atomic charges:   -0.0000000

LOEWDIN ATOMIC CHARGES
----------------------
   0 C :   -0.465815
   1 S :    0.998715
   2 O :   -0.437268
   3 O :   -0.437258
   4 Cl:   -0.123578
   5 H :    0.153100
   6 H :    0.158989
   7 H :    0.153115

  Mayer bond orders larger than 0.100000
B(  0-C ,  1-S ) :   0.8776 B(  0-C ,  5-H ) :   0.9213 B(  0-C ,  6-H ) :   0.9145
B(  0-C ,  7-H ) :   0.9212 B(  1-S ,  2-O ) :   1.7509 B(  1-S ,  3-O ) :   1.7509
B(  1-S ,  4-Cl) :   0.8417 B(  2-O ,  4-Cl) :   0.1129 B(  3-O ,  4-Cl) :   0.1129

Dispersion correction           -0.007792953
FINAL SINGLE POINT ENERGY     -1047.675295572644

DIPOLE MOMENT
-------------

Method             : SCF
Type of density    : Electron Density
Multiplicity       :   1
Irrep              :   0
Energy             : -1047.7008180083437310 Eh
Relativity type    :
Basis              : AO
                                X                 Y                 Z
Electronic contribution:      4.956713604       3.679622292      -0.000082792
Nuclear contribution   :     -5.227507734      -5.227536509       0.000084218
                        -----------------------------------------
Total Dipole Moment    :     -0.270794130      -1.547914217       0.000001426
                        -----------------------------------------
Magnitude (a.u.)       :      1.571422249
Magnitude (Debye)      :      3.994237930

Rotational constants in cm-1:             0.152098             0.092271             0.086747
Rotational constants in MHz :          4559.780579          2766.211309          2600.616119

                             ****ORCA TERMINATED NORMALLY****
TOTAL RUN TIME: 0 days 0 hours 0 minutes 4 seconds 501 msec
