                         Program Version 6.0.0  -   RELEASE  -
|  1> ! pbe def2-sv(p) def2/J RI DEFGRID1 loosescf d4 GCP(DFT/SV(P)) printgap
|  2> %output
|  3>     printlevel normal
|  4> end
|  5> * xyz 0 1
|  6> C -3.8393431362 0.1766153528 1.5257042813
|  7> N -2.5908662874 0.1515226516 0.795513431
|  8> C -2.4847460319 -0.3584249174 -0.4365198938
|  9> O -3.4037820222 -0.8592523706 -1.0607184289
| 10> O -1.2576967261 -0.3452663145 -1.0077349838
| 11> C -0.205305988 0.4210155755 -0.5021731631
| 12> C -0.3143486411 1.7820937977 -0.3675460579
| 13> C 0.783074292 2.5334945556 0.0785292454
| 14> C 1.9673940142 1.9213536704 0.378397932
| 15> C 2.1120736123 0.5248444481 0.2396898778
| 16> C 1.0097111928 -0.2495177835 -0.2104064903
| 17> C 1.1549469213 -1.6449410541 -0.351612308
| 18> C 2.3446650274 -2.2505442736 -0.057573203
| 19> C 3.4371169496 -1.4898002795 0.3883805538
| 20> C 3.3240641322 -0.1352946691 0.5334764517
| 21> H -4.6094430353 -0.248251681 0.8852655935
| 22> H -4.1002748869 1.2030167588 1.7802322217
| 23> H -3.7549935802 -0.4166774563 2.4351880472
| 24> H -1.7677025754 0.5044036556 1.262004883
| 25> H -1.2436403117 2.2721930036 -0.6164682662
| 26> H 0.6758564042 3.6019684484 0.1761247491
| 27> H 2.8124284643 2.498223884 0.720859795
| 28> H 0.308710263 -2.2168746881 -0.7023593159
| 29> H 2.4502346477 -3.3188258167 -0.1683001879
| 30> H 4.3684226223 -1.9860856616 0.6142016525
| 31> H 4.1624552169 0.4533437362 0.8738193665
| 32> *
| 33>
| 34>                          ****END OF INPUT****

CARTESIAN COORDINATES (ANGSTROEM)
---------------------------------
  C     -3.839343    0.176615    1.525704
  N     -2.590866    0.151523    0.795513
  C     -2.484746   -0.358425   -0.436520
  O     -3.403782   -0.859252   -1.060718
  O     -1.257697   -0.345266   -1.007735
  C     -0.205306    0.421016   -0.502173
  C     -0.314349    1.782094   -0.367546
  C      0.783074    2.533495    0.078529
  C      1.967394    1.921354    0.378398
  C      2.112074    0.524844    0.239690
  C      1.009711   -0.249518   -0.210406
  C      1.154947   -1.644941   -0.351612
  C      2.344665   -2.250544   -0.057573
  C      3.437117   -1.489800    0.388381
  C      3.324064   -0.135295    0.533476
  H     -4.609443   -0.248252    0.885266
  H     -4.100275    1.203017    1.780232
  H     -3.754994   -0.416677    2.435188
  H     -1.767703    0.504404    1.262005
  H     -1.243640    2.272193   -0.616468
  H      0.675856    3.601968    0.176125
  H      2.812428    2.498224    0.720860
  H      0.308710   -2.216875   -0.702359
  H      2.450235   -3.318826   -0.168300
  H      4.368423   -1.986086    0.614202
  H      4.162455    0.453344    0.873819

 Total Charge           Charge          ....    0
 Multiplicity           Mult            ....    1
 Number of Electrons    NEL             ....  106
 Basis Dimension        Dim             ....  232

ORBITAL ENERGIES
----------------

  NO   OCC          E(Eh)            E(eV)
   0   2.0000     -18.806812      -511.7594
   1   2.0000     -18.710615      -509.1417
   2   2.0000     -14.024374      -381.6226
   3   2.0000     -10.023999      -272.7669
   4   2.0000      -9.968847      -271.2661
   5   2.0000      -9.923608      -270.0351
   6   2.0000      -9.916675      -269.8465
   7   2.0000      -9.916333      -269.8371
   8   2.0000      -9.909089      -269.6400
   9   2.0000      -9.908902      -269.6349
  10   2.0000      -9.904426      -269.5131
  11   2.0000      -9.904007      -269.5017
  12   2.0000      -9.903606      -269.4908
  13   2.0000      -9.902469      -269.4599
  14   2.0000      -9.902103      -269.4499
  15   2.0000      -1.012865       -27.5615
  16   2.0000      -0.912804       -24.8387
  17   2.0000      -0.843310       -22.9476
  18   2.0000      -0.806545       -21.9472
  19   2.0000      -0.757360       -20.6088
  20   2.0000      -0.709596       -19.3091
  21   2.0000      -0.681987       -18.5578
  22   2.0000      -0.661724       -18.0064
  23   2.0000      -0.647036       -17.6067
  24   2.0000      -0.590758       -16.0753
  25   2.0000      -0.567777       -15.4500
  26   2.0000      -0.565158       -15.3787
  27   2.0000      -0.538598       -14.6560
  28   2.0000      -0.512761       -13.9529
  29   2.0000      -0.478934       -13.0325
  30   2.0000      -0.462300       -12.5798
  31   2.0000      -0.454742       -12.3741
  32   2.0000      -0.438454       -11.9309
  33   2.0000      -0.426633       -11.6093
  34   2.0000      -0.408585       -11.1181
  35   2.0000      -0.392154       -10.6711
  36   2.0000      -0.391101       -10.6424
  37   2.0000      -0.384650       -10.4668
  38   2.0000      -0.372071       -10.1246
  39   2.0000      -0.367411        -9.9978
  40   2.0000      -0.363519        -9.8918
  41   2.0000      -0.353243        -9.6122
  42   2.0000      -0.349275        -9.5043
  43   2.0000      -0.335223        -9.1219
  44   2.0000      -0.314098        -8.5470
  45   2.0000      -0.310349        -8.4450
  46   2.0000      -0.303580        -8.2608
  47   2.0000      -0.275791        -7.5047
  48   2.0000      -0.253504        -6.8982
  49   2.0000      -0.239658        -6.5214
  50   2.0000      -0.219079        -5.9614
  51   2.0000      -0.217059        -5.9065
  52   2.0000      -0.203413        -5.5351
  53   0.0000      -0.080896        -2.2013
  54   0.0000      -0.053307        -1.4506
  55   0.0000      -0.015705        -0.4273
  56   0.0000       0.022970         0.6250
  57   0.0000       0.032824         0.8932

MULLIKEN ATOMIC CHARGES
-----------------------
   0 C :   -0.176540
   1 N :   -0.319060
   2 C :    0.189801
   3 O :   -0.213253
   4 O :   -0.207128
   5 C :    0.110328
   6 C :   -0.153985
   7 C :   -0.037972
   8 C :   -0.110047
   9 C :    0.137652
  10 C :    0.110340
  11 C :   -0.129385
  12 C :   -0.037606
  13 C :   -0.033477
  14 C :   -0.130288
  15 H :    0.142690
  16 H :    0.112690
  17 H :    0.116606
  18 H :    0.247477
  19 H :    0.057060
  20 H :    0.059403
  21 H :    0.041526
  22 H :    0.063188
  23 H :    0.059381
  24 H :    0.057636
  25 H :    0.042967
Sum of atomic charges:    0.0000000

LOEWDIN ATOMIC CHARGES
----------------------
   0 C :   -0.255544
   1 N :   -0.182706
   2 C :    0.026520
   3 O :   -0.200774
   4 O :   -0.036660
   5 C :    0.033938
   6 C :   -0.154163
   7 C :   -0.121041
   8 C :   -0.116485
   9 C :   -0.022094
  10 C :   -0.038047
  11 C :   -0.106257
  12 C :   -0.118312
  13 C :   -0.118676
  14 C :   -0.109465
  15 H :    0.139987
  16 H :    0.117466
  17 H :    0.119050
  18 H :    0.237630
  19 H :    0.134601
  20 H :    0.128730
  21 H :    0.126565
  22 H :    0.135165
  23 H :    0.127774
  24 H :    0.126750
  25 H :    0.126049

  Mayer bond orders larger than 0.100000
B(  0-C ,  1-N ) :   1.0210 B(  0-C , 15-H ) :   0.9353 B(  0-C , 16-H ) :   0.9579
B(  0-C , 17-H ) :   0.9595 B(  1-N ,  2-C ) :   1.2101 B(  1-N , 18-H ) :   0.8347
B(  2-C ,  3-O ) :   2.0782 B(  2-C ,  4-O ) :   1.0472 B(  4-O ,  5-C ) :   1.0644
B(  5-C ,  6-C ) :   1.4352 B(  5-C , 10-C ) :   1.2323 B(  6-C ,  7-C ) :   1.2162
B(  6-C , 19-H ) :   0.9619 B(  7-C ,  8-C ) :   1.4407 B(  7-C , 20-H ) :   0.9622
B(  8-C ,  9-C ) :   1.2352 B(  8-C , 21-H ) :   0.9684 B(  9-C , 10-C ) :   1.2536
B(  9-C , 14-C ) :   1.2411 B( 10-C , 11-C ) :   1.2681 B( 11-C , 12-C ) :   1.4390
B( 11-C , 22-H ) :   0.9620 B( 12-C , 13-C ) :   1.2555 B( 12-C , 23-H ) :   0.9636
B( 13-C , 14-C ) :   1.4608 B( 13-C , 24-H ) :   0.9625 B( 14-C , 25-H ) :   0.9654

Dispersion correction           -0.032716144
FINAL SINGLE POINT ENERGY      -667.731061004312

DIPOLE MOMENT
-------------

Method             : SCF
Type of density    : Electron Density
Multiplicity       :   1
Irrep              :   0
Energy             :  -667.8067206536271669 Eh
Relativity type    :
Basis              : AO
                                X                 Y                 Z
Electronic contribution:      1.636510160      -1.404132637      -5.355946723
Nuclear contribution   :     -0.738056563       2.184350402       6.785391594
                        -----------------------------------------
Total Dipole Moment    :      0.898453597       0.780217765       1.429444871
                        -----------------------------------------
Magnitude (a.u.)       :      1.859911628
Magnitude (Debye)      :      4.727519657

Rotational constants in cm-1:             0.037638             0.013577             0.011263
Rotational constants in MHz :          1128.356185           407.014566           337.649441

                             ****ORCA TERMINATED NORMALLY****
TOTAL RUN TIME: 0 days 0 hours 0 minutes 13 seconds 435 msec
