                         Program Version 6.0.0  -   RELEASE  -
|  1> ! r2scan-3c def2/J RI DEFGRID2 scfconv6 printgap
|  2> %output
|  3>     printlevel normal
|  4> end
|  5> * xyz 0 1
|  6> C 2.4972036449 0.0479956605 0.0430702095
|  7> C 0.9986568425 0.0755149152 0.010289055
|  8> C 0.3059165116 1.2019044592 -0.0814942756
|  9> C -1.1910267675 1.2757747249 -0.1073864621
| 10> C -1.8251622735 -0.0332769168 0.3542884982
| 11> C -1.1335887925 -1.2053923249 -0.3320818438
| 12> C 0.3268985963 -1.2677139649 0.1057420016
| 13> H 2.8440135034 -0.4720132418 0.9353231491
| 14> H 2.9072135318 1.05432953 0.0413773594
| 15> H 2.8835605479 -0.4878427982 -0.8234679968
| 16> H 0.8225905023 2.1501738187 -0.1581750687
| 17> H -1.5255782147 2.1016342569 0.5257511568
| 18> H -1.5153586203 1.5039457444 -1.1288248347
| 19> H -1.7091829682 -0.1324162606 1.4356061529
| 20> H -2.8928025773 -0.0320071298 0.1272845202
| 21> H -1.6363229824 -2.1427083652 -0.0866458752
| 22> H -1.1838757003 -1.0671828193 -1.4141728006
| 23> H 0.3850839422 -1.6154542796 1.1425843297
| 24> H 0.872131387 -1.9902545788 -0.5063959127
| 25> *
| 26>
| 27>                          ****END OF INPUT****

CARTESIAN COORDINATES (ANGSTROEM)
---------------------------------
  C      2.497204    0.047996    0.043070
  C      0.998657    0.075515    0.010289
  C      0.305917    1.201904   -0.081494
  C     -1.191027    1.275775   -0.107386
  C     -1.825162   -0.033277    0.354288
  C     -1.133589   -1.205392   -0.332082
  C      0.326899   -1.267714    0.105742
  H      2.844014   -0.472013    0.935323
  H      2.907214    1.054330    0.041377
  H      2.883561   -0.487843   -0.823468
  H      0.822591    2.150174   -0.158175
  H     -1.525578    2.101634    0.525751
  H     -1.515359    1.503946   -1.128825
  H     -1.709183   -0.132416    1.435606
  H     -2.892803   -0.032007    0.127285
  H     -1.636323   -2.142708   -0.086646
  H     -1.183876   -1.067183   -1.414173
  H      0.385084   -1.615454    1.142584
  H      0.872131   -1.990255   -0.506396

 Total Charge           Charge          ....    0
 Multiplicity           Mult            ....    1
 Number of Electrons    NEL             ....   54
 Basis Dimension        Dim             ....  193

ORBITAL ENERGIES
----------------

  NO   OCC          E(Eh)            E(eV)
   0   2.0000     -10.027251      -272.8554
   1   2.0000     -10.025223      -272.8002
   2   2.0000     -10.023275      -272.7472
   3   2.0000     -10.021809      -272.7073
   4   2.0000     -10.021046      -272.6865
   5   2.0000     -10.018540      -272.6183
   6   2.0000     -10.011983      -272.4399
   7   2.0000      -0.803037       -21.8518
   8   2.0000      -0.730741       -19.8845
   9   2.0000      -0.704644       -19.1743
  10   2.0000      -0.643083       -17.4992
  11   2.0000      -0.581794       -15.8314
  12   2.0000      -0.551531       -15.0079
  13   2.0000      -0.473174       -12.8757
  14   2.0000      -0.442726       -12.0472
  15   2.0000      -0.410523       -11.1709
  16   2.0000      -0.397531       -10.8174
  17   2.0000      -0.395255       -10.7554
  18   2.0000      -0.376160       -10.2358
  19   2.0000      -0.358273        -9.7491
  20   2.0000      -0.339950        -9.2505
  21   2.0000      -0.337873        -9.1940
  22   2.0000      -0.326883        -8.8950
  23   2.0000      -0.296128        -8.0581
  24   2.0000      -0.280931        -7.6445
  25   2.0000      -0.267547        -7.2803
  26   2.0000      -0.206561        -5.6208
  27   0.0000       0.006510         0.1771
  28   0.0000       0.085046         2.3142
  29   0.0000       0.112584         3.0636
  30   0.0000       0.120131         3.2689
  31   0.0000       0.125708         3.4207

MULLIKEN ATOMIC CHARGES
-----------------------
   0 C :   -0.505186
   1 C :    0.114017
   2 C :   -0.225034
   3 C :   -0.280547
   4 C :   -0.299020
   5 C :   -0.293818
   6 C :   -0.329631
   7 H :    0.146066
   8 H :    0.149883
   9 H :    0.154510
  10 H :    0.150063
  11 H :    0.145706
  12 H :    0.149501
  13 H :    0.152590
  14 H :    0.151225
  15 H :    0.151796
  16 H :    0.154549
  17 H :    0.164459
  18 H :    0.148871
Sum of atomic charges:   -0.0000000

LOEWDIN ATOMIC CHARGES
----------------------
   0 C :   -0.393510
   1 C :   -0.132113
   2 C :   -0.209507
   3 C :   -0.292843
   4 C :   -0.298410
   5 C :   -0.295678
   6 C :   -0.284282
   7 H :    0.158749
   8 H :    0.157669
   9 H :    0.158176
  10 H :    0.161636
  11 H :    0.158808
  12 H :    0.161173
  13 H :    0.157148
  14 H :    0.154218
  15 H :    0.153836
  16 H :    0.158124
  17 H :    0.165237
  18 H :    0.161571

  Mayer bond orders larger than 0.100000
B(  0-C ,  1-C ) :   0.8380 B(  0-C ,  7-H ) :   0.9701 B(  0-C ,  8-H ) :   0.9992
B(  0-C ,  9-H ) :   0.9737 B(  1-C ,  2-C ) :   1.8897 B(  1-C ,  6-C ) :   0.8799
B(  2-C ,  3-C ) :   0.9545 B(  2-C , 10-H ) :   0.9349 B(  3-C ,  4-C ) :   0.9298
B(  3-C , 11-H ) :   0.9684 B(  3-C , 12-H ) :   0.9618 B(  4-C ,  5-C ) :   0.8583
B(  4-C , 13-H ) :   0.9964 B(  4-C , 14-H ) :   0.9682 B(  5-C ,  6-C ) :   0.9200
B(  5-C , 15-H ) :   0.9714 B(  5-C , 16-H ) :   0.9982 B(  6-C , 17-H ) :   0.9794
B(  6-C , 18-H ) :   0.9772

Dispersion correction           -0.005438956
FINAL SINGLE POINT ENERGY      -273.870682938759

DIPOLE MOMENT
-------------

Method             : SCF
Type of density    : Electron Density
Multiplicity       :   1
Irrep              :   0
Energy             :  -273.8726777620803432 Eh
Relativity type    :
Basis              : AO
                                X                 Y                 Z
Electronic contribution:     -0.264921660       0.952448860      -0.077804371
Nuclear contribution   :      0.235922486      -1.059934852       0.084663904
                        -----------------------------------------
Total Dipole Moment    :     -0.028999174      -0.107485992       0.006859533
                        -----------------------------------------
Magnitude (a.u.)       :      0.111540324
Magnitude (Debye)      :      0.283512972

Rotational constants in cm-1:             0.151578             0.076406             0.054780
Rotational constants in MHz :          4544.184953          2290.608890          1642.255765

                             ****ORCA TERMINATED NORMALLY****
TOTAL RUN TIME: 0 days 0 hours 0 minutes 16 seconds 262 msec
