                         Program Version 6.0.0  -   RELEASE  -
|  1> ! r2scan-3c def2/J RI DEFGRID2 scfconv6 printgap
|  2> %output
|  3>     printlevel normal
|  4> end
|  5> %cpcm
|  6>     smd true
|  7>     smdsolvent "water"
|  8> end
|  9> * xyz 0 1
| 10> C 2.4972036449 0.0479956605 0.0430702095
| 11> C 0.9986568425 0.0755149152 0.010289055
| 12> C 0.3059165116 1.2019044592 -0.0814942756
| 13> C -1.1910267675 1.2757747249 -0.1073864621
| 14> C -1.8251622735 -0.0332769168 0.3542884982
| 15> C -1.1335887925 -1.2053923249 -0.3320818438
| 16> C 0.3268985963 -1.2677139649 0.1057420016
| 17> H 2.8440135034 -0.4720132418 0.9353231491
| 18> H 2.9072135318 1.05432953 0.0413773594
| 19> H 2.8835605479 -0.4878427982 -0.8234679968
| 20> H 0.8225905023 2.1501738187 -0.1581750687
| 21> H -1.5255782147 2.1016342569 0.5257511568
| 22> H -1.5153586203 1.5039457444 -1.1288248347
| 23> H -1.7091829682 -0.1324162606 1.4356061529
| 24> H -2.8928025773 -0.0320071298 0.1272845202
| 25> H -1.6363229824 -2.1427083652 -0.0866458752
| 26> H -1.1838757003 -1.0671828193 -1.4141728006
| 27> H 0.3850839422 -1.6154542796 1.1425843297
| 28> H 0.872131387 -1.9902545788 -0.5063959127
| 29> *
| 30>
| 31>                          ****END OF INPUT****

CARTESIAN COORDINATES (ANGSTROEM)
---------------------------------
  C      2.497204    0.047996    0.043070
  C      0.998657    0.075515    0.010289
  C      0.305917    1.201904   -0.081494
  C     -1.191027    1.275775   -0.107386
  C     -1.825162   -0.033277    0.354288
  C     -1.133589   -1.205392   -0.332082
  C      0.326899   -1.267714    0.105742
  H      2.844014   -0.472013    0.935323
  H      2.907214    1.054330    0.041377
  H      2.883561   -0.487843   -0.823468
  H      0.822591    2.150174   -0.158175
  H     -1.525578    2.101634    0.525751
  H     -1.515359    1.503946   -1.128825
  H     -1.709183   -0.132416    1.435606
  H     -2.892803   -0.032007    0.127285
  H     -1.636323   -2.142708   -0.086646
  H     -1.183876   -1.067183   -1.414173
  H      0.385084   -1.615454    1.142584
  H      0.872131   -1.990255   -0.506396

 Total Charge           Charge          ....    0
 Multiplicity           Mult            ....    1
 Number of Electrons    NEL             ....   54
 Basis Dimension        Dim             ....  193

ORBITAL ENERGIES
----------------

  NO   OCC          E(Eh)            E(eV)
   0   2.0000     -10.026096      -272.8239
   1   2.0000     -10.018580      -272.6194
   2   2.0000     -10.018077      -272.6057
   3   2.0000     -10.015113      -272.5251
   4   2.0000     -10.014761      -272.5155
   5   2.0000     -10.012756      -272.4609
   6   2.0000     -10.009677      -272.3772
   7   2.0000      -0.799347       -21.7514
   8   2.0000      -0.726466       -19.7681
   9   2.0000      -0.699998       -19.0479
  10   2.0000      -0.638461       -17.3734
  11   2.0000      -0.577237       -15.7074
  12   2.0000      -0.546447       -14.8696
  13   2.0000      -0.468419       -12.7463
  14   2.0000      -0.437848       -11.9144
  15   2.0000      -0.405319       -11.0293
  16   2.0000      -0.392129       -10.6704
  17   2.0000      -0.390323       -10.6212
  18   2.0000      -0.371058       -10.0970
  19   2.0000      -0.353624        -9.6226
  20   2.0000      -0.334730        -9.1085
  21   2.0000      -0.332179        -9.0390
  22   2.0000      -0.321759        -8.7555
  23   2.0000      -0.289798        -7.8858
  24   2.0000      -0.275204        -7.4887
  25   2.0000      -0.262440        -7.1414
  26   2.0000      -0.206583        -5.6214
  27   0.0000       0.007350         0.2000
  28   0.0000       0.089987         2.4487
  29   0.0000       0.119088         3.2406
  30   0.0000       0.126409         3.4398
  31   0.0000       0.131106         3.5676

MULLIKEN ATOMIC CHARGES
-----------------------
   0 C :   -0.536128
   1 C :    0.080658
   2 C :   -0.282167
   3 C :   -0.288413
   4 C :   -0.313378
   5 C :   -0.309718
   6 C :   -0.333759
   7 H :    0.162558
   8 H :    0.164367
   9 H :    0.170773
  10 H :    0.171740
  11 H :    0.160007
  12 H :    0.162205
  13 H :    0.161603
  14 H :    0.160880
  15 H :    0.161603
  16 H :    0.162690
  17 H :    0.179787
  18 H :    0.164690
Sum of atomic charges:    0.0000000

LOEWDIN ATOMIC CHARGES
----------------------
   0 C :   -0.402069
   1 C :   -0.138268
   2 C :   -0.228087
   3 C :   -0.297210
   4 C :   -0.301691
   5 C :   -0.298762
   6 C :   -0.287124
   7 H :    0.164154
   8 H :    0.160969
   9 H :    0.163801
  10 H :    0.167253
  11 H :    0.162580
  12 H :    0.164768
  13 H :    0.158859
  14 H :    0.157179
  15 H :    0.157049
  16 H :    0.159533
  17 H :    0.170399
  18 H :    0.166666

  Mayer bond orders larger than 0.100000
B(  0-C ,  1-C ) :   0.8417 B(  0-C ,  7-H ) :   0.9655 B(  0-C ,  8-H ) :   0.9952
B(  0-C ,  9-H ) :   0.9668 B(  1-C ,  2-C ) :   1.8754 B(  1-C ,  6-C ) :   0.8663
B(  2-C ,  3-C ) :   0.9322 B(  2-C , 10-H ) :   0.9433 B(  3-C ,  4-C ) :   0.9185
B(  3-C , 11-H ) :   0.9686 B(  3-C , 12-H ) :   0.9591 B(  4-C ,  5-C ) :   0.8452
B(  4-C , 13-H ) :   0.9977 B(  4-C , 14-H ) :   0.9654 B(  5-C ,  6-C ) :   0.9093
B(  5-C , 15-H ) :   0.9681 B(  5-C , 16-H ) :   0.9996 B(  6-C , 17-H ) :   0.9767
B(  6-C , 18-H ) :   0.9760

Dispersion correction           -0.005438956
FINAL SINGLE POINT ENERGY      -273.869943487872

DIPOLE MOMENT
-------------

Method             : SCF
Type of density    : Electron Density
Multiplicity       :   1
Irrep              :   0
Energy             :  -273.8719383111927073 Eh
Relativity type    :
Basis              : AO
                                X                 Y                 Z
Electronic contribution:     -0.267042433       0.876574106      -0.072233075
Nuclear contribution   :      0.235922486      -1.059934852       0.084663904
                        -----------------------------------------
Total Dipole Moment    :     -0.031119948      -0.183360746       0.012430829
                        -----------------------------------------
Magnitude (a.u.)       :      0.186397800
Magnitude (Debye)      :      0.473785556

Rotational constants in cm-1:             0.151578             0.076406             0.054780
Rotational constants in MHz :          4544.184953          2290.608890          1642.255765

                             ****ORCA TERMINATED NORMALLY****
TOTAL RUN TIME: 0 days 0 hours 0 minutes 19 seconds 565 msec
