                         Program Version 6.0.0  -   RELEASE  -
|  1> ! r2scan-3c def2/J RI DEFGRID2 scfconv6 printgap
|  2> %output
|  3>     printlevel normal
|  4> end
|  5> * xyz 0 1
|  6> C -3.020165514 -1.5013424235 0.0033325978
|  7> C -1.7477836398 -0.7030025016 -0.0007596494
|  8> C -0.5515351794 -1.3754595097 -0.0016982137
|  9> C 0.687092937 -0.7076218942 -0.0015697187
| 10> C 1.919853612 -1.3930567879 -0.001260996
| 11> C 3.1001703887 -0.7038355233 0.0006916291
| 12> C 3.1017859276 0.7004847739 0.001978966
| 13> C 1.9230178818 1.3924861065 0.0007716861
| 14> C 0.6886963079 0.7102490174 -0.0009471818
| 15> C -0.5482100851 1.3829504317 -0.0013805761
| 16> C -1.7464354683 0.7150379187 -0.0009539716
| 17> C -3.0304225512 1.4906132027 0.0002303063
| 18> H -3.0614313224 -2.1249626731 0.8952716162
| 19> H -3.9021384298 -0.8722316006 -0.0175847431
| 20> H -3.0450290592 -2.1614426863 -0.8623408389
| 21> H -0.5504748841 -2.4571661815 -0.0019743527
| 22> H 1.9134562158 -2.4738437377 -0.0020675467
| 23> H 4.0414727686 -1.2336751232 0.0016485513
| 24> H 4.0442883163 1.2281835473 0.0039981249
| 25> H 1.9195263703 2.4733317042 0.0015549727
| 26> H -0.5378718291 2.4645376505 -0.001287091
| 27> H -3.6233794839 1.2550226776 -0.882206814
| 28> H -3.6216054706 1.2549612301 0.883800599
| 29> H -2.8250641262 2.5578752715 -0.0001611429
| 30> *
| 31>
| 32>                          ****END OF INPUT****

CARTESIAN COORDINATES (ANGSTROEM)
---------------------------------
  C     -3.020166   -1.501342    0.003333
  C     -1.747784   -0.703003   -0.000760
  C     -0.551535   -1.375460   -0.001698
  C      0.687093   -0.707622   -0.001570
  C      1.919854   -1.393057   -0.001261
  C      3.100170   -0.703836    0.000692
  C      3.101786    0.700485    0.001979
  C      1.923018    1.392486    0.000772
  C      0.688696    0.710249   -0.000947
  C     -0.548210    1.382950   -0.001381
  C     -1.746435    0.715038   -0.000954
  C     -3.030423    1.490613    0.000230
  H     -3.061431   -2.124963    0.895272
  H     -3.902138   -0.872232   -0.017585
  H     -3.045029   -2.161443   -0.862341
  H     -0.550475   -2.457166   -0.001974
  H      1.913456   -2.473844   -0.002068
  H      4.041473   -1.233675    0.001649
  H      4.044288    1.228184    0.003998
  H      1.919526    2.473332    0.001555
  H     -0.537872    2.464538   -0.001287
  H     -3.623379    1.255023   -0.882207
  H     -3.621605    1.254961    0.883801
  H     -2.825064    2.557875   -0.000161

 Total Charge           Charge          ....    0
 Multiplicity           Mult            ....    1
 Number of Electrons    NEL             ....   84
 Basis Dimension        Dim             ....  288

ORBITAL ENERGIES
----------------

  NO   OCC          E(Eh)            E(eV)
   0   2.0000     -10.043128      -273.2874
   1   2.0000     -10.042689      -273.2755
   2   2.0000     -10.039438      -273.1870
   3   2.0000     -10.038926      -273.1731
   4   2.0000     -10.031619      -272.9742
   5   2.0000     -10.031571      -272.9729
   6   2.0000     -10.030529      -272.9446
   7   2.0000     -10.030144      -272.9341
   8   2.0000     -10.029298      -272.9111
   9   2.0000     -10.028733      -272.8957
  10   2.0000     -10.028469      -272.8885
  11   2.0000     -10.028075      -272.8778
  12   2.0000      -0.844882       -22.9904
  13   2.0000      -0.800791       -21.7906
  14   2.0000      -0.746863       -20.3232
  15   2.0000      -0.733326       -19.9548
  16   2.0000      -0.710842       -19.3430
  17   2.0000      -0.653651       -17.7867
  18   2.0000      -0.653078       -17.7712
  19   2.0000      -0.576206       -15.6793
  20   2.0000      -0.565448       -15.3866
  21   2.0000      -0.559053       -15.2126
  22   2.0000      -0.484636       -13.1876
  23   2.0000      -0.460347       -12.5267
  24   2.0000      -0.452835       -12.3223
  25   2.0000      -0.416733       -11.3399
  26   2.0000      -0.412690       -11.2299
  27   2.0000      -0.407095       -11.0776
  28   2.0000      -0.386309       -10.5120
  29   2.0000      -0.383682       -10.4405
  30   2.0000      -0.379981       -10.3398
  31   2.0000      -0.358011        -9.7420
  32   2.0000      -0.357708        -9.7337
  33   2.0000      -0.355950        -9.6859
  34   2.0000      -0.351426        -9.5628
  35   2.0000      -0.327010        -8.8984
  36   2.0000      -0.299063        -8.1379
  37   2.0000      -0.294553        -8.0152
  38   2.0000      -0.291617        -7.9353
  39   2.0000      -0.262140        -7.1332
  40   2.0000      -0.218936        -5.9575
  41   2.0000      -0.195516        -5.3202
  42   0.0000      -0.061773        -1.6809
  43   0.0000      -0.029361        -0.7990
  44   0.0000      -0.000215        -0.0059
  45   0.0000       0.066407         1.8070
  46   0.0000       0.082349         2.2408

MULLIKEN ATOMIC CHARGES
-----------------------
   0 C :   -0.589877
   1 C :    0.200388
   2 C :   -0.294937
   3 C :    0.224968
   4 C :   -0.266985
   5 C :   -0.154232
   6 C :   -0.150891
   7 C :   -0.265091
   8 C :    0.213839
   9 C :   -0.334912
  10 C :    0.190344
  11 C :   -0.613266
  12 H :    0.169358
  13 H :    0.158213
  14 H :    0.167495
  15 H :    0.140455
  16 H :    0.142461
  17 H :    0.144474
  18 H :    0.144613
  19 H :    0.142529
  20 H :    0.141502
  21 H :    0.168923
  22 H :    0.169169
  23 H :    0.151457
Sum of atomic charges:   -0.0000000

LOEWDIN ATOMIC CHARGES
----------------------
   0 C :   -0.389974
   1 C :   -0.089868
   2 C :   -0.140197
   3 C :   -0.057392
   4 C :   -0.147867
   5 C :   -0.169039
   6 C :   -0.169497
   7 C :   -0.147031
   8 C :   -0.058093
   9 C :   -0.145000
  10 C :   -0.090513
  11 C :   -0.391525
  12 H :    0.167465
  13 H :    0.160637
  14 H :    0.167181
  15 H :    0.171644
  16 H :    0.169414
  17 H :    0.166789
  18 H :    0.166780
  19 H :    0.169491
  20 H :    0.170072
  21 H :    0.163084
  22 H :    0.163204
  23 H :    0.160235

  Mayer bond orders larger than 0.100000
B(  0-C ,  1-C ) :   0.7652 B(  0-C , 12-H ) :   0.9822 B(  0-C , 13-H ) :   0.9805
B(  0-C , 14-H ) :   0.9836 B(  1-C ,  2-C ) :   1.4720 B(  1-C , 10-C ) :   1.3228
B(  2-C ,  3-C ) :   1.2177 B(  2-C , 15-H ) :   0.9403 B(  3-C ,  4-C ) :   1.1963
B(  3-C ,  8-C ) :   1.4984 B(  4-C ,  5-C ) :   1.5102 B(  4-C , 16-H ) :   0.9510
B(  5-C ,  6-C ) :   1.2692 B(  5-C , 17-H ) :   0.9483 B(  6-C ,  7-C ) :   1.5044
B(  6-C , 18-H ) :   0.9480 B(  7-C ,  8-C ) :   1.2078 B(  7-C , 19-H ) :   0.9494
B(  8-C ,  9-C ) :   1.2580 B(  9-C , 10-C ) :   1.4906 B(  9-C , 20-H ) :   0.9157
B( 10-C , 11-C ) :   0.7495 B( 11-C , 21-H ) :   0.9814 B( 11-C , 22-H ) :   0.9808
B( 11-C , 23-H ) :   0.9854

Dispersion correction           -0.009510146
FINAL SINGLE POINT ENERGY      -464.387367207149

DIPOLE MOMENT
-------------

Method             : SCF
Type of density    : Electron Density
Multiplicity       :   1
Irrep              :   0
Energy             :  -464.3850013860852641 Eh
Relativity type    :
Basis              : AO
                                X                 Y                 Z
Electronic contribution:      8.275017039       0.049627998      -0.014522506
Nuclear contribution   :     -8.676424274      -0.083881635       0.017498108
                        -----------------------------------------
Total Dipole Moment    :     -0.401407235      -0.034253637       0.002975602
                        -----------------------------------------
Magnitude (a.u.)       :      0.402877071
Magnitude (Debye)      :      1.024032134

Rotational constants in cm-1:             0.072483             0.022651             0.017369
Rotational constants in MHz :          2172.982541           679.068852           520.720834

                             ****ORCA TERMINATED NORMALLY****
TOTAL RUN TIME: 0 days 0 hours 0 minutes 29 seconds 504 msec
