                         Program Version 6.0.0  -   RELEASE  -
|  1> ! r2scan-3c def2/J RI DEFGRID2 scfconv6 printgap
|  2> %output
|  3>     printlevel normal
|  4> end
|  5> %cpcm
|  6>     smd true
|  7>     smdsolvent "water"
|  8> end
|  9> * xyz 0 1
| 10> C -3.020165514 -1.5013424235 0.0033325978
| 11> C -1.7477836398 -0.7030025016 -0.0007596494
| 12> C -0.5515351794 -1.3754595097 -0.0016982137
| 13> C 0.687092937 -0.7076218942 -0.0015697187
| 14> C 1.919853612 -1.3930567879 -0.001260996
| 15> C 3.1001703887 -0.7038355233 0.0006916291
| 16> C 3.1017859276 0.7004847739 0.001978966
| 17> C 1.9230178818 1.3924861065 0.0007716861
| 18> C 0.6886963079 0.7102490174 -0.0009471818
| 19> C -0.5482100851 1.3829504317 -0.0013805761
| 20> C -1.7464354683 0.7150379187 -0.0009539716
| 21> C -3.0304225512 1.4906132027 0.0002303063
| 22> H -3.0614313224 -2.1249626731 0.8952716162
| 23> H -3.9021384298 -0.8722316006 -0.0175847431
| 24> H -3.0450290592 -2.1614426863 -0.8623408389
| 25> H -0.5504748841 -2.4571661815 -0.0019743527
| 26> H 1.9134562158 -2.4738437377 -0.0020675467
| 27> H 4.0414727686 -1.2336751232 0.0016485513
| 28> H 4.0442883163 1.2281835473 0.0039981249
| 29> H 1.9195263703 2.4733317042 0.0015549727
| 30> H -0.5378718291 2.4645376505 -0.001287091
| 31> H -3.6233794839 1.2550226776 -0.882206814
| 32> H -3.6216054706 1.2549612301 0.883800599
| 33> H -2.8250641262 2.5578752715 -0.0001611429
| 34> *
| 35>
| 36>                          ****END OF INPUT****

CARTESIAN COORDINATES (ANGSTROEM)
---------------------------------
  C     -3.020166   -1.501342    0.003333
  C     -1.747784   -0.703003   -0.000760
  C     -0.551535   -1.375460   -0.001698
  C      0.687093   -0.707622   -0.001570
  C      1.919854   -1.393057   -0.001261
  C      3.100170   -0.703836    0.000692
  C      3.101786    0.700485    0.001979
  C      1.923018    1.392486    0.000772
  C      0.688696    0.710249   -0.000947
  C     -0.548210    1.382950   -0.001381
  C     -1.746435    0.715038   -0.000954
  C     -3.030423    1.490613    0.000230
  H     -3.061431   -2.124963    0.895272
  H     -3.902138   -0.872232   -0.017585
  H     -3.045029   -2.161443   -0.862341
  H     -0.550475   -2.457166   -0.001974
  H      1.913456   -2.473844   -0.002068
  H      4.041473   -1.233675    0.001649
  H      4.044288    1.228184    0.003998
  H      1.919526    2.473332    0.001555
  H     -0.537872    2.464538   -0.001287
  H     -3.623379    1.255023   -0.882207
  H     -3.621605    1.254961    0.883801
  H     -2.825064    2.557875   -0.000161

 Total Charge           Charge          ....    0
 Multiplicity           Mult            ....    1
 Number of Electrons    NEL             ....   84
 Basis Dimension        Dim             ....  288

ORBITAL ENERGIES
----------------

  NO   OCC          E(Eh)            E(eV)
   0   2.0000     -10.042919      -273.2817
   1   2.0000     -10.042485      -273.2699
   2   2.0000     -10.040517      -273.2164
   3   2.0000     -10.040033      -273.2032
   4   2.0000     -10.032231      -272.9909
   5   2.0000     -10.032144      -272.9885
   6   2.0000     -10.031276      -272.9649
   7   2.0000     -10.030904      -272.9548
   8   2.0000     -10.027155      -272.8528
   9   2.0000     -10.026934      -272.8467
  10   2.0000     -10.018433      -272.6154
  11   2.0000     -10.017378      -272.5867
  12   2.0000      -0.846807       -23.0428
  13   2.0000      -0.801145       -21.8003
  14   2.0000      -0.746339       -20.3089
  15   2.0000      -0.732353       -19.9283
  16   2.0000      -0.708460       -19.2782
  17   2.0000      -0.649935       -17.6856
  18   2.0000      -0.649282       -17.6679
  19   2.0000      -0.574030       -15.6201
  20   2.0000      -0.564444       -15.3593
  21   2.0000      -0.557691       -15.1755
  22   2.0000      -0.482743       -13.1361
  23   2.0000      -0.457540       -12.4503
  24   2.0000      -0.450964       -12.2714
  25   2.0000      -0.413067       -11.2401
  26   2.0000      -0.408940       -11.1278
  27   2.0000      -0.401165       -10.9163
  28   2.0000      -0.383904       -10.4466
  29   2.0000      -0.380753       -10.3608
  30   2.0000      -0.369806       -10.0629
  31   2.0000      -0.361399        -9.8342
  32   2.0000      -0.352241        -9.5850
  33   2.0000      -0.349997        -9.5239
  34   2.0000      -0.342458        -9.3187
  35   2.0000      -0.323089        -8.7917
  36   2.0000      -0.296471        -8.0674
  37   2.0000      -0.294066        -8.0019
  38   2.0000      -0.291724        -7.9382
  39   2.0000      -0.266324        -7.2470
  40   2.0000      -0.221614        -6.0304
  41   2.0000      -0.198674        -5.4062
  42   0.0000      -0.064465        -1.7542
  43   0.0000      -0.032259        -0.8778
  44   0.0000      -0.003270        -0.0890
  45   0.0000       0.066137         1.7997
  46   0.0000       0.092455         2.5158

MULLIKEN ATOMIC CHARGES
-----------------------
   0 C :   -0.605370
   1 C :    0.188054
   2 C :   -0.304397
   3 C :    0.175842
   4 C :   -0.285751
   5 C :   -0.191190
   6 C :   -0.186695
   7 C :   -0.284282
   8 C :    0.175833
   9 C :   -0.350802
  10 C :    0.158085
  11 C :   -0.625029
  12 H :    0.183596
  13 H :    0.176010
  14 H :    0.181801
  15 H :    0.172250
  16 H :    0.176162
  17 H :    0.176435
  18 H :    0.176651
  19 H :    0.176358
  20 H :    0.174673
  21 H :    0.185812
  22 H :    0.185811
  23 H :    0.170143
Sum of atomic charges:   -0.0000000

LOEWDIN ATOMIC CHARGES
----------------------
   0 C :   -0.392422
   1 C :   -0.091435
   2 C :   -0.148571
   3 C :   -0.074632
   4 C :   -0.157496
   5 C :   -0.180919
   6 C :   -0.181423
   7 C :   -0.156912
   8 C :   -0.075299
   9 C :   -0.155729
  10 C :   -0.093679
  11 C :   -0.395307
  12 H :    0.173395
  13 H :    0.166882
  14 H :    0.173053
  15 H :    0.183572
  16 H :    0.181303
  17 H :    0.177499
  18 H :    0.177465
  19 H :    0.181326
  20 H :    0.182420
  21 H :    0.170570
  22 H :    0.170607
  23 H :    0.165732

  Mayer bond orders larger than 0.100000
B(  0-C ,  1-C ) :   0.7919 B(  0-C , 12-H ) :   0.9732 B(  0-C , 13-H ) :   0.9773
B(  0-C , 14-H ) :   0.9746 B(  1-C ,  2-C ) :   1.4517 B(  1-C , 10-C ) :   1.2604
B(  2-C ,  3-C ) :   1.2173 B(  2-C , 15-H ) :   0.9583 B(  3-C ,  4-C ) :   1.1949
B(  3-C ,  8-C ) :   1.3961 B(  4-C ,  5-C ) :   1.4733 B(  4-C , 16-H ) :   0.9609
B(  5-C ,  6-C ) :   1.2311 B(  5-C , 17-H ) :   0.9616 B(  6-C ,  7-C ) :   1.4674
B(  6-C , 18-H ) :   0.9609 B(  7-C ,  8-C ) :   1.2056 B(  7-C , 19-H ) :   0.9591
B(  8-C ,  9-C ) :   1.2423 B(  9-C , 10-C ) :   1.4692 B(  9-C , 20-H ) :   0.9415
B( 10-C , 11-C ) :   0.7872 B( 11-C , 21-H ) :   0.9709 B( 11-C , 22-H ) :   0.9705
B( 11-C , 23-H ) :   0.9811

Dispersion correction           -0.009510146
FINAL SINGLE POINT ENERGY      -464.390639776783

DIPOLE MOMENT
-------------

Method             : SCF
Type of density    : Electron Density
Multiplicity       :   1
Irrep              :   0
Energy             :  -464.3882739557192849 Eh
Relativity type    :
Basis              : AO
                                X                 Y                 Z
Electronic contribution:      8.043397700       0.029755167      -0.013297667
Nuclear contribution   :     -8.676424274      -0.083881635       0.017498108
                        -----------------------------------------
Total Dipole Moment    :     -0.633026574      -0.054126468       0.004200441
                        -----------------------------------------
Magnitude (a.u.)       :      0.635350267
Magnitude (Debye)      :      1.614932037

Rotational constants in cm-1:             0.072483             0.022651             0.017369
Rotational constants in MHz :          2172.982541           679.068852           520.720834

                             ****ORCA TERMINATED NORMALLY****
TOTAL RUN TIME: 0 days 0 hours 0 minutes 37 seconds 328 msec
