                         Program Version 6.0.0  -   RELEASE  -
|  1> ! r2scan-3c def2/J RI DEFGRID2 scfconv6 printgap
|  2> %output
|  3>     printlevel normal
|  4> end
|  5> * xyz 0 1
|  6> C 2.0144832962 0.7728236003 -0.0003629882
|  7> C 0.7847830721 -0.0912495486 -0.0001718395
|  8> O 0.8416383266 -1.3106705168 0.001195171
|  9> C -0.4954547601 0.6437266781 -0.0018969926
| 10> C -1.6673233768 0.027916385 -0.7401254795
| 11> C -1.6667349112 0.0324628045 0.7411334528
| 12> H 2.0060038095 1.4117649227 0.8793992143
| 13> H 2.9081911813 0.1552572619 0.0009843078
| 14> H 2.00743879 1.4098113202 -0.8815519258
| 15> H -0.4099319481 1.720783679 -0.0048887573
| 16> H -2.3237304227 0.6987273224 -1.2706427546
| 17> H -1.4745999448 -0.9089719234 -1.2407966422
| 18> H -2.3226475177 0.7067126625 1.2679065034
| 19> H -1.473814992 -0.9012607298 1.2475853984
| 20> *
| 21>
| 22>                          ****END OF INPUT****

CARTESIAN COORDINATES (ANGSTROEM)
---------------------------------
  C      2.014483    0.772824   -0.000363
  C      0.784783   -0.091250   -0.000172
  O      0.841638   -1.310671    0.001195
  C     -0.495455    0.643727   -0.001897
  C     -1.667323    0.027916   -0.740125
  C     -1.666735    0.032463    0.741133
  H      2.006004    1.411765    0.879399
  H      2.908191    0.155257    0.000984
  H      2.007439    1.409811   -0.881552
  H     -0.409932    1.720784   -0.004889
  H     -2.323730    0.698727   -1.270643
  H     -1.474600   -0.908972   -1.240797
  H     -2.322648    0.706713    1.267907
  H     -1.473815   -0.901261    1.247585

 Total Charge           Charge          ....    0
 Multiplicity           Mult            ....    1
 Number of Electrons    NEL             ....   46
 Basis Dimension        Dim             ....  159

ORBITAL ENERGIES
----------------

  NO   OCC          E(Eh)            E(eV)
   0   2.0000     -18.929480      -515.0973
   1   2.0000     -10.116317      -275.2790
   2   2.0000     -10.052278      -273.5364
   3   2.0000     -10.047585      -273.4087
   4   2.0000     -10.047369      -273.4028
   5   2.0000     -10.033433      -273.0236
   6   2.0000      -0.996932       -27.1279
   7   2.0000      -0.840854       -22.8808
   8   2.0000      -0.723334       -19.6829
   9   2.0000      -0.613014       -16.6810
  10   2.0000      -0.579668       -15.7736
  11   2.0000      -0.504224       -13.7206
  12   2.0000      -0.474370       -12.9083
  13   2.0000      -0.444923       -12.1070
  14   2.0000      -0.415947       -11.3185
  15   2.0000      -0.391828       -10.6622
  16   2.0000      -0.383735       -10.4420
  17   2.0000      -0.349650        -9.5145
  18   2.0000      -0.348728        -9.4894
  19   2.0000      -0.328512        -8.9393
  20   2.0000      -0.288862        -7.8603
  21   2.0000      -0.273251        -7.4355
  22   2.0000      -0.214299        -5.8314
  23   0.0000      -0.044601        -1.2136
  24   0.0000       0.074717         2.0331
  25   0.0000       0.099866         2.7175
  26   0.0000       0.104411         2.8412
  27   0.0000       0.108861         2.9623

MULLIKEN ATOMIC CHARGES
-----------------------
   0 C :   -0.508748
   1 C :    0.312382
   2 O :   -0.396478
   3 C :   -0.075921
   4 C :   -0.350922
   5 C :   -0.350456
   6 H :    0.162137
   7 H :    0.177718
   8 H :    0.162166
   9 H :    0.171520
  10 H :    0.163589
  11 H :    0.184770
  12 H :    0.163582
  13 H :    0.184660
Sum of atomic charges:   -0.0000000

LOEWDIN ATOMIC CHARGES
----------------------
   0 C :   -0.382647
   1 C :    0.225441
   2 O :   -0.488364
   3 C :   -0.208444
   4 C :   -0.258703
   5 C :   -0.258630
   6 H :    0.172938
   7 H :    0.173793
   8 H :    0.172925
   9 H :    0.169530
  10 H :    0.162784
  11 H :    0.178340
  12 H :    0.162783
  13 H :    0.178254

  Mayer bond orders larger than 0.100000
B(  0-C ,  1-C ) :   0.9173 B(  0-C ,  6-H ) :   0.9507 B(  0-C ,  7-H ) :   0.9848
B(  0-C ,  8-H ) :   0.9507 B(  1-C ,  2-O ) :   1.9379 B(  1-C ,  3-C ) :   0.9888
B(  3-C ,  4-C ) :   0.8713 B(  3-C ,  5-C ) :   0.8714 B(  3-C ,  9-H ) :   0.8963
B(  4-C ,  5-C ) :   1.0040 B(  4-C , 10-H ) :   0.9486 B(  4-C , 11-H ) :   0.9579
B(  5-C , 12-H ) :   0.9486 B(  5-C , 13-H ) :   0.9579

Dispersion correction           -0.003206085
FINAL SINGLE POINT ENERGY      -270.474196997607

DIPOLE MOMENT
-------------

Method             : SCF
Type of density    : Electron Density
Multiplicity       :   1
Irrep              :   0
Energy             :  -270.4763775099900158 Eh
Relativity type    :
Basis              : AO
                                X                 Y                 Z
Electronic contribution:      0.728129870      -2.867924032       0.000825873
Nuclear contribution   :     -1.003622706       4.007939921      -0.001862958
                        -----------------------------------------
Total Dipole Moment    :     -0.275492835       1.140015889      -0.001037085
                        -----------------------------------------
Magnitude (a.u.)       :      1.172831448
Magnitude (Debye)      :      2.981100629

Rotational constants in cm-1:             0.239000             0.088556             0.077089
Rotational constants in MHz :          7165.036332          2654.840931          2311.061038

                             ****ORCA TERMINATED NORMALLY****
TOTAL RUN TIME: 0 days 0 hours 0 minutes 20 seconds 414 msec
