                         Program Version 6.0.0  -   RELEASE  -
|  1> ! r2scan-3c def2/J RI DEFGRID2 scfconv6 printgap
|  2> %output
|  3>     printlevel normal
|  4> end
|  5> %cpcm
|  6>     smd true
|  7>     smdsolvent "water"
|  8> end
|  9> * xyz 0 1
| 10> C 2.0144832962 0.7728236003 -0.0003629882
| 11> C 0.7847830721 -0.0912495486 -0.0001718395
| 12> O 0.8416383266 -1.3106705168 0.001195171
| 13> C -0.4954547601 0.6437266781 -0.0018969926
| 14> C -1.6673233768 0.027916385 -0.7401254795
| 15> C -1.6667349112 0.0324628045 0.7411334528
| 16> H 2.0060038095 1.4117649227 0.8793992143
| 17> H 2.9081911813 0.1552572619 0.0009843078
| 18> H 2.00743879 1.4098113202 -0.8815519258
| 19> H -0.4099319481 1.720783679 -0.0048887573
| 20> H -2.3237304227 0.6987273224 -1.2706427546
| 21> H -1.4745999448 -0.9089719234 -1.2407966422
| 22> H -2.3226475177 0.7067126625 1.2679065034
| 23> H -1.473814992 -0.9012607298 1.2475853984
| 24> *
| 25>
| 26>                          ****END OF INPUT****

CARTESIAN COORDINATES (ANGSTROEM)
---------------------------------
  C      2.014483    0.772824   -0.000363
  C      0.784783   -0.091250   -0.000172
  O      0.841638   -1.310671    0.001195
  C     -0.495455    0.643727   -0.001897
  C     -1.667323    0.027916   -0.740125
  C     -1.666735    0.032463    0.741133
  H      2.006004    1.411765    0.879399
  H      2.908191    0.155257    0.000984
  H      2.007439    1.409811   -0.881552
  H     -0.409932    1.720784   -0.004889
  H     -2.323730    0.698727   -1.270643
  H     -1.474600   -0.908972   -1.240797
  H     -2.322648    0.706713    1.267907
  H     -1.473815   -0.901261    1.247585

 Total Charge           Charge          ....    0
 Multiplicity           Mult            ....    1
 Number of Electrons    NEL             ....   46
 Basis Dimension        Dim             ....  159

ORBITAL ENERGIES
----------------

  NO   OCC          E(Eh)            E(eV)
   0   2.0000     -18.942142      -515.4419
   1   2.0000     -10.123580      -275.4766
   2   2.0000     -10.045622      -273.3553
   3   2.0000     -10.040441      -273.2143
   4   2.0000     -10.040228      -273.2085
   5   2.0000     -10.023107      -272.7426
   6   2.0000      -1.011034       -27.5116
   7   2.0000      -0.835295       -22.7295
   8   2.0000      -0.716857       -19.5067
   9   2.0000      -0.607255       -16.5242
  10   2.0000      -0.572183       -15.5699
  11   2.0000      -0.500581       -13.6215
  12   2.0000      -0.467479       -12.7207
  13   2.0000      -0.447520       -12.1776
  14   2.0000      -0.410992       -11.1837
  15   2.0000      -0.397717       -10.8224
  16   2.0000      -0.375307       -10.2126
  17   2.0000      -0.347343        -9.4517
  18   2.0000      -0.344492        -9.3741
  19   2.0000      -0.325884        -8.8677
  20   2.0000      -0.283218        -7.7067
  21   2.0000      -0.272365        -7.4114
  22   2.0000      -0.227256        -6.1839
  23   0.0000      -0.048843        -1.3291
  24   0.0000       0.086382         2.3506
  25   0.0000       0.106148         2.8884
  26   0.0000       0.110832         3.0159
  27   0.0000       0.118273         3.2184

MULLIKEN ATOMIC CHARGES
-----------------------
   0 C :   -0.530352
   1 C :    0.342995
   2 O :   -0.498887
   3 C :   -0.080909
   4 C :   -0.385400
   5 C :   -0.384936
   6 H :    0.192740
   7 H :    0.178035
   8 H :    0.192787
   9 H :    0.207582
  10 H :    0.193173
  11 H :    0.189988
  12 H :    0.193181
  13 H :    0.190004
Sum of atomic charges:   -0.0000000

LOEWDIN ATOMIC CHARGES
----------------------
   0 C :   -0.379271
   1 C :    0.238281
   2 O :   -0.566520
   3 C :   -0.201380
   4 C :   -0.261904
   5 C :   -0.261782
   6 H :    0.187131
   7 H :    0.173245
   8 H :    0.187127
   9 H :    0.184076
  10 H :    0.173551
  11 H :    0.176961
  12 H :    0.173558
  13 H :    0.176927

  Mayer bond orders larger than 0.100000
B(  0-C ,  1-C ) :   0.9377 B(  0-C ,  6-H ) :   0.9354 B(  0-C ,  7-H ) :   0.9819
B(  0-C ,  8-H ) :   0.9355 B(  1-C ,  2-O ) :   1.8497 B(  1-C ,  3-C ) :   1.0172
B(  3-C ,  4-C ) :   0.8522 B(  3-C ,  5-C ) :   0.8522 B(  3-C ,  9-H ) :   0.8918
B(  4-C ,  5-C ) :   0.9867 B(  4-C , 10-H ) :   0.9401 B(  4-C , 11-H ) :   0.9587
B(  5-C , 12-H ) :   0.9401 B(  5-C , 13-H ) :   0.9587

Dispersion correction           -0.003206085
FINAL SINGLE POINT ENERGY      -270.482304687252

DIPOLE MOMENT
-------------

Method             : SCF
Type of density    : Electron Density
Multiplicity       :   1
Irrep              :   0
Energy             :  -270.4844851996349462 Eh
Relativity type    :
Basis              : AO
                                X                 Y                 Z
Electronic contribution:      0.617626395      -2.281958791       0.000329692
Nuclear contribution   :     -1.003622706       4.007939921      -0.001862958
                        -----------------------------------------
Total Dipole Moment    :     -0.385996311       1.725981130      -0.001533266
                        -----------------------------------------
Magnitude (a.u.)       :      1.768617076
Magnitude (Debye)      :      4.495467348

Rotational constants in cm-1:             0.239000             0.088556             0.077089
Rotational constants in MHz :          7165.036332          2654.840931          2311.061038

                             ****ORCA TERMINATED NORMALLY****
TOTAL RUN TIME: 0 days 0 hours 0 minutes 21 seconds 541 msec
