                         Program Version 6.0.0  -   RELEASE  -
|  1> ! wb97x-v def2-tzvp def2/J RIJCOSX DEFGRID2 scfconv7 GCP(DFT/TZ) printgap
|  2> %output
|  3>     printlevel normal
|  4> end
|  5> * xyz 0 1
|  6> C -2.507357633116445 0.07944802148921261 -0.005027112966154525
|  7> C -1.0991734241794309 -0.5121504108305922 -0.034689017027918996
|  8> C -0.045664874395052 0.5817805763454079 0.055840356791815385
|  9> S 1.6917267966922984 -0.04740032552727649 -0.02970583274608633
| 10> H -3.2640648785769892 -0.7093092022219719 -0.057818620022400874
| 11> H -2.676932563624612 0.6471676087450337 0.9160968755970949
| 12> H -2.666128491939609 0.7557849349152329 -0.8518273158180101
| 13> H -0.9505804474975428 -1.0861665844627948 -0.955969225129012
| 14> H -0.9703654749238646 -1.20892998461705 0.8023972376471484
| 15> H -0.13096541083977464 1.274254286300879 -0.7884842205882822
| 16> H -0.16066001057762025 1.1634427323322807 0.9753600655046046
| 17> H 1.6302406185332703 -0.8136001916451734 1.0760622382101948
| 18> *
| 19>
| 20>                          ****END OF INPUT****

CARTESIAN COORDINATES (ANGSTROEM)
---------------------------------
  C     -2.507358    0.079448   -0.005027
  C     -1.099173   -0.512150   -0.034689
  C     -0.045665    0.581781    0.055840
  S      1.691727   -0.047400   -0.029706
  H     -3.264065   -0.709309   -0.057819
  H     -2.676933    0.647168    0.916097
  H     -2.666128    0.755785   -0.851827
  H     -0.950580   -1.086167   -0.955969
  H     -0.970365   -1.208930    0.802397
  H     -0.130965    1.274254   -0.788484
  H     -0.160660    1.163443    0.975360
  H      1.630241   -0.813600    1.076062

 Total Charge           Charge          ....    0
 Multiplicity           Mult            ....    1
 Number of Electrons    NEL             ....   42
 Basis Dimension        Dim             ....  178

ORBITAL ENERGIES
----------------

  NO   OCC          E(Eh)            E(eV)
   0   2.0000     -94.118509     -2561.0948
   1   2.0000     -12.081046      -328.7420
   2   2.0000     -12.052190      -327.9568
   3   2.0000     -12.042455      -327.6919
   4   2.0000      -9.629754      -262.0389
   5   2.0000      -7.607410      -207.0081
   6   2.0000      -7.606246      -206.9765
   7   2.0000      -7.605757      -206.9632
   8   2.0000      -1.313414       -35.7398
   9   2.0000      -1.237485       -33.6737
  10   2.0000      -1.144798       -31.1515
  11   2.0000      -1.063564       -28.9410
  12   2.0000      -0.904244       -24.6057
  13   2.0000      -0.874171       -23.7874
  14   2.0000      -0.855084       -23.2680
  15   2.0000      -0.836518       -22.7628
  16   2.0000      -0.805669       -21.9234
  17   2.0000      -0.784763       -21.3545
  18   2.0000      -0.765147       -20.8207
  19   2.0000      -0.746620       -20.3166
  20   2.0000      -0.643358       -17.5067
  21   0.0000      -0.199993        -5.4421
  22   0.0000      -0.105614        -2.8739
  23   0.0000      -0.025343        -0.6896
  24   0.0000      -0.008081        -0.2199
  25   0.0000       0.004583         0.1247

MULLIKEN ATOMIC CHARGES
-----------------------
   0 C :   -0.340511
   1 C :   -0.152418
   2 C :   -0.179199
   3 S :   -0.217114
   4 H :    0.118005
   5 H :    0.106095
   6 H :    0.107991
   7 H :    0.104619
   8 H :    0.085952
   9 H :    0.116299
  10 H :    0.120944
  11 H :    0.129336
Sum of atomic charges:   -0.0000000

LOEWDIN ATOMIC CHARGES
----------------------
   0 C :   -0.306772
   1 C :   -0.326356
   2 C :   -0.471760
   3 S :    0.214780
   4 H :    0.118163
   5 H :    0.116274
   6 H :    0.116992
   7 H :    0.132643
   8 H :    0.128925
   9 H :    0.126233
  10 H :    0.120133
  11 H :    0.030746

  Mayer bond orders larger than 0.100000
B(  0-C ,  1-C ) :   0.9758 B(  0-C ,  4-H ) :   0.9801 B(  0-C ,  5-H ) :   0.9778
B(  0-C ,  6-H ) :   0.9803 B(  1-C ,  2-C ) :   0.9762 B(  1-C ,  7-H ) :   0.9714
B(  1-C ,  8-H ) :   0.9705 B(  2-C ,  3-S ) :   1.0461 B(  2-C ,  9-H ) :   0.9606
B(  2-C , 10-H ) :   0.9688 B(  3-S , 11-H ) :   0.9719

FINAL SINGLE POINT ENERGY      -517.280959526310

DIPOLE MOMENT
-------------

Method             : SCF
Type of density    : Electron Density
Multiplicity       :   1
Irrep              :   0
Energy             :  -517.2892174817100113 Eh
Relativity type    :
Basis              : AO
                                X                 Y                 Z
Electronic contribution:      8.124878633      -0.008318007      -0.756918538
Nuclear contribution   :     -8.779007697      -0.006221886       1.011758160
                        -----------------------------------------
Total Dipole Moment    :     -0.654129063      -0.014539893       0.254839621
                        -----------------------------------------
Magnitude (a.u.)       :      0.702167695
Magnitude (Debye)      :      1.784768443

Rotational constants in cm-1:             0.796073             0.077514             0.074362
Rotational constants in MHz :         23865.656200          2323.806049          2229.313206

                             ****ORCA TERMINATED NORMALLY****
TOTAL RUN TIME: 0 days 0 hours 0 minutes 45 seconds 748 msec
