                         Program Version 6.0.0  -   RELEASE  -
|  1> ! wb97x-v def2-tzvp def2/J RIJCOSX DEFGRID2 scfconv7 GCP(DFT/TZ) printgap
|  2> %output
|  3>     printlevel normal
|  4> end
|  5> %cpcm
|  6>     smd true
|  7>     smdsolvent "water"
|  8> end
|  9> * xyz 0 1
| 10> C -2.507357633116445 0.07944802148921261 -0.005027112966154525
| 11> C -1.0991734241794309 -0.5121504108305922 -0.034689017027918996
| 12> C -0.045664874395052 0.5817805763454079 0.055840356791815385
| 13> S 1.6917267966922984 -0.04740032552727649 -0.02970583274608633
| 14> H -3.2640648785769892 -0.7093092022219719 -0.057818620022400874
| 15> H -2.676932563624612 0.6471676087450337 0.9160968755970949
| 16> H -2.666128491939609 0.7557849349152329 -0.8518273158180101
| 17> H -0.9505804474975428 -1.0861665844627948 -0.955969225129012
| 18> H -0.9703654749238646 -1.20892998461705 0.8023972376471484
| 19> H -0.13096541083977464 1.274254286300879 -0.7884842205882822
| 20> H -0.16066001057762025 1.1634427323322807 0.9753600655046046
| 21> H 1.6302406185332703 -0.8136001916451734 1.0760622382101948
| 22> *
| 23>
| 24>                          ****END OF INPUT****

CARTESIAN COORDINATES (ANGSTROEM)
---------------------------------
  C     -2.507358    0.079448   -0.005027
  C     -1.099173   -0.512150   -0.034689
  C     -0.045665    0.581781    0.055840
  S      1.691727   -0.047400   -0.029706
  H     -3.264065   -0.709309   -0.057819
  H     -2.676933    0.647168    0.916097
  H     -2.666128    0.755785   -0.851827
  H     -0.950580   -1.086167   -0.955969
  H     -0.970365   -1.208930    0.802397
  H     -0.130965    1.274254   -0.788484
  H     -0.160660    1.163443    0.975360
  H      1.630241   -0.813600    1.076062

 Total Charge           Charge          ....    0
 Multiplicity           Mult            ....    1
 Number of Electrons    NEL             ....   42
 Basis Dimension        Dim             ....  178

ORBITAL ENERGIES
----------------

  NO   OCC          E(Eh)            E(eV)
   0   2.0000     -94.116176     -2561.0313
   1   2.0000     -12.069554      -328.4293
   2   2.0000     -12.038962      -327.5968
   3   2.0000     -12.027568      -327.2868
   4   2.0000      -9.627566      -261.9794
   5   2.0000      -7.605244      -206.9492
   6   2.0000      -7.604089      -206.9178
   7   2.0000      -7.603820      -206.9105
   8   2.0000      -1.302149       -35.4333
   9   2.0000      -1.229002       -33.4428
  10   2.0000      -1.134819       -30.8800
  11   2.0000      -1.051200       -28.6046
  12   2.0000      -0.891375       -24.2556
  13   2.0000      -0.862309       -23.4646
  14   2.0000      -0.842902       -22.9365
  15   2.0000      -0.824193       -22.4274
  16   2.0000      -0.795037       -21.6341
  17   2.0000      -0.771610       -20.9966
  18   2.0000      -0.752376       -20.4732
  19   2.0000      -0.740807       -20.1584
  20   2.0000      -0.642084       -17.4720
  21   0.0000      -0.194645        -5.2966
  22   0.0000      -0.097191        -2.6447
  23   0.0000      -0.012159        -0.3309
  24   0.0000       0.003930         0.1069
  25   0.0000       0.018556         0.5049

MULLIKEN ATOMIC CHARGES
-----------------------
   0 C :   -0.391620
   1 C :   -0.162780
   2 C :   -0.186733
   3 S :   -0.296637
   4 H :    0.131412
   5 H :    0.123185
   6 H :    0.123513
   7 H :    0.104994
   8 H :    0.105576
   9 H :    0.142528
  10 H :    0.141837
  11 H :    0.164725
Sum of atomic charges:   -0.0000000

LOEWDIN ATOMIC CHARGES
----------------------
   0 C :   -0.311055
   1 C :   -0.326428
   2 C :   -0.466290
   3 S :    0.177414
   4 H :    0.120029
   5 H :    0.119556
   6 H :    0.119745
   7 H :    0.131778
   8 H :    0.133142
   9 H :    0.132519
  10 H :    0.126333
  11 H :    0.043257

  Mayer bond orders larger than 0.100000
B(  0-C ,  1-C ) :   0.9777 B(  0-C ,  4-H ) :   0.9769 B(  0-C ,  5-H ) :   0.9765
B(  0-C ,  6-H ) :   0.9780 B(  1-C ,  2-C ) :   0.9775 B(  1-C ,  7-H ) :   0.9690
B(  1-C ,  8-H ) :   0.9691 B(  2-C ,  3-S ) :   1.0206 B(  2-C ,  9-H ) :   0.9548
B(  2-C , 10-H ) :   0.9659 B(  3-S , 11-H ) :   0.9665

FINAL SINGLE POINT ENERGY      -517.282957856730

DIPOLE MOMENT
-------------

Method             : SCF
Type of density    : Electron Density
Multiplicity       :   1
Irrep              :   0
Energy             :  -517.2912158121296216 Eh
Relativity type    :
Basis              : AO
                                X                 Y                 Z
Electronic contribution:      7.925666865       0.020972386      -0.653328221
Nuclear contribution   :     -8.779007697      -0.006221886       1.011758160
                        -----------------------------------------
Total Dipole Moment    :     -0.853340832       0.014750501       0.358429938
                        -----------------------------------------
Magnitude (a.u.)       :      0.925678223
Magnitude (Debye)      :      2.352887057

Rotational constants in cm-1:             0.796073             0.077514             0.074362
Rotational constants in MHz :         23865.656200          2323.806049          2229.313206

                             ****ORCA TERMINATED NORMALLY****
TOTAL RUN TIME: 0 days 0 hours 0 minutes 48 seconds 8 msec
