                         Program Version 6.0.0  -   RELEASE  -
|  1> ! r2scan-3c def2/J RI DEFGRID2 scfconv6 printgap
|  2> %output
|  3>     printlevel normal
|  4> end
|  5> %cpcm
|  6>     smd true
|  7>     smdsolvent "water"
|  8> end
|  9> * xyz 0 1
| 10> C 1.4436778152 0.96852478 0.0208946055
| 11> C 0.7624231832 -0.3695619588 -0.0038906839
| 12> O 1.4053276933 -1.4110065965 -0.0177345135
| 13> C -0.7112605056 -0.4128064624 -0.0144022496
| 14> C -1.555265052 0.5876021711 0.7479171475
| 15> C -1.5465436217 0.6255788955 -0.7338095945
| 16> H 1.1737020474 1.5412673098 -0.8621639986
| 17> H 1.1391049521 1.5298070325 0.8997505001
| 18> H 2.5200939556 0.8220172585 0.039938061
| 19> H -1.07694673 -1.4332237279 -0.0414475533
| 20> H -2.4239391204 0.1973627697 1.2543230943
| 21> H -1.0479799456 1.369142714 1.289279721
| 22> H -2.4094739596 0.2625134847 -1.269420918
| 23> H -1.0330170815 1.4338638571 -1.2278616295
| 24> *
| 25>
| 26>                          ****END OF INPUT****

CARTESIAN COORDINATES (ANGSTROEM)
---------------------------------
  C      1.443678    0.968525    0.020895
  C      0.762423   -0.369562   -0.003891
  O      1.405328   -1.411007   -0.017735
  C     -0.711261   -0.412806   -0.014402
  C     -1.555265    0.587602    0.747917
  C     -1.546544    0.625579   -0.733810
  H      1.173702    1.541267   -0.862164
  H      1.139105    1.529807    0.899751
  H      2.520094    0.822017    0.039938
  H     -1.076947   -1.433224   -0.041448
  H     -2.423939    0.197363    1.254323
  H     -1.047980    1.369143    1.289280
  H     -2.409474    0.262513   -1.269421
  H     -1.033017    1.433864   -1.227862

 Total Charge           Charge          ....    0
 Multiplicity           Mult            ....    1
 Number of Electrons    NEL             ....   46
 Basis Dimension        Dim             ....  159

ORBITAL ENERGIES
----------------

  NO   OCC          E(Eh)            E(eV)
   0   2.0000     -18.941905      -515.4354
   1   2.0000     -10.124769      -275.5090
   2   2.0000     -10.047559      -273.4080
   3   2.0000     -10.041401      -273.2404
   4   2.0000     -10.041169      -273.2341
   5   2.0000     -10.022583      -272.7283
   6   2.0000      -1.009330       -27.4653
   7   2.0000      -0.839539       -22.8450
   8   2.0000      -0.708966       -19.2919
   9   2.0000      -0.616216       -16.7681
  10   2.0000      -0.574226       -15.6255
  11   2.0000      -0.502347       -13.6696
  12   2.0000      -0.463018       -12.5994
  13   2.0000      -0.453863       -12.3502
  14   2.0000      -0.411183       -11.1889
  15   2.0000      -0.399117       -10.8605
  16   2.0000      -0.372553       -10.1377
  17   2.0000      -0.343747        -9.3538
  18   2.0000      -0.341812        -9.3012
  19   2.0000      -0.328381        -8.9357
  20   2.0000      -0.289322        -7.8728
  21   2.0000      -0.274187        -7.4610
  22   2.0000      -0.224226        -6.1015
  23   0.0000      -0.048808        -1.3281
  24   0.0000       0.092285         2.5112
  25   0.0000       0.105119         2.8604
  26   0.0000       0.110776         3.0144
  27   0.0000       0.111099         3.0231

MULLIKEN ATOMIC CHARGES
-----------------------
   0 C :   -0.565341
   1 C :    0.351274
   2 O :   -0.475035
   3 C :   -0.130374
   4 C :   -0.369202
   5 C :   -0.366975
   6 H :    0.198977
   7 H :    0.198608
   8 H :    0.181161
   9 H :    0.204302
  10 H :    0.194833
  11 H :    0.191453
  12 H :    0.194846
  13 H :    0.191475
Sum of atomic charges:   -0.0000000

LOEWDIN ATOMIC CHARGES
----------------------
   0 C :   -0.383471
   1 C :    0.237308
   2 O :   -0.563880
   3 C :   -0.191220
   4 C :   -0.270449
   5 C :   -0.270616
   6 H :    0.187638
   7 H :    0.186953
   8 H :    0.177323
   9 H :    0.188965
  10 H :    0.175511
  11 H :    0.175095
  12 H :    0.175548
  13 H :    0.175296

  Mayer bond orders larger than 0.100000
B(  0-C ,  1-C ) :   0.9241 B(  0-C ,  6-H ) :   0.9354 B(  0-C ,  7-H ) :   0.9377
B(  0-C ,  8-H ) :   0.9706 B(  1-C ,  2-O ) :   1.8354 B(  1-C ,  3-C ) :   1.0287
B(  3-C ,  4-C ) :   0.8652 B(  3-C ,  5-C ) :   0.8663 B(  3-C ,  9-H ) :   0.9097
B(  4-C ,  5-C ) :   0.9423 B(  4-C , 10-H ) :   0.9351 B(  4-C , 11-H ) :   0.9530
B(  5-C , 12-H ) :   0.9353 B(  5-C , 13-H ) :   0.9523

Dispersion correction           -0.003322118
FINAL SINGLE POINT ENERGY      -270.480005331689

DIPOLE MOMENT
-------------

Method             : SCF
Type of density    : Electron Density
Multiplicity       :   1
Irrep              :   0
Energy             :  -270.4822745746739088 Eh
Relativity type    :
Basis              : AO
                                X                 Y                 Z
Electronic contribution:      1.731069273      -3.703451132      -0.057411672
Nuclear contribution   :     -2.942299466       5.347967514       0.077039428
                        -----------------------------------------
Total Dipole Moment    :     -1.211230193       1.644516382       0.019627756
                        -----------------------------------------
Magnitude (a.u.)       :      2.042522450
Magnitude (Debye)      :      5.191679478

Rotational constants in cm-1:             0.221000             0.091130             0.077000
Rotational constants in MHz :          6625.419062          2731.998931          2308.389818

                             ****ORCA TERMINATED NORMALLY****
TOTAL RUN TIME: 0 days 0 hours 0 minutes 21 seconds 326 msec
