                         Program Version 6.0.0  -   RELEASE  -
|  1> ! wb97x-v def2-tzvp def2/J RIJCOSX DEFGRID2 scfconv7 GCP(DFT/TZ) printgap
|  2> %output
|  3>     printlevel normal
|  4> end
|  5> * xyz 0 1
|  6> C 1.9774945793638576 -0.8635483308064724 -0.4744853485614733
|  7> O 1.090815745008269 0.30045824709644725 -0.4979567907062625
|  8> S -0.3479174439636504 0.08066624815771054 0.24003016587105575
|  9> O -0.1355009542112743 -0.07387572456409132 1.6893644488707649
| 10> O -1.0888494460583034 -0.9919891580043375 -0.4466623542460871
| 11> C -1.054525490789216 1.6761104555628397 -0.1288967833234498
| 12> H 2.2143907148875077 -1.1409406996475826 0.5558461384338368
| 13> H 2.8776683991918204 -0.5301281499927152 -0.9894030876325021
| 14> H 1.521935819304051 -1.697474875993429 -1.01401257086498
| 15> H -0.41955496996382796 2.448131480186943 0.31111530235734164
| 16> H -1.124402792160968 1.7818960306145621 -1.2135265202803096
| 17> H -2.048400591260744 1.6850054077540453 0.32663247027450526
| 18> *
| 19>
| 20>                          ****END OF INPUT****

CARTESIAN COORDINATES (ANGSTROEM)
---------------------------------
  C      1.977495   -0.863548   -0.474485
  O      1.090816    0.300458   -0.497957
  S     -0.347917    0.080666    0.240030
  O     -0.135501   -0.073876    1.689364
  O     -1.088849   -0.991989   -0.446662
  C     -1.054525    1.676110   -0.128897
  H      2.214391   -1.140941    0.555846
  H      2.877668   -0.530128   -0.989403
  H      1.521936   -1.697475   -1.014013
  H     -0.419555    2.448131    0.311115
  H     -1.124403    1.781896   -1.213527
  H     -2.048401    1.685005    0.326632

 Total Charge           Charge          ....    0
 Multiplicity           Mult            ....    1
 Number of Electrons    NEL             ....   58
 Basis Dimension        Dim             ....  228

ORBITAL ENERGIES
----------------

  NO   OCC          E(Eh)            E(eV)
   0   2.0000     -94.351831     -2567.4438
   1   2.0000     -21.736050      -591.4680
   2   2.0000     -21.672591      -589.7412
   3   2.0000     -21.672358      -589.7349
   4   2.0000     -12.119713      -329.7942
   5   2.0000     -12.104322      -329.3753
   6   2.0000      -9.829633      -267.4779
   7   2.0000      -7.811935      -212.5736
   8   2.0000      -7.809462      -212.5063
   9   2.0000      -7.808889      -212.4907
  10   2.0000      -1.771614       -48.2081
  11   2.0000      -1.706713       -46.4420
  12   2.0000      -1.676284       -45.6140
  13   2.0000      -1.335078       -36.3293
  14   2.0000      -1.246881       -33.9294
  15   2.0000      -1.172094       -31.8943
  16   2.0000      -1.083997       -29.4971
  17   2.0000      -1.061618       -28.8881
  18   2.0000      -1.025224       -27.8978
  19   2.0000      -0.990504       -26.9530
  20   2.0000      -0.979835       -26.6627
  21   2.0000      -0.926012       -25.1981
  22   2.0000      -0.909627       -24.7522
  23   2.0000      -0.896346       -24.3908
  24   2.0000      -0.884906       -24.0795
  25   2.0000      -0.875845       -23.8330
  26   2.0000      -0.869875       -23.6705
  27   2.0000      -0.849859       -23.1258
  28   2.0000      -0.841768       -22.9057
  29   0.0000      -0.360720        -9.8157
  30   0.0000      -0.281032        -7.6473
  31   0.0000      -0.223076        -6.0702
  32   0.0000      -0.220620        -6.0034
  33   0.0000      -0.177046        -4.8177

MULLIKEN ATOMIC CHARGES
-----------------------
   0 C :   -0.207849
   1 O :   -0.274522
   2 S :    0.816591
   3 O :   -0.446502
   4 O :   -0.449656
   5 C :   -0.349278
   6 H :    0.147695
   7 H :    0.135972
   8 H :    0.149081
   9 H :    0.159058
  10 H :    0.158586
  11 H :    0.160824
Sum of atomic charges:    0.0000000

LOEWDIN ATOMIC CHARGES
----------------------
   0 C :   -0.318569
   1 O :   -0.043033
   2 S :    0.655485
   3 O :   -0.310586
   4 O :   -0.311243
   5 C :   -0.393533
   6 H :    0.110713
   7 H :    0.114337
   8 H :    0.110591
   9 H :    0.127557
  10 H :    0.127330
  11 H :    0.130951

  Mayer bond orders larger than 0.100000
B(  0-C ,  1-O ) :   0.9042 B(  0-C ,  6-H ) :   0.9712 B(  0-C ,  7-H ) :   0.9687
B(  0-C ,  8-H ) :   0.9715 B(  1-O ,  2-S ) :   1.0563 B(  2-S ,  3-O ) :   1.8939
B(  2-S ,  4-O ) :   1.8837 B(  2-S ,  5-C ) :   0.9039 B(  5-C ,  9-H ) :   0.9487
B(  5-C , 10-H ) :   0.9487 B(  5-C , 11-H ) :   0.9502

FINAL SINGLE POINT ENERGY      -703.641752024564

DIPOLE MOMENT
-------------

Method             : SCF
Type of density    : Electron Density
Multiplicity       :   1
Irrep              :   0
Energy             :  -703.6512056639644470 Eh
Relativity type    :
Basis              : AO
                                X                 Y                 Z
Electronic contribution:     -2.239362276      -1.269753633       1.715053226
Nuclear contribution   :      2.799823641       2.238707805      -2.423330178
                        -----------------------------------------
Total Dipole Moment    :      0.560461365       0.968954172      -0.708276951
                        -----------------------------------------
Magnitude (a.u.)       :      1.324630276
Magnitude (Debye)      :      3.366942586

Rotational constants in cm-1:             0.146104             0.084471             0.081296
Rotational constants in MHz :          4380.097455          2532.372263          2437.207600

                             ****ORCA TERMINATED NORMALLY****
TOTAL RUN TIME: 0 days 0 hours 1 minutes 11 seconds 26 msec
