                         Program Version 6.0.0  -   RELEASE  -
|  1> ! wb97x-v def2-tzvp def2/J RIJCOSX DEFGRID2 scfconv7 GCP(DFT/TZ) printgap
|  2> %output
|  3>     printlevel normal
|  4> end
|  5> %cpcm
|  6>     smd true
|  7>     smdsolvent "water"
|  8> end
|  9> * xyz 0 1
| 10> C 1.9774945793638576 -0.8635483308064724 -0.4744853485614733
| 11> O 1.090815745008269 0.30045824709644725 -0.4979567907062625
| 12> S -0.3479174439636504 0.08066624815771054 0.24003016587105575
| 13> O -0.1355009542112743 -0.07387572456409132 1.6893644488707649
| 14> O -1.0888494460583034 -0.9919891580043375 -0.4466623542460871
| 15> C -1.054525490789216 1.6761104555628397 -0.1288967833234498
| 16> H 2.2143907148875077 -1.1409406996475826 0.5558461384338368
| 17> H 2.8776683991918204 -0.5301281499927152 -0.9894030876325021
| 18> H 1.521935819304051 -1.697474875993429 -1.01401257086498
| 19> H -0.41955496996382796 2.448131480186943 0.31111530235734164
| 20> H -1.124402792160968 1.7818960306145621 -1.2135265202803096
| 21> H -2.048400591260744 1.6850054077540453 0.32663247027450526
| 22> *
| 23>
| 24>                          ****END OF INPUT****

CARTESIAN COORDINATES (ANGSTROEM)
---------------------------------
  C      1.977495   -0.863548   -0.474485
  O      1.090816    0.300458   -0.497957
  S     -0.347917    0.080666    0.240030
  O     -0.135501   -0.073876    1.689364
  O     -1.088849   -0.991989   -0.446662
  C     -1.054525    1.676110   -0.128897
  H      2.214391   -1.140941    0.555846
  H      2.877668   -0.530128   -0.989403
  H      1.521936   -1.697475   -1.014013
  H     -0.419555    2.448131    0.311115
  H     -1.124403    1.781896   -1.213527
  H     -2.048401    1.685005    0.326632

 Total Charge           Charge          ....    0
 Multiplicity           Mult            ....    1
 Number of Electrons    NEL             ....   58
 Basis Dimension        Dim             ....  228

ORBITAL ENERGIES
----------------

  NO   OCC          E(Eh)            E(eV)
   0   2.0000     -94.361119     -2567.6966
   1   2.0000     -21.736531      -591.4811
   2   2.0000     -21.687706      -590.1525
   3   2.0000     -21.687613      -590.1500
   4   2.0000     -12.103771      -329.3604
   5   2.0000     -12.086551      -328.8918
   6   2.0000      -9.839092      -267.7353
   7   2.0000      -7.821206      -212.8258
   8   2.0000      -7.818729      -212.7584
   9   2.0000      -7.818654      -212.7564
  10   2.0000      -1.781627       -48.4805
  11   2.0000      -1.712936       -46.6114
  12   2.0000      -1.693799       -46.0906
  13   2.0000      -1.332764       -36.2664
  14   2.0000      -1.234970       -33.6052
  15   2.0000      -1.174616       -31.9629
  16   2.0000      -1.087939       -29.6043
  17   2.0000      -1.080021       -29.3889
  18   2.0000      -1.022710       -27.8294
  19   2.0000      -0.991350       -26.9760
  20   2.0000      -0.980990       -26.6941
  21   2.0000      -0.941604       -25.6223
  22   2.0000      -0.923754       -25.1366
  23   2.0000      -0.914101       -24.8739
  24   2.0000      -0.877243       -23.8710
  25   2.0000      -0.863940       -23.5090
  26   2.0000      -0.863078       -23.4855
  27   2.0000      -0.836636       -22.7660
  28   2.0000      -0.828766       -22.5519
  29   0.0000      -0.367155        -9.9908
  30   0.0000      -0.288190        -7.8420
  31   0.0000      -0.228491        -6.2176
  32   0.0000      -0.216810        -5.8997
  33   0.0000      -0.167870        -4.5680

MULLIKEN ATOMIC CHARGES
-----------------------
   0 C :   -0.230767
   1 O :   -0.284071
   2 S :    0.869184
   3 O :   -0.523457
   4 O :   -0.525161
   5 C :   -0.373552
   6 H :    0.159498
   7 H :    0.168897
   8 H :    0.160054
   9 H :    0.193400
  10 H :    0.193221
  11 H :    0.192754
Sum of atomic charges:    0.0000000

LOEWDIN ATOMIC CHARGES
----------------------
   0 C :   -0.313141
   1 O :   -0.043266
   2 S :    0.673845
   3 O :   -0.358522
   4 O :   -0.358297
   5 C :   -0.377499
   6 H :    0.114380
   7 H :    0.125627
   8 H :    0.114055
   9 H :    0.140361
  10 H :    0.140180
  11 H :    0.142278

  Mayer bond orders larger than 0.100000
B(  0-C ,  1-O ) :   0.8751 B(  0-C ,  6-H ) :   0.9670 B(  0-C ,  7-H ) :   0.9617
B(  0-C ,  8-H ) :   0.9682 B(  1-O ,  2-S ) :   1.0862 B(  2-S ,  3-O ) :   1.8207
B(  2-S ,  4-O ) :   1.8140 B(  2-S ,  5-C ) :   0.9296 B(  5-C ,  9-H ) :   0.9334
B(  5-C , 10-H ) :   0.9337 B(  5-C , 11-H ) :   0.9317

FINAL SINGLE POINT ENERGY      -703.657684240034

DIPOLE MOMENT
-------------

Method             : SCF
Type of density    : Electron Density
Multiplicity       :   1
Irrep              :   0
Energy             :  -703.6671378794342218 Eh
Relativity type    :
Basis              : AO
                                X                 Y                 Z
Electronic contribution:     -2.093889078      -0.902868331       1.481757877
Nuclear contribution   :      2.799823641       2.238707805      -2.423330178
                        -----------------------------------------
Total Dipole Moment    :      0.705934562       1.335839475      -0.941572301
                        -----------------------------------------
Magnitude (a.u.)       :      1.780272200
Magnitude (Debye)      :      4.525092317

Rotational constants in cm-1:             0.146104             0.084471             0.081296
Rotational constants in MHz :          4380.097455          2532.372263          2437.207600

                             ****ORCA TERMINATED NORMALLY****
TOTAL RUN TIME: 0 days 0 hours 1 minutes 15 seconds 679 msec
