                         Program Version 6.0.0  -   RELEASE  -
|  1> ! pbe def2-sv(p) def2/J RI DEFGRID1 loosescf d4 GCP(DFT/SV(P)) printgap
|  2> %output
|  3>     printlevel normal
|  4> end
|  5> * xyz 0 1
|  6> C -0.4589895111 -0.9669990795 0.0040580479
|  7> C 0.745918275 -0.0481606754 0.0003223101
|  8> F 0.801064857 0.7565935532 1.0709636913
|  9> F 0.7997193284 0.7478553334 -1.076776002
| 10> F 1.8927535568 -0.7527817603 0.0023521106
| 11> Cl -1.9438605261 0.0309413657 -2.53285e-05
| 12> H -0.4477969184 -1.5841308028 -0.8943150269
| 13> H -0.4473927922 -1.5754018412 0.9082294579
| 14> *
| 15>
| 16>                          ****END OF INPUT****

CARTESIAN COORDINATES (ANGSTROEM)
---------------------------------
  C     -0.458990   -0.966999    0.004058
  C      0.745918   -0.048161    0.000322
  F      0.801065    0.756594    1.070964
  F      0.799719    0.747855   -1.076776
  F      1.892754   -0.752782    0.002352
  Cl    -1.943861    0.030941   -0.000025
  H     -0.447797   -1.584131   -0.894315
  H     -0.447393   -1.575402    0.908229

 Total Charge           Charge          ....    0
 Multiplicity           Mult            ....    1
 Number of Electrons    NEL             ....   58
 Basis Dimension        Dim             ....   92

ORBITAL ENERGIES
----------------

  NO   OCC          E(Eh)            E(eV)
   0   2.0000    -100.648320     -2738.7800
   1   2.0000     -24.297674      -661.1733
   2   2.0000     -24.294710      -661.0927
   3   2.0000     -24.294601      -661.0897
   4   2.0000     -10.135656      -275.8052
   5   2.0000      -9.973887      -271.4033
   6   2.0000      -9.183633      -249.8994
   7   2.0000      -7.016029      -190.9158
   8   2.0000      -7.003073      -190.5633
   9   2.0000      -7.002724      -190.5538
  10   2.0000      -1.199923       -32.6516
  11   2.0000      -1.105739       -30.0887
  12   2.0000      -1.104941       -30.0670
  13   2.0000      -0.806200       -21.9378
  14   2.0000      -0.683454       -18.5977
  15   2.0000      -0.597675       -16.2636
  16   2.0000      -0.535936       -14.5835
  17   2.0000      -0.534670       -14.5491
  18   2.0000      -0.503364       -13.6972
  19   2.0000      -0.436615       -11.8809
  20   2.0000      -0.412182       -11.2160
  21   2.0000      -0.404499       -11.0070
  22   2.0000      -0.399978       -10.8839
  23   2.0000      -0.360730        -9.8160
  24   2.0000      -0.358635        -9.7590
  25   2.0000      -0.352979        -9.6050
  26   2.0000      -0.343771        -9.3545
  27   2.0000      -0.274264        -7.4631
  28   2.0000      -0.271608        -7.3908
  29   0.0000      -0.024166        -0.6576
  30   0.0000       0.040081         1.0907
  31   0.0000       0.056671         1.5421
  32   0.0000       0.132039         3.5930
  33   0.0000       0.133005         3.6192

MULLIKEN ATOMIC CHARGES
-----------------------
   0 C :   -0.212595
   1 C :    0.398264
   2 F :   -0.133652
   3 F :   -0.133641
   4 F :   -0.142071
   5 Cl:   -0.108132
   6 H :    0.165970
   7 H :    0.165856
Sum of atomic charges:    0.0000000

LOEWDIN ATOMIC CHARGES
----------------------
   0 C :   -0.313725
   1 C :    0.083200
   2 F :   -0.043070
   3 F :   -0.043040
   4 F :   -0.049373
   5 Cl:    0.070013
   6 H :    0.148018
   7 H :    0.147978

  Mayer bond orders larger than 0.100000
B(  0-C ,  1-C ) :   1.0112 B(  0-C ,  5-Cl) :   1.0603 B(  0-C ,  6-H ) :   0.9045
B(  0-C ,  7-H ) :   0.9045 B(  1-C ,  2-F ) :   1.1760 B(  1-C ,  3-F ) :   1.1761
B(  1-C ,  4-F ) :   1.1527

Dispersion correction           -0.005815953
FINAL SINGLE POINT ENERGY      -836.105908629396

DIPOLE MOMENT
-------------

Method             : SCF
Type of density    : Electron Density
Multiplicity       :   1
Irrep              :   0
Energy             :  -836.1508110789401371 Eh
Relativity type    :
Basis              : AO
                                X                 Y                 Z
Electronic contribution:      1.326445166       2.962716960      -0.012969032
Nuclear contribution   :     -1.467691082      -3.702188062       0.016294243
                        -----------------------------------------
Total Dipole Moment    :     -0.141245916      -0.739471102       0.003325211
                        -----------------------------------------
Magnitude (a.u.)       :      0.752847247
Magnitude (Debye)      :      1.913585626

Rotational constants in cm-1:             0.179249             0.059899             0.059239
Rotational constants in MHz :          5373.758179          1795.712853          1775.927114

                             ****ORCA TERMINATED NORMALLY****
TOTAL RUN TIME: 0 days 0 hours 0 minutes 4 seconds 560 msec
