                         Program Version 6.0.0  -   RELEASE  -
|  1> ! pbe def2-sv(p) def2/J RI DEFGRID1 loosescf d4 GCP(DFT/SV(P)) printgap
|  2> %output
|  3>     printlevel normal
|  4> end
|  5> * xyz 0 1
|  6> C -2.2779716428 -0.9955992992 0.755039304
|  7> C -0.8458760768 -0.4434319736 0.7691824252
|  8> H -0.6210444598 -0.0705574218 1.7802936158
|  9> C -0.6435782974 0.7001113494 -0.2354019573
| 10> H -0.6684696237 0.2856604781 -1.2512720081
| 11> C 0.7386860925 1.3054184715 0.0246537123
| 12> H 0.6606000902 1.8844289242 0.960226878
| 13> C 1.7961466534 0.2003393762 0.2261007398
| 14> H 2.6181794729 0.4074479521 -0.4718412308
| 15> C 1.2560225175 -1.1893817093 -0.1434036306
| 16> H 1.9726100727 -1.9387077745 0.2301214587
| 17> O 0.0450243093 -1.5187063039 0.4839605056
| 18> O 1.1514614192 -1.253993876 -1.5322509257
| 19> O 2.2495162765 0.125399277 1.5534119361
| 20> O 1.1617007618 2.1392304023 -1.023594232
| 21> O -1.595910416 1.7243027388 -0.0892964728
| 22> O -2.8338495201 -0.8736064636 -0.5367786879
| 23> H -2.8785544008 -0.4318617572 1.4793457493
| 24> H -2.2188392386 -2.0420616347 1.0687533911
| 25> H 0.863403331 -2.1423376825 -1.7954291483
| 26> H 2.7972667696 0.8991616838 1.7529464184
| 27> H 0.4516605112 2.7692602342 -1.2188109864
| 28> H -2.4475102343 1.390896398 -0.4101168845
| 29> H -3.6331689478 -1.4147755918 -0.5936345548
| 30> *
| 31>
| 32>                          ****END OF INPUT****

CARTESIAN COORDINATES (ANGSTROEM)
---------------------------------
  C     -2.277972   -0.995599    0.755039
  C     -0.845876   -0.443432    0.769182
  H     -0.621044   -0.070557    1.780294
  C     -0.643578    0.700111   -0.235402
  H     -0.668470    0.285660   -1.251272
  C      0.738686    1.305418    0.024654
  H      0.660600    1.884429    0.960227
  C      1.796147    0.200339    0.226101
  H      2.618179    0.407448   -0.471841
  C      1.256023   -1.189382   -0.143404
  H      1.972610   -1.938708    0.230121
  O      0.045024   -1.518706    0.483961
  O      1.151461   -1.253994   -1.532251
  O      2.249516    0.125399    1.553412
  O      1.161701    2.139230   -1.023594
  O     -1.595910    1.724303   -0.089296
  O     -2.833850   -0.873606   -0.536779
  H     -2.878554   -0.431862    1.479346
  H     -2.218839   -2.042062    1.068753
  H      0.863403   -2.142338   -1.795429
  H      2.797267    0.899162    1.752946
  H      0.451661    2.769260   -1.218811
  H     -2.447510    1.390896   -0.410117
  H     -3.633169   -1.414776   -0.593635

 Total Charge           Charge          ....    0
 Multiplicity           Mult            ....    1
 Number of Electrons    NEL             ....   96
 Basis Dimension        Dim             ....  192

ORBITAL ENERGIES
----------------

  NO   OCC          E(Eh)            E(eV)
   0   2.0000     -18.765202      -510.6271
   1   2.0000     -18.756418      -510.3881
   2   2.0000     -18.751055      -510.2422
   3   2.0000     -18.749664      -510.2043
   4   2.0000     -18.745827      -510.0999
   5   2.0000     -18.736422      -509.8440
   6   2.0000      -9.976119      -271.4640
   7   2.0000      -9.937618      -270.4163
   8   2.0000      -9.935886      -270.3692
   9   2.0000      -9.934899      -270.3423
  10   2.0000      -9.929148      -270.1858
  11   2.0000      -9.926049      -270.1015
  12   2.0000      -0.970543       -26.4098
  13   2.0000      -0.940089       -25.5811
  14   2.0000      -0.930431       -25.3183
  15   2.0000      -0.923143       -25.1200
  16   2.0000      -0.907376       -24.6910
  17   2.0000      -0.900899       -24.5147
  18   2.0000      -0.696773       -18.9602
  19   2.0000      -0.685363       -18.6497
  20   2.0000      -0.621033       -16.8992
  21   2.0000      -0.570946       -15.5362
  22   2.0000      -0.553124       -15.0513
  23   2.0000      -0.512381       -13.9426
  24   2.0000      -0.500485       -13.6189
  25   2.0000      -0.484606       -13.1868
  26   2.0000      -0.462590       -12.5877
  27   2.0000      -0.458592       -12.4789
  28   2.0000      -0.436344       -11.8735
  29   2.0000      -0.422121       -11.4865
  30   2.0000      -0.414189       -11.2707
  31   2.0000      -0.392456       -10.6793
  32   2.0000      -0.373153       -10.1540
  33   2.0000      -0.362324        -9.8593
  34   2.0000      -0.358399        -9.7525
  35   2.0000      -0.348038        -9.4706
  36   2.0000      -0.329310        -8.9610
  37   2.0000      -0.305309        -8.3079
  38   2.0000      -0.302753        -8.2383
  39   2.0000      -0.297008        -8.0820
  40   2.0000      -0.269082        -7.3221
  41   2.0000      -0.255971        -6.9653
  42   2.0000      -0.237048        -6.4504
  43   2.0000      -0.232213        -6.3189
  44   2.0000      -0.225171        -6.1272
  45   2.0000      -0.221983        -6.0405
  46   2.0000      -0.205946        -5.6041
  47   2.0000      -0.198859        -5.4112
  48   0.0000       0.009991         0.2719
  49   0.0000       0.029335         0.7983
  50   0.0000       0.041494         1.1291
  51   0.0000       0.048952         1.3321
  52   0.0000       0.065157         1.7730

MULLIKEN ATOMIC CHARGES
-----------------------
   0 C :    0.030515
   1 C :    0.032999
   2 H :    0.063620
   3 C :    0.043879
   4 H :    0.068859
   5 C :    0.071039
   6 H :    0.043707
   7 C :    0.054191
   8 H :    0.081904
   9 C :    0.161578
  10 H :    0.062934
  11 O :   -0.318244
  12 O :   -0.383154
  13 O :   -0.421386
  14 O :   -0.416673
  15 O :   -0.426890
  16 O :   -0.440889
  17 H :    0.075199
  18 H :    0.090162
  19 H :    0.301379
  20 H :    0.306708
  21 H :    0.302415
  22 H :    0.308575
  23 H :    0.307573
Sum of atomic charges:   -0.0000000

LOEWDIN ATOMIC CHARGES
----------------------
   0 C :   -0.131341
   1 C :   -0.058682
   2 H :    0.109580
   3 C :   -0.092760
   4 H :    0.113756
   5 C :   -0.065962
   6 H :    0.099110
   7 C :   -0.072854
   8 H :    0.119182
   9 C :   -0.001054
  10 H :    0.098796
  11 O :   -0.150102
  12 O :   -0.308934
  13 O :   -0.315832
  14 O :   -0.321218
  15 O :   -0.326562
  16 O :   -0.340152
  17 H :    0.099080
  18 H :    0.111593
  19 H :    0.285210
  20 H :    0.290435
  21 H :    0.284990
  22 H :    0.282007
  23 H :    0.291712

  Mayer bond orders larger than 0.100000
B(  0-C ,  1-C ) :   1.0494 B(  0-C , 16-O ) :   1.0697 B(  0-C , 17-H ) :   0.9137
B(  0-C , 18-H ) :   0.9169 B(  1-C ,  2-H ) :   0.8827 B(  1-C ,  3-C ) :   1.0332
B(  1-C , 11-O ) :   0.9797 B(  3-C ,  4-H ) :   0.8188 B(  3-C ,  5-C ) :   1.1129
B(  3-C , 15-O ) :   1.0844 B(  5-C ,  6-H ) :   0.8731 B(  5-C ,  7-C ) :   0.9704
B(  5-C , 14-O ) :   1.0887 B(  7-C ,  8-H ) :   0.8685 B(  7-C ,  9-C ) :   1.0551
B(  7-C , 13-O ) :   1.0562 B(  9-C , 10-H ) :   0.8941 B(  9-C , 11-O ) :   1.0606
B(  9-C , 12-O ) :   1.1378 B( 12-O , 19-H ) :   0.8419 B( 13-O , 20-H ) :   0.8489
B( 14-O , 21-H ) :   0.8413 B( 15-O , 22-H ) :   0.8293 B( 16-O , 23-H ) :   0.8470

Dispersion correction           -0.024683295
FINAL SINGLE POINT ENERGY      -685.690046506647

DIPOLE MOMENT
-------------

Method             : SCF
Type of density    : Electron Density
Multiplicity       :   1
Irrep              :   0
Energy             :  -685.8199866274657097 Eh
Relativity type    :
Basis              : AO
                                X                 Y                 Z
Electronic contribution:      1.938650173      -0.045644378      -1.319233610
Nuclear contribution   :     -2.909318816      -0.373425335       1.418991056
                        -----------------------------------------
Total Dipole Moment    :     -0.970668643      -0.419069714       0.099757446
                        -----------------------------------------
Magnitude (a.u.)       :      1.061964494
Magnitude (Debye)      :      2.699299228

Rotational constants in cm-1:             0.041477             0.026814             0.021814
Rotational constants in MHz :          1243.454683           803.873869           653.959330

                             ****ORCA TERMINATED NORMALLY****
TOTAL RUN TIME: 0 days 0 hours 0 minutes 12 seconds 192 msec
