                         Program Version 6.0.0  -   RELEASE  -
|  1> ! r2scan-3c def2/J RI DEFGRID2 scfconv6 printgap
|  2> %output
|  3>     printlevel normal
|  4> end
|  5> * xyz 0 1
|  6> C 3.2683878145 1.0752208671 0.0086855984
|  7> N 2.2784662372 0.0344923908 -0.0015211187
|  8> C 2.4777079147 -1.2908305737 0.0013597712
|  9> N 1.3618186715 -1.9973975148 0.0013979927
| 10> C 0.3780827111 -1.0735536775 -0.0003641221
| 11> C 0.9145790726 0.2105929499 -0.0007905695
| 12> C 0.091815852 1.3736900324 -0.0038673645
| 13> O 0.4597104227 2.5435292343 -0.0125539278
| 14> N -1.2643742721 1.0510880172 0.0025807409
| 15> C -1.820810504 -0.2199143632 0.0025711648
| 16> O -3.0327704458 -0.3865842586 0.0055864719
| 17> N -0.9647371725 -1.287348496 0.0019187217
| 18> C -1.5052840888 -2.6339572156 -0.0096293091
| 19> C -2.1806885079 2.1831758071 0.0048714624
| 20> H 3.0721818301 1.7757182231 -0.8025236986
| 21> H 3.2188644351 1.6269396452 0.947882548
| 22> H 4.2530488474 0.6310334526 -0.1088969121
| 23> H 3.450763903 -1.7384787977 0.0019186324
| 24> H -2.3081457797 -2.7016373204 0.7223182439
| 25> H -0.6946587548 -3.3140467131 0.2317348391
| 26> H -1.9108703858 -2.8637061626 -0.9945643946
| 27> H -3.1927004811 1.8013884846 -0.0941675105
| 28> H -1.932569927 2.8437350525 -0.824450362
| 29> H -2.0726035279 2.7370230072 0.936728671
| 30> *
| 31>
| 32>                          ****END OF INPUT****

CARTESIAN COORDINATES (ANGSTROEM)
---------------------------------
  C      3.268388    1.075221    0.008686
  N      2.278466    0.034492   -0.001521
  C      2.477708   -1.290831    0.001360
  N      1.361819   -1.997398    0.001398
  C      0.378083   -1.073554   -0.000364
  C      0.914579    0.210593   -0.000791
  C      0.091816    1.373690   -0.003867
  O      0.459710    2.543529   -0.012554
  N     -1.264374    1.051088    0.002581
  C     -1.820811   -0.219914    0.002571
  O     -3.032770   -0.386584    0.005586
  N     -0.964737   -1.287348    0.001919
  C     -1.505284   -2.633957   -0.009629
  C     -2.180689    2.183176    0.004871
  H      3.072182    1.775718   -0.802524
  H      3.218864    1.626940    0.947883
  H      4.253049    0.631033   -0.108897
  H      3.450764   -1.738479    0.001919
  H     -2.308146   -2.701637    0.722318
  H     -0.694659   -3.314047    0.231735
  H     -1.910870   -2.863706   -0.994564
  H     -3.192700    1.801388   -0.094168
  H     -1.932570    2.843735   -0.824450
  H     -2.072604    2.737023    0.936729

 Total Charge           Charge          ....    0
 Multiplicity           Mult            ....    1
 Number of Electrons    NEL             ....  102
 Basis Dimension        Dim             ....  346

ORBITAL ENERGIES
----------------

  NO   OCC          E(Eh)            E(eV)
   0   2.0000     -18.923126      -514.9244
   1   2.0000     -18.918712      -514.8043
   2   2.0000     -14.250743      -387.7824
   3   2.0000     -14.228982      -387.1903
   4   2.0000     -14.219583      -386.9345
   5   2.0000     -14.165629      -385.4664
   6   2.0000     -10.167841      -276.6810
   7   2.0000     -10.145720      -276.0791
   8   2.0000     -10.115095      -275.2457
   9   2.0000     -10.112254      -275.1684
  10   2.0000     -10.092520      -274.6314
  11   2.0000     -10.077393      -274.2198
  12   2.0000     -10.071179      -274.0507
  13   2.0000     -10.058560      -273.7073
  14   2.0000      -1.045041       -28.4370
  15   2.0000      -1.020590       -27.7717
  16   2.0000      -1.005104       -27.3503
  17   2.0000      -0.946287       -25.7498
  18   2.0000      -0.908703       -24.7271
  19   2.0000      -0.881142       -23.9771
  20   2.0000      -0.766301       -20.8521
  21   2.0000      -0.713859       -19.4251
  22   2.0000      -0.707458       -19.2509
  23   2.0000      -0.682357       -18.5679
  24   2.0000      -0.631850       -17.1935
  25   2.0000      -0.616608       -16.7787
  26   2.0000      -0.575836       -15.6693
  27   2.0000      -0.554063       -15.0768
  28   2.0000      -0.509613       -13.8673
  29   2.0000      -0.483343       -13.1524
  30   2.0000      -0.482612       -13.1325
  31   2.0000      -0.456437       -12.4203
  32   2.0000      -0.453404       -12.3377
  33   2.0000      -0.428921       -11.6715
  34   2.0000      -0.425912       -11.5897
  35   2.0000      -0.423873       -11.5342
  36   2.0000      -0.404383       -11.0038
  37   2.0000      -0.399082       -10.8596
  38   2.0000      -0.393230       -10.7003
  39   2.0000      -0.388750       -10.5784
  40   2.0000      -0.372871       -10.1463
  41   2.0000      -0.363541        -9.8925
  42   2.0000      -0.359128        -9.7724
  43   2.0000      -0.357384        -9.7249
  44   2.0000      -0.303106        -8.2479
  45   2.0000      -0.275693        -7.5020
  46   2.0000      -0.263347        -7.1660
  47   2.0000      -0.254092        -6.9142
  48   2.0000      -0.245761        -6.6875
  49   2.0000      -0.227491        -6.1904
  50   2.0000      -0.204028        -5.5519
  51   0.0000      -0.060331        -1.6417
  52   0.0000      -0.007950        -0.2163
  53   0.0000       0.003762         0.1024
  54   0.0000       0.045785         1.2459
  55   0.0000       0.071763         1.9528

MULLIKEN ATOMIC CHARGES
-----------------------
   0 C :   -0.364658
   1 N :    0.289190
   2 C :   -0.045986
   3 N :   -0.259588
   4 C :   -0.117063
   5 C :   -0.037076
   6 C :   -0.044596
   7 O :   -0.434431
   8 N :    0.140690
   9 C :    0.245873
  10 O :   -0.482668
  11 N :    0.195185
  12 C :   -0.384909
  13 C :   -0.394831
  14 H :    0.182816
  15 H :    0.173875
  16 H :    0.148757
  17 H :    0.143245
  18 H :    0.174267
  19 H :    0.184067
  20 H :    0.162487
  21 H :    0.197314
  22 H :    0.166244
  23 H :    0.161798
Sum of atomic charges:   -0.0000000

LOEWDIN ATOMIC CHARGES
----------------------
   0 C :   -0.073459
   1 N :   -0.724925
   2 C :    0.268344
   3 N :   -0.510008
   4 C :    0.357809
   5 C :    0.209921
   6 C :    0.386442
   7 O :   -0.457975
   8 N :   -0.646568
   9 C :    0.476089
  10 O :   -0.431855
  11 N :   -0.646030
  12 C :   -0.073734
  13 C :   -0.078698
  14 H :    0.196430
  15 H :    0.190170
  16 H :    0.185097
  17 H :    0.206544
  18 H :    0.194729
  19 H :    0.201801
  20 H :    0.184105
  21 H :    0.209901
  22 H :    0.190110
  23 H :    0.185760

  Mayer bond orders larger than 0.100000
B(  0-C ,  1-N ) :   0.9020 B(  0-C , 14-H ) :   0.9422 B(  0-C , 15-H ) :   0.9384
B(  0-C , 16-H ) :   0.9622 B(  1-N ,  2-C ) :   1.2478 B(  1-N ,  5-C ) :   1.2512
B(  2-C ,  3-N ) :   1.4480 B(  2-C , 17-H ) :   0.9582 B(  3-N ,  4-C ) :   1.3786
B(  4-C ,  5-C ) :   1.3942 B(  4-C , 11-N ) :   1.2757 B(  5-C ,  6-C ) :   1.0072
B(  6-C ,  7-O ) :   1.8513 B(  6-C ,  8-N ) :   1.0748 B(  8-N ,  9-C ) :   1.1306
B(  8-N , 13-C ) :   0.8964 B(  9-C , 10-O ) :   1.8116 B(  9-C , 11-N ) :   1.1183
B( 11-N , 12-C ) :   0.8775 B( 12-C , 18-H ) :   0.9486 B( 12-C , 19-H ) :   0.9603
B( 12-C , 20-H ) :   0.9450 B( 13-C , 21-H ) :   0.9505 B( 13-C , 22-H ) :   0.9486
B( 13-C , 23-H ) :   0.9467

Dispersion correction           -0.009848087
FINAL SINGLE POINT ENERGY      -680.226387858625

DIPOLE MOMENT
-------------

Method             : SCF
Type of density    : Electron Density
Multiplicity       :   1
Irrep              :   0
Energy             :  -680.2458472958496714 Eh
Relativity type    :
Basis              : AO
                                X                 Y                 Z
Electronic contribution:     -0.245854762      -1.094072694      -0.006917757
Nuclear contribution   :      1.736514558       0.768495318       0.014912891
                        -----------------------------------------
Total Dipole Moment    :      1.490659795      -0.325577376       0.007995134
                        -----------------------------------------
Magnitude (a.u.)       :      1.525821476
Magnitude (Debye)      :      3.878329975

Rotational constants in cm-1:             0.035696             0.023893             0.014428
Rotational constants in MHz :          1070.131486           716.282705           432.554111

                             ****ORCA TERMINATED NORMALLY****
TOTAL RUN TIME: 0 days 0 hours 1 minutes 9 seconds 777 msec
