                         Program Version 6.0.0  -   RELEASE  -
|  1> ! r2scan-3c def2/J RI DEFGRID2 scfconv6 printgap
|  2> %output
|  3>     printlevel normal
|  4> end
|  5> %cpcm
|  6>     smd true
|  7>     smdsolvent "water"
|  8> end
|  9> * xyz 0 1
| 10> C 3.2683878145 1.0752208671 0.0086855984
| 11> N 2.2784662372 0.0344923908 -0.0015211187
| 12> C 2.4777079147 -1.2908305737 0.0013597712
| 13> N 1.3618186715 -1.9973975148 0.0013979927
| 14> C 0.3780827111 -1.0735536775 -0.0003641221
| 15> C 0.9145790726 0.2105929499 -0.0007905695
| 16> C 0.091815852 1.3736900324 -0.0038673645
| 17> O 0.4597104227 2.5435292343 -0.0125539278
| 18> N -1.2643742721 1.0510880172 0.0025807409
| 19> C -1.820810504 -0.2199143632 0.0025711648
| 20> O -3.0327704458 -0.3865842586 0.0055864719
| 21> N -0.9647371725 -1.287348496 0.0019187217
| 22> C -1.5052840888 -2.6339572156 -0.0096293091
| 23> C -2.1806885079 2.1831758071 0.0048714624
| 24> H 3.0721818301 1.7757182231 -0.8025236986
| 25> H 3.2188644351 1.6269396452 0.947882548
| 26> H 4.2530488474 0.6310334526 -0.1088969121
| 27> H 3.450763903 -1.7384787977 0.0019186324
| 28> H -2.3081457797 -2.7016373204 0.7223182439
| 29> H -0.6946587548 -3.3140467131 0.2317348391
| 30> H -1.9108703858 -2.8637061626 -0.9945643946
| 31> H -3.1927004811 1.8013884846 -0.0941675105
| 32> H -1.932569927 2.8437350525 -0.824450362
| 33> H -2.0726035279 2.7370230072 0.936728671
| 34> *
| 35>
| 36>                          ****END OF INPUT****

CARTESIAN COORDINATES (ANGSTROEM)
---------------------------------
  C      3.268388    1.075221    0.008686
  N      2.278466    0.034492   -0.001521
  C      2.477708   -1.290831    0.001360
  N      1.361819   -1.997398    0.001398
  C      0.378083   -1.073554   -0.000364
  C      0.914579    0.210593   -0.000791
  C      0.091816    1.373690   -0.003867
  O      0.459710    2.543529   -0.012554
  N     -1.264374    1.051088    0.002581
  C     -1.820811   -0.219914    0.002571
  O     -3.032770   -0.386584    0.005586
  N     -0.964737   -1.287348    0.001919
  C     -1.505284   -2.633957   -0.009629
  C     -2.180689    2.183176    0.004871
  H      3.072182    1.775718   -0.802524
  H      3.218864    1.626940    0.947883
  H      4.253049    0.631033   -0.108897
  H      3.450764   -1.738479    0.001919
  H     -2.308146   -2.701637    0.722318
  H     -0.694659   -3.314047    0.231735
  H     -1.910870   -2.863706   -0.994564
  H     -3.192700    1.801388   -0.094168
  H     -1.932570    2.843735   -0.824450
  H     -2.072604    2.737023    0.936729

 Total Charge           Charge          ....    0
 Multiplicity           Mult            ....    1
 Number of Electrons    NEL             ....  102
 Basis Dimension        Dim             ....  346

ORBITAL ENERGIES
----------------

  NO   OCC          E(Eh)            E(eV)
   0   2.0000     -18.935658      -515.2654
   1   2.0000     -18.933636      -515.2104
   2   2.0000     -14.240509      -387.5040
   3   2.0000     -14.231734      -387.2652
   4   2.0000     -14.225992      -387.1089
   5   2.0000     -14.163032      -385.3957
   6   2.0000     -10.177818      -276.9525
   7   2.0000     -10.154174      -276.3091
   8   2.0000     -10.113791      -275.2102
   9   2.0000     -10.102683      -274.9080
  10   2.0000     -10.075347      -274.1641
  11   2.0000     -10.067570      -273.9525
  12   2.0000     -10.063867      -273.8517
  13   2.0000     -10.058116      -273.6953
  14   2.0000      -1.052752       -28.6468
  15   2.0000      -1.021730       -27.8027
  16   2.0000      -1.012501       -27.5515
  17   2.0000      -0.949806       -25.8455
  18   2.0000      -0.915107       -24.9013
  19   2.0000      -0.875031       -23.8108
  20   2.0000      -0.762602       -20.7515
  21   2.0000      -0.706252       -19.2181
  22   2.0000      -0.698760       -19.0142
  23   2.0000      -0.681276       -18.5385
  24   2.0000      -0.630711       -17.1625
  25   2.0000      -0.616078       -16.7643
  26   2.0000      -0.573599       -15.6084
  27   2.0000      -0.546651       -14.8751
  28   2.0000      -0.503076       -13.6894
  29   2.0000      -0.481292       -13.0966
  30   2.0000      -0.477196       -12.9852
  31   2.0000      -0.449496       -12.2314
  32   2.0000      -0.446769       -12.1572
  33   2.0000      -0.433305       -11.7908
  34   2.0000      -0.427770       -11.6402
  35   2.0000      -0.423443       -11.5225
  36   2.0000      -0.409230       -11.1357
  37   2.0000      -0.397643       -10.8204
  38   2.0000      -0.381281       -10.3752
  39   2.0000      -0.379037       -10.3141
  40   2.0000      -0.368484       -10.0269
  41   2.0000      -0.365937        -9.9577
  42   2.0000      -0.363102        -9.8805
  43   2.0000      -0.361593        -9.8395
  44   2.0000      -0.299462        -8.1488
  45   2.0000      -0.279191        -7.5972
  46   2.0000      -0.268993        -7.3197
  47   2.0000      -0.264963        -7.2100
  48   2.0000      -0.251027        -6.8308
  49   2.0000      -0.243268        -6.6197
  50   2.0000      -0.204441        -5.5631
  51   0.0000      -0.059478        -1.6185
  52   0.0000      -0.014894        -0.4053
  53   0.0000       0.007659         0.2084
  54   0.0000       0.050863         1.3841
  55   0.0000       0.084160         2.2901

MULLIKEN ATOMIC CHARGES
-----------------------
   0 C :   -0.420940
   1 N :    0.308042
   2 C :   -0.026661
   3 N :   -0.310864
   4 C :   -0.121240
   5 C :   -0.022570
   6 C :   -0.024659
   7 O :   -0.517986
   8 N :    0.166565
   9 C :    0.263651
  10 O :   -0.564244
  11 N :    0.222476
  12 C :   -0.422753
  13 C :   -0.431499
  14 H :    0.190540
  15 H :    0.192746
  16 H :    0.189305
  17 H :    0.189341
  18 H :    0.185545
  19 H :    0.193674
  20 H :    0.191973
  21 H :    0.198090
  22 H :    0.183954
  23 H :    0.187513
Sum of atomic charges:    0.0000000

LOEWDIN ATOMIC CHARGES
----------------------
   0 C :   -0.071492
   1 N :   -0.708261
   2 C :    0.288466
   3 N :   -0.540182
   4 C :    0.359856
   5 C :    0.213469
   6 C :    0.392039
   7 O :   -0.519032
   8 N :   -0.635133
   9 C :    0.479872
  10 O :   -0.492495
  11 N :   -0.633563
  12 C :   -0.072187
  13 C :   -0.078779
  14 H :    0.197720
  15 H :    0.194959
  16 H :    0.202249
  17 H :    0.225580
  18 H :    0.198635
  19 H :    0.206474
  20 H :    0.192692
  21 H :    0.210501
  22 H :    0.195621
  23 H :    0.192993

  Mayer bond orders larger than 0.100000
B(  0-C ,  1-N ) :   0.8838 B(  0-C , 14-H ) :   0.9399 B(  0-C , 15-H ) :   0.9353
B(  0-C , 16-H ) :   0.9508 B(  1-N ,  2-C ) :   1.2697 B(  1-N ,  5-C ) :   1.2389
B(  2-C ,  3-N ) :   1.4175 B(  2-C , 17-H ) :   0.9455 B(  3-N ,  4-C ) :   1.4051
B(  4-C ,  5-C ) :   1.3897 B(  4-C , 11-N ) :   1.2748 B(  5-C ,  6-C ) :   1.0344
B(  6-C ,  7-O ) :   1.7869 B(  6-C ,  8-N ) :   1.0884 B(  8-N ,  9-C ) :   1.1442
B(  8-N , 13-C ) :   0.8730 B(  9-C , 10-O ) :   1.7494 B(  9-C , 11-N ) :   1.1428
B( 11-N , 12-C ) :   0.8556 B( 12-C , 18-H ) :   0.9441 B( 12-C , 19-H ) :   0.9527
B( 12-C , 20-H ) :   0.9410 B( 13-C , 21-H ) :   0.9470 B( 13-C , 22-H ) :   0.9436
B( 13-C , 23-H ) :   0.9423

Dispersion correction           -0.009848087
FINAL SINGLE POINT ENERGY      -680.245315078950

DIPOLE MOMENT
-------------

Method             : SCF
Type of density    : Electron Density
Multiplicity       :   1
Irrep              :   0
Energy             :  -680.2647745161750663 Eh
Relativity type    :
Basis              : AO
                                X                 Y                 Z
Electronic contribution:      0.434331675      -1.384269787      -0.005678367
Nuclear contribution   :      1.736514558       0.768495318       0.014912891
                        -----------------------------------------
Total Dipole Moment    :      2.170846233      -0.615774469       0.009234524
                        -----------------------------------------
Magnitude (a.u.)       :      2.256509880
Magnitude (Debye)      :      5.735592300

Rotational constants in cm-1:             0.035696             0.023893             0.014428
Rotational constants in MHz :          1070.131486           716.282705           432.554111

                             ****ORCA TERMINATED NORMALLY****
TOTAL RUN TIME: 0 days 0 hours 1 minutes 22 seconds 978 msec
