                         Program Version 6.0.0  -   RELEASE  -
|  1> ! pbe def2-sv(p) def2/J RI DEFGRID1 loosescf d4 GCP(DFT/SV(P)) printgap
|  2> %output
|  3>     printlevel normal
|  4> end
|  5> * xyz 0 1
|  6> C -1.8421490857 -0.6172480431 -1.110791001
|  7> C -1.2365873652 -0.5686226047 0.2994928124
|  8> H -2.0187444256 -0.8740427352 1.0075173976
|  9> C -0.8159183942 0.8577386418 0.666314054
| 10> H -1.6393864858 1.5129082668 0.3552158278
| 11> C 0.4500324067 1.309176454 -0.0942266413
| 12> H 1.0135243338 1.987294715 0.5641815741
| 13> C 1.3826941817 0.1263785142 -0.4004380195
| 14> H 1.1712067111 -0.2597309866 -1.4102746397
| 15> C 1.1119644329 -1.0190480927 0.5826105658
| 16> H 1.2539052351 -0.6546187922 1.6189862698
| 17> O -0.192869274 -1.5246752413 0.4290474326
| 18> O 2.0010876628 -2.0422977669 0.2937463074
| 19> O 2.7104554396 0.5754015056 -0.3131144695
| 20> O 0.0466786151 1.9797618219 -1.2619822912
| 21> O -0.6237583636 0.9094637113 2.0615054109
| 22> O -3.1227119022 -0.034642977 -1.0433176491
| 23> H -1.9002704276 -1.6700289083 -1.4139304581
| 24> H -1.2019426523 -0.0691588352 -1.8100952198
| 25> H 1.7151722875 -2.8517619175 0.7433474359
| 26> H 3.3009809127 -0.1919882731 -0.3599994158
| 27> H 0.8220219905 2.3740720284 -1.6876795363
| 28> H -0.6886396628 1.8245655988 2.3706366889
| 29> H -3.5061768844 -0.0060989183 -1.9314431306
| 30> *
| 31>
| 32>                          ****END OF INPUT****

CARTESIAN COORDINATES (ANGSTROEM)
---------------------------------
  C     -1.842149   -0.617248   -1.110791
  C     -1.236587   -0.568623    0.299493
  H     -2.018744   -0.874043    1.007517
  C     -0.815918    0.857739    0.666314
  H     -1.639386    1.512908    0.355216
  C      0.450032    1.309176   -0.094227
  H      1.013524    1.987295    0.564182
  C      1.382694    0.126379   -0.400438
  H      1.171207   -0.259731   -1.410275
  C      1.111964   -1.019048    0.582611
  H      1.253905   -0.654619    1.618986
  O     -0.192869   -1.524675    0.429047
  O      2.001088   -2.042298    0.293746
  O      2.710455    0.575402   -0.313114
  O      0.046679    1.979762   -1.261982
  O     -0.623758    0.909464    2.061505
  O     -3.122712   -0.034643   -1.043318
  H     -1.900270   -1.670029   -1.413930
  H     -1.201943   -0.069159   -1.810095
  H      1.715172   -2.851762    0.743347
  H      3.300981   -0.191988   -0.359999
  H      0.822022    2.374072   -1.687680
  H     -0.688640    1.824566    2.370637
  H     -3.506177   -0.006099   -1.931443

 Total Charge           Charge          ....    0
 Multiplicity           Mult            ....    1
 Number of Electrons    NEL             ....   96
 Basis Dimension        Dim             ....  192

ORBITAL ENERGIES
----------------

  NO   OCC          E(Eh)            E(eV)
   0   2.0000     -18.759329      -510.4673
   1   2.0000     -18.758708      -510.4504
   2   2.0000     -18.754615      -510.3390
   3   2.0000     -18.753667      -510.3132
   4   2.0000     -18.747746      -510.1521
   5   2.0000     -18.746948      -510.1304
   6   2.0000      -9.975175      -271.4383
   7   2.0000      -9.940638      -270.4985
   8   2.0000      -9.939910      -270.4787
   9   2.0000      -9.937527      -270.4139
  10   2.0000      -9.932657      -270.2813
  11   2.0000      -9.923626      -270.0356
  12   2.0000      -0.976195       -26.5636
  13   2.0000      -0.939160       -25.5558
  14   2.0000      -0.931114       -25.3369
  15   2.0000      -0.921500       -25.0753
  16   2.0000      -0.918134       -24.9837
  17   2.0000      -0.904510       -24.6130
  18   2.0000      -0.701213       -19.0810
  19   2.0000      -0.683591       -18.6014
  20   2.0000      -0.611311       -16.6346
  21   2.0000      -0.583191       -15.8694
  22   2.0000      -0.559168       -15.2157
  23   2.0000      -0.511958       -13.9311
  24   2.0000      -0.498196       -13.5566
  25   2.0000      -0.482512       -13.1298
  26   2.0000      -0.472074       -12.8458
  27   2.0000      -0.454773       -12.3750
  28   2.0000      -0.450322       -12.2539
  29   2.0000      -0.428378       -11.6568
  30   2.0000      -0.409701       -11.1485
  31   2.0000      -0.387714       -10.5502
  32   2.0000      -0.378775       -10.3070
  33   2.0000      -0.367314        -9.9951
  34   2.0000      -0.361291        -9.8312
  35   2.0000      -0.349871        -9.5205
  36   2.0000      -0.321368        -8.7449
  37   2.0000      -0.316550        -8.6138
  38   2.0000      -0.305043        -8.3007
  39   2.0000      -0.287850        -7.8328
  40   2.0000      -0.280562        -7.6345
  41   2.0000      -0.258353        -7.0301
  42   2.0000      -0.240765        -6.5516
  43   2.0000      -0.234861        -6.3909
  44   2.0000      -0.225348        -6.1320
  45   2.0000      -0.220821        -6.0089
  46   2.0000      -0.209866        -5.7108
  47   2.0000      -0.196458        -5.3459
  48   0.0000       0.021625         0.5884
  49   0.0000       0.029120         0.7924
  50   0.0000       0.030568         0.8318
  51   0.0000       0.039535         1.0758
  52   0.0000       0.060344         1.6420

MULLIKEN ATOMIC CHARGES
-----------------------
   0 C :    0.019918
   1 C :    0.063893
   2 H :    0.077129
   3 C :   -0.010176
   4 H :    0.088386
   5 C :    0.113931
   6 H :    0.050185
   7 C :    0.004929
   8 H :    0.050035
   9 C :    0.203140
  10 H :    0.050724
  11 O :   -0.326366
  12 O :   -0.398591
  13 O :   -0.427101
  14 O :   -0.411739
  15 O :   -0.409765
  16 O :   -0.436514
  17 H :    0.076845
  18 H :    0.087037
  19 H :    0.310336
  20 H :    0.307868
  21 H :    0.307957
  22 H :    0.304402
  23 H :    0.303538
Sum of atomic charges:   -0.0000000

LOEWDIN ATOMIC CHARGES
----------------------
   0 C :   -0.138036
   1 C :   -0.047548
   2 H :    0.118748
   3 C :   -0.070980
   4 H :    0.119581
   5 C :   -0.066803
   6 H :    0.106766
   7 C :   -0.093039
   8 H :    0.103574
   9 C :   -0.007250
  10 H :    0.087515
  11 O :   -0.155545
  12 O :   -0.309188
  13 O :   -0.324170
  14 O :   -0.316748
  15 O :   -0.314631
  16 O :   -0.341377
  17 H :    0.099400
  18 H :    0.100958
  19 H :    0.292547
  20 H :    0.286709
  21 H :    0.291157
  22 H :    0.289213
  23 H :    0.289148

  Mayer bond orders larger than 0.100000
B(  0-C ,  1-C ) :   1.0558 B(  0-C , 16-O ) :   1.0678 B(  0-C , 17-H ) :   0.9122
B(  0-C , 18-H ) :   0.8968 B(  1-C ,  2-H ) :   0.8799 B(  1-C ,  3-C ) :   1.0549
B(  1-C , 11-O ) :   0.9945 B(  3-C ,  4-H ) :   0.8826 B(  3-C ,  5-C ) :   0.9961
B(  3-C , 15-O ) :   1.0412 B(  5-C ,  6-H ) :   0.8608 B(  5-C ,  7-C ) :   1.0196
B(  5-C , 14-O ) :   1.0604 B(  7-C ,  8-H ) :   0.8423 B(  7-C ,  9-C ) :   1.0667
B(  7-C , 13-O ) :   1.0703 B(  9-C , 10-H ) :   0.8780 B(  9-C , 11-O ) :   1.0274
B(  9-C , 12-O ) :   1.1466 B( 12-O , 19-H ) :   0.8385 B( 13-O , 20-H ) :   0.8351
B( 14-O , 21-H ) :   0.8452 B( 15-O , 22-H ) :   0.8483 B( 16-O , 23-H ) :   0.8496

Dispersion correction           -0.024624269
FINAL SINGLE POINT ENERGY      -685.686707165619

DIPOLE MOMENT
-------------

Method             : SCF
Type of density    : Electron Density
Multiplicity       :   1
Irrep              :   0
Energy             :  -685.8162046943920132 Eh
Relativity type    :
Basis              : AO
                                X                 Y                 Z
Electronic contribution:      1.681228873      -0.836674011       1.431105888
Nuclear contribution   :     -1.562445620       1.050045096      -1.830292733
                        -----------------------------------------
Total Dipole Moment    :      0.118783253       0.213371086      -0.399186845
                        -----------------------------------------
Magnitude (a.u.)       :      0.467960274
Magnitude (Debye)      :      1.189460490

Rotational constants in cm-1:             0.040162             0.025371             0.021889
Rotational constants in MHz :          1204.040924           760.592772           656.211294

                             ****ORCA TERMINATED NORMALLY****
TOTAL RUN TIME: 0 days 0 hours 0 minutes 11 seconds 924 msec
