                         Program Version 6.0.0  -   RELEASE  -
|  1> ! wb97x-v def2-tzvp def2/J RIJCOSX DEFGRID2 scfconv7 GCP(DFT/TZ) printgap
|  2> %output
|  3>     printlevel normal
|  4> end
|  5> * xyz 0 1
|  6> C 1.871694288852082 -1.0758703777524992 0.05703102011694927
|  7> C 1.100917915684702 0.17562100489161928 0.4661652498560321
|  8> C -0.3711242221448565 0.2147410822353189 0.02641162129940285
|  9> C -1.0277023592632022 1.495295607756892 0.5363734075769383
| 10> C -1.1478404920005094 -1.0091201101828111 0.4899417366230416
| 11> O -0.44788426230239897 0.19092238053835464 -1.4285651967276225
| 12> H 1.808309189072562 -1.2502747517205008 -1.0218602741968938
| 13> H 1.4970546849170678 -1.9681908045037992 0.5676594189798374
| 14> H 2.930370872914266 -0.9708944306349933 0.3142797617019577
| 15> H 1.5920317664103592 1.0643258090928926 0.04708137806547752
| 16> H 1.1323165174093224 0.28876335367824585 1.556812612916132
| 17> H -0.4790801883305093 2.375758468950738 0.18257985710351535
| 18> H -2.0612778100346096 1.5620717793216357 0.1825215221550406
| 19> H -1.0350180129589888 1.5155424963493966 1.6309246194889149
| 20> H -2.203432312974456 -0.9137689006871251 0.21636937748164434
| 21> H -0.7558789851928079 -1.921766022088847 0.03237424870070427
| 22> H -1.0801502171291817 -1.110724035495577 1.577030584852184
| 23> H 0.009074520570336841 0.9812704560336789 -1.7472894502922014
| 24> *
| 25>
| 26>                          ****END OF INPUT****

CARTESIAN COORDINATES (ANGSTROEM)
---------------------------------
  C      1.871694   -1.075870    0.057031
  C      1.100918    0.175621    0.466165
  C     -0.371124    0.214741    0.026412
  C     -1.027702    1.495296    0.536373
  C     -1.147840   -1.009120    0.489942
  O     -0.447884    0.190922   -1.428565
  H      1.808309   -1.250275   -1.021860
  H      1.497055   -1.968191    0.567659
  H      2.930371   -0.970894    0.314280
  H      1.592032    1.064326    0.047081
  H      1.132317    0.288763    1.556813
  H     -0.479080    2.375758    0.182580
  H     -2.061278    1.562072    0.182522
  H     -1.035018    1.515542    1.630925
  H     -2.203432   -0.913769    0.216369
  H     -0.755879   -1.921766    0.032374
  H     -1.080150   -1.110724    1.577031
  H      0.009075    0.981270   -1.747289

 Total Charge           Charge          ....    0
 Multiplicity           Mult            ....    1
 Number of Electrons    NEL             ....   50
 Basis Dimension        Dim             ....  258

ORBITAL ENERGIES
----------------

  NO   OCC          E(Eh)            E(eV)
   0   2.0000     -21.663005      -589.4803
   1   2.0000     -12.101989      -329.3119
   2   2.0000     -12.043191      -327.7119
   3   2.0000     -12.036185      -327.5212
   4   2.0000     -12.031308      -327.3885
   5   2.0000     -12.031032      -327.3810
   6   2.0000      -1.661384       -45.2086
   7   2.0000      -1.320267       -35.9263
   8   2.0000      -1.240085       -33.7444
   9   2.0000      -1.186686       -32.2914
  10   2.0000      -1.120264       -30.4839
  11   2.0000      -1.083234       -29.4763
  12   2.0000      -0.987440       -26.8696
  13   2.0000      -0.937764       -25.5179
  14   2.0000      -0.929221       -25.2854
  15   2.0000      -0.867448       -23.6045
  16   2.0000      -0.861659       -23.4469
  17   2.0000      -0.847591       -23.0641
  18   2.0000      -0.818723       -22.2786
  19   2.0000      -0.814576       -22.1657
  20   2.0000      -0.809867       -22.0376
  21   2.0000      -0.801054       -21.7978
  22   2.0000      -0.780365       -21.2348
  23   2.0000      -0.766288       -20.8518
  24   2.0000      -0.758880       -20.6502
  25   0.0000      -0.147035        -4.0010
  26   0.0000      -0.059872        -1.6292
  27   0.0000      -0.029895        -0.8135
  28   0.0000      -0.015038        -0.4092
  29   0.0000      -0.012477        -0.3395

MULLIKEN ATOMIC CHARGES
-----------------------
   0 C :   -0.358296
   1 C :   -0.195207
   2 C :    0.207326
   3 C :   -0.346673
   4 C :   -0.361487
   5 O :   -0.448261
   6 H :    0.121397
   7 H :    0.114414
   8 H :    0.114003
   9 H :    0.086372
  10 H :    0.091742
  11 H :    0.100586
  12 H :    0.125585
  13 H :    0.107114
  14 H :    0.115983
  15 H :    0.127964
  16 H :    0.105188
  17 H :    0.292250
Sum of atomic charges:    0.0000000

LOEWDIN ATOMIC CHARGES
----------------------
   0 C :   -0.305263
   1 C :   -0.258865
   2 C :   -0.423877
   3 C :   -0.267692
   4 C :   -0.255950
   5 O :   -0.015511
   6 H :    0.120703
   7 H :    0.116297
   8 H :    0.116245
   9 H :    0.132667
  10 H :    0.138087
  11 H :    0.117369
  12 H :    0.123540
  13 H :    0.123255
  14 H :    0.124469
  15 H :    0.124950
  16 H :    0.123777
  17 H :    0.165797

  Mayer bond orders larger than 0.100000
B(  0-C ,  1-C ) :   0.9786 B(  0-C ,  6-H ) :   0.9767 B(  0-C ,  7-H ) :   0.9828
B(  0-C ,  8-H ) :   0.9826 B(  1-C ,  2-C ) :   0.9926 B(  1-C ,  9-H ) :   0.9658
B(  1-C , 10-H ) :   0.9671 B(  2-C ,  3-C ) :   0.9927 B(  2-C ,  4-C ) :   0.9361
B(  2-C ,  5-O ) :   0.9882 B(  3-C , 11-H ) :   0.9655 B(  3-C , 12-H ) :   0.9861
B(  3-C , 13-H ) :   0.9726 B(  4-C , 14-H ) :   0.9792 B(  4-C , 15-H ) :   0.9862
B(  4-C , 16-H ) :   0.9730 B(  5-O , 17-H ) :   0.9038

FINAL SINGLE POINT ENERGY      -273.000624566192

DIPOLE MOMENT
-------------

Method             : SCF
Type of density    : Electron Density
Multiplicity       :   1
Irrep              :   0
Energy             :  -273.0137197527918147 Eh
Relativity type    :
Basis              : AO
                                X                 Y                 Z
Electronic contribution:     -1.078188368       0.774910757      -2.940324948
Nuclear contribution   :      1.351505680      -0.363162260       3.344685022
                        -----------------------------------------
Total Dipole Moment    :      0.273317312       0.411748497       0.404360074
                        -----------------------------------------
Magnitude (a.u.)       :      0.638550114
Magnitude (Debye)      :      1.623065401

Rotational constants in cm-1:             0.150114             0.086342             0.084394
Rotational constants in MHz :          4500.305590          2588.460905          2530.060737

                             ****ORCA TERMINATED NORMALLY****
TOTAL RUN TIME: 0 days 0 hours 1 minutes 44 seconds 851 msec
