                         Program Version 6.0.0  -   RELEASE  -
|  1> ! wb97x-v def2-tzvp def2/J RIJCOSX DEFGRID2 scfconv7 GCP(DFT/TZ) printgap
|  2> %output
|  3>     printlevel normal
|  4> end
|  5> %cpcm
|  6>     smd true
|  7>     smdsolvent "water"
|  8> end
|  9> * xyz 0 1
| 10> C 1.871694288852082 -1.0758703777524992 0.05703102011694927
| 11> C 1.100917915684702 0.17562100489161928 0.4661652498560321
| 12> C -0.3711242221448565 0.2147410822353189 0.02641162129940285
| 13> C -1.0277023592632022 1.495295607756892 0.5363734075769383
| 14> C -1.1478404920005094 -1.0091201101828111 0.4899417366230416
| 15> O -0.44788426230239897 0.19092238053835464 -1.4285651967276225
| 16> H 1.808309189072562 -1.2502747517205008 -1.0218602741968938
| 17> H 1.4970546849170678 -1.9681908045037992 0.5676594189798374
| 18> H 2.930370872914266 -0.9708944306349933 0.3142797617019577
| 19> H 1.5920317664103592 1.0643258090928926 0.04708137806547752
| 20> H 1.1323165174093224 0.28876335367824585 1.556812612916132
| 21> H -0.4790801883305093 2.375758468950738 0.18257985710351535
| 22> H -2.0612778100346096 1.5620717793216357 0.1825215221550406
| 23> H -1.0350180129589888 1.5155424963493966 1.6309246194889149
| 24> H -2.203432312974456 -0.9137689006871251 0.21636937748164434
| 25> H -0.7558789851928079 -1.921766022088847 0.03237424870070427
| 26> H -1.0801502171291817 -1.110724035495577 1.577030584852184
| 27> H 0.009074520570336841 0.9812704560336789 -1.7472894502922014
| 28> *
| 29>
| 30>                          ****END OF INPUT****

CARTESIAN COORDINATES (ANGSTROEM)
---------------------------------
  C      1.871694   -1.075870    0.057031
  C      1.100918    0.175621    0.466165
  C     -0.371124    0.214741    0.026412
  C     -1.027702    1.495296    0.536373
  C     -1.147840   -1.009120    0.489942
  O     -0.447884    0.190922   -1.428565
  H      1.808309   -1.250275   -1.021860
  H      1.497055   -1.968191    0.567659
  H      2.930371   -0.970894    0.314280
  H      1.592032    1.064326    0.047081
  H      1.132317    0.288763    1.556813
  H     -0.479080    2.375758    0.182580
  H     -2.061278    1.562072    0.182522
  H     -1.035018    1.515542    1.630925
  H     -2.203432   -0.913769    0.216369
  H     -0.755879   -1.921766    0.032374
  H     -1.080150   -1.110724    1.577031
  H      0.009075    0.981270   -1.747289

 Total Charge           Charge          ....    0
 Multiplicity           Mult            ....    1
 Number of Electrons    NEL             ....   50
 Basis Dimension        Dim             ....  258

ORBITAL ENERGIES
----------------

  NO   OCC          E(Eh)            E(eV)
   0   2.0000     -21.666532      -589.5763
   1   2.0000     -12.097061      -329.1778
   2   2.0000     -12.032085      -327.4097
   3   2.0000     -12.024909      -327.2144
   4   2.0000     -12.024514      -327.2037
   5   2.0000     -12.024171      -327.1943
   6   2.0000      -1.665324       -45.3158
   7   2.0000      -1.313494       -35.7420
   8   2.0000      -1.232401       -33.5353
   9   2.0000      -1.179005       -32.0824
  10   2.0000      -1.113453       -30.2986
  11   2.0000      -1.082142       -29.4466
  12   2.0000      -0.989778       -26.9332
  13   2.0000      -0.934951       -25.4413
  14   2.0000      -0.929966       -25.3057
  15   2.0000      -0.860190       -23.4070
  16   2.0000      -0.856457       -23.3054
  17   2.0000      -0.841786       -22.9062
  18   2.0000      -0.811012       -22.0687
  19   2.0000      -0.808227       -21.9930
  20   2.0000      -0.801992       -21.8233
  21   2.0000      -0.791394       -21.5349
  22   2.0000      -0.772775       -21.0283
  23   2.0000      -0.758491       -20.6396
  24   2.0000      -0.750598       -20.4248
  25   0.0000      -0.142817        -3.8862
  26   0.0000      -0.039778        -1.0824
  27   0.0000      -0.020648        -0.5619
  28   0.0000      -0.007175        -0.1952
  29   0.0000      -0.002637        -0.0717

MULLIKEN ATOMIC CHARGES
-----------------------
   0 C :   -0.408113
   1 C :   -0.215455
   2 C :    0.253331
   3 C :   -0.407578
   4 C :   -0.410071
   5 O :   -0.564351
   6 H :    0.115544
   7 H :    0.131323
   8 H :    0.132862
   9 H :    0.114603
  10 H :    0.111952
  11 H :    0.131862
  12 H :    0.130560
  13 H :    0.130115
  14 H :    0.131357
  15 H :    0.137168
  16 H :    0.132237
  17 H :    0.352655
Sum of atomic charges:    0.0000000

LOEWDIN ATOMIC CHARGES
----------------------
   0 C :   -0.313141
   1 C :   -0.256510
   2 C :   -0.421025
   3 C :   -0.270068
   4 C :   -0.264858
   5 O :   -0.058222
   6 H :    0.116362
   7 H :    0.118951
   8 H :    0.119703
   9 H :    0.140343
  10 H :    0.143669
  11 H :    0.124907
  12 H :    0.123115
  13 H :    0.128939
  14 H :    0.124693
  15 H :    0.124364
  16 H :    0.131187
  17 H :    0.187591

  Mayer bond orders larger than 0.100000
B(  0-C ,  1-C ) :   0.9649 B(  0-C ,  6-H ) :   0.9778 B(  0-C ,  7-H ) :   0.9798
B(  0-C ,  8-H ) :   0.9804 B(  1-C ,  2-C ) :   0.9845 B(  1-C ,  9-H ) :   0.9702
B(  1-C , 10-H ) :   0.9642 B(  2-C ,  3-C ) :   0.9820 B(  2-C ,  4-C ) :   0.9507
B(  2-C ,  5-O ) :   0.9465 B(  3-C , 11-H ) :   0.9702 B(  3-C , 12-H ) :   0.9781
B(  3-C , 13-H ) :   0.9702 B(  4-C , 14-H ) :   0.9753 B(  4-C , 15-H ) :   0.9779
B(  4-C , 16-H ) :   0.9715 B(  5-O , 17-H ) :   0.8710

FINAL SINGLE POINT ENERGY      -273.007230399107

DIPOLE MOMENT
-------------

Method             : SCF
Type of density    : Electron Density
Multiplicity       :   1
Irrep              :   0
Energy             :  -273.0203255857072691 Eh
Relativity type    :
Basis              : AO
                                X                 Y                 Z
Electronic contribution:     -0.930297372       1.001423992      -2.712734367
Nuclear contribution   :      1.351505680      -0.363162260       3.344685022
                        -----------------------------------------
Total Dipole Moment    :      0.421208308       0.638261731       0.631950655
                        -----------------------------------------
Magnitude (a.u.)       :      0.992046424
Magnitude (Debye)      :      2.521581615

Rotational constants in cm-1:             0.150114             0.086342             0.084394
Rotational constants in MHz :          4500.305590          2588.460905          2530.060737

                             ****ORCA TERMINATED NORMALLY****
TOTAL RUN TIME: 0 days 0 hours 1 minutes 58 seconds 280 msec
