                         Program Version 6.0.0  -   RELEASE  -
|  1> ! pbe def2-sv(p) def2/J RI DEFGRID1 loosescf d4 GCP(DFT/SV(P)) printgap
|  2> %output
|  3>     printlevel normal
|  4> end
|  5> * xyz 0 1
|  6> C -1.5893325703 -0.1301193806 0.4961961059
|  7> C -0.6606391468 0.5104281936 -0.5283580065
|  8> C 0.6675319468 -0.2350882305 -0.6327992249
|  9> O 1.3825241404 -0.0772173068 0.5786150847
| 10> H -1.0963284118 -0.1689089535 1.4642573009
| 11> H -2.5050789673 0.4467815833 0.5926259633
| 12> H -1.8457047004 -1.1437313763 0.1963621999
| 13> H -0.4501627317 1.5405317021 -0.2368039648
| 14> H -1.1323354494 0.5170967106 -1.5118068728
| 15> H 0.4768419078 -1.2996230297 -0.8247768442
| 16> H 1.2525307575 0.1729675384 -1.4689580501
| 17> H 2.2114673714 -0.5698810526 0.5282874972
| 18> *
| 19>
| 20>                          ****END OF INPUT****

CARTESIAN COORDINATES (ANGSTROEM)
---------------------------------
  C     -1.589333   -0.130119    0.496196
  C     -0.660639    0.510428   -0.528358
  C      0.667532   -0.235088   -0.632799
  O      1.382524   -0.077217    0.578615
  H     -1.096328   -0.168909    1.464257
  H     -2.505079    0.446782    0.592626
  H     -1.845705   -1.143731    0.196362
  H     -0.450163    1.540532   -0.236804
  H     -1.132335    0.517097   -1.511807
  H      0.476842   -1.299623   -0.824777
  H      1.252531    0.172968   -1.468958
  H      2.211467   -0.569881    0.528287

 Total Charge           Charge          ....    0
 Multiplicity           Mult            ....    1
 Number of Electrons    NEL             ....   34
 Basis Dimension        Dim             ....   72

ORBITAL ENERGIES
----------------

  NO   OCC          E(Eh)            E(eV)
   0   2.0000     -18.737923      -509.8848
   1   2.0000      -9.926201      -270.1057
   2   2.0000      -9.880539      -268.8631
   3   2.0000      -9.866038      -268.4685
   4   2.0000      -0.913657       -24.8619
   5   2.0000      -0.694987       -18.9116
   6   2.0000      -0.598275       -16.2799
   7   2.0000      -0.514055       -13.9882
   8   2.0000      -0.464456       -12.6385
   9   2.0000      -0.409064       -11.1312
  10   2.0000      -0.374685       -10.1957
  11   2.0000      -0.366974        -9.9859
  12   2.0000      -0.317734        -8.6460
  13   2.0000      -0.302495        -8.2313
  14   2.0000      -0.294375        -8.0104
  15   2.0000      -0.267574        -7.2811
  16   2.0000      -0.209508        -5.7010
  17   0.0000       0.028296         0.7700
  18   0.0000       0.062094         1.6897
  19   0.0000       0.086793         2.3618
  20   0.0000       0.089074         2.4238
  21   0.0000       0.114911         3.1269

MULLIKEN ATOMIC CHARGES
-----------------------
   0 C :   -0.286836
   1 C :   -0.190024
   2 C :   -0.003216
   3 O :   -0.441281
   4 H :    0.115541
   5 H :    0.101836
   6 H :    0.091109
   7 H :    0.094442
   8 H :    0.086013
   9 H :    0.063917
  10 H :    0.071209
  11 H :    0.297290
Sum of atomic charges:   -0.0000000

LOEWDIN ATOMIC CHARGES
----------------------
   0 C :   -0.343869
   1 C :   -0.246681
   2 C :   -0.121057
   3 O :   -0.352193
   4 H :    0.123563
   5 H :    0.117635
   6 H :    0.114015
   7 H :    0.121725
   8 H :    0.118295
   9 H :    0.091556
  10 H :    0.092622
  11 H :    0.284388

  Mayer bond orders larger than 0.100000
B(  0-C ,  1-C ) :   1.1513 B(  0-C ,  4-H ) :   0.9519 B(  0-C ,  5-H ) :   0.9555
B(  0-C ,  6-H ) :   0.9562 B(  1-C ,  2-C ) :   1.1198 B(  1-C ,  7-H ) :   0.9221
B(  1-C ,  8-H ) :   0.9264 B(  2-C ,  3-O ) :   1.0731 B(  2-C ,  9-H ) :   0.9220
B(  2-C , 10-H ) :   0.9267 B(  3-O , 11-H ) :   0.8539

Dispersion correction           -0.006402845
FINAL SINGLE POINT ENERGY      -193.874516702147

DIPOLE MOMENT
-------------

Method             : SCF
Type of density    : Electron Density
Multiplicity       :   1
Irrep              :   0
Energy             :  -193.9239419702724661 Eh
Relativity type    :
Basis              : AO
                                X                 Y                 Z
Electronic contribution:      3.161209751       0.152393712       0.776477386
Nuclear contribution   :     -2.877219567      -0.474707340      -1.174246853
                        -----------------------------------------
Total Dipole Moment    :      0.283990184      -0.322313628      -0.397769468
                        -----------------------------------------
Magnitude (a.u.)       :      0.585454566
Magnitude (Debye)      :      1.488107245

Rotational constants in cm-1:             0.491472             0.168298             0.144368
Rotational constants in MHz :         14733.962870          5045.451876          4328.058312

                             ****ORCA TERMINATED NORMALLY****
TOTAL RUN TIME: 0 days 0 hours 0 minutes 4 seconds 404 msec
