                         Program Version 6.0.0  -   RELEASE  -
|  1> ! pbe def2-sv(p) def2/J RI DEFGRID1 loosescf d4 GCP(DFT/SV(P)) printgap
|  2> %output
|  3>     printlevel normal
|  4> end
|  5> * xyz 0 1
|  6> C -2.061609219 -1.3985546456 -0.1200130269
|  7> C -1.0102298671 -0.5208696544 0.5880104944
|  8> H -1.4271846273 -0.175660613 1.5439599492
|  9> C -0.6731305303 0.7267979886 -0.2435621982
| 10> H -0.6115472529 0.4746028562 -1.3144497769
| 11> C 0.6910880229 1.2575971279 0.2107227022
| 12> H 0.6625736082 1.4041132189 1.3016886939
| 13> C 1.7738489413 0.2199864215 -0.1213888842
| 14> H 2.037462312 0.3389945934 -1.1841332326
| 15> C 1.253706087 -1.2201380063 0.0957914603
| 16> H 2.0247570041 -1.7815497966 0.6354699907
| 17> O 0.1429325787 -1.272929597 0.9529034634
| 18> O 1.0460468559 -1.9086555578 -1.0967211184
| 19> O 2.9164510163 0.3847043815 0.676416034
| 20> O 1.0282548209 2.4579810843 -0.4372507681
| 21> O -1.6256605946 1.7431841778 -0.0566246946
| 22> O -3.2731978095 -0.696717686 -0.2794967523
| 23> H -2.1902903824 -2.3228635688 0.4498095994
| 24> H -1.7211989322 -1.6627405247 -1.1240691928
| 25> H 0.5562006545 -1.3716040128 -1.737167237
| 26> H 3.2608896509 1.2822441155 0.5503219807
| 27> H 0.2696182471 3.0586169612 -0.3731121987
| 28> H -2.4903563361 1.4094163123 -0.3470445173
| 29> H -3.7848346624 -0.7410664135 0.5400943066
| 30> *
| 31>
| 32>                          ****END OF INPUT****

CARTESIAN COORDINATES (ANGSTROEM)
---------------------------------
  C     -2.061609   -1.398555   -0.120013
  C     -1.010230   -0.520870    0.588010
  H     -1.427185   -0.175661    1.543960
  C     -0.673131    0.726798   -0.243562
  H     -0.611547    0.474603   -1.314450
  C      0.691088    1.257597    0.210723
  H      0.662574    1.404113    1.301689
  C      1.773849    0.219986   -0.121389
  H      2.037462    0.338995   -1.184133
  C      1.253706   -1.220138    0.095791
  H      2.024757   -1.781550    0.635470
  O      0.142933   -1.272930    0.952903
  O      1.046047   -1.908656   -1.096721
  O      2.916451    0.384704    0.676416
  O      1.028255    2.457981   -0.437251
  O     -1.625661    1.743184   -0.056625
  O     -3.273198   -0.696718   -0.279497
  H     -2.190290   -2.322864    0.449810
  H     -1.721199   -1.662741   -1.124069
  H      0.556201   -1.371604   -1.737167
  H      3.260890    1.282244    0.550322
  H      0.269618    3.058617   -0.373112
  H     -2.490356    1.409416   -0.347045
  H     -3.784835   -0.741066    0.540094

 Total Charge           Charge          ....    0
 Multiplicity           Mult            ....    1
 Number of Electrons    NEL             ....   96
 Basis Dimension        Dim             ....  192

ORBITAL ENERGIES
----------------

  NO   OCC          E(Eh)            E(eV)
   0   2.0000     -18.780141      -511.0336
   1   2.0000     -18.766641      -510.6663
   2   2.0000     -18.762230      -510.5462
   3   2.0000     -18.761007      -510.5129
   4   2.0000     -18.752340      -510.2771
   5   2.0000     -18.750241      -510.2200
   6   2.0000      -9.982598      -271.6403
   7   2.0000      -9.952044      -270.8089
   8   2.0000      -9.948368      -270.7088
   9   2.0000      -9.945417      -270.6285
  10   2.0000      -9.942107      -270.5385
  11   2.0000      -9.941798      -270.5301
  12   2.0000      -0.979099       -26.6426
  13   2.0000      -0.954278       -25.9672
  14   2.0000      -0.946110       -25.7450
  15   2.0000      -0.931356       -25.3435
  16   2.0000      -0.916435       -24.9375
  17   2.0000      -0.912291       -24.8247
  18   2.0000      -0.710009       -19.3203
  19   2.0000      -0.693556       -18.8726
  20   2.0000      -0.627533       -17.0760
  21   2.0000      -0.588554       -16.0154
  22   2.0000      -0.569842       -15.5062
  23   2.0000      -0.530288       -14.4299
  24   2.0000      -0.507349       -13.8057
  25   2.0000      -0.495282       -13.4773
  26   2.0000      -0.475484       -12.9386
  27   2.0000      -0.472956       -12.8698
  28   2.0000      -0.454055       -12.3555
  29   2.0000      -0.428553       -11.6615
  30   2.0000      -0.414477       -11.2785
  31   2.0000      -0.399421       -10.8688
  32   2.0000      -0.395235       -10.7549
  33   2.0000      -0.388000       -10.5580
  34   2.0000      -0.371304       -10.1037
  35   2.0000      -0.351000        -9.5512
  36   2.0000      -0.326256        -8.8779
  37   2.0000      -0.312511        -8.5039
  38   2.0000      -0.310628        -8.4526
  39   2.0000      -0.300075        -8.1654
  40   2.0000      -0.288426        -7.8485
  41   2.0000      -0.285126        -7.7587
  42   2.0000      -0.253238        -6.8910
  43   2.0000      -0.251662        -6.8481
  44   2.0000      -0.233591        -6.3563
  45   2.0000      -0.225265        -6.1298
  46   2.0000      -0.219823        -5.9817
  47   2.0000      -0.207306        -5.6411
  48   0.0000       0.000148         0.0040
  49   0.0000       0.006533         0.1778
  50   0.0000       0.029142         0.7930
  51   0.0000       0.045369         1.2346
  52   0.0000       0.053574         1.4578

MULLIKEN ATOMIC CHARGES
-----------------------
   0 C :    0.059639
   1 C :    0.033947
   2 H :    0.063186
   3 C :   -0.025902
   4 H :    0.035126
   5 C :    0.091625
   6 H :    0.059430
   7 C :    0.038402
   8 H :    0.062548
   9 C :    0.203511
  10 H :    0.085039
  11 O :   -0.301819
  12 O :   -0.400915
  13 O :   -0.415283
  14 O :   -0.426002
  15 O :   -0.427418
  16 O :   -0.438732
  17 H :    0.099618
  18 H :    0.071228
  19 H :    0.300974
  20 H :    0.308901
  21 H :    0.309485
  22 H :    0.303197
  23 H :    0.310215
Sum of atomic charges:   -0.0000000

LOEWDIN ATOMIC CHARGES
----------------------
   0 C :   -0.133099
   1 C :   -0.081363
   2 H :    0.113018
   3 C :   -0.082832
   4 H :    0.091404
   5 C :   -0.073588
   6 H :    0.109497
   7 C :   -0.077961
   8 H :    0.104053
   9 C :    0.002176
  10 H :    0.122046
  11 O :   -0.139240
  12 O :   -0.301269
  13 O :   -0.314628
  14 O :   -0.325259
  15 O :   -0.324220
  16 O :   -0.327865
  17 H :    0.109982
  18 H :    0.107595
  19 H :    0.271858
  20 H :    0.290910
  21 H :    0.287515
  22 H :    0.278335
  23 H :    0.292937

  Mayer bond orders larger than 0.100000
B(  0-C ,  1-C ) :   1.0369 B(  0-C , 16-O ) :   1.0347 B(  0-C , 17-H ) :   0.9238
B(  0-C , 18-H ) :   0.9112 B(  1-C ,  2-H ) :   0.8815 B(  1-C ,  3-C ) :   0.9628
B(  1-C , 11-O ) :   0.9929 B(  3-C ,  4-H ) :   0.8816 B(  3-C ,  5-C ) :   1.0284
B(  3-C , 15-O ) :   1.0826 B(  5-C ,  6-H ) :   0.8550 B(  5-C ,  7-C ) :   1.0329
B(  5-C , 14-O ) :   1.0912 B(  7-C ,  8-H ) :   0.8906 B(  7-C ,  9-C ) :   0.9918
B(  7-C , 13-O ) :   1.0855 B(  9-C , 10-H ) :   0.8918 B(  9-C , 11-O ) :   1.0636
B(  9-C , 12-O ) :   1.0929 B( 12-O , 19-H ) :   0.8309 B( 13-O , 20-H ) :   0.8429
B( 14-O , 21-H ) :   0.8315 B( 15-O , 22-H ) :   0.8141 B( 16-O , 23-H ) :   0.8455

Dispersion correction           -0.024561219
FINAL SINGLE POINT ENERGY      -685.692904109728

DIPOLE MOMENT
-------------

Method             : SCF
Type of density    : Electron Density
Multiplicity       :   1
Irrep              :   0
Energy             :  -685.8235288202688480 Eh
Relativity type    :
Basis              : AO
                                X                 Y                 Z
Electronic contribution:      2.037947317       0.536160445       0.943032317
Nuclear contribution   :     -3.199350179      -0.071604708      -0.996743508
                        -----------------------------------------
Total Dipole Moment    :     -1.161402862       0.464555737      -0.053711191
                        -----------------------------------------
Magnitude (a.u.)       :      1.252019781
Magnitude (Debye)      :      3.182381376

Rotational constants in cm-1:             0.043236             0.026181             0.018588
Rotational constants in MHz :          1296.186789           784.882535           557.253145

                             ****ORCA TERMINATED NORMALLY****
TOTAL RUN TIME: 0 days 0 hours 0 minutes 12 seconds 149 msec
