                         Program Version 6.0.0  -   RELEASE  -
|  1> ! wb97x-v def2-tzvp def2/J RIJCOSX DEFGRID2 scfconv7 GCP(DFT/TZ) printgap
|  2> %output
|  3>     printlevel normal
|  4> end
|  5> * xyz 0 1
|  6> C 2.461010883607422 -1.206642278309951 0.0067851072675272385
|  7> C 1.7003498651129894 0.08416125843768424 0.00020367471192512195
|  8> O 2.2837237388730536 1.1667741627074124 -0.005560644198615913
|  9> C 0.2109352503257994 0.04257815125502195 0.00011896652076264954
| 10> C -0.5199827286550888 1.2347409078959528 0.0033190633033082714
| 11> C -1.9027658717610099 1.1722642951014048 0.003579740102514111
| 12> C -2.5126536623332103 -0.0783513266499073 0.00028502355779703694
| 13> N -1.8358226881265076 -1.2362136943098336 -0.003522132423039592
| 14> C -0.49954095819921845 -1.1612511147476499 -0.0033797422761579587
| 15> H 2.1944404222513056 -1.801750654107858 0.8871432636522294
| 16> H 3.531660933789062 -1.0014856065752975 0.011105595844813514
| 17> H 2.2028484661168264 -1.8046004352330014 -0.8742583898918368
| 18> H -0.0011931401962460284 2.187179092425167 0.006039160503628589
| 19> H -2.506444165182179 2.0729523950697533 0.00642605168405976
| 20> H -3.5973178159281503 -0.15532745621512573 0.000433847652421788
| 21> H 0.025514355075171972 -2.112196743462816 -0.0063929475063922965
| 22> *
| 23>
| 24>                          ****END OF INPUT****

CARTESIAN COORDINATES (ANGSTROEM)
---------------------------------
  C      2.461011   -1.206642    0.006785
  C      1.700350    0.084161    0.000204
  O      2.283724    1.166774   -0.005561
  C      0.210935    0.042578    0.000119
  C     -0.519983    1.234741    0.003319
  C     -1.902766    1.172264    0.003580
  C     -2.512654   -0.078351    0.000285
  N     -1.835823   -1.236214   -0.003522
  C     -0.499541   -1.161251   -0.003380
  H      2.194440   -1.801751    0.887143
  H      3.531661   -1.001486    0.011106
  H      2.202848   -1.804600   -0.874258
  H     -0.001193    2.187179    0.006039
  H     -2.506444    2.072952    0.006426
  H     -3.597318   -0.155327    0.000434
  H      0.025514   -2.112197   -0.006393

 Total Charge           Charge          ....    0
 Multiplicity           Mult            ....    1
 Number of Electrons    NEL             ....   64
 Basis Dimension        Dim             ....  321

ORBITAL ENERGIES
----------------

  NO   OCC          E(Eh)            E(eV)
   0   2.0000     -21.668632      -589.6334
   1   2.0000     -16.540381      -450.0867
   2   2.0000     -12.152096      -330.6754
   3   2.0000     -12.104548      -329.3815
   4   2.0000     -12.102525      -329.3264
   5   2.0000     -12.084697      -328.8413
   6   2.0000     -12.077477      -328.6448
   7   2.0000     -12.072346      -328.5052
   8   2.0000     -12.060769      -328.1902
   9   2.0000      -1.711806       -46.5806
  10   2.0000      -1.534600       -41.7586
  11   2.0000      -1.368167       -37.2297
  12   2.0000      -1.325337       -36.0642
  13   2.0000      -1.268580       -34.5198
  14   2.0000      -1.186434       -32.2845
  15   2.0000      -1.158048       -31.5121
  16   2.0000      -1.104810       -30.0634
  17   2.0000      -1.030862       -28.0512
  18   2.0000      -1.015541       -27.6343
  19   2.0000      -0.982604       -26.7380
  20   2.0000      -0.962377       -26.1876
  21   2.0000      -0.918875       -25.0039
  22   2.0000      -0.917577       -24.9685
  23   2.0000      -0.886864       -24.1328
  24   2.0000      -0.868867       -23.6431
  25   2.0000      -0.845283       -23.0013
  26   2.0000      -0.844774       -22.9875
  27   2.0000      -0.840033       -22.8585
  28   2.0000      -0.819572       -22.3017
  29   2.0000      -0.780054       -21.2263
  30   2.0000      -0.716830       -19.5059
  31   2.0000      -0.672950       -18.3119
  32   0.0000      -0.352372        -9.5885
  33   0.0000      -0.299908        -8.1609
  34   0.0000      -0.230806        -6.2805
  35   0.0000      -0.097070        -2.6414
  36   0.0000      -0.083836        -2.2813

MULLIKEN ATOMIC CHARGES
-----------------------
   0 C :   -0.374062
   1 C :    0.230204
   2 O :   -0.319497
   3 C :    0.054075
   4 C :   -0.176878
   5 C :   -0.065090
   6 C :   -0.038123
   7 N :   -0.212852
   8 C :   -0.087437
   9 H :    0.139182
  10 H :    0.146713
  11 H :    0.139004
  12 H :    0.162075
  13 H :    0.132911
  14 H :    0.130298
  15 H :    0.139477
Sum of atomic charges:   -0.0000000

LOEWDIN ATOMIC CHARGES
----------------------
   0 C :   -0.254769
   1 C :   -0.298157
   2 O :    0.111732
   3 C :   -0.140046
   4 C :   -0.051844
   5 C :   -0.144223
   6 C :   -0.180543
   7 N :    0.123022
   8 C :   -0.157124
   9 H :    0.136474
  10 H :    0.134038
  11 H :    0.136626
  12 H :    0.158497
  13 H :    0.146689
  14 H :    0.137792
  15 H :    0.141835

  Mayer bond orders larger than 0.100000
B(  0-C ,  1-C ) :   0.9953 B(  0-C ,  9-H ) :   0.9574 B(  0-C , 10-H ) :   0.9768
B(  0-C , 11-H ) :   0.9566 B(  1-C ,  2-O ) :   2.1067 B(  1-C ,  3-C ) :   0.9373
B(  2-O ,  3-C ) :  -0.1193 B(  3-C ,  4-C ) :   1.3894 B(  3-C ,  8-C ) :   1.3169
B(  4-C ,  5-C ) :   1.4593 B(  4-C , 12-H ) :   0.9438 B(  5-C ,  6-C ) :   1.3828
B(  5-C , 13-H ) :   0.9661 B(  6-C ,  7-N ) :   1.4873 B(  6-C , 14-H ) :   0.9832
B(  7-N ,  8-C ) :   1.5398 B(  8-C , 15-H ) :   0.9903

FINAL SINGLE POINT ENERGY      -400.950370159342

DIPOLE MOMENT
-------------

Method             : SCF
Type of density    : Electron Density
Multiplicity       :   1
Irrep              :   0
Energy             :  -400.9589603106422828 Eh
Relativity type    :
Basis              : AO
                                X                 Y                 Z
Electronic contribution:     -2.096236972       2.220231776      -0.019547018
Nuclear contribution   :      1.762976208      -2.430394193       0.027231431
                        -----------------------------------------
Total Dipole Moment    :     -0.333260764      -0.210162417       0.007684413
                        -----------------------------------------
Magnitude (a.u.)       :      0.394068558
Magnitude (Debye)      :      1.001642672

Rotational constants in cm-1:             0.125175             0.041371             0.031275
Rotational constants in MHz :          3752.666444          1240.258178           937.589345

                             ****ORCA TERMINATED NORMALLY****
TOTAL RUN TIME: 0 days 0 hours 2 minutes 41 seconds 806 msec
