                         Program Version 6.0.0  -   RELEASE  -
|  1> ! wb97x-v def2-tzvp def2/J RIJCOSX DEFGRID2 scfconv7 GCP(DFT/TZ) printgap
|  2> %output
|  3>     printlevel normal
|  4> end
|  5> %cpcm
|  6>     smd true
|  7>     smdsolvent "water"
|  8> end
|  9> * xyz 0 1
| 10> C 2.461010883607422 -1.206642278309951 0.0067851072675272385
| 11> C 1.7003498651129894 0.08416125843768424 0.00020367471192512195
| 12> O 2.2837237388730536 1.1667741627074124 -0.005560644198615913
| 13> C 0.2109352503257994 0.04257815125502195 0.00011896652076264954
| 14> C -0.5199827286550888 1.2347409078959528 0.0033190633033082714
| 15> C -1.9027658717610099 1.1722642951014048 0.003579740102514111
| 16> C -2.5126536623332103 -0.0783513266499073 0.00028502355779703694
| 17> N -1.8358226881265076 -1.2362136943098336 -0.003522132423039592
| 18> C -0.49954095819921845 -1.1612511147476499 -0.0033797422761579587
| 19> H 2.1944404222513056 -1.801750654107858 0.8871432636522294
| 20> H 3.531660933789062 -1.0014856065752975 0.011105595844813514
| 21> H 2.2028484661168264 -1.8046004352330014 -0.8742583898918368
| 22> H -0.0011931401962460284 2.187179092425167 0.006039160503628589
| 23> H -2.506444165182179 2.0729523950697533 0.00642605168405976
| 24> H -3.5973178159281503 -0.15532745621512573 0.000433847652421788
| 25> H 0.025514355075171972 -2.112196743462816 -0.0063929475063922965
| 26> *
| 27>
| 28>                          ****END OF INPUT****

CARTESIAN COORDINATES (ANGSTROEM)
---------------------------------
  C      2.461011   -1.206642    0.006785
  C      1.700350    0.084161    0.000204
  O      2.283724    1.166774   -0.005561
  C      0.210935    0.042578    0.000119
  C     -0.519983    1.234741    0.003319
  C     -1.902766    1.172264    0.003580
  C     -2.512654   -0.078351    0.000285
  N     -1.835823   -1.236214   -0.003522
  C     -0.499541   -1.161251   -0.003380
  H      2.194440   -1.801751    0.887143
  H      3.531661   -1.001486    0.011106
  H      2.202848   -1.804600   -0.874258
  H     -0.001193    2.187179    0.006039
  H     -2.506444    2.072952    0.006426
  H     -3.597318   -0.155327    0.000434
  H      0.025514   -2.112197   -0.006393

 Total Charge           Charge          ....    0
 Multiplicity           Mult            ....    1
 Number of Electrons    NEL             ....   64
 Basis Dimension        Dim             ....  321

ORBITAL ENERGIES
----------------

  NO   OCC          E(Eh)            E(eV)
   0   2.0000     -21.672971      -589.7515
   1   2.0000     -16.537072      -449.9966
   2   2.0000     -12.154931      -330.7525
   3   2.0000     -12.096572      -329.1645
   4   2.0000     -12.094010      -329.0948
   5   2.0000     -12.076748      -328.6250
   6   2.0000     -12.070234      -328.4478
   7   2.0000     -12.060420      -328.1807
   8   2.0000     -12.043105      -327.7096
   9   2.0000      -1.719553       -46.7914
  10   2.0000      -1.530435       -41.6452
  11   2.0000      -1.361137       -37.0384
  12   2.0000      -1.316630       -35.8273
  13   2.0000      -1.257998       -34.2319
  14   2.0000      -1.179408       -32.0933
  15   2.0000      -1.148856       -31.2620
  16   2.0000      -1.106966       -30.1221
  17   2.0000      -1.031512       -28.0689
  18   2.0000      -1.006755       -27.3952
  19   2.0000      -0.973173       -26.4814
  20   2.0000      -0.959945       -26.1214
  21   2.0000      -0.924755       -25.1639
  22   2.0000      -0.905473       -24.6392
  23   2.0000      -0.879940       -23.9444
  24   2.0000      -0.859814       -23.3967
  25   2.0000      -0.841310       -22.8932
  26   2.0000      -0.829494       -22.5717
  27   2.0000      -0.824922       -22.4473
  28   2.0000      -0.815320       -22.1860
  29   2.0000      -0.776891       -21.1403
  30   2.0000      -0.711582       -19.3631
  31   2.0000      -0.664249       -18.0751
  32   0.0000      -0.345584        -9.4038
  33   0.0000      -0.292730        -7.9656
  34   0.0000      -0.222890        -6.0651
  35   0.0000      -0.088937        -2.4201
  36   0.0000      -0.078034        -2.1234

MULLIKEN ATOMIC CHARGES
-----------------------
   0 C :   -0.396308
   1 C :    0.302151
   2 O :   -0.443766
   3 C :    0.051977
   4 C :   -0.185370
   5 C :   -0.120883
   6 C :   -0.036456
   7 N :   -0.284132
   8 C :   -0.074632
   9 H :    0.169952
  10 H :    0.149489
  11 H :    0.169995
  12 H :    0.171609
  13 H :    0.175637
  14 H :    0.168847
  15 H :    0.181890
Sum of atomic charges:   -0.0000000

LOEWDIN ATOMIC CHARGES
----------------------
   0 C :   -0.247103
   1 C :   -0.278796
   2 O :    0.040106
   3 C :   -0.139164
   4 C :   -0.050082
   5 C :   -0.138262
   6 C :   -0.178654
   7 N :    0.085725
   8 C :   -0.147366
   9 H :    0.148849
  10 H :    0.133953
  11 H :    0.149057
  12 H :    0.161731
  13 H :    0.158747
  14 H :    0.147443
  15 H :    0.153818

  Mayer bond orders larger than 0.100000
B(  0-C ,  1-C ) :   1.0279 B(  0-C ,  9-H ) :   0.9446 B(  0-C , 10-H ) :   0.9673
B(  0-C , 11-H ) :   0.9438 B(  1-C ,  2-O ) :   1.9784 B(  1-C ,  3-C ) :   0.9529
B(  2-O ,  3-C ) :  -0.1125 B(  3-C ,  4-C ) :   1.3381 B(  3-C ,  8-C ) :   1.3477
B(  4-C ,  5-C ) :   1.4724 B(  4-C , 12-H ) :   0.9532 B(  5-C ,  6-C ) :   1.4088
B(  5-C , 13-H ) :   0.9605 B(  6-C ,  7-N ) :   1.4695 B(  6-C , 14-H ) :   0.9629
B(  7-N ,  8-C ) :   1.5226 B(  8-C , 15-H ) :   0.9632

FINAL SINGLE POINT ENERGY      -400.963548797458

DIPOLE MOMENT
-------------

Method             : SCF
Type of density    : Electron Density
Multiplicity       :   1
Irrep              :   0
Energy             :  -400.9721389487575607 Eh
Relativity type    :
Basis              : AO
                                X                 Y                 Z
Electronic contribution:     -2.297140766       2.027260488      -0.016542711
Nuclear contribution   :      1.762976208      -2.430394193       0.027231431
                        -----------------------------------------
Total Dipole Moment    :     -0.534164558      -0.403133705       0.010688721
                        -----------------------------------------
Magnitude (a.u.)       :      0.669300237
Magnitude (Debye)      :      1.701226004

Rotational constants in cm-1:             0.125175             0.041371             0.031275
Rotational constants in MHz :          3752.666444          1240.258178           937.589345

                             ****ORCA TERMINATED NORMALLY****
TOTAL RUN TIME: 0 days 0 hours 2 minutes 36 seconds 16 msec
