                         Program Version 6.0.0  -   RELEASE  -
|  1> ! wb97x-v def2-tzvp def2/J RIJCOSX DEFGRID2 scfconv7 GCP(DFT/TZ) printgap
|  2> %output
|  3>     printlevel normal
|  4> end
|  5> * xyz 0 1
|  6> C -3.210202077475819 -0.04736491420216515 1.3621690679522995e-05
|  7> C -1.784833306627474 0.5096552524294522 2.6318426956155184e-06
|  8> C -0.794440640506821 -0.631474306673568 -1.0941664890720923e-08
|  9> Br 1.0924127262494414 0.026390976474253626 -3.481252886000178e-05
| 10> H -3.3929278122136943 -0.6638106053460519 0.8865265938479647
| 11> H -3.939297340389189 0.7687052260704683 1.944607756380414e-05
| 12> H -3.3929410852197197 -0.6638098406994289 -0.8864966776767278
| 13> H -1.6274061568405673 1.1374461028561296 0.8831380329246041
| 14> H -1.6274201763483802 1.1374443068214797 -0.8831367258066007
| 15> H -0.8732846777225698 -1.2520873114115354 -0.8930483791536603
| 16> H -0.8732790057315518 -1.252091817937193 0.8930456871178719
| 17> *
| 18>
| 19>                          ****END OF INPUT****

CARTESIAN COORDINATES (ANGSTROEM)
---------------------------------
  C     -3.210202   -0.047365    0.000014
  C     -1.784833    0.509655    0.000003
  C     -0.794441   -0.631474   -0.000000
  Br     1.092413    0.026391   -0.000035
  H     -3.392928   -0.663811    0.886527
  H     -3.939297    0.768705    0.000019
  H     -3.392941   -0.663810   -0.886497
  H     -1.627406    1.137446    0.883138
  H     -1.627420    1.137444   -0.883137
  H     -0.873285   -1.252087   -0.893048
  H     -0.873279   -1.252092    0.893046

 Total Charge           Charge          ....    0
 Multiplicity           Mult            ....    1
 Number of Electrons    NEL             ....   60
 Basis Dimension        Dim             ....  183

ORBITAL ENERGIES
----------------

  NO   OCC          E(Eh)            E(eV)
   0   2.0000    -494.706333    -13461.6437
   1   2.0000     -66.876001     -1819.7885
   2   2.0000     -60.932877     -1658.0679
   3   2.0000     -60.931296     -1658.0248
   4   2.0000     -60.931189     -1658.0219
   5   2.0000     -12.107995      -329.4753
   6   2.0000     -12.060986      -328.1961
   7   2.0000     -12.050529      -327.9116
   8   2.0000     -10.627733      -289.1953
   9   2.0000      -8.407392      -228.7768
  10   2.0000      -8.400840      -228.5985
  11   2.0000      -8.400834      -228.5983
  12   2.0000      -4.392441      -119.5244
  13   2.0000      -4.389905      -119.4554
  14   2.0000      -4.389894      -119.4551
  15   2.0000      -4.382674      -119.2586
  16   2.0000      -4.382650      -119.2580
  17   2.0000      -1.340159       -36.4676
  18   2.0000      -1.285305       -34.9749
  19   2.0000      -1.177274       -32.0353
  20   2.0000      -1.076475       -29.2924
  21   2.0000      -0.915424       -24.9099
  22   2.0000      -0.882499       -24.0140
  23   2.0000      -0.865529       -23.5523
  24   2.0000      -0.843423       -22.9507
  25   2.0000      -0.801210       -21.8020
  26   2.0000      -0.790512       -21.5109
  27   2.0000      -0.775848       -21.1119
  28   2.0000      -0.711120       -19.3506
  29   2.0000      -0.708520       -19.2798
  30   0.0000      -0.285398        -7.7661
  31   0.0000      -0.029719        -0.8087
  32   0.0000      -0.020429        -0.5559
  33   0.0000      -0.003618        -0.0985
  34   0.0000       0.004966         0.1351

MULLIKEN ATOMIC CHARGES
-----------------------
   0 C :   -0.350173
   1 C :   -0.159936
   2 C :   -0.168826
   3 Br:   -0.149892
   4 H :    0.110866
   5 H :    0.123529
   6 H :    0.110866
   7 H :    0.108533
   8 H :    0.108536
   9 H :    0.133247
  10 H :    0.133250
Sum of atomic charges:    0.0000000

LOEWDIN ATOMIC CHARGES
----------------------
   0 C :   -0.301931
   1 C :   -0.324184
   2 C :   -0.421638
   3 Br:    0.171893
   4 H :    0.117775
   5 H :    0.120747
   6 H :    0.117775
   7 H :    0.135422
   8 H :    0.135422
   9 H :    0.124360
  10 H :    0.124360

  Mayer bond orders larger than 0.100000
B(  0-C ,  1-C ) :   0.9702 B(  0-C ,  4-H ) :   0.9779 B(  0-C ,  5-H ) :   0.9789
B(  0-C ,  6-H ) :   0.9779 B(  1-C ,  2-C ) :   0.9994 B(  1-C ,  7-H ) :   0.9691
B(  1-C ,  8-H ) :   0.9691 B(  2-C ,  3-Br) :   1.0442 B(  2-C ,  9-H ) :   0.9672
B(  2-C , 10-H ) :   0.9672

FINAL SINGLE POINT ENERGY     -2692.459590515698

DIPOLE MOMENT
-------------

Method             : SCF
Type of density    : Electron Density
Multiplicity       :   1
Irrep              :   0
Energy             : -2692.4685322137979711 Eh
Relativity type    :
Basis              : AO
                                X                 Y                 Z
Electronic contribution:     23.922808182       0.814597055      -0.000299607
Nuclear contribution   :    -24.855487923      -1.000379458       0.000312160
                        -----------------------------------------
Total Dipole Moment    :     -0.932679741      -0.185782403       0.000012553
                        -----------------------------------------
Magnitude (a.u.)       :      0.951002945
Magnitude (Debye)      :      2.417257382

Rotational constants in cm-1:             0.842759             0.053442             0.051725
Rotational constants in MHz :         25265.293036          1602.162073          1550.673122

                             ****ORCA TERMINATED NORMALLY****
TOTAL RUN TIME: 0 days 0 hours 0 minutes 47 seconds 121 msec
