                         Program Version 6.0.0  -   RELEASE  -
|  1> ! wb97x-v def2-tzvp def2/J RIJCOSX DEFGRID2 scfconv7 GCP(DFT/TZ) printgap
|  2> %output
|  3>     printlevel normal
|  4> end
|  5> %cpcm
|  6>     smd true
|  7>     smdsolvent "water"
|  8> end
|  9> * xyz 0 1
| 10> C -3.210202077475819 -0.04736491420216515 1.3621690679522995e-05
| 11> C -1.784833306627474 0.5096552524294522 2.6318426956155184e-06
| 12> C -0.794440640506821 -0.631474306673568 -1.0941664890720923e-08
| 13> Br 1.0924127262494414 0.026390976474253626 -3.481252886000178e-05
| 14> H -3.3929278122136943 -0.6638106053460519 0.8865265938479647
| 15> H -3.939297340389189 0.7687052260704683 1.944607756380414e-05
| 16> H -3.3929410852197197 -0.6638098406994289 -0.8864966776767278
| 17> H -1.6274061568405673 1.1374461028561296 0.8831380329246041
| 18> H -1.6274201763483802 1.1374443068214797 -0.8831367258066007
| 19> H -0.8732846777225698 -1.2520873114115354 -0.8930483791536603
| 20> H -0.8732790057315518 -1.252091817937193 0.8930456871178719
| 21> *
| 22>
| 23>                          ****END OF INPUT****

CARTESIAN COORDINATES (ANGSTROEM)
---------------------------------
  C     -3.210202   -0.047365    0.000014
  C     -1.784833    0.509655    0.000003
  C     -0.794441   -0.631474   -0.000000
  Br     1.092413    0.026391   -0.000035
  H     -3.392928   -0.663811    0.886527
  H     -3.939297    0.768705    0.000019
  H     -3.392941   -0.663810   -0.886497
  H     -1.627406    1.137446    0.883138
  H     -1.627420    1.137444   -0.883137
  H     -0.873285   -1.252087   -0.893048
  H     -0.873279   -1.252092    0.893046

 Total Charge           Charge          ....    0
 Multiplicity           Mult            ....    1
 Number of Electrons    NEL             ....   60
 Basis Dimension        Dim             ....  183

ORBITAL ENERGIES
----------------

  NO   OCC          E(Eh)            E(eV)
   0   2.0000    -494.702950    -13461.5516
   1   2.0000     -66.872743     -1819.6999
   2   2.0000     -60.929561     -1657.9776
   3   2.0000     -60.928082     -1657.9374
   4   2.0000     -60.927974     -1657.9344
   5   2.0000     -12.094733      -329.1144
   6   2.0000     -12.045027      -327.7619
   7   2.0000     -12.031214      -327.3860
   8   2.0000     -10.624555      -289.1089
   9   2.0000      -8.403978      -228.6839
  10   2.0000      -8.397887      -228.5181
  11   2.0000      -8.397877      -228.5179
  12   2.0000      -4.388961      -119.4297
  13   2.0000      -4.386614      -119.3658
  14   2.0000      -4.386603      -119.3655
  15   2.0000      -4.379845      -119.1816
  16   2.0000      -4.379821      -119.1810
  17   2.0000      -1.331424       -36.2299
  18   2.0000      -1.273391       -34.6507
  19   2.0000      -1.161920       -31.6174
  20   2.0000      -1.060527       -28.8584
  21   2.0000      -0.899303       -24.4713
  22   2.0000      -0.866917       -23.5900
  23   2.0000      -0.851033       -23.1578
  24   2.0000      -0.826146       -22.4806
  25   2.0000      -0.785152       -21.3651
  26   2.0000      -0.778234       -21.1768
  27   2.0000      -0.758374       -20.6364
  28   2.0000      -0.708182       -19.2706
  29   2.0000      -0.705282       -19.1917
  30   0.0000      -0.276018        -7.5108
  31   0.0000      -0.013669        -0.3720
  32   0.0000      -0.005638        -0.1534
  33   0.0000       0.013811         0.3758
  34   0.0000       0.023609         0.6424

MULLIKEN ATOMIC CHARGES
-----------------------
   0 C :   -0.397829
   1 C :   -0.160098
   2 C :   -0.178042
   3 Br:   -0.196267
   4 H :    0.127794
   5 H :    0.136415
   6 H :    0.127794
   7 H :    0.113378
   8 H :    0.113382
   9 H :    0.156735
  10 H :    0.156739
Sum of atomic charges:    0.0000000

LOEWDIN ATOMIC CHARGES
----------------------
   0 C :   -0.304175
   1 C :   -0.323506
   2 C :   -0.411317
   3 Br:    0.139221
   4 H :    0.121408
   5 H :    0.122692
   6 H :    0.121408
   7 H :    0.136093
   8 H :    0.136093
   9 H :    0.131041
  10 H :    0.131041

  Mayer bond orders larger than 0.100000
B(  0-C ,  1-C ) :   0.9732 B(  0-C ,  4-H ) :   0.9760 B(  0-C ,  5-H ) :   0.9751
B(  0-C ,  6-H ) :   0.9760 B(  1-C ,  2-C ) :   1.0027 B(  1-C ,  7-H ) :   0.9667
B(  1-C ,  8-H ) :   0.9667 B(  2-C ,  3-Br) :   1.0081 B(  2-C ,  9-H ) :   0.9616
B(  2-C , 10-H ) :   0.9616

FINAL SINGLE POINT ENERGY     -2692.462016539526

DIPOLE MOMENT
-------------

Method             : SCF
Type of density    : Electron Density
Multiplicity       :   1
Irrep              :   0
Energy             : -2692.4709582376258368 Eh
Relativity type    :
Basis              : AO
                                X                 Y                 Z
Electronic contribution:     23.672034932       0.711268483      -0.000294618
Nuclear contribution   :    -24.855487923      -1.000379458       0.000312160
                        -----------------------------------------
Total Dipole Moment    :     -1.183452991      -0.289110976       0.000017543
                        -----------------------------------------
Magnitude (a.u.)       :      1.218255367
Magnitude (Debye)      :      3.096559055

Rotational constants in cm-1:             0.842759             0.053442             0.051725
Rotational constants in MHz :         25265.293036          1602.162073          1550.673122

                             ****ORCA TERMINATED NORMALLY****
TOTAL RUN TIME: 0 days 0 hours 0 minutes 51 seconds 558 msec
