                         Program Version 6.0.0  -   RELEASE  -
|  1> ! pbe def2-sv(p) def2/J RI DEFGRID1 loosescf d4 GCP(DFT/SV(P)) printgap
|  2> %output
|  3>     printlevel normal
|  4> end
|  5> * xyz 0 1
|  6> C -2.5092659646 -1.0286173316 0.3375136194
|  7> C -1.0681257151 -0.5386588434 0.5864231152
|  8> H -0.9052914096 -0.4666451959 1.6722393593
|  9> C -0.799146052 0.8332984314 -0.0457978829
| 10> H -0.9383066288 0.737825023 -1.1361455833
| 11> C 0.6580779521 1.2499946369 0.2214529746
| 12> H 0.8142468643 1.3626946102 1.300795271
| 13> C 1.5911362218 0.1569220377 -0.3039485464
| 14> H 1.4832125915 0.0872054085 -1.4001149725
| 15> C 1.1756418011 -1.201897176 0.3091413446
| 16> H 1.3579242483 -1.1573502583 1.3981694123
| 17> O -0.1710683159 -1.4918272103 0.0444315814
| 18> O 1.9543181009 -2.2306558337 -0.1926070806
| 19> O 2.9172751971 0.4643309713 0.0362244601
| 20> O 0.9078826813 2.5218060622 -0.3212342382
| 21> O -1.7055959864 1.7689099132 0.4785368653
| 22> O -3.0406980715 -0.6513447752 -0.9042364422
| 23> H -3.1405012361 -0.6656944629 1.1537579212
| 24> H -2.4914790044 -2.1201222816 0.3462212799
| 25> H 1.5175182918 -2.6017903893 -0.975716887
| 26> H 3.4683969754 -0.3202746423 -0.111576956
| 27> H 1.0903073495 2.4526306719 -1.2695655101
| 28> H -1.3274074654 2.6554265856 0.3598760927
| 29> H -3.2727527739 0.2881439166 -0.8695653719
| 30> *
| 31>
| 32>                          ****END OF INPUT****

CARTESIAN COORDINATES (ANGSTROEM)
---------------------------------
  C     -2.509266   -1.028617    0.337514
  C     -1.068126   -0.538659    0.586423
  H     -0.905291   -0.466645    1.672239
  C     -0.799146    0.833298   -0.045798
  H     -0.938307    0.737825   -1.136146
  C      0.658078    1.249995    0.221453
  H      0.814247    1.362695    1.300795
  C      1.591136    0.156922   -0.303949
  H      1.483213    0.087205   -1.400115
  C      1.175642   -1.201897    0.309141
  H      1.357924   -1.157350    1.398169
  O     -0.171068   -1.491827    0.044432
  O      1.954318   -2.230656   -0.192607
  O      2.917275    0.464331    0.036224
  O      0.907883    2.521806   -0.321234
  O     -1.705596    1.768910    0.478537
  O     -3.040698   -0.651345   -0.904236
  H     -3.140501   -0.665694    1.153758
  H     -2.491479   -2.120122    0.346221
  H      1.517518   -2.601790   -0.975717
  H      3.468397   -0.320275   -0.111577
  H      1.090307    2.452631   -1.269566
  H     -1.327407    2.655427    0.359876
  H     -3.272753    0.288144   -0.869565

 Total Charge           Charge          ....    0
 Multiplicity           Mult            ....    1
 Number of Electrons    NEL             ....   96
 Basis Dimension        Dim             ....  192

ORBITAL ENERGIES
----------------

  NO   OCC          E(Eh)            E(eV)
   0   2.0000     -18.779744      -511.0228
   1   2.0000     -18.771831      -510.8075
   2   2.0000     -18.764761      -510.6151
   3   2.0000     -18.761725      -510.5325
   4   2.0000     -18.754858      -510.3456
   5   2.0000     -18.748171      -510.1637
   6   2.0000      -9.994094      -271.9531
   7   2.0000      -9.949307      -270.7344
   8   2.0000      -9.948679      -270.7173
   9   2.0000      -9.947273      -270.6791
  10   2.0000      -9.945420      -270.6286
  11   2.0000      -9.932693      -270.2823
  12   2.0000      -0.994555       -27.0632
  13   2.0000      -0.954309       -25.9681
  14   2.0000      -0.940025       -25.5794
  15   2.0000      -0.924989       -25.1702
  16   2.0000      -0.924468       -25.1561
  17   2.0000      -0.918120       -24.9833
  18   2.0000      -0.708957       -19.2917
  19   2.0000      -0.694011       -18.8850
  20   2.0000      -0.618772       -16.8376
  21   2.0000      -0.593397       -16.1472
  22   2.0000      -0.568499       -15.4696
  23   2.0000      -0.543617       -14.7926
  24   2.0000      -0.506958       -13.7950
  25   2.0000      -0.496867       -13.5204
  26   2.0000      -0.476687       -12.9713
  27   2.0000      -0.460887       -12.5414
  28   2.0000      -0.439919       -11.9708
  29   2.0000      -0.436617       -11.8810
  30   2.0000      -0.429713       -11.6931
  31   2.0000      -0.421231       -11.4623
  32   2.0000      -0.393163       -10.6985
  33   2.0000      -0.371705       -10.1146
  34   2.0000      -0.361677        -9.8417
  35   2.0000      -0.351897        -9.5756
  36   2.0000      -0.329581        -8.9684
  37   2.0000      -0.325616        -8.8605
  38   2.0000      -0.311725        -8.4825
  39   2.0000      -0.303046        -8.2463
  40   2.0000      -0.289216        -7.8700
  41   2.0000      -0.277546        -7.5524
  42   2.0000      -0.262269        -7.1367
  43   2.0000      -0.244968        -6.6659
  44   2.0000      -0.239647        -6.5211
  45   2.0000      -0.221708        -6.0330
  46   2.0000      -0.219819        -5.9816
  47   2.0000      -0.210945        -5.7401
  48   0.0000       0.007772         0.2115
  49   0.0000       0.021117         0.5746
  50   0.0000       0.038072         1.0360
  51   0.0000       0.046152         1.2559
  52   0.0000       0.052632         1.4322

MULLIKEN ATOMIC CHARGES
-----------------------
   0 C :    0.081447
   1 C :    0.029116
   2 H :    0.055824
   3 C :    0.022603
   4 H :    0.043125
   5 C :    0.066709
   6 H :    0.068873
   7 C :    0.041367
   8 H :    0.027086
   9 C :    0.168151
  10 H :    0.056374
  11 O :   -0.306970
  12 O :   -0.392131
  13 O :   -0.404528
  14 O :   -0.410475
  15 O :   -0.425708
  16 O :   -0.434690
  17 H :    0.083987
  18 H :    0.092733
  19 H :    0.310155
  20 H :    0.304432
  21 H :    0.304983
  22 H :    0.308936
  23 H :    0.308602
Sum of atomic charges:    0.0000000

LOEWDIN ATOMIC CHARGES
----------------------
   0 C :   -0.122041
   1 C :   -0.064627
   2 H :    0.107500
   3 C :   -0.088367
   4 H :    0.094730
   5 C :   -0.077633
   6 H :    0.120076
   7 C :   -0.098602
   8 H :    0.092152
   9 C :   -0.002394
  10 H :    0.097430
  11 O :   -0.146269
  12 O :   -0.299167
  13 O :   -0.317266
  14 O :   -0.306816
  15 O :   -0.325272
  16 O :   -0.331142
  17 H :    0.107349
  18 H :    0.121090
  19 H :    0.293103
  20 H :    0.285672
  21 H :    0.289251
  22 H :    0.286220
  23 H :    0.285022

  Mayer bond orders larger than 0.100000
B(  0-C ,  1-C ) :   0.9978 B(  0-C , 16-O ) :   1.1115 B(  0-C , 17-H ) :   0.9211
B(  0-C , 18-H ) :   0.9195 B(  1-C ,  2-H ) :   0.8718 B(  1-C ,  3-C ) :   1.0185
B(  1-C , 11-O ) :   0.9760 B(  3-C ,  4-H ) :   0.8530 B(  3-C ,  5-C ) :   1.0070
B(  3-C , 15-O ) :   1.0728 B(  5-C ,  6-H ) :   0.8703 B(  5-C ,  7-C ) :   1.0111
B(  5-C , 14-O ) :   1.0492 B(  7-C ,  8-H ) :   0.8520 B(  7-C ,  9-C ) :   0.9783
B(  7-C , 13-O ) :   1.1007 B(  9-C , 10-H ) :   0.8790 B(  9-C , 11-O ) :   1.0318
B(  9-C , 12-O ) :   1.1157 B( 12-O , 19-H ) :   0.8379 B( 13-O , 20-H ) :   0.8333
B( 14-O , 21-H ) :   0.8456 B( 15-O , 22-H ) :   0.8250 B( 16-O , 23-H ) :   0.8365

Dispersion correction           -0.023972219
FINAL SINGLE POINT ENERGY      -685.698824369237

DIPOLE MOMENT
-------------

Method             : SCF
Type of density    : Electron Density
Multiplicity       :   1
Irrep              :   0
Energy             :  -685.8293316224255705 Eh
Relativity type    :
Basis              : AO
                                X                 Y                 Z
Electronic contribution:      2.273156019      -0.124679105      -0.890007562
Nuclear contribution   :     -2.186423006       0.242112394       0.426690601
                        -----------------------------------------
Total Dipole Moment    :      0.086733014       0.117433289      -0.463316961
                        -----------------------------------------
Magnitude (a.u.)       :      0.485773403
Magnitude (Debye)      :      1.234737865

Rotational constants in cm-1:             0.041168             0.026031             0.017328
Rotational constants in MHz :          1234.177865           780.393391           519.475865

                             ****ORCA TERMINATED NORMALLY****
TOTAL RUN TIME: 0 days 0 hours 0 minutes 11 seconds 710 msec
