                         Program Version 6.0.0  -   RELEASE  -
|  1> ! r2scan-3c def2/J RI DEFGRID2 scfconv6 printgap
|  2> %output
|  3>     printlevel normal
|  4> end
|  5> * xyz 0 1
|  6> C 2.8863140963 -0.0734376843 0.0135755509
|  7> C 1.3928319149 0.0045286469 -0.0055851871
|  8> C 0.71396894 1.2173923292 -0.0064328858
|  9> C -0.6698105271 1.2255397516 -0.0051988514
| 10> C -1.356546812 0.0151544037 -0.0017970167
| 11> N -0.7108383274 -1.1488907733 -0.005469461
| 12> C 0.6097256861 -1.1458564878 -0.0078371302
| 13> C -2.8517693669 -0.0437298785 0.0110787734
| 14> H 3.2306775358 -0.3422723664 1.0116868459
| 15> H 3.2380376788 -0.835861221 -0.6777152043
| 16> H 3.3254391597 0.8834416965 -0.2559983371
| 17> H 1.2648575443 2.1474981059 -0.0094998554
| 18> H -1.2135549982 2.1578565326 -0.0074032922
| 19> H 1.0717873092 -2.1255456476 -0.0127708854
| 20> H -3.1924841268 -0.4952919497 0.9405536302
| 21> H -3.278630449 0.9503140538 -0.0813754684
| 22> H -3.2039824458 -0.6694576633 -0.8052904817
| 23> *
| 24>
| 25>                          ****END OF INPUT****

CARTESIAN COORDINATES (ANGSTROEM)
---------------------------------
  C      2.886314   -0.073438    0.013576
  C      1.392832    0.004529   -0.005585
  C      0.713969    1.217392   -0.006433
  C     -0.669811    1.225540   -0.005199
  C     -1.356547    0.015154   -0.001797
  N     -0.710838   -1.148891   -0.005469
  C      0.609726   -1.145856   -0.007837
  C     -2.851769   -0.043730    0.011079
  H      3.230678   -0.342272    1.011687
  H      3.238038   -0.835861   -0.677715
  H      3.325439    0.883442   -0.255998
  H      1.264858    2.147498   -0.009500
  H     -1.213555    2.157857   -0.007403
  H      1.071787   -2.125546   -0.012771
  H     -3.192484   -0.495292    0.940554
  H     -3.278630    0.950314   -0.081375
  H     -3.203982   -0.669458   -0.805290

 Total Charge           Charge          ....    0
 Multiplicity           Mult            ....    1
 Number of Electrons    NEL             ....   58
 Basis Dimension        Dim             ....  202

ORBITAL ENERGIES
----------------

  NO   OCC          E(Eh)            E(eV)
   0   2.0000     -14.146044      -384.9334
   1   2.0000     -10.068263      -273.9714
   2   2.0000     -10.058590      -273.7082
   3   2.0000     -10.046627      -273.3826
   4   2.0000     -10.045517      -273.3524
   5   2.0000     -10.036662      -273.1115
   6   2.0000     -10.034080      -273.0412
   7   2.0000     -10.022036      -272.7135
   8   2.0000      -0.909980       -24.7618
   9   2.0000      -0.782971       -21.3057
  10   2.0000      -0.752982       -20.4897
  11   2.0000      -0.698274       -19.0010
  12   2.0000      -0.636806       -17.3284
  13   2.0000      -0.597285       -16.2529
  14   2.0000      -0.561062       -15.2673
  15   2.0000      -0.470404       -12.8003
  16   2.0000      -0.461215       -12.5503
  17   2.0000      -0.420821       -11.4511
  18   2.0000      -0.407688       -11.0938
  19   2.0000      -0.391096       -10.6423
  20   2.0000      -0.381103       -10.3703
  21   2.0000      -0.372644       -10.1402
  22   2.0000      -0.360934        -9.8215
  23   2.0000      -0.347219        -9.4483
  24   2.0000      -0.339346        -9.2341
  25   2.0000      -0.321936        -8.7603
  26   2.0000      -0.263601        -7.1729
  27   2.0000      -0.225556        -6.1377
  28   2.0000      -0.217208        -5.9105
  29   0.0000      -0.048883        -1.3302
  30   0.0000      -0.030955        -0.8423
  31   0.0000       0.073976         2.0130
  32   0.0000       0.096198         2.6177
  33   0.0000       0.104059         2.8316

MULLIKEN ATOMIC CHARGES
-----------------------
   0 C :   -0.540133
   1 C :    0.247191
   2 C :   -0.226087
   3 C :   -0.207817
   4 C :    0.259943
   5 N :   -0.166162
   6 C :   -0.185199
   7 C :   -0.571404
   8 H :    0.168528
   9 H :    0.157642
  10 H :    0.150865
  11 H :    0.146756
  12 H :    0.150474
  13 H :    0.134100
  14 H :    0.167789
  15 H :    0.145473
  16 H :    0.168040
Sum of atomic charges:   -0.0000000

LOEWDIN ATOMIC CHARGES
----------------------
   0 C :   -0.388496
   1 C :   -0.090696
   2 C :   -0.124565
   3 C :   -0.143949
   4 C :    0.120200
   5 N :   -0.611587
   6 C :    0.086631
   7 C :   -0.361248
   8 H :    0.166901
   9 H :    0.164987
  10 H :    0.160283
  11 H :    0.169265
  12 H :    0.169056
  13 H :    0.185087
  14 H :    0.171376
  15 H :    0.154621
  16 H :    0.172134

  Mayer bond orders larger than 0.100000
B(  0-C ,  1-C ) :   0.7905 B(  0-C ,  8-H ) :   0.9699 B(  0-C ,  9-H ) :   0.9818
B(  0-C , 10-H ) :   0.9917 B(  1-C ,  2-C ) :   1.3844 B(  1-C ,  6-C ) :   1.2945
B(  2-C ,  3-C ) :   1.4718 B(  2-C , 11-H ) :   0.9496 B(  3-C ,  4-C ) :   1.4285
B(  3-C , 12-H ) :   0.9092 B(  4-C ,  5-N ) :   1.3058 B(  4-C ,  7-C ) :   0.8598
B(  5-N ,  6-C ) :   1.5264 B(  6-C , 13-H ) :   0.9945 B(  7-C , 14-H ) :   0.9590
B(  7-C , 15-H ) :   0.9990 B(  7-C , 16-H ) :   0.9673

Dispersion correction           -0.005181802
FINAL SINGLE POINT ENERGY      -326.823474684177

DIPOLE MOMENT
-------------

Method             : SCF
Type of density    : Electron Density
Multiplicity       :   1
Irrep              :   0
Energy             :  -326.8260291774146822 Eh
Relativity type    :
Basis              : AO
                                X                 Y                 Z
Electronic contribution:     -0.745071638      -0.924562868      -0.072580055
Nuclear contribution   :      1.161445896       1.561081481       0.095838593
                        -----------------------------------------
Total Dipole Moment    :      0.416374258       0.636518613       0.023258538
                        -----------------------------------------
Magnitude (a.u.)       :      0.760962829
Magnitude (Debye)      :      1.934213796

Rotational constants in cm-1:             0.186428             0.049983             0.039999
Rotational constants in MHz :          5588.984212          1498.453281          1199.135260

                             ****ORCA TERMINATED NORMALLY****
TOTAL RUN TIME: 0 days 0 hours 0 minutes 21 seconds 979 msec
