                         Program Version 6.0.0  -   RELEASE  -
|  1> ! r2scan-3c def2/J RI DEFGRID2 scfconv6 printgap
|  2> %output
|  3>     printlevel normal
|  4> end
|  5> %cpcm
|  6>     smd true
|  7>     smdsolvent "water"
|  8> end
|  9> * xyz 0 1
| 10> C 2.8863140963 -0.0734376843 0.0135755509
| 11> C 1.3928319149 0.0045286469 -0.0055851871
| 12> C 0.71396894 1.2173923292 -0.0064328858
| 13> C -0.6698105271 1.2255397516 -0.0051988514
| 14> C -1.356546812 0.0151544037 -0.0017970167
| 15> N -0.7108383274 -1.1488907733 -0.005469461
| 16> C 0.6097256861 -1.1458564878 -0.0078371302
| 17> C -2.8517693669 -0.0437298785 0.0110787734
| 18> H 3.2306775358 -0.3422723664 1.0116868459
| 19> H 3.2380376788 -0.835861221 -0.6777152043
| 20> H 3.3254391597 0.8834416965 -0.2559983371
| 21> H 1.2648575443 2.1474981059 -0.0094998554
| 22> H -1.2135549982 2.1578565326 -0.0074032922
| 23> H 1.0717873092 -2.1255456476 -0.0127708854
| 24> H -3.1924841268 -0.4952919497 0.9405536302
| 25> H -3.278630449 0.9503140538 -0.0813754684
| 26> H -3.2039824458 -0.6694576633 -0.8052904817
| 27> *
| 28>
| 29>                          ****END OF INPUT****

CARTESIAN COORDINATES (ANGSTROEM)
---------------------------------
  C      2.886314   -0.073438    0.013576
  C      1.392832    0.004529   -0.005585
  C      0.713969    1.217392   -0.006433
  C     -0.669811    1.225540   -0.005199
  C     -1.356547    0.015154   -0.001797
  N     -0.710838   -1.148891   -0.005469
  C      0.609726   -1.145856   -0.007837
  C     -2.851769   -0.043730    0.011079
  H      3.230678   -0.342272    1.011687
  H      3.238038   -0.835861   -0.677715
  H      3.325439    0.883442   -0.255998
  H      1.264858    2.147498   -0.009500
  H     -1.213555    2.157857   -0.007403
  H      1.071787   -2.125546   -0.012771
  H     -3.192484   -0.495292    0.940554
  H     -3.278630    0.950314   -0.081375
  H     -3.203982   -0.669458   -0.805290

 Total Charge           Charge          ....    0
 Multiplicity           Mult            ....    1
 Number of Electrons    NEL             ....   58
 Basis Dimension        Dim             ....  202

ORBITAL ENERGIES
----------------

  NO   OCC          E(Eh)            E(eV)
   0   2.0000     -14.151545      -385.0831
   1   2.0000     -10.068716      -273.9837
   2   2.0000     -10.058092      -273.6946
   3   2.0000     -10.044012      -273.3115
   4   2.0000     -10.040980      -273.2290
   5   2.0000     -10.032965      -273.0108
   6   2.0000     -10.020568      -272.6735
   7   2.0000     -10.016939      -272.5748
   8   2.0000      -0.913711       -24.8633
   9   2.0000      -0.779763       -21.2184
  10   2.0000      -0.751511       -20.4497
  11   2.0000      -0.691981       -18.8298
  12   2.0000      -0.631497       -17.1839
  13   2.0000      -0.594011       -16.1639
  14   2.0000      -0.558580       -15.1997
  15   2.0000      -0.467330       -12.7167
  16   2.0000      -0.456735       -12.4284
  17   2.0000      -0.414315       -11.2741
  18   2.0000      -0.405217       -11.0265
  19   2.0000      -0.383058       -10.4235
  20   2.0000      -0.374306       -10.1854
  21   2.0000      -0.366263        -9.9665
  22   2.0000      -0.352136        -9.5821
  23   2.0000      -0.342176        -9.3111
  24   2.0000      -0.337826        -9.1927
  25   2.0000      -0.316521        -8.6130
  26   2.0000      -0.265343        -7.2203
  27   2.0000      -0.225474        -6.1355
  28   2.0000      -0.224724        -6.1151
  29   0.0000      -0.050128        -1.3641
  30   0.0000      -0.030518        -0.8304
  31   0.0000       0.079930         2.1750
  32   0.0000       0.104805         2.8519
  33   0.0000       0.107432         2.9234

MULLIKEN ATOMIC CHARGES
-----------------------
   0 C :   -0.566359
   1 C :    0.214101
   2 C :   -0.229883
   3 C :   -0.232735
   4 C :    0.251184
   5 N :   -0.222045
   6 C :   -0.186089
   7 C :   -0.619730
   8 H :    0.183554
   9 H :    0.173702
  10 H :    0.172334
  11 H :    0.183142
  12 H :    0.185320
  13 H :    0.159345
  14 H :    0.182613
  15 H :    0.172215
  16 H :    0.179332
Sum of atomic charges:   -0.0000000

LOEWDIN ATOMIC CHARGES
----------------------
   0 C :   -0.391503
   1 C :   -0.090353
   2 C :   -0.121646
   3 C :   -0.145074
   4 C :    0.111643
   5 N :   -0.658445
   6 C :    0.079143
   7 C :   -0.368666
   8 H :    0.173271
   9 H :    0.170869
  10 H :    0.167632
  11 H :    0.182962
  12 H :    0.182202
  13 H :    0.194004
  14 H :    0.174740
  15 H :    0.165312
  16 H :    0.173909

  Mayer bond orders larger than 0.100000
B(  0-C ,  1-C ) :   0.8030 B(  0-C ,  8-H ) :   0.9630 B(  0-C ,  9-H ) :   0.9753
B(  0-C , 10-H ) :   0.9847 B(  1-C ,  2-C ) :   1.3654 B(  1-C ,  6-C ) :   1.3059
B(  2-C ,  3-C ) :   1.4411 B(  2-C , 11-H ) :   0.9535 B(  3-C ,  4-C ) :   1.4175
B(  3-C , 12-H ) :   0.9189 B(  4-C ,  5-N ) :   1.2982 B(  4-C ,  7-C ) :   0.8524
B(  5-N ,  6-C ) :   1.5160 B(  6-C , 13-H ) :   0.9792 B(  7-C , 14-H ) :   0.9567
B(  7-C , 15-H ) :   0.9865 B(  7-C , 16-H ) :   0.9666

Dispersion correction           -0.005181802
FINAL SINGLE POINT ENERGY      -326.829609650219

DIPOLE MOMENT
-------------

Method             : SCF
Type of density    : Electron Density
Multiplicity       :   1
Irrep              :   0
Energy             :  -326.8321641434571916 Eh
Relativity type    :
Basis              : AO
                                X                 Y                 Z
Electronic contribution:     -0.543520542      -0.584558861      -0.063230928
Nuclear contribution   :      1.161445896       1.561081481       0.095838593
                        -----------------------------------------
Total Dipole Moment    :      0.617925355       0.976522619       0.032607665
                        -----------------------------------------
Magnitude (a.u.)       :      1.156067225
Magnitude (Debye)      :      2.938489361

Rotational constants in cm-1:             0.186428             0.049983             0.039999
Rotational constants in MHz :          5588.984212          1498.453281          1199.135260

                             ****ORCA TERMINATED NORMALLY****
TOTAL RUN TIME: 0 days 0 hours 0 minutes 30 seconds 606 msec
