                         Program Version 6.0.0  -   RELEASE  -
|  1> ! wb97x-v def2-tzvp def2/J RIJCOSX DEFGRID2 scfconv7 GCP(DFT/TZ) printgap
|  2> %output
|  3>     printlevel normal
|  4> end
|  5> * xyz 0 1
|  6> C 1.4312985017042357 0.9425615726630803 -0.2715354989837765
|  7> C 0.7477749578842635 -0.35153526443077415 0.07100615115798402
|  8> O 1.4132746172499007 -1.373641110210861 0.26904256016492056
|  9> C -0.7152528931241701 -0.3942881247976046 0.21260160077653845
| 10> C -1.5002903440252882 0.8587343466824947 0.5742312606944093
| 11> C -1.6049489048721381 0.3231765050471219 -0.8032083767805129
| 12> H 1.596426236812073 1.491869659083477 0.6638322530028042
| 13> H 2.4033089001375996 0.7370699444147699 -0.7227255269784535
| 14> H 0.8420768800616668 1.5873023121271388 -0.9267428569796542
| 15> H -1.0924031024695586 -1.339439626005952 0.5888711411513815
| 16> H -2.331077581193829 0.7042312468189341 1.2539191930293976
| 17> H -0.9327584103637858 1.7695449248698525 0.7298054969040366
| 18> H -2.5026857989399023 -0.216707519203083 -1.0835063431213243
| 19> H -1.1110961411246134 0.8560989490182096 -1.6079629051195339
| 20> *
| 21>
| 22>                          ****END OF INPUT****

CARTESIAN COORDINATES (ANGSTROEM)
---------------------------------
  C      1.431299    0.942562   -0.271535
  C      0.747775   -0.351535    0.071006
  O      1.413275   -1.373641    0.269043
  C     -0.715253   -0.394288    0.212602
  C     -1.500290    0.858734    0.574231
  C     -1.604949    0.323177   -0.803208
  H      1.596426    1.491870    0.663832
  H      2.403309    0.737070   -0.722726
  H      0.842077    1.587302   -0.926743
  H     -1.092403   -1.339440    0.588871
  H     -2.331078    0.704231    1.253919
  H     -0.932758    1.769545    0.729805
  H     -2.502686   -0.216708   -1.083506
  H     -1.111096    0.856099   -1.607963

 Total Charge           Charge          ....    0
 Multiplicity           Mult            ....    1
 Number of Electrons    NEL             ....   46
 Basis Dimension        Dim             ....  234

ORBITAL ENERGIES
----------------

  NO   OCC          E(Eh)            E(eV)
   0   2.0000     -21.650100      -589.1292
   1   2.0000     -12.137199      -330.2700
   2   2.0000     -12.072515      -328.5098
   3   2.0000     -12.070863      -328.4649
   4   2.0000     -12.068594      -328.4031
   5   2.0000     -12.053633      -327.9960
   6   2.0000      -1.690317       -45.9959
   7   2.0000      -1.413177       -38.4545
   8   2.0000      -1.266010       -34.4499
   9   2.0000      -1.165362       -31.7111
  10   2.0000      -1.096433       -29.8354
  11   2.0000      -1.056910       -28.7600
  12   2.0000      -0.991043       -26.9677
  13   2.0000      -0.964878       -26.2557
  14   2.0000      -0.932426       -25.3726
  15   2.0000      -0.900810       -24.5123
  16   2.0000      -0.878628       -23.9087
  17   2.0000      -0.837910       -22.8007
  18   2.0000      -0.831151       -22.6168
  19   2.0000      -0.814681       -22.1686
  20   2.0000      -0.793302       -21.5869
  21   2.0000      -0.769130       -20.9291
  22   2.0000      -0.748043       -20.3553
  23   0.0000      -0.313327        -8.5261
  24   0.0000      -0.087440        -2.3794
  25   0.0000      -0.068603        -1.8668
  26   0.0000      -0.042560        -1.1581
  27   0.0000      -0.027885        -0.7588

MULLIKEN ATOMIC CHARGES
-----------------------
   0 C :   -0.374199
   1 C :    0.192046
   2 O :   -0.327450
   3 C :   -0.078573
   4 C :   -0.204137
   5 C :   -0.222532
   6 H :    0.135924
   7 H :    0.144658
   8 H :    0.121566
   9 H :    0.119974
  10 H :    0.122747
  11 H :    0.124965
  12 H :    0.123307
  13 H :    0.121704
Sum of atomic charges:   -0.0000000

LOEWDIN ATOMIC CHARGES
----------------------
   0 C :   -0.257202
   1 C :   -0.330434
   2 O :    0.090692
   3 C :   -0.178602
   4 C :   -0.203608
   5 C :   -0.200498
   6 H :    0.140204
   7 H :    0.134737
   8 H :    0.124130
   9 H :    0.154189
  10 H :    0.132622
  11 H :    0.131862
  12 H :    0.132825
  13 H :    0.129084

  Mayer bond orders larger than 0.100000
B(  0-C ,  1-C ) :   0.9425 B(  0-C ,  6-H ) :   0.9419 B(  0-C ,  7-H ) :   0.9714
B(  0-C ,  8-H ) :   0.9780 B(  1-C ,  2-O ) :   2.0957 B(  1-C ,  3-C ) :   1.0185
B(  3-C ,  4-C ) :   0.8902 B(  3-C ,  5-C ) :   0.8962 B(  3-C ,  9-H ) :   0.9661
B(  4-C ,  5-C ) :   0.9745 B(  4-C , 10-H ) :   0.9687 B(  4-C , 11-H ) :   0.9639
B(  5-C , 12-H ) :   0.9714 B(  5-C , 13-H ) :   0.9687

FINAL SINGLE POINT ENERGY      -270.556368569097

DIPOLE MOMENT
-------------

Method             : SCF
Type of density    : Electron Density
Multiplicity       :   1
Irrep              :   0
Energy             :  -270.5650405766967879 Eh
Relativity type    :
Basis              : AO
                                X                 Y                 Z
Electronic contribution:      2.039820452      -4.111184681       0.895184164
Nuclear contribution   :     -2.890904779       5.204684337      -1.084618703
                        -----------------------------------------
Total Dipole Moment    :     -0.851084328       1.093499657      -0.189434538
                        -----------------------------------------
Magnitude (a.u.)       :      1.398560502
Magnitude (Debye)      :      3.554858286

Rotational constants in cm-1:             0.219560             0.091574             0.076950
Rotational constants in MHz :          6582.248713          2745.322134          2306.904424

                             ****ORCA TERMINATED NORMALLY****
TOTAL RUN TIME: 0 days 0 hours 1 minutes 43 seconds 904 msec
