                         Program Version 6.0.0  -   RELEASE  -
|  1> ! wb97x-v def2-tzvp def2/J RIJCOSX DEFGRID2 scfconv7 GCP(DFT/TZ) printgap
|  2> %output
|  3>     printlevel normal
|  4> end
|  5> %cpcm
|  6>     smd true
|  7>     smdsolvent "water"
|  8> end
|  9> * xyz 0 1
| 10> C 1.4312985017042357 0.9425615726630803 -0.2715354989837765
| 11> C 0.7477749578842635 -0.35153526443077415 0.07100615115798402
| 12> O 1.4132746172499007 -1.373641110210861 0.26904256016492056
| 13> C -0.7152528931241701 -0.3942881247976046 0.21260160077653845
| 14> C -1.5002903440252882 0.8587343466824947 0.5742312606944093
| 15> C -1.6049489048721381 0.3231765050471219 -0.8032083767805129
| 16> H 1.596426236812073 1.491869659083477 0.6638322530028042
| 17> H 2.4033089001375996 0.7370699444147699 -0.7227255269784535
| 18> H 0.8420768800616668 1.5873023121271388 -0.9267428569796542
| 19> H -1.0924031024695586 -1.339439626005952 0.5888711411513815
| 20> H -2.331077581193829 0.7042312468189341 1.2539191930293976
| 21> H -0.9327584103637858 1.7695449248698525 0.7298054969040366
| 22> H -2.5026857989399023 -0.216707519203083 -1.0835063431213243
| 23> H -1.1110961411246134 0.8560989490182096 -1.6079629051195339
| 24> *
| 25>
| 26>                          ****END OF INPUT****

CARTESIAN COORDINATES (ANGSTROEM)
---------------------------------
  C      1.431299    0.942562   -0.271535
  C      0.747775   -0.351535    0.071006
  O      1.413275   -1.373641    0.269043
  C     -0.715253   -0.394288    0.212602
  C     -1.500290    0.858734    0.574231
  C     -1.604949    0.323177   -0.803208
  H      1.596426    1.491870    0.663832
  H      2.403309    0.737070   -0.722726
  H      0.842077    1.587302   -0.926743
  H     -1.092403   -1.339440    0.588871
  H     -2.331078    0.704231    1.253919
  H     -0.932758    1.769545    0.729805
  H     -2.502686   -0.216708   -1.083506
  H     -1.111096    0.856099   -1.607963

 Total Charge           Charge          ....    0
 Multiplicity           Mult            ....    1
 Number of Electrons    NEL             ....   46
 Basis Dimension        Dim             ....  234

ORBITAL ENERGIES
----------------

  NO   OCC          E(Eh)            E(eV)
   0   2.0000     -21.662561      -589.4682
   1   2.0000     -12.145786      -330.5036
   2   2.0000     -12.060058      -328.1709
   3   2.0000     -12.056680      -328.0789
   4   2.0000     -12.054978      -328.0326
   5   2.0000     -12.040227      -327.6312
   6   2.0000      -1.706882       -46.4466
   7   2.0000      -1.400691       -38.1147
   8   2.0000      -1.259764       -34.2799
   9   2.0000      -1.161002       -31.5925
  10   2.0000      -1.079737       -29.3811
  11   2.0000      -1.068405       -29.0728
  12   2.0000      -0.982027       -26.7223
  13   2.0000      -0.965002       -26.2590
  14   2.0000      -0.922255       -25.0958
  15   2.0000      -0.915126       -24.9018
  16   2.0000      -0.871594       -23.7173
  17   2.0000      -0.826162       -22.4810
  18   2.0000      -0.822852       -22.3909
  19   2.0000      -0.796276       -21.6678
  20   2.0000      -0.791458       -21.5367
  21   2.0000      -0.756511       -20.5857
  22   2.0000      -0.737736       -20.0748
  23   0.0000      -0.311958        -8.4888
  24   0.0000      -0.075452        -2.0532
  25   0.0000      -0.060117        -1.6359
  26   0.0000      -0.027115        -0.7378
  27   0.0000      -0.013249        -0.3605

MULLIKEN ATOMIC CHARGES
-----------------------
   0 C :   -0.406775
   1 C :    0.284460
   2 O :   -0.478766
   3 C :   -0.127019
   4 C :   -0.252611
   5 C :   -0.261479
   6 H :    0.167501
   7 H :    0.149452
   8 H :    0.161540
   9 H :    0.139862
  10 H :    0.152427
  11 H :    0.159889
  12 H :    0.152542
  13 H :    0.158978
Sum of atomic charges:   -0.0000000

LOEWDIN ATOMIC CHARGES
----------------------
   0 C :   -0.250284
   1 C :   -0.314729
   2 O :    0.001291
   3 C :   -0.183653
   4 C :   -0.197793
   5 C :   -0.194964
   6 H :    0.151802
   7 H :    0.134995
   8 H :    0.138478
   9 H :    0.156810
  10 H :    0.139586
  11 H :    0.140528
  12 H :    0.139553
  13 H :    0.138382

  Mayer bond orders larger than 0.100000
B(  0-C ,  1-C ) :   0.9686 B(  0-C ,  6-H ) :   0.9299 B(  0-C ,  7-H ) :   0.9645
B(  0-C ,  8-H ) :   0.9654 B(  1-C ,  2-O ) :   1.9217 B(  1-C ,  3-C ) :   1.0284
B(  3-C ,  4-C ) :   0.8969 B(  3-C ,  5-C ) :   0.8943 B(  3-C ,  9-H ) :   0.9615
B(  4-C ,  5-C ) :   0.9824 B(  4-C , 10-H ) :   0.9614 B(  4-C , 11-H ) :   0.9581
B(  5-C , 12-H ) :   0.9637 B(  5-C , 13-H ) :   0.9605

FINAL SINGLE POINT ENERGY      -270.567228354523

DIPOLE MOMENT
-------------

Method             : SCF
Type of density    : Electron Density
Multiplicity       :   1
Irrep              :   0
Energy             :  -270.5759003621234910 Eh
Relativity type    :
Basis              : AO
                                X                 Y                 Z
Electronic contribution:      1.670162476      -3.564243411       0.795152240
Nuclear contribution   :     -2.890904779       5.204684337      -1.084618703
                        -----------------------------------------
Total Dipole Moment    :     -1.220742303       1.640440926      -0.289466463
                        -----------------------------------------
Magnitude (a.u.)       :      2.065199515
Magnitude (Debye)      :      5.249319997

Rotational constants in cm-1:             0.219560             0.091574             0.076950
Rotational constants in MHz :          6582.248713          2745.322134          2306.904424

                             ****ORCA TERMINATED NORMALLY****
TOTAL RUN TIME: 0 days 0 hours 1 minutes 38 seconds 785 msec
