                         Program Version 6.0.0  -   RELEASE  -
|  1> ! r2scan-3c def2/J RI DEFGRID2 scfconv6 printgap
|  2> %output
|  3>     printlevel normal
|  4> end
|  5> * xyz 0 1
|  6> C -2.3645449944 0.8504755715 -0.2452408989
|  7> O -1.0996487807 0.6327719295 0.3928197959
|  8> C -0.4343135485 -0.4751165796 0.141009895
|  9> O -0.8045471158 -1.3679083522 -0.5842475378
| 10> C 0.8967875089 -0.4808871946 0.8864190962
| 11> C 1.8705422486 0.1690304241 0.0533333702
| 12> N 2.6332353098 0.691691964 -0.6206951752
| 13> H -2.2359748313 1.6252670534 -0.9994444299
| 14> H -3.053322022 1.183383041 0.5272741897
| 15> H -2.7122030446 -0.0728628189 -0.7085050132
| 16> H 1.2105405731 -1.5103158302 1.0679453831
| 17> H 0.8002695391 0.0749153419 1.8205638217
| 18> *
| 19>
| 20>                          ****END OF INPUT****

CARTESIAN COORDINATES (ANGSTROEM)
---------------------------------
  C     -2.364545    0.850476   -0.245241
  O     -1.099649    0.632772    0.392820
  C     -0.434314   -0.475117    0.141010
  O     -0.804547   -1.367908   -0.584248
  C      0.896788   -0.480887    0.886419
  C      1.870542    0.169030    0.053333
  N      2.633235    0.691692   -0.620695
  H     -2.235975    1.625267   -0.999444
  H     -3.053322    1.183383    0.527274
  H     -2.712203   -0.072863   -0.708505
  H      1.210541   -1.510316    1.067945
  H      0.800270    0.074915    1.820564

 Total Charge           Charge          ....    0
 Multiplicity           Mult            ....    1
 Number of Electrons    NEL             ....   52
 Basis Dimension        Dim             ....  173

ORBITAL ENERGIES
----------------

  NO   OCC          E(Eh)            E(eV)
   0   2.0000     -19.029538      -517.8200
   1   2.0000     -18.959606      -515.9171
   2   2.0000     -14.162547      -385.3825
   3   2.0000     -10.191235      -277.3176
   4   2.0000     -10.106364      -275.0082
   5   2.0000     -10.105930      -274.9963
   6   2.0000     -10.080972      -274.3172
   7   2.0000      -1.105130       -30.0721
   8   2.0000      -1.009573       -27.4719
   9   2.0000      -0.888126       -24.1671
  10   2.0000      -0.793004       -21.5787
  11   2.0000      -0.716194       -19.4886
  12   2.0000      -0.571628       -15.5548
  13   2.0000      -0.526096       -14.3158
  14   2.0000      -0.504175       -13.7193
  15   2.0000      -0.479889       -13.0585
  16   2.0000      -0.462682       -12.5902
  17   2.0000      -0.437299       -11.8995
  18   2.0000      -0.413005       -11.2384
  19   2.0000      -0.386760       -10.5243
  20   2.0000      -0.347656        -9.4602
  21   2.0000      -0.335381        -9.1262
  22   2.0000      -0.322674        -8.7804
  23   2.0000      -0.317028        -8.6268
  24   2.0000      -0.299191        -8.1414
  25   2.0000      -0.267261        -7.2725
  26   0.0000      -0.052064        -1.4167
  27   0.0000       0.001833         0.0499
  28   0.0000       0.008972         0.2441
  29   0.0000       0.036948         1.0054
  30   0.0000       0.074342         2.0229

MULLIKEN ATOMIC CHARGES
-----------------------
   0 C :   -0.290189
   1 O :   -0.186511
   2 C :    0.433264
   3 O :   -0.409535
   4 C :   -0.380446
   5 C :    0.186645
   6 N :   -0.233974
   7 H :    0.161012
   8 H :    0.154310
   9 H :    0.188582
  10 H :    0.192110
  11 H :    0.184732
Sum of atomic charges:   -0.0000000

LOEWDIN ATOMIC CHARGES
----------------------
   0 C :   -0.034012
   1 O :   -0.581975
   2 C :    0.373962
   3 O :   -0.401377
   4 C :   -0.175605
   5 C :    0.148847
   6 N :   -0.295139
   7 H :    0.179454
   8 H :    0.178437
   9 H :    0.193359
  10 H :    0.207078
  11 H :    0.206972

  Mayer bond orders larger than 0.100000
B(  0-C ,  1-O ) :   0.8343 B(  0-C ,  7-H ) :   0.9578 B(  0-C ,  8-H ) :   0.9645
B(  0-C ,  9-H ) :   0.9646 B(  1-O ,  2-C ) :   1.0780 B(  2-C ,  3-O ) :   1.8556
B(  2-C ,  4-C ) :   0.9275 B(  4-C ,  5-C ) :   1.0621 B(  4-C , 10-H ) :   0.9503
B(  4-C , 11-H ) :   0.9502 B(  5-C ,  6-N ) :   2.8862

Dispersion correction           -0.002819647
FINAL SINGLE POINT ENERGY      -360.545735452660

DIPOLE MOMENT
-------------

Method             : SCF
Type of density    : Electron Density
Multiplicity       :   1
Irrep              :   0
Energy             :  -360.5506796301422128 Eh
Relativity type    :
Basis              : AO
                                X                 Y                 Z
Electronic contribution:      4.345956342      -1.109182061      -0.466765377
Nuclear contribution   :     -5.634042003       1.212900510       1.595990240
                        -----------------------------------------
Total Dipole Moment    :     -1.288085661       0.103718449       1.129224863
                        -----------------------------------------
Magnitude (a.u.)       :      1.716120910
Magnitude (Debye)      :      4.362032697

Rotational constants in cm-1:             0.179353             0.055830             0.050193
Rotational constants in MHz :          5376.861706          1673.726400          1504.757581

                             ****ORCA TERMINATED NORMALLY****
TOTAL RUN TIME: 0 days 0 hours 0 minutes 18 seconds 301 msec
