                         Program Version 6.0.0  -   RELEASE  -
|  1> ! r2scan-3c def2/J RI DEFGRID2 scfconv6 printgap
|  2> %output
|  3>     printlevel normal
|  4> end
|  5> %cpcm
|  6>     smd true
|  7>     smdsolvent "water"
|  8> end
|  9> * xyz 0 1
| 10> C -2.3645449944 0.8504755715 -0.2452408989
| 11> O -1.0996487807 0.6327719295 0.3928197959
| 12> C -0.4343135485 -0.4751165796 0.141009895
| 13> O -0.8045471158 -1.3679083522 -0.5842475378
| 14> C 0.8967875089 -0.4808871946 0.8864190962
| 15> C 1.8705422486 0.1690304241 0.0533333702
| 16> N 2.6332353098 0.691691964 -0.6206951752
| 17> H -2.2359748313 1.6252670534 -0.9994444299
| 18> H -3.053322022 1.183383041 0.5272741897
| 19> H -2.7122030446 -0.0728628189 -0.7085050132
| 20> H 1.2105405731 -1.5103158302 1.0679453831
| 21> H 0.8002695391 0.0749153419 1.8205638217
| 22> *
| 23>
| 24>                          ****END OF INPUT****

CARTESIAN COORDINATES (ANGSTROEM)
---------------------------------
  C     -2.364545    0.850476   -0.245241
  O     -1.099649    0.632772    0.392820
  C     -0.434314   -0.475117    0.141010
  O     -0.804547   -1.367908   -0.584248
  C      0.896788   -0.480887    0.886419
  C      1.870542    0.169030    0.053333
  N      2.633235    0.691692   -0.620695
  H     -2.235975    1.625267   -0.999444
  H     -3.053322    1.183383    0.527274
  H     -2.712203   -0.072863   -0.708505
  H      1.210541   -1.510316    1.067945
  H      0.800270    0.074915    1.820564

 Total Charge           Charge          ....    0
 Multiplicity           Mult            ....    1
 Number of Electrons    NEL             ....   52
 Basis Dimension        Dim             ....  173

ORBITAL ENERGIES
----------------

  NO   OCC          E(Eh)            E(eV)
   0   2.0000     -19.018744      -517.5263
   1   2.0000     -18.958711      -515.8928
   2   2.0000     -14.166366      -385.4864
   3   2.0000     -10.187194      -277.2076
   4   2.0000     -10.089085      -274.5380
   5   2.0000     -10.087799      -274.5030
   6   2.0000     -10.081237      -274.3244
   7   2.0000      -1.095900       -29.8209
   8   2.0000      -1.006602       -27.3910
   9   2.0000      -0.893669       -24.3180
  10   2.0000      -0.780131       -21.2284
  11   2.0000      -0.697467       -18.9790
  12   2.0000      -0.555439       -15.1143
  13   2.0000      -0.514834       -14.0094
  14   2.0000      -0.490024       -13.3342
  15   2.0000      -0.472188       -12.8489
  16   2.0000      -0.444273       -12.0893
  17   2.0000      -0.426781       -11.6133
  18   2.0000      -0.398293       -10.8381
  19   2.0000      -0.375517       -10.2183
  20   2.0000      -0.349780        -9.5180
  21   2.0000      -0.336234        -9.1494
  22   2.0000      -0.324963        -8.8427
  23   2.0000      -0.319333        -8.6895
  24   2.0000      -0.290222        -7.8973
  25   2.0000      -0.267997        -7.2926
  26   0.0000      -0.047267        -1.2862
  27   0.0000       0.001694         0.0461
  28   0.0000       0.009577         0.2606
  29   0.0000       0.050128         1.3640
  30   0.0000       0.091853         2.4994

MULLIKEN ATOMIC CHARGES
-----------------------
   0 C :   -0.308735
   1 O :   -0.190653
   2 C :    0.458722
   3 O :   -0.478960
   4 C :   -0.409531
   5 C :    0.251174
   6 N :   -0.341002
   7 H :    0.183616
   8 H :    0.180643
   9 H :    0.187148
  10 H :    0.235586
  11 H :    0.231992
Sum of atomic charges:   -0.0000000

LOEWDIN ATOMIC CHARGES
----------------------
   0 C :   -0.029469
   1 O :   -0.576608
   2 C :    0.385161
   3 O :   -0.453662
   4 C :   -0.163841
   5 C :    0.178217
   6 N :   -0.364672
   7 H :    0.188078
   8 H :    0.189743
   9 H :    0.193197
  10 H :    0.225148
  11 H :    0.228709

  Mayer bond orders larger than 0.100000
B(  0-C ,  1-O ) :   0.8223 B(  0-C ,  7-H ) :   0.9495 B(  0-C ,  8-H ) :   0.9551
B(  0-C ,  9-H ) :   0.9616 B(  1-O ,  2-C ) :   1.1073 B(  2-C ,  3-O ) :   1.8023
B(  2-C ,  4-C ) :   0.9087 B(  4-C ,  5-C ) :   1.0466 B(  4-C , 10-H ) :   0.9433
B(  4-C , 11-H ) :   0.9310 B(  5-C ,  6-N ) :   2.8763

Dispersion correction           -0.002819647
FINAL SINGLE POINT ENERGY      -360.555913109592

DIPOLE MOMENT
-------------

Method             : SCF
Type of density    : Electron Density
Multiplicity       :   1
Irrep              :   0
Energy             :  -360.5608572870733042 Eh
Relativity type    :
Basis              : AO
                                X                 Y                 Z
Electronic contribution:      4.056213490      -1.060292621      -0.001809844
Nuclear contribution   :     -5.634042003       1.212900510       1.595990240
                        -----------------------------------------
Total Dipole Moment    :     -1.577828513       0.152607889       1.594180396
                        -----------------------------------------
Magnitude (a.u.)       :      2.248164388
Magnitude (Debye)      :      5.714379746

Rotational constants in cm-1:             0.179353             0.055830             0.050193
Rotational constants in MHz :          5376.861706          1673.726400          1504.757581

                             ****ORCA TERMINATED NORMALLY****
TOTAL RUN TIME: 0 days 0 hours 0 minutes 20 seconds 956 msec
