                         Program Version 6.0.0  -   RELEASE  -
|  1> ! r2scan-3c def2/J RI DEFGRID2 scfconv6 printgap
|  2> %output
|  3>     printlevel normal
|  4> end
|  5> * xyz 0 1
|  6> C -3.0805319098 0.008710324 0.7440782108
|  7> O -2.335222513 -0.180201264 -0.4459575452
|  8> C -0.9537461862 -0.087496538 -0.2611253401
|  9> C -0.20649546 -1.2303360978 -0.0077871028
| 10> C 1.1628391636 -1.1472955687 0.1356225878
| 11> C 1.8202211298 0.0830394111 0.0373888039
| 12> C 1.0548590504 1.2254900261 -0.2170139497
| 13> C -0.3143327444 1.1414433936 -0.3606573097
| 14> N 3.1720537837 0.176513262 0.2523991467
| 15> H -4.1267131896 -0.0803073831 0.460242416
| 16> H -2.89374198 0.9991195029 1.171471172
| 17> H -2.8304137693 -0.7548928931 1.4878063607
| 18> H -0.7092270799 -2.1835030172 0.0624749858
| 19> H 1.7367528418 -2.0415467551 0.3276560677
| 20> H 1.5446315184 2.1841746886 -0.3007988706
| 21> H -0.8996880361 2.0260011273 -0.5638882015
| 22> H 3.6264504923 1.0090570956 -0.082294964
| 23> H 3.702743804 -0.6737732775 0.1686810229
| 24> *
| 25>
| 26>                          ****END OF INPUT****

CARTESIAN COORDINATES (ANGSTROEM)
---------------------------------
  C     -3.080532    0.008710    0.744078
  O     -2.335223   -0.180201   -0.445958
  C     -0.953746   -0.087497   -0.261125
  C     -0.206495   -1.230336   -0.007787
  C      1.162839   -1.147296    0.135623
  C      1.820221    0.083039    0.037389
  C      1.054859    1.225490   -0.217014
  C     -0.314333    1.141443   -0.360657
  N      3.172054    0.176513    0.252399
  H     -4.126713   -0.080307    0.460242
  H     -2.893742    0.999120    1.171471
  H     -2.830414   -0.754893    1.487806
  H     -0.709227   -2.183503    0.062475
  H      1.736753   -2.041547    0.327656
  H      1.544632    2.184175   -0.300799
  H     -0.899688    2.026001   -0.563888
  H      3.626450    1.009057   -0.082295
  H      3.702744   -0.673773    0.168681

 Total Charge           Charge          ....    0
 Multiplicity           Mult            ....    1
 Number of Electrons    NEL             ....   66
 Basis Dimension        Dim             ....  226

ORBITAL ENERGIES
----------------

  NO   OCC          E(Eh)            E(eV)
   0   2.0000     -18.955463      -515.8044
   1   2.0000     -14.168612      -385.5475
   2   2.0000     -10.071852      -274.0690
   3   2.0000     -10.071093      -274.0484
   4   2.0000     -10.069636      -274.0087
   5   2.0000     -10.028817      -272.8980
   6   2.0000     -10.028586      -272.8917
   7   2.0000     -10.027486      -272.8618
   8   2.0000     -10.027364      -272.8585
   9   2.0000      -1.000417       -27.2227
  10   2.0000      -0.893279       -24.3074
  11   2.0000      -0.803259       -21.8578
  12   2.0000      -0.715431       -19.4679
  13   2.0000      -0.697512       -18.9803
  14   2.0000      -0.640565       -17.4307
  15   2.0000      -0.587258       -15.9801
  16   2.0000      -0.557211       -15.1625
  17   2.0000      -0.496727       -13.5166
  18   2.0000      -0.490478       -13.3466
  19   2.0000      -0.468596       -12.7512
  20   2.0000      -0.420697       -11.4477
  21   2.0000      -0.416413       -11.3312
  22   2.0000      -0.407285       -11.0828
  23   2.0000      -0.391437       -10.6515
  24   2.0000      -0.382407       -10.4058
  25   2.0000      -0.368413       -10.0250
  26   2.0000      -0.356439        -9.6992
  27   2.0000      -0.314665        -8.5625
  28   2.0000      -0.307777        -8.3750
  29   2.0000      -0.274487        -7.4692
  30   2.0000      -0.235204        -6.4002
  31   2.0000      -0.226567        -6.1652
  32   2.0000      -0.177362        -4.8263
  33   0.0000      -0.028826        -0.7844
  34   0.0000      -0.004466        -0.1215
  35   0.0000       0.071777         1.9532
  36   0.0000       0.079569         2.1652
  37   0.0000       0.088839         2.4174

MULLIKEN ATOMIC CHARGES
-----------------------
   0 C :   -0.269984
   1 O :   -0.244224
   2 C :    0.173164
   3 C :   -0.235570
   4 C :   -0.358476
   5 C :    0.538493
   6 C :   -0.358455
   7 C :   -0.231433
   8 N :   -0.532307
   9 H :    0.144602
  10 H :    0.136887
  11 H :    0.137186
  12 H :    0.159079
  13 H :    0.137745
  14 H :    0.137654
  15 H :    0.158372
  16 H :    0.253612
  17 H :    0.253655
Sum of atomic charges:    0.0000000

LOEWDIN ATOMIC CHARGES
----------------------
   0 C :   -0.053899
   1 O :   -0.720487
   2 C :    0.141407
   3 C :   -0.123997
   4 C :   -0.159789
   5 C :    0.122535
   6 C :   -0.159667
   7 C :   -0.124891
   8 N :   -0.607268
   9 H :    0.172648
  10 H :    0.158681
  11 H :    0.158811
  12 H :    0.178677
  13 H :    0.168157
  14 H :    0.168138
  15 H :    0.178394
  16 H :    0.251269
  17 H :    0.251280

  Mayer bond orders larger than 0.100000
B(  0-C ,  1-O ) :   0.8723 B(  0-C ,  9-H ) :   0.9737 B(  0-C , 10-H ) :   0.9666
B(  0-C , 11-H ) :   0.9666 B(  1-O ,  2-C ) :   0.9960 B(  2-C ,  3-C ) :   1.4635
B(  2-C ,  7-C ) :   1.4553 B(  3-C ,  4-C ) :   1.3701 B(  3-C , 12-H ) :   0.9257
B(  4-C ,  5-C ) :   1.3293 B(  4-C , 13-H ) :   0.9411 B(  5-C ,  6-C ) :   1.3292
B(  5-C ,  8-N ) :   0.9386 B(  6-C ,  7-C ) :   1.3733 B(  6-C , 14-H ) :   0.9412
B(  7-C , 15-H ) :   0.9250 B(  8-N , 16-H ) :   0.9290 B(  8-N , 17-H ) :   0.9290

Dispersion correction           -0.005721737
FINAL SINGLE POINT ENERGY      -402.022681370626

DIPOLE MOMENT
-------------

Method             : SCF
Type of density    : Electron Density
Multiplicity       :   1
Irrep              :   0
Energy             :  -402.0266576055569203 Eh
Relativity type    :
Basis              : AO
                                X                 Y                 Z
Electronic contribution:      1.600826716      -0.359577616      -2.285106358
Nuclear contribution   :     -0.813897138       0.452681154       2.557246385
                        -----------------------------------------
Total Dipole Moment    :      0.786929578       0.093103538       0.272140027
                        -----------------------------------------
Magnitude (a.u.)       :      0.837846421
Magnitude (Debye)      :      2.129636356

Rotational constants in cm-1:             0.156837             0.033108             0.028913
Rotational constants in MHz :          4701.842385           992.553992           866.798342

                             ****ORCA TERMINATED NORMALLY****
TOTAL RUN TIME: 0 days 0 hours 0 minutes 30 seconds 208 msec
