                         Program Version 6.0.0  -   RELEASE  -
|  1> ! r2scan-3c def2/J RI DEFGRID2 scfconv6 printgap
|  2> %output
|  3>     printlevel normal
|  4> end
|  5> %cpcm
|  6>     smd true
|  7>     smdsolvent "water"
|  8> end
|  9> * xyz 0 1
| 10> C -3.0805319098 0.008710324 0.7440782108
| 11> O -2.335222513 -0.180201264 -0.4459575452
| 12> C -0.9537461862 -0.087496538 -0.2611253401
| 13> C -0.20649546 -1.2303360978 -0.0077871028
| 14> C 1.1628391636 -1.1472955687 0.1356225878
| 15> C 1.8202211298 0.0830394111 0.0373888039
| 16> C 1.0548590504 1.2254900261 -0.2170139497
| 17> C -0.3143327444 1.1414433936 -0.3606573097
| 18> N 3.1720537837 0.176513262 0.2523991467
| 19> H -4.1267131896 -0.0803073831 0.460242416
| 20> H -2.89374198 0.9991195029 1.171471172
| 21> H -2.8304137693 -0.7548928931 1.4878063607
| 22> H -0.7092270799 -2.1835030172 0.0624749858
| 23> H 1.7367528418 -2.0415467551 0.3276560677
| 24> H 1.5446315184 2.1841746886 -0.3007988706
| 25> H -0.8996880361 2.0260011273 -0.5638882015
| 26> H 3.6264504923 1.0090570956 -0.082294964
| 27> H 3.702743804 -0.6737732775 0.1686810229
| 28> *
| 29>
| 30>                          ****END OF INPUT****

CARTESIAN COORDINATES (ANGSTROEM)
---------------------------------
  C     -3.080532    0.008710    0.744078
  O     -2.335223   -0.180201   -0.445958
  C     -0.953746   -0.087497   -0.261125
  C     -0.206495   -1.230336   -0.007787
  C      1.162839   -1.147296    0.135623
  C      1.820221    0.083039    0.037389
  C      1.054859    1.225490   -0.217014
  C     -0.314333    1.141443   -0.360657
  N      3.172054    0.176513    0.252399
  H     -4.126713   -0.080307    0.460242
  H     -2.893742    0.999120    1.171471
  H     -2.830414   -0.754893    1.487806
  H     -0.709227   -2.183503    0.062475
  H      1.736753   -2.041547    0.327656
  H      1.544632    2.184175   -0.300799
  H     -0.899688    2.026001   -0.563888
  H      3.626450    1.009057   -0.082295
  H      3.702744   -0.673773    0.168681

 Total Charge           Charge          ....    0
 Multiplicity           Mult            ....    1
 Number of Electrons    NEL             ....   66
 Basis Dimension        Dim             ....  226

ORBITAL ENERGIES
----------------

  NO   OCC          E(Eh)            E(eV)
   0   2.0000     -18.967537      -516.1329
   1   2.0000     -14.157038      -385.2326
   2   2.0000     -10.076596      -274.1981
   3   2.0000     -10.071778      -274.0670
   4   2.0000     -10.067223      -273.9431
   5   2.0000     -10.031810      -272.9794
   6   2.0000     -10.031723      -272.9770
   7   2.0000     -10.026963      -272.8475
   8   2.0000     -10.026870      -272.8450
   9   2.0000      -1.011354       -27.5203
  10   2.0000      -0.885614       -24.0988
  11   2.0000      -0.805414       -21.9164
  12   2.0000      -0.717465       -19.5232
  13   2.0000      -0.699057       -19.0223
  14   2.0000      -0.640808       -17.4373
  15   2.0000      -0.586818       -15.9681
  16   2.0000      -0.556336       -15.1387
  17   2.0000      -0.495251       -13.4765
  18   2.0000      -0.481896       -13.1131
  19   2.0000      -0.468438       -12.7468
  20   2.0000      -0.422907       -11.5079
  21   2.0000      -0.418711       -11.3937
  22   2.0000      -0.405221       -11.0266
  23   2.0000      -0.390360       -10.6222
  24   2.0000      -0.380582       -10.3562
  25   2.0000      -0.368467       -10.0265
  26   2.0000      -0.358544        -9.7565
  27   2.0000      -0.312951        -8.5158
  28   2.0000      -0.312338        -8.4992
  29   2.0000      -0.279027        -7.5927
  30   2.0000      -0.241875        -6.5818
  31   2.0000      -0.235573        -6.4103
  32   2.0000      -0.179297        -4.8789
  33   0.0000      -0.033183        -0.9030
  34   0.0000      -0.008783        -0.2390
  35   0.0000       0.074741         2.0338
  36   0.0000       0.088690         2.4134
  37   0.0000       0.094505         2.5716

MULLIKEN ATOMIC CHARGES
-----------------------
   0 C :   -0.289356
   1 O :   -0.295135
   2 C :    0.160915
   3 C :   -0.255099
   4 C :   -0.384360
   5 C :    0.458496
   6 C :   -0.384178
   7 C :   -0.250388
   8 N :   -0.589350
   9 H :    0.164063
  10 H :    0.157185
  11 H :    0.156534
  12 H :    0.187193
  13 H :    0.179066
  14 H :    0.178769
  15 H :    0.187247
  16 H :    0.309250
  17 H :    0.309148
Sum of atomic charges:    0.0000000

LOEWDIN ATOMIC CHARGES
----------------------
   0 C :   -0.053757
   1 O :   -0.758896
   2 C :    0.119330
   3 C :   -0.136810
   4 C :   -0.167128
   5 C :    0.113011
   6 C :   -0.166963
   7 C :   -0.136957
   8 N :   -0.599272
   9 H :    0.180376
  10 H :    0.167504
  11 H :    0.167245
  12 H :    0.187991
  13 H :    0.183164
  14 H :    0.183119
  15 H :    0.188076
  16 H :    0.264982
  17 H :    0.264984

  Mayer bond orders larger than 0.100000
B(  0-C ,  1-O ) :   0.8595 B(  0-C ,  9-H ) :   0.9659 B(  0-C , 10-H ) :   0.9598
B(  0-C , 11-H ) :   0.9599 B(  1-O ,  2-C ) :   0.9671 B(  2-C ,  3-C ) :   1.4104
B(  2-C ,  7-C ) :   1.4045 B(  3-C ,  4-C ) :   1.3501 B(  3-C , 12-H ) :   0.9399
B(  4-C ,  5-C ) :   1.3075 B(  4-C , 13-H ) :   0.9568 B(  5-C ,  6-C ) :   1.3061
B(  5-C ,  8-N ) :   0.9547 B(  6-C ,  7-C ) :   1.3530 B(  6-C , 14-H ) :   0.9571
B(  7-C , 15-H ) :   0.9392 B(  8-N , 16-H ) :   0.9038 B(  8-N , 17-H ) :   0.9039

Dispersion correction           -0.005721737
FINAL SINGLE POINT ENERGY      -402.033431251990

DIPOLE MOMENT
-------------

Method             : SCF
Type of density    : Electron Density
Multiplicity       :   1
Irrep              :   0
Energy             :  -402.0374074869214951 Eh
Relativity type    :
Basis              : AO
                                X                 Y                 Z
Electronic contribution:      1.986841299      -0.307273644      -2.126929174
Nuclear contribution   :     -0.813897138       0.452681154       2.557246385
                        -----------------------------------------
Total Dipole Moment    :      1.172944161       0.145407510       0.430317212
                        -----------------------------------------
Magnitude (a.u.)       :      1.257821232
Magnitude (Debye)      :      3.197127492

Rotational constants in cm-1:             0.156837             0.033108             0.028913
Rotational constants in MHz :          4701.842385           992.553992           866.798342

                             ****ORCA TERMINATED NORMALLY****
TOTAL RUN TIME: 0 days 0 hours 0 minutes 36 seconds 169 msec
