                         Program Version 6.0.0  -   RELEASE  -
|  1> ! wb97x-v def2-tzvp def2/J RIJCOSX DEFGRID2 scfconv7 GCP(DFT/TZ) printgap
|  2> %output
|  3>     printlevel normal
|  4> end
|  5> * xyz 0 1
|  6> C -3.546950210409165 0.0019719491131907733 -0.002376588041175507
|  7> C -2.861411387460617 0.8578214084138437 0.8519880456246304
|  8> C -1.4736382881211354 0.8427501222884217 0.8391957180848587
|  9> C -0.7393139701718423 -0.0005096086534744218 0.00012520689224883143
| 10> C -1.4736188532129892 -0.8425697974579929 -0.8401557653469193
| 11> C -2.8613910284921604 -0.8551667718759091 -0.8554403336282264
| 12> Cl -0.6048760794652985 -1.9227547240685254 -1.9150557690951824
| 13> C 0.7393188815865204 -0.0013124246047130955 0.0010107214431812246
| 14> C 1.4744459042525895 0.8410732399205959 -0.8382418941617529
| 15> C 2.8622284282707584 0.854375164749539 -0.8514885164825324
| 16> C 3.546956970915388 -0.002388307834065936 0.0026106585977662593
| 17> C 2.8605867193745302 -0.8586416380050627 0.8559101724931649
| 18> C 1.4728219589139462 -0.8442781850234174 0.8410761720529379
| 19> Cl 0.6030270532737156 -1.9233742220239956 1.9162191561675113
| 20> Cl 0.6067737792250885 1.920875768059559 -1.9143987244802705
| 21> Cl -0.6049149078490953 1.9214302901730138 1.9156286692912503
| 22> H -4.63155259916091 0.0030019809981912636 -0.0034108825047430625
| 23> H -3.396258775123864 1.525437029243585 1.5168860120733987
| 24> H -3.3962242355463244 -1.5217972296872535 -1.521329874383682
| 25> H 3.3976957031468773 1.521311284246256 -1.5165648037002366
| 26> H 4.631559770195198 -0.0027869833855231484 0.003243837393254475
| 27> H 3.39480047789293 -1.5259725586907291 1.5215993185308316
| 28> *
| 29>
| 30>                          ****END OF INPUT****

CARTESIAN COORDINATES (ANGSTROEM)
---------------------------------
  C     -3.546950    0.001972   -0.002377
  C     -2.861411    0.857821    0.851988
  C     -1.473638    0.842750    0.839196
  C     -0.739314   -0.000510    0.000125
  C     -1.473619   -0.842570   -0.840156
  C     -2.861391   -0.855167   -0.855440
  Cl    -0.604876   -1.922755   -1.915056
  C      0.739319   -0.001312    0.001011
  C      1.474446    0.841073   -0.838242
  C      2.862228    0.854375   -0.851489
  C      3.546957   -0.002388    0.002611
  C      2.860587   -0.858642    0.855910
  C      1.472822   -0.844278    0.841076
  Cl     0.603027   -1.923374    1.916219
  Cl     0.606774    1.920876   -1.914399
  Cl    -0.604915    1.921430    1.915629
  H     -4.631553    0.003002   -0.003411
  H     -3.396259    1.525437    1.516886
  H     -3.396224   -1.521797   -1.521330
  H      3.397696    1.521311   -1.516565
  H      4.631560   -0.002787    0.003244
  H      3.394800   -1.525973    1.521599

 Total Charge           Charge          ....    0
 Multiplicity           Mult            ....    1
 Number of Electrons    NEL             ....  146
 Basis Dimension        Dim             ....  556

ORBITAL ENERGIES
----------------

  NO   OCC          E(Eh)            E(eV)
   0   2.0000    -107.151137     -2915.7307
   1   2.0000    -107.151127     -2915.7304
   2   2.0000    -107.151127     -2915.7304
   3   2.0000    -107.151126     -2915.7304
   4   2.0000     -12.133261      -330.1628
   5   2.0000     -12.133260      -330.1628
   6   2.0000     -12.132905      -330.1531
   7   2.0000     -12.132893      -330.1528
   8   2.0000     -12.096760      -329.1696
   9   2.0000     -12.095110      -329.1247
  10   2.0000     -12.079132      -328.6899
  11   2.0000     -12.079116      -328.6895
  12   2.0000     -12.075940      -328.6030
  13   2.0000     -12.075940      -328.6030
  14   2.0000     -12.075084      -328.5798
  15   2.0000     -12.075054      -328.5789
  16   2.0000     -11.304252      -307.6043
  17   2.0000     -11.304251      -307.6043
  18   2.0000     -11.304209      -307.6032
  19   2.0000     -11.304199      -307.6029
  20   2.0000      -9.096057      -247.5163
  21   2.0000      -9.096057      -247.5163
  22   2.0000      -9.095645      -247.5051
  23   2.0000      -9.095505      -247.5013
  24   2.0000      -9.093379      -247.4434
  25   2.0000      -9.093186      -247.4382
  26   2.0000      -9.093183      -247.4381
  27   2.0000      -9.093121      -247.4364
  28   2.0000      -9.093117      -247.4363
  29   2.0000      -9.093073      -247.4351
  30   2.0000      -9.092983      -247.4327
  31   2.0000      -9.092839      -247.4287
  32   2.0000      -1.465777       -39.8858
  33   2.0000      -1.447504       -39.3886
  34   2.0000      -1.429477       -38.8980
  35   2.0000      -1.429452       -38.8974
  36   2.0000      -1.380812       -37.5738
  37   2.0000      -1.378778       -37.5184
  38   2.0000      -1.335431       -36.3389
  39   2.0000      -1.285004       -34.9667
  40   2.0000      -1.285002       -34.9667
  41   2.0000      -1.278679       -34.7946
  42   2.0000      -1.165879       -31.7252
  43   2.0000      -1.127650       -30.6849
  44   2.0000      -1.127553       -30.6823
  45   2.0000      -1.119031       -30.4504
  46   2.0000      -1.018879       -27.7251
  47   2.0000      -1.001536       -27.2532
  48   2.0000      -1.001431       -27.2503
  49   2.0000      -0.982608       -26.7381
  50   2.0000      -0.966537       -26.3008
  51   2.0000      -0.938012       -25.5246
  52   2.0000      -0.925458       -25.1830
  53   2.0000      -0.925454       -25.1829
  54   2.0000      -0.921087       -25.0641
  55   2.0000      -0.872323       -23.7371
  56   2.0000      -0.862693       -23.4751
  57   2.0000      -0.862680       -23.4747
  58   2.0000      -0.858859       -23.3707
  59   2.0000      -0.843981       -22.9659
  60   2.0000      -0.843961       -22.9653
  61   2.0000      -0.822800       -22.3895
  62   2.0000      -0.819191       -22.2913
  63   2.0000      -0.801100       -21.7990
  64   2.0000      -0.799725       -21.7616
  65   2.0000      -0.797390       -21.6981
  66   2.0000      -0.797373       -21.6976
  67   2.0000      -0.773566       -21.0498
  68   2.0000      -0.773545       -21.0492
  69   2.0000      -0.673757       -18.3339
  70   2.0000      -0.673498       -18.3268
  71   2.0000      -0.667263       -18.1571
  72   2.0000      -0.667014       -18.1504
  73   0.0000      -0.302617        -8.2346
  74   0.0000      -0.288644        -7.8544
  75   0.0000      -0.284005        -7.7282
  76   0.0000      -0.283719        -7.7204
  77   0.0000      -0.281029        -7.6472

MULLIKEN ATOMIC CHARGES
-----------------------
   0 C :   -0.054899
   1 C :   -0.257236
   2 C :    0.182324
   3 C :   -0.053013
   4 C :    0.182188
   5 C :   -0.257145
   6 Cl:   -0.074321
   7 C :   -0.053337
   8 C :    0.182577
   9 C :   -0.257345
  10 C :   -0.054804
  11 C :   -0.257212
  12 C :    0.182541
  13 Cl:   -0.074329
  14 Cl:   -0.074360
  15 Cl:   -0.074320
  16 H :    0.130672
  17 H :    0.137858
  18 H :    0.137829
  19 H :    0.137821
  20 H :    0.130675
  21 H :    0.137834
Sum of atomic charges:   -0.0000000

LOEWDIN ATOMIC CHARGES
----------------------
   0 C :   -0.120213
   1 C :   -0.136556
   2 C :   -0.365430
   3 C :   -0.145171
   4 C :   -0.365440
   5 C :   -0.136553
   6 Cl:    0.410545
   7 C :   -0.145172
   8 C :   -0.365424
   9 C :   -0.136557
  10 C :   -0.120213
  11 C :   -0.136550
  12 C :   -0.365445
  13 Cl:    0.410537
  14 Cl:    0.410552
  15 Cl:    0.410545
  16 H :    0.148437
  17 H :    0.149919
  18 H :    0.149918
  19 H :    0.149918
  20 H :    0.148436
  21 H :    0.149918

  Mayer bond orders larger than 0.100000
B(  0-C ,  1-C ) :   1.4093 B(  0-C ,  5-C ) :   1.4093 B(  0-C , 16-H ) :   0.9690
B(  1-C ,  2-C ) :   1.4407 B(  1-C , 17-H ) :   0.9624 B(  2-C ,  3-C ) :   1.3011
B(  2-C , 15-Cl) :   1.0648 B(  3-C ,  4-C ) :   1.3009 B(  3-C ,  7-C ) :   0.7797
B(  4-C ,  5-C ) :   1.4407 B(  4-C ,  6-Cl) :   1.0648 B(  5-C , 18-H ) :   0.9624
B(  7-C ,  8-C ) :   1.3013 B(  7-C , 12-C ) :   1.3011 B(  8-C ,  9-C ) :   1.4408
B(  8-C , 14-Cl) :   1.0647 B(  9-C , 10-C ) :   1.4093 B(  9-C , 19-H ) :   0.9623
B( 10-C , 11-C ) :   1.4094 B( 10-C , 20-H ) :   0.9690 B( 11-C , 12-C ) :   1.4409
B( 11-C , 21-H ) :   0.9623 B( 12-C , 13-Cl) :   1.0649

FINAL SINGLE POINT ENERGY     -2301.508216524453

DIPOLE MOMENT
-------------

Method             : SCF
Type of density    : Electron Density
Multiplicity       :   1
Irrep              :   0
Energy             : -2301.5190798392532088 Eh
Relativity type    :
Basis              : AO
                                X                 Y                 Z
Electronic contribution:     -0.000000290      -0.004083968       0.002619391
Nuclear contribution   :      0.000005164       0.004569596      -0.002936035
                        -----------------------------------------
Total Dipole Moment    :      0.000004875       0.000485628      -0.000316643
                        -----------------------------------------
Magnitude (a.u.)       :      0.000579760
Magnitude (Debye)      :      0.001473632

Rotational constants in cm-1:             0.014036             0.010854             0.010825
Rotational constants in MHz :           420.773893           325.397191           324.515620

                             ****ORCA TERMINATED NORMALLY****
TOTAL RUN TIME: 0 days 0 hours 9 minutes 37 seconds 616 msec
