                         Program Version 6.0.0  -   RELEASE  -
|  1> ! wb97x-v def2-tzvp def2/J RIJCOSX DEFGRID2 scfconv7 GCP(DFT/TZ) printgap
|  2> %output
|  3>     printlevel normal
|  4> end
|  5> %cpcm
|  6>     smd true
|  7>     smdsolvent "water"
|  8> end
|  9> * xyz 0 1
| 10> C -3.546950210409165 0.0019719491131907733 -0.002376588041175507
| 11> C -2.861411387460617 0.8578214084138437 0.8519880456246304
| 12> C -1.4736382881211354 0.8427501222884217 0.8391957180848587
| 13> C -0.7393139701718423 -0.0005096086534744218 0.00012520689224883143
| 14> C -1.4736188532129892 -0.8425697974579929 -0.8401557653469193
| 15> C -2.8613910284921604 -0.8551667718759091 -0.8554403336282264
| 16> Cl -0.6048760794652985 -1.9227547240685254 -1.9150557690951824
| 17> C 0.7393188815865204 -0.0013124246047130955 0.0010107214431812246
| 18> C 1.4744459042525895 0.8410732399205959 -0.8382418941617529
| 19> C 2.8622284282707584 0.854375164749539 -0.8514885164825324
| 20> C 3.546956970915388 -0.002388307834065936 0.0026106585977662593
| 21> C 2.8605867193745302 -0.8586416380050627 0.8559101724931649
| 22> C 1.4728219589139462 -0.8442781850234174 0.8410761720529379
| 23> Cl 0.6030270532737156 -1.9233742220239956 1.9162191561675113
| 24> Cl 0.6067737792250885 1.920875768059559 -1.9143987244802705
| 25> Cl -0.6049149078490953 1.9214302901730138 1.9156286692912503
| 26> H -4.63155259916091 0.0030019809981912636 -0.0034108825047430625
| 27> H -3.396258775123864 1.525437029243585 1.5168860120733987
| 28> H -3.3962242355463244 -1.5217972296872535 -1.521329874383682
| 29> H 3.3976957031468773 1.521311284246256 -1.5165648037002366
| 30> H 4.631559770195198 -0.0027869833855231484 0.003243837393254475
| 31> H 3.39480047789293 -1.5259725586907291 1.5215993185308316
| 32> *
| 33>
| 34>                          ****END OF INPUT****

CARTESIAN COORDINATES (ANGSTROEM)
---------------------------------
  C     -3.546950    0.001972   -0.002377
  C     -2.861411    0.857821    0.851988
  C     -1.473638    0.842750    0.839196
  C     -0.739314   -0.000510    0.000125
  C     -1.473619   -0.842570   -0.840156
  C     -2.861391   -0.855167   -0.855440
  Cl    -0.604876   -1.922755   -1.915056
  C      0.739319   -0.001312    0.001011
  C      1.474446    0.841073   -0.838242
  C      2.862228    0.854375   -0.851489
  C      3.546957   -0.002388    0.002611
  C      2.860587   -0.858642    0.855910
  C      1.472822   -0.844278    0.841076
  Cl     0.603027   -1.923374    1.916219
  Cl     0.606774    1.920876   -1.914399
  Cl    -0.604915    1.921430    1.915629
  H     -4.631553    0.003002   -0.003411
  H     -3.396259    1.525437    1.516886
  H     -3.396224   -1.521797   -1.521330
  H      3.397696    1.521311   -1.516565
  H      4.631560   -0.002787    0.003244
  H      3.394800   -1.525973    1.521599

 Total Charge           Charge          ....    0
 Multiplicity           Mult            ....    1
 Number of Electrons    NEL             ....  146
 Basis Dimension        Dim             ....  556

ORBITAL ENERGIES
----------------

  NO   OCC          E(Eh)            E(eV)
   0   2.0000    -107.154583     -2915.8244
   1   2.0000    -107.154573     -2915.8242
   2   2.0000    -107.154573     -2915.8242
   3   2.0000    -107.154572     -2915.8241
   4   2.0000     -12.131082      -330.1035
   5   2.0000     -12.131081      -330.1035
   6   2.0000     -12.130724      -330.0938
   7   2.0000     -12.130713      -330.0935
   8   2.0000     -12.095597      -329.1379
   9   2.0000     -12.093954      -329.0932
  10   2.0000     -12.071035      -328.4696
  11   2.0000     -12.071004      -328.4687
  12   2.0000     -12.069727      -328.4340
  13   2.0000     -12.069727      -328.4340
  14   2.0000     -12.068176      -328.3918
  15   2.0000     -12.068164      -328.3914
  16   2.0000     -11.307749      -307.6995
  17   2.0000     -11.307748      -307.6995
  18   2.0000     -11.307704      -307.6983
  19   2.0000     -11.307694      -307.6980
  20   2.0000      -9.099541      -247.6111
  21   2.0000      -9.099541      -247.6111
  22   2.0000      -9.099129      -247.5999
  23   2.0000      -9.098991      -247.5961
  24   2.0000      -9.096921      -247.5398
  25   2.0000      -9.096720      -247.5343
  26   2.0000      -9.096717      -247.5342
  27   2.0000      -9.096646      -247.5323
  28   2.0000      -9.096642      -247.5322
  29   2.0000      -9.096606      -247.5312
  30   2.0000      -9.096515      -247.5288
  31   2.0000      -9.096384      -247.5252
  32   2.0000      -1.465896       -39.8890
  33   2.0000      -1.447949       -39.4007
  34   2.0000      -1.432059       -38.9683
  35   2.0000      -1.432034       -38.9676
  36   2.0000      -1.380819       -37.5740
  37   2.0000      -1.377202       -37.4756
  38   2.0000      -1.331867       -36.2420
  39   2.0000      -1.281978       -34.8844
  40   2.0000      -1.281976       -34.8843
  41   2.0000      -1.275055       -34.6960
  42   2.0000      -1.161235       -31.5988
  43   2.0000      -1.124650       -30.6033
  44   2.0000      -1.124549       -30.6005
  45   2.0000      -1.114397       -30.3243
  46   2.0000      -1.015236       -27.6260
  47   2.0000      -0.997445       -27.1419
  48   2.0000      -0.997343       -27.1391
  49   2.0000      -0.980038       -26.6682
  50   2.0000      -0.964459       -26.2443
  51   2.0000      -0.931565       -25.3492
  52   2.0000      -0.924952       -25.1692
  53   2.0000      -0.924948       -25.1691
  54   2.0000      -0.914128       -24.8747
  55   2.0000      -0.863085       -23.4857
  56   2.0000      -0.857194       -23.3254
  57   2.0000      -0.857165       -23.3246
  58   2.0000      -0.851654       -23.1747
  59   2.0000      -0.843882       -22.9632
  60   2.0000      -0.843841       -22.9621
  61   2.0000      -0.826592       -22.4927
  62   2.0000      -0.822994       -22.3948
  63   2.0000      -0.804116       -21.8811
  64   2.0000      -0.802274       -21.8310
  65   2.0000      -0.800909       -21.7938
  66   2.0000      -0.800892       -21.7934
  67   2.0000      -0.773761       -21.0551
  68   2.0000      -0.773727       -21.0542
  69   2.0000      -0.670058       -18.2332
  70   2.0000      -0.669804       -18.2263
  71   2.0000      -0.665453       -18.1079
  72   2.0000      -0.665399       -18.1064
  73   0.0000      -0.303595        -8.2613
  74   0.0000      -0.289800        -7.8858
  75   0.0000      -0.281097        -7.6490
  76   0.0000      -0.280809        -7.6412
  77   0.0000      -0.277607        -7.5541

MULLIKEN ATOMIC CHARGES
-----------------------
   0 C :   -0.095932
   1 C :   -0.278586
   2 C :    0.171697
   3 C :   -0.036360
   4 C :    0.171572
   5 C :   -0.278492
   6 Cl:   -0.090717
   7 C :   -0.036704
   8 C :    0.171957
   9 C :   -0.278685
  10 C :   -0.095850
  11 C :   -0.278549
  12 C :    0.171918
  13 Cl:   -0.090728
  14 Cl:   -0.090753
  15 Cl:   -0.090713
  16 H :    0.176121
  17 H :    0.175691
  18 H :    0.175662
  19 H :    0.175655
  20 H :    0.176129
  21 H :    0.175669
Sum of atomic charges:   -0.0000000

LOEWDIN ATOMIC CHARGES
----------------------
   0 C :   -0.112370
   1 C :   -0.131593
   2 C :   -0.374448
   3 C :   -0.151940
   4 C :   -0.374458
   5 C :   -0.131589
   6 Cl:    0.396408
   7 C :   -0.151941
   8 C :   -0.374441
   9 C :   -0.131594
  10 C :   -0.112370
  11 C :   -0.131586
  12 C :   -0.374464
  13 Cl:    0.396398
  14 Cl:    0.396418
  15 Cl:    0.396409
  16 H :    0.161640
  17 H :    0.160971
  18 H :    0.160970
  19 H :    0.160969
  20 H :    0.161640
  21 H :    0.160971

  Mayer bond orders larger than 0.100000
B(  0-C ,  1-C ) :   1.3976 B(  0-C ,  5-C ) :   1.3976 B(  0-C , 16-H ) :   0.9690
B(  1-C ,  2-C ) :   1.4051 B(  1-C , 17-H ) :   0.9691 B(  2-C ,  3-C ) :   1.2927
B(  2-C , 15-Cl) :   1.0614 B(  3-C ,  4-C ) :   1.2925 B(  3-C ,  7-C ) :   0.7827
B(  4-C ,  5-C ) :   1.4051 B(  4-C ,  6-Cl) :   1.0615 B(  5-C , 18-H ) :   0.9691
B(  7-C ,  8-C ) :   1.2929 B(  7-C , 12-C ) :   1.2927 B(  8-C ,  9-C ) :   1.4052
B(  8-C , 14-Cl) :   1.0613 B(  9-C , 10-C ) :   1.3976 B(  9-C , 19-H ) :   0.9689
B( 10-C , 11-C ) :   1.3976 B( 10-C , 20-H ) :   0.9690 B( 11-C , 12-C ) :   1.4054
B( 11-C , 21-H ) :   0.9690 B( 12-C , 13-Cl) :   1.0615

FINAL SINGLE POINT ENERGY     -2301.512191533803

DIPOLE MOMENT
-------------

Method             : SCF
Type of density    : Electron Density
Multiplicity       :   1
Irrep              :   0
Energy             : -2301.5230548486028965 Eh
Relativity type    :
Basis              : AO
                                X                 Y                 Z
Electronic contribution:      0.000001167      -0.003850119       0.002469404
Nuclear contribution   :      0.000005164       0.004569596      -0.002936035
                        -----------------------------------------
Total Dipole Moment    :      0.000006331       0.000719477      -0.000466630
                        -----------------------------------------
Magnitude (a.u.)       :      0.000857573
Magnitude (Debye)      :      0.002179776

Rotational constants in cm-1:             0.014036             0.010854             0.010825
Rotational constants in MHz :           420.773893           325.397191           324.515620

                             ****ORCA TERMINATED NORMALLY****
TOTAL RUN TIME: 0 days 0 hours 10 minutes 19 seconds 644 msec
