                         Program Version 6.0.0  -   RELEASE  -
|  1> ! pbe def2-sv(p) def2/J RI DEFGRID1 loosescf d4 GCP(DFT/SV(P)) printgap
|  2> %output
|  3>     printlevel normal
|  4> end
|  5> * xyz 0 1
|  6> C -2.5750349391 -0.694017749 -0.2712247515
|  7> C -1.1854468214 -0.2855520891 0.235553728
|  8> H -1.2048521583 -0.2052984043 1.3340712719
|  9> C -0.7158855693 1.0554484812 -0.3549243529
| 10> H -0.6824805085 0.9687728079 -1.4496634084
| 11> C 0.7033404025 1.3410685802 0.1526583251
| 12> H 0.6568300652 1.4753764875 1.2453577201
| 13> C 1.6437670693 0.1715931815 -0.1558080024
| 14> H 1.7979591597 0.1107265428 -1.242852308
| 15> C 1.0311267248 -1.15705999 0.3084010139
| 16> H 1.040300673 -1.164318679 1.4175993264
| 17> O -0.2942236832 -1.3195948137 -0.1497851691
| 18> O 1.7866446389 -2.1802935727 -0.2170430179
| 19> O 2.8664276913 0.3224110787 0.5138104637
| 20> O 1.2483802435 2.4877549113 -0.451028343
| 21> O -1.5112054987 2.1434250091 0.0481328412
| 22> O -3.0428297409 -1.8646431037 0.3435516017
| 23> H -2.5273409156 -0.8198270419 -1.3602157312
| 24> H -3.2987283202 0.081114008 -0.0162518931
| 25> H 1.4385785506 -3.039983371 0.067466751
| 26> H 3.2639811263 1.1610365771 0.2322466931
| 27> H 0.6374143453 3.2269136751 -0.3100126029
| 28> H -2.3373195694 2.1660257389 -0.4529697785
| 29> H -2.4164383286 -2.5791611905 0.1610854756
| 30> *
| 31>
| 32>                          ****END OF INPUT****

CARTESIAN COORDINATES (ANGSTROEM)
---------------------------------
  C     -2.575035   -0.694018   -0.271225
  C     -1.185447   -0.285552    0.235554
  H     -1.204852   -0.205298    1.334071
  C     -0.715886    1.055448   -0.354924
  H     -0.682481    0.968773   -1.449663
  C      0.703340    1.341069    0.152658
  H      0.656830    1.475376    1.245358
  C      1.643767    0.171593   -0.155808
  H      1.797959    0.110727   -1.242852
  C      1.031127   -1.157060    0.308401
  H      1.040301   -1.164319    1.417599
  O     -0.294224   -1.319595   -0.149785
  O      1.786645   -2.180294   -0.217043
  O      2.866428    0.322411    0.513810
  O      1.248380    2.487755   -0.451028
  O     -1.511205    2.143425    0.048133
  O     -3.042830   -1.864643    0.343552
  H     -2.527341   -0.819827   -1.360216
  H     -3.298728    0.081114   -0.016252
  H      1.438579   -3.039983    0.067467
  H      3.263981    1.161037    0.232247
  H      0.637414    3.226914   -0.310013
  H     -2.337320    2.166026   -0.452970
  H     -2.416438   -2.579161    0.161085

 Total Charge           Charge          ....    0
 Multiplicity           Mult            ....    1
 Number of Electrons    NEL             ....   96
 Basis Dimension        Dim             ....  192

ORBITAL ENERGIES
----------------

  NO   OCC          E(Eh)            E(eV)
   0   2.0000     -18.777702      -510.9672
   1   2.0000     -18.773529      -510.8537
   2   2.0000     -18.760301      -510.4938
   3   2.0000     -18.755439      -510.3614
   4   2.0000     -18.749418      -510.1976
   5   2.0000     -18.744832      -510.0728
   6   2.0000      -9.988422      -271.7988
   7   2.0000      -9.949143      -270.7300
   8   2.0000      -9.946059      -270.6460
   9   2.0000      -9.942569      -270.5510
  10   2.0000      -9.940734      -270.5011
  11   2.0000      -9.938872      -270.4505
  12   2.0000      -0.986009       -26.8307
  13   2.0000      -0.954685       -25.9783
  14   2.0000      -0.936612       -25.4865
  15   2.0000      -0.929591       -25.2954
  16   2.0000      -0.916787       -24.9471
  17   2.0000      -0.911998       -24.8167
  18   2.0000      -0.708888       -19.2898
  19   2.0000      -0.693078       -18.8596
  20   2.0000      -0.626166       -17.0388
  21   2.0000      -0.581955       -15.8358
  22   2.0000      -0.564841       -15.3701
  23   2.0000      -0.526475       -14.3261
  24   2.0000      -0.502233       -13.6665
  25   2.0000      -0.497113       -13.5271
  26   2.0000      -0.476567       -12.9680
  27   2.0000      -0.469912       -12.7869
  28   2.0000      -0.458418       -12.4742
  29   2.0000      -0.439340       -11.9550
  30   2.0000      -0.413735       -11.2583
  31   2.0000      -0.399800       -10.8791
  32   2.0000      -0.386926       -10.5288
  33   2.0000      -0.380430       -10.3520
  34   2.0000      -0.363614        -9.8945
  35   2.0000      -0.360665        -9.8142
  36   2.0000      -0.329342        -8.9619
  37   2.0000      -0.308566        -8.3965
  38   2.0000      -0.306519        -8.3408
  39   2.0000      -0.296395        -8.0653
  40   2.0000      -0.282463        -7.6862
  41   2.0000      -0.280346        -7.6286
  42   2.0000      -0.256812        -6.9882
  43   2.0000      -0.243116        -6.6155
  44   2.0000      -0.233291        -6.3482
  45   2.0000      -0.224330        -6.1043
  46   2.0000      -0.214700        -5.8423
  47   2.0000      -0.211811        -5.7637
  48   0.0000       0.001771         0.0482
  49   0.0000       0.026829         0.7300
  50   0.0000       0.031518         0.8576
  51   0.0000       0.044188         1.2024
  52   0.0000       0.051152         1.3919

MULLIKEN ATOMIC CHARGES
-----------------------
   0 C :    0.087175
   1 C :   -0.003867
   2 H :    0.057709
   3 C :    0.027572
   4 H :    0.057898
   5 C :    0.066900
   6 H :    0.056141
   7 C :    0.051571
   8 H :    0.063933
   9 C :    0.196992
  10 H :    0.042961
  11 O :   -0.325472
  12 O :   -0.364824
  13 O :   -0.413386
  14 O :   -0.425484
  15 O :   -0.416258
  16 O :   -0.431825
  17 H :    0.071687
  18 H :    0.068795
  19 H :    0.304734
  20 H :    0.308387
  21 H :    0.307742
  22 H :    0.312777
  23 H :    0.298142
Sum of atomic charges:    0.0000000

LOEWDIN ATOMIC CHARGES
----------------------
   0 C :   -0.128205
   1 C :   -0.080036
   2 H :    0.106814
   3 C :   -0.082656
   4 H :    0.105483
   5 C :   -0.076719
   6 H :    0.105833
   7 C :   -0.074128
   8 H :    0.111624
   9 C :    0.008689
  10 H :    0.084820
  11 O :   -0.162431
  12 O :   -0.283012
  13 O :   -0.313364
  14 O :   -0.324403
  15 O :   -0.315865
  16 O :   -0.333131
  17 H :    0.100887
  18 H :    0.109901
  19 H :    0.289407
  20 H :    0.289944
  21 H :    0.287463
  22 H :    0.291192
  23 H :    0.281892

  Mayer bond orders larger than 0.100000
B(  0-C ,  1-C ) :   1.0416 B(  0-C , 16-O ) :   1.0924 B(  0-C , 17-H ) :   0.9066
B(  0-C , 18-H ) :   0.9128 B(  1-C ,  2-H ) :   0.8680 B(  1-C ,  3-C ) :   0.9755
B(  1-C , 11-O ) :   0.9766 B(  3-C ,  4-H ) :   0.8748 B(  3-C ,  5-C ) :   0.9996
B(  3-C , 15-O ) :   1.0685 B(  5-C ,  6-H ) :   0.8730 B(  5-C ,  7-C ) :   1.0217
B(  5-C , 14-O ) :   1.0819 B(  7-C ,  8-H ) :   0.8657 B(  7-C ,  9-C ) :   0.9999
B(  7-C , 13-O ) :   1.0809 B(  9-C , 10-H ) :   0.8862 B(  9-C , 11-O ) :   0.9979
B(  9-C , 12-O ) :   1.2057 B( 12-O , 19-H ) :   0.8417 B( 13-O , 20-H ) :   0.8399
B( 14-O , 21-H ) :   0.8355 B( 15-O , 22-H ) :   0.8399 B( 16-O , 23-H ) :   0.8453

Dispersion correction           -0.023560129
FINAL SINGLE POINT ENERGY      -685.700499586945

DIPOLE MOMENT
-------------

Method             : SCF
Type of density    : Electron Density
Multiplicity       :   1
Irrep              :   0
Energy             :  -685.8296299887720124 Eh
Relativity type    :
Basis              : AO
                                X                 Y                 Z
Electronic contribution:      2.764316490      -0.951919527       0.050839106
Nuclear contribution   :     -3.391921292       1.289878890      -0.349707228
                        -----------------------------------------
Total Dipole Moment    :     -0.627604803       0.337959363      -0.298868122
                        -----------------------------------------
Magnitude (a.u.)       :      0.772933680
Magnitude (Debye)      :      1.964641282

Rotational constants in cm-1:             0.039024             0.026102             0.016412
Rotational constants in MHz :          1169.909343           782.532156           492.032908

                             ****ORCA TERMINATED NORMALLY****
TOTAL RUN TIME: 0 days 0 hours 0 minutes 11 seconds 865 msec
