                         Program Version 6.0.0  -   RELEASE  -
|  1> ! pbe def2-sv(p) def2/J RI DEFGRID1 loosescf d4 GCP(DFT/SV(P)) printgap
|  2> %output
|  3>     printlevel normal
|  4> end
|  5> * xyz 0 1
|  6> C -2.4768647304 0.4624428955 1.3930971572
|  7> O -1.2379540256 0.381448554 0.6819633266
|  8> C -1.1914072973 -0.3143775105 -0.4421686328
|  9> O -2.1533358172 -0.9048531616 -0.8982443317
| 10> C 0.1682999666 -0.3484509653 -1.104792039
| 11> C 1.0672705117 -1.379984864 -0.3990572506
| 12> C 1.6067264686 -0.8638547824 0.9299662895
| 13> C 2.3794451693 0.4335228543 0.717480894
| 14> C 1.4595841373 1.493715937 0.1220228294
| 15> C 0.8656712523 1.0148225328 -1.2000215094
| 16> H -2.9160303089 1.4435023069 1.2152625063
| 17> H -2.2450888471 0.3368143555 2.4479534936
| 18> H -3.1559166793 -0.3174649886 1.0469359701
| 19> H -0.0325228075 -0.713211522 -2.118547241
| 20> H 0.5059807198 -2.3056282107 -0.2516587264
| 21> H 1.9057576399 -1.5983993325 -1.0629232387
| 22> H 0.7819334784 -0.6832064054 1.6206728626
| 23> H 2.2566772305 -1.6217173891 1.3707341874
| 24> H 2.7844475317 0.7856969113 1.6672768732
| 25> H 3.2165487661 0.2508795962 0.040103266
| 26> H 0.6595684073 1.7138423874 0.8280603904
| 27> H 2.0171461165 2.4152009407 -0.0552077511
| 28> H 0.1610194323 1.7560926168 -1.5823772199
| 29> H 1.6715825977 0.9134795897 -1.9300003776
| 30> *
| 31>
| 32>                          ****END OF INPUT****

CARTESIAN COORDINATES (ANGSTROEM)
---------------------------------
  C     -2.476865    0.462443    1.393097
  O     -1.237954    0.381449    0.681963
  C     -1.191407   -0.314378   -0.442169
  O     -2.153336   -0.904853   -0.898244
  C      0.168300   -0.348451   -1.104792
  C      1.067271   -1.379985   -0.399057
  C      1.606726   -0.863855    0.929966
  C      2.379445    0.433523    0.717481
  C      1.459584    1.493716    0.122023
  C      0.865671    1.014823   -1.200022
  H     -2.916030    1.443502    1.215263
  H     -2.245089    0.336814    2.447953
  H     -3.155917   -0.317465    1.046936
  H     -0.032523   -0.713212   -2.118547
  H      0.505981   -2.305628   -0.251659
  H      1.905758   -1.598399   -1.062923
  H      0.781933   -0.683206    1.620673
  H      2.256677   -1.621717    1.370734
  H      2.784448    0.785697    1.667277
  H      3.216549    0.250880    0.040103
  H      0.659568    1.713842    0.828060
  H      2.017146    2.415201   -0.055208
  H      0.161019    1.756093   -1.582377
  H      1.671583    0.913480   -1.930000

 Total Charge           Charge          ....    0
 Multiplicity           Mult            ....    1
 Number of Electrons    NEL             ....   78
 Basis Dimension        Dim             ....  168

ORBITAL ENERGIES
----------------

  NO   OCC          E(Eh)            E(eV)
   0   2.0000     -18.802319      -511.6371
   1   2.0000     -18.730397      -509.6800
   2   2.0000     -10.003520      -272.2096
   3   2.0000      -9.941735      -270.5284
   4   2.0000      -9.902830      -269.4697
   5   2.0000      -9.890790      -269.1421
   6   2.0000      -9.888589      -269.0822
   7   2.0000      -9.881275      -268.8832
   8   2.0000      -9.880872      -268.8722
   9   2.0000      -9.877906      -268.7915
  10   2.0000      -1.008525       -27.4433
  11   2.0000      -0.907037       -24.6817
  12   2.0000      -0.761148       -20.7119
  13   2.0000      -0.690266       -18.7831
  14   2.0000      -0.668709       -18.1965
  15   2.0000      -0.655709       -17.8427
  16   2.0000      -0.560404       -15.2494
  17   2.0000      -0.544256       -14.8099
  18   2.0000      -0.516778       -14.0622
  19   2.0000      -0.497504       -13.5378
  20   2.0000      -0.443393       -12.0653
  21   2.0000      -0.437059       -11.8930
  22   2.0000      -0.428492       -11.6599
  23   2.0000      -0.407826       -11.0975
  24   2.0000      -0.396532       -10.7902
  25   2.0000      -0.390101       -10.6152
  26   2.0000      -0.377521       -10.2729
  27   2.0000      -0.358092        -9.7442
  28   2.0000      -0.342062        -9.3080
  29   2.0000      -0.335762        -9.1365
  30   2.0000      -0.328062        -8.9270
  31   2.0000      -0.324251        -8.8233
  32   2.0000      -0.307346        -8.3633
  33   2.0000      -0.302140        -8.2216
  34   2.0000      -0.269552        -7.3349
  35   2.0000      -0.264720        -7.2034
  36   2.0000      -0.262268        -7.1367
  37   2.0000      -0.254595        -6.9279
  38   2.0000      -0.213806        -5.8180
  39   0.0000      -0.018070        -0.4917
  40   0.0000       0.029806         0.8111
  41   0.0000       0.040768         1.1094
  42   0.0000       0.068530         1.8648
  43   0.0000       0.073431         1.9982

MULLIKEN ATOMIC CHARGES
-----------------------
   0 C :   -0.128733
   1 O :   -0.236950
   2 C :    0.117698
   3 O :   -0.203882
   4 C :   -0.128495
   5 C :   -0.142016
   6 C :   -0.147783
   7 C :   -0.161318
   8 C :   -0.144602
   9 C :   -0.127218
  10 H :    0.122671
  11 H :    0.122499
  12 H :    0.134990
  13 H :    0.082606
  14 H :    0.095717
  15 H :    0.082718
  16 H :    0.085789
  17 H :    0.084353
  18 H :    0.082781
  19 H :    0.070673
  20 H :    0.091408
  21 H :    0.080969
  22 H :    0.088223
  23 H :    0.077902
Sum of atomic charges:    0.0000000

LOEWDIN ATOMIC CHARGES
----------------------
   0 C :   -0.208860
   1 O :   -0.060562
   2 C :    0.043557
   3 O :   -0.172535
   4 C :   -0.160185
   5 C :   -0.207114
   6 C :   -0.232487
   7 C :   -0.225096
   8 C :   -0.234883
   9 C :   -0.212224
  10 H :    0.120628
  11 H :    0.120303
  12 H :    0.125448
  13 H :    0.134636
  14 H :    0.121158
  15 H :    0.118710
  16 H :    0.115709
  17 H :    0.116578
  18 H :    0.115794
  19 H :    0.110977
  20 H :    0.117415
  21 H :    0.115113
  22 H :    0.118902
  23 H :    0.119018

  Mayer bond orders larger than 0.100000
B(  0-C ,  1-O ) :   0.9313 B(  0-C , 10-H ) :   0.9608 B(  0-C , 11-H ) :   0.9594
B(  0-C , 12-H ) :   0.9306 B(  1-O ,  2-C ) :   1.1958 B(  2-C ,  3-O ) :   2.0741
B(  2-C ,  4-C ) :   0.9669 B(  4-C ,  5-C ) :   1.0761 B(  4-C ,  9-C ) :   1.0652
B(  4-C , 13-H ) :   0.8745 B(  5-C ,  6-C ) :   1.1293 B(  5-C , 14-H ) :   0.9162
B(  5-C , 15-H ) :   0.9110 B(  6-C ,  7-C ) :   1.1273 B(  6-C , 16-H ) :   0.9082
B(  6-C , 17-H ) :   0.9163 B(  7-C ,  8-C ) :   1.1325 B(  7-C , 18-H ) :   0.9190
B(  7-C , 19-H ) :   0.9179 B(  8-C ,  9-C ) :   1.1269 B(  8-C , 20-H ) :   0.9054
B(  8-C , 21-H ) :   0.9158 B(  9-C , 22-H ) :   0.9221 B(  9-C , 23-H ) :   0.9086

Dispersion correction           -0.023875458
FINAL SINGLE POINT ENERGY      -462.702168177420

DIPOLE MOMENT
-------------

Method             : SCF
Type of density    : Electron Density
Multiplicity       :   1
Irrep              :   0
Energy             :  -462.7902727149155453 Eh
Relativity type    :
Basis              : AO
                                X                 Y                 Z
Electronic contribution:     -6.773259922      -1.805145862      -2.471077491
Nuclear contribution   :      7.090206761       2.221213224       3.032969646
                        -----------------------------------------
Total Dipole Moment    :      0.316946839       0.416067362       0.561892154
                        -----------------------------------------
Magnitude (a.u.)       :      0.767652358
Magnitude (Debye)      :      1.951217227

Rotational constants in cm-1:             0.069110             0.033733             0.031127
Rotational constants in MHz :          2071.861915          1011.288346           933.173691

                             ****ORCA TERMINATED NORMALLY****
TOTAL RUN TIME: 0 days 0 hours 0 minutes 12 seconds 569 msec
