                         Program Version 6.0.0  -   RELEASE  -
|  1> ! wb97x-v def2-tzvp def2/J RIJCOSX DEFGRID2 scfconv7 GCP(DFT/TZ) printgap
|  2> %output
|  3>     printlevel normal
|  4> end
|  5> * xyz 0 1
|  6> C -3.0592396509724202 0.7093260751519168 0.6697422593776244
|  7> O -1.833843747882945 0.7951897968551553 -0.10234355444813688
|  8> C -1.101430488321282 -0.3336949591633629 -0.16976431288113622
|  9> O -1.4415791802955176 -1.366763929920997 0.38339746201109953
| 10> C 0.12224011162341582 -0.17654479055143654 -1.050902459329834
| 11> C 1.1421637452622482 -1.2926519227611397 -0.7904129612513066
| 12> C 1.839175476076399 -1.1197210714546375 0.5621747956787286
| 13> C 2.4864962260409307 0.2613110761803298 0.6837802012861077
| 14> C 1.461646462874178 1.3708813052702238 0.4380383523900606
| 15> C 0.7911582079008648 1.2027021191933613 -0.9266424961746861
| 16> H -3.5006521904802543 1.7041747504385434 0.6204989842852853
| 17> H -2.8347803634221163 0.44291330465890755 1.705236643086635
| 18> H -3.7326586699415367 -0.029284276490204545 0.22842631065189936
| 19> H -0.27274169095277295 -0.2831302390274543 -2.0725009604822024
| 20> H 0.6591046584892102 -2.2721913321891267 -0.8556962337940521
| 21> H 1.8912068622581604 -1.247041757778445 -1.5903100862510071
| 22> H 1.1072263040647654 -1.246721708254071 1.3711524821135592
| 23> H 2.5920818266650105 -1.9056378117280965 0.6905044333389091
| 24> H 2.9446280053423064 0.37868122711931024 1.672687227850108
| 25> H 3.293523367622915 0.3501832594597147 -0.05712258282711082
| 26> H 0.6968825721621208 1.3410138173635326 1.227990529435561
| 27> H 1.9415191849503366 2.354249480991727 0.4969335059170862
| 28> H 0.06995863057431191 2.0025836683427714 -1.1127443045873087
| 29> H 1.554434258143897 1.268154909458297 -1.7120225995098406
| 30> *
| 31>
| 32>                          ****END OF INPUT****

CARTESIAN COORDINATES (ANGSTROEM)
---------------------------------
  C     -3.059240    0.709326    0.669742
  O     -1.833844    0.795190   -0.102344
  C     -1.101430   -0.333695   -0.169764
  O     -1.441579   -1.366764    0.383397
  C      0.122240   -0.176545   -1.050902
  C      1.142164   -1.292652   -0.790413
  C      1.839175   -1.119721    0.562175
  C      2.486496    0.261311    0.683780
  C      1.461646    1.370881    0.438038
  C      0.791158    1.202702   -0.926642
  H     -3.500652    1.704175    0.620499
  H     -2.834780    0.442913    1.705237
  H     -3.732659   -0.029284    0.228426
  H     -0.272742   -0.283130   -2.072501
  H      0.659105   -2.272191   -0.855696
  H      1.891207   -1.247042   -1.590310
  H      1.107226   -1.246722    1.371152
  H      2.592082   -1.905638    0.690504
  H      2.944628    0.378681    1.672687
  H      3.293523    0.350183   -0.057123
  H      0.696883    1.341014    1.227991
  H      1.941519    2.354249    0.496934
  H      0.069959    2.002584   -1.112744
  H      1.554434    1.268155   -1.712023

 Total Charge           Charge          ....    0
 Multiplicity           Mult            ....    1
 Number of Electrons    NEL             ....   78
 Basis Dimension        Dim             ....  394

ORBITAL ENERGIES
----------------

  NO   OCC          E(Eh)            E(eV)
   0   2.0000     -21.718319      -590.9855
   1   2.0000     -21.653887      -589.2322
   2   2.0000     -12.173252      -331.2510
   3   2.0000     -12.103115      -329.3425
   4   2.0000     -12.063080      -328.2531
   5   2.0000     -12.044531      -327.7483
   6   2.0000     -12.040225      -327.6312
   7   2.0000     -12.040047      -327.6263
   8   2.0000     -12.037377      -327.5537
   9   2.0000     -12.034661      -327.4798
  10   2.0000      -1.757127       -47.8139
  11   2.0000      -1.689362       -45.9699
  12   2.0000      -1.351855       -36.7858
  13   2.0000      -1.292273       -35.1645
  14   2.0000      -1.251834       -34.0641
  15   2.0000      -1.246505       -33.9191
  16   2.0000      -1.142360       -31.0852
  17   2.0000      -1.104817       -30.0636
  18   2.0000      -1.098095       -29.8807
  19   2.0000      -1.058993       -28.8167
  20   2.0000      -1.039029       -28.2734
  21   2.0000      -0.996314       -27.1111
  22   2.0000      -0.985938       -26.8287
  23   2.0000      -0.931796       -25.3555
  24   2.0000      -0.921660       -25.0796
  25   2.0000      -0.894355       -24.3366
  26   2.0000      -0.874373       -23.7929
  27   2.0000      -0.873920       -23.7806
  28   2.0000      -0.861881       -23.4530
  29   2.0000      -0.843900       -22.9637
  30   2.0000      -0.841505       -22.8985
  31   2.0000      -0.828551       -22.5460
  32   2.0000      -0.822935       -22.3932
  33   2.0000      -0.820604       -22.3298
  34   2.0000      -0.800412       -21.7803
  35   2.0000      -0.775517       -21.1029
  36   2.0000      -0.753642       -20.5076
  37   2.0000      -0.751592       -20.4518
  38   2.0000      -0.741325       -20.1725
  39   0.0000      -0.303498        -8.2586
  40   0.0000      -0.183415        -4.9910
  41   0.0000      -0.103569        -2.8183
  42   0.0000      -0.052284        -1.4227
  43   0.0000      -0.034240        -0.9317

MULLIKEN ATOMIC CHARGES
-----------------------
   0 C :   -0.193698
   1 O :   -0.238952
   2 C :    0.219854
   3 O :   -0.351113
   4 C :    0.058267
   5 C :   -0.198881
   6 C :   -0.218600
   7 C :   -0.182448
   8 C :   -0.206171
   9 C :   -0.198052
  10 H :    0.128001
  11 H :    0.129657
  12 H :    0.130384
  13 H :    0.095151
  14 H :    0.116503
  15 H :    0.098356
  16 H :    0.117152
  17 H :    0.099311
  18 H :    0.099635
  19 H :    0.085157
  20 H :    0.097822
  21 H :    0.100752
  22 H :    0.114904
  23 H :    0.097009
Sum of atomic charges:    0.0000000

LOEWDIN ATOMIC CHARGES
----------------------
   0 C :   -0.288175
   1 O :    0.229506
   2 C :   -0.438772
   3 O :    0.087997
   4 C :   -0.217077
   5 C :   -0.225086
   6 C :   -0.254233
   7 C :   -0.260572
   8 C :   -0.255442
   9 C :   -0.229902
  10 H :    0.109334
  11 H :    0.111095
  12 H :    0.111478
  13 H :    0.167786
  14 H :    0.141064
  15 H :    0.136536
  16 H :    0.139094
  17 H :    0.131751
  18 H :    0.130706
  19 H :    0.132356
  20 H :    0.135305
  21 H :    0.131588
  22 H :    0.136204
  23 H :    0.137461

  Mayer bond orders larger than 0.100000
B(  0-C ,  1-O ) :   0.9106 B(  0-C , 10-H ) :   0.9732 B(  0-C , 11-H ) :   0.9773
B(  0-C , 12-H ) :   0.9788 B(  1-O ,  2-C ) :   1.1982 B(  2-C ,  3-O ) :   2.0463
B(  2-C ,  4-C ) :   0.9759 B(  4-C ,  5-C ) :   0.9891 B(  4-C ,  9-C ) :   0.9690
B(  4-C , 13-H ) :   0.9290 B(  5-C ,  6-C ) :   0.9868 B(  5-C , 14-H ) :   0.9589
B(  5-C , 15-H ) :   0.9777 B(  6-C ,  7-C ) :   0.9847 B(  6-C , 16-H ) :   0.9769
B(  6-C , 17-H ) :   0.9765 B(  7-C ,  8-C ) :   0.9903 B(  7-C , 18-H ) :   0.9755
B(  7-C , 19-H ) :   0.9730 B(  8-C ,  9-C ) :   0.9895 B(  8-C , 20-H ) :   0.9758
B(  8-C , 21-H ) :   0.9768 B(  9-C , 22-H ) :   0.9641 B(  9-C , 23-H ) :   0.9727

FINAL SINGLE POINT ENERGY      -463.785420520849

DIPOLE MOMENT
-------------

Method             : SCF
Type of density    : Electron Density
Multiplicity       :   1
Irrep              :   0
Energy             :  -463.8022731302488637 Eh
Relativity type    :
Basis              : AO
                                X                 Y                 Z
Electronic contribution:     -6.124677909      -1.869282944      -0.960917394
Nuclear contribution   :      6.123828013       2.561499476       0.755159758
                        -----------------------------------------
Total Dipole Moment    :     -0.000849896       0.692216532      -0.205757636
                        -----------------------------------------
Magnitude (a.u.)       :      0.722150022
Magnitude (Debye)      :      1.835559482

Rotational constants in cm-1:             0.075402             0.032080             0.027929
Rotational constants in MHz :          2260.489957           961.725175           837.301297

                             ****ORCA TERMINATED NORMALLY****
TOTAL RUN TIME: 0 days 0 hours 4 minutes 33 seconds 206 msec
