                         Program Version 6.0.0  -   RELEASE  -
|  1> ! wb97x-v def2-tzvp def2/J RIJCOSX DEFGRID2 scfconv7 GCP(DFT/TZ) printgap
|  2> %output
|  3>     printlevel normal
|  4> end
|  5> %cpcm
|  6>     smd true
|  7>     smdsolvent "water"
|  8> end
|  9> * xyz 0 1
| 10> C -3.0592396509724202 0.7093260751519168 0.6697422593776244
| 11> O -1.833843747882945 0.7951897968551553 -0.10234355444813688
| 12> C -1.101430488321282 -0.3336949591633629 -0.16976431288113622
| 13> O -1.4415791802955176 -1.366763929920997 0.38339746201109953
| 14> C 0.12224011162341582 -0.17654479055143654 -1.050902459329834
| 15> C 1.1421637452622482 -1.2926519227611397 -0.7904129612513066
| 16> C 1.839175476076399 -1.1197210714546375 0.5621747956787286
| 17> C 2.4864962260409307 0.2613110761803298 0.6837802012861077
| 18> C 1.461646462874178 1.3708813052702238 0.4380383523900606
| 19> C 0.7911582079008648 1.2027021191933613 -0.9266424961746861
| 20> H -3.5006521904802543 1.7041747504385434 0.6204989842852853
| 21> H -2.8347803634221163 0.44291330465890755 1.705236643086635
| 22> H -3.7326586699415367 -0.029284276490204545 0.22842631065189936
| 23> H -0.27274169095277295 -0.2831302390274543 -2.0725009604822024
| 24> H 0.6591046584892102 -2.2721913321891267 -0.8556962337940521
| 25> H 1.8912068622581604 -1.247041757778445 -1.5903100862510071
| 26> H 1.1072263040647654 -1.246721708254071 1.3711524821135592
| 27> H 2.5920818266650105 -1.9056378117280965 0.6905044333389091
| 28> H 2.9446280053423064 0.37868122711931024 1.672687227850108
| 29> H 3.293523367622915 0.3501832594597147 -0.05712258282711082
| 30> H 0.6968825721621208 1.3410138173635326 1.227990529435561
| 31> H 1.9415191849503366 2.354249480991727 0.4969335059170862
| 32> H 0.06995863057431191 2.0025836683427714 -1.1127443045873087
| 33> H 1.554434258143897 1.268154909458297 -1.7120225995098406
| 34> *
| 35>
| 36>                          ****END OF INPUT****

CARTESIAN COORDINATES (ANGSTROEM)
---------------------------------
  C     -3.059240    0.709326    0.669742
  O     -1.833844    0.795190   -0.102344
  C     -1.101430   -0.333695   -0.169764
  O     -1.441579   -1.366764    0.383397
  C      0.122240   -0.176545   -1.050902
  C      1.142164   -1.292652   -0.790413
  C      1.839175   -1.119721    0.562175
  C      2.486496    0.261311    0.683780
  C      1.461646    1.370881    0.438038
  C      0.791158    1.202702   -0.926642
  H     -3.500652    1.704175    0.620499
  H     -2.834780    0.442913    1.705237
  H     -3.732659   -0.029284    0.228426
  H     -0.272742   -0.283130   -2.072501
  H      0.659105   -2.272191   -0.855696
  H      1.891207   -1.247042   -1.590310
  H      1.107226   -1.246722    1.371152
  H      2.592082   -1.905638    0.690504
  H      2.944628    0.378681    1.672687
  H      3.293523    0.350183   -0.057123
  H      0.696883    1.341014    1.227991
  H      1.941519    2.354249    0.496934
  H      0.069959    2.002584   -1.112744
  H      1.554434    1.268155   -1.712023

 Total Charge           Charge          ....    0
 Multiplicity           Mult            ....    1
 Number of Electrons    NEL             ....   78
 Basis Dimension        Dim             ....  394

ORBITAL ENERGIES
----------------

  NO   OCC          E(Eh)            E(eV)
   0   2.0000     -21.721909      -591.0832
   1   2.0000     -21.666950      -589.5877
   2   2.0000     -12.182798      -331.5108
   3   2.0000     -12.092018      -329.0405
   4   2.0000     -12.057437      -328.0995
   5   2.0000     -12.036335      -327.5253
   6   2.0000     -12.034951      -327.4877
   7   2.0000     -12.031151      -327.3843
   8   2.0000     -12.030156      -327.3572
   9   2.0000     -12.028774      -327.3196
  10   2.0000      -1.763581       -47.9895
  11   2.0000      -1.700587       -46.2753
  12   2.0000      -1.346625       -36.6435
  13   2.0000      -1.288953       -35.0742
  14   2.0000      -1.245844       -33.9011
  15   2.0000      -1.240472       -33.7550
  16   2.0000      -1.142804       -31.0973
  17   2.0000      -1.104843       -30.0643
  18   2.0000      -1.092205       -29.7204
  19   2.0000      -1.068618       -29.0786
  20   2.0000      -1.035783       -28.1851
  21   2.0000      -0.998445       -27.1691
  22   2.0000      -0.983427       -26.7604
  23   2.0000      -0.935772       -25.4637
  24   2.0000      -0.921323       -25.0705
  25   2.0000      -0.902323       -24.5535
  26   2.0000      -0.872974       -23.7548
  27   2.0000      -0.867700       -23.6113
  28   2.0000      -0.862250       -23.4630
  29   2.0000      -0.836915       -22.7736
  30   2.0000      -0.832380       -22.6502
  31   2.0000      -0.822639       -22.3851
  32   2.0000      -0.814618       -22.1669
  33   2.0000      -0.814257       -22.1571
  34   2.0000      -0.795246       -21.6397
  35   2.0000      -0.768396       -20.9091
  36   2.0000      -0.746713       -20.3191
  37   2.0000      -0.745157       -20.2768
  38   2.0000      -0.734274       -19.9806
  39   0.0000      -0.307786        -8.3753
  40   0.0000      -0.177249        -4.8232
  41   0.0000      -0.105549        -2.8721
  42   0.0000      -0.050048        -1.3619
  43   0.0000      -0.025056        -0.6818

MULLIKEN ATOMIC CHARGES
-----------------------
   0 C :   -0.234978
   1 O :   -0.262363
   2 C :    0.312111
   3 O :   -0.469884
   4 C :    0.063515
   5 C :   -0.243190
   6 C :   -0.225557
   7 C :   -0.204622
   8 C :   -0.224058
   9 C :   -0.227343
  10 H :    0.156496
  11 H :    0.149539
  12 H :    0.149931
  13 H :    0.129233
  14 H :    0.117942
  15 H :    0.119246
  16 H :    0.108176
  17 H :    0.114837
  18 H :    0.111839
  19 H :    0.098931
  20 H :    0.108198
  21 H :    0.115887
  22 H :    0.120412
  23 H :    0.115700
Sum of atomic charges:    0.0000000

LOEWDIN ATOMIC CHARGES
----------------------
   0 C :   -0.285274
   1 O :    0.226635
   2 C :   -0.419255
   3 O :    0.027502
   4 C :   -0.212861
   5 C :   -0.227972
   6 C :   -0.258594
   7 C :   -0.261526
   8 C :   -0.257694
   9 C :   -0.229397
  10 H :    0.119006
  11 H :    0.115632
  12 H :    0.115947
  13 H :    0.178633
  14 H :    0.136971
  15 H :    0.143444
  16 H :    0.135451
  17 H :    0.134057
  18 H :    0.132557
  19 H :    0.135965
  20 H :    0.137296
  21 H :    0.134263
  22 H :    0.135674
  23 H :    0.143538

  Mayer bond orders larger than 0.100000
B(  0-C ,  1-O ) :   0.8856 B(  0-C , 10-H ) :   0.9680 B(  0-C , 11-H ) :   0.9726
B(  0-C , 12-H ) :   0.9729 B(  1-O ,  2-C ) :   1.2165 B(  2-C ,  3-O ) :   1.9156
B(  2-C ,  4-C ) :   0.9893 B(  4-C ,  5-C ) :   0.9751 B(  4-C ,  9-C ) :   0.9660
B(  4-C , 13-H ) :   0.9180 B(  5-C ,  6-C ) :   0.9828 B(  5-C , 14-H ) :   0.9699
B(  5-C , 15-H ) :   0.9732 B(  6-C ,  7-C ) :   0.9874 B(  6-C , 16-H ) :   0.9769
B(  6-C , 17-H ) :   0.9742 B(  7-C ,  8-C ) :   0.9921 B(  7-C , 18-H ) :   0.9727
B(  7-C , 19-H ) :   0.9707 B(  8-C ,  9-C ) :   0.9898 B(  8-C , 20-H ) :   0.9733
B(  8-C , 21-H ) :   0.9741 B(  9-C , 22-H ) :   0.9668 B(  9-C , 23-H ) :   0.9683

FINAL SINGLE POINT ENERGY      -463.790789666838

DIPOLE MOMENT
-------------

Method             : SCF
Type of density    : Electron Density
Multiplicity       :   1
Irrep              :   0
Energy             :  -463.8076422762383118 Eh
Relativity type    :
Basis              : AO
                                X                 Y                 Z
Electronic contribution:     -6.039219107      -1.539941139      -1.145588972
Nuclear contribution   :      6.123828013       2.561499476       0.755159758
                        -----------------------------------------
Total Dipole Moment    :      0.084608906       1.021558337      -0.390429214
                        -----------------------------------------
Magnitude (a.u.)       :      1.096893374
Magnitude (Debye)      :      2.788081384

Rotational constants in cm-1:             0.075402             0.032080             0.027929
Rotational constants in MHz :          2260.489957           961.725175           837.301297

                             ****ORCA TERMINATED NORMALLY****
TOTAL RUN TIME: 0 days 0 hours 4 minutes 41 seconds 303 msec
