                         Program Version 6.0.0  -   RELEASE  -
|  1> ! r2scan-3c def2/J RI DEFGRID2 scfconv6 printgap
|  2> %output
|  3>     printlevel normal
|  4> end
|  5> %cpcm
|  6>     smd true
|  7>     smdsolvent "water"
|  8> end
|  9> * xyz 0 1
| 10> C 1.6875908092 0.3884849095 0.6402676892
| 11> C 0.8933455922 0.4089577144 -0.661629305
| 12> C -0.56316465 -0.0516934172 -0.4890873544
| 13> H -1.0563394942 0.0081055107 -1.4749878843
| 14> C -1.3420270446 0.8179185987 0.492929743
| 15> O -0.6386923069 -1.388734284 -0.0186595022
| 16> H 1.3666145188 1.1866319551 1.303436977
| 17> H 2.74716 0.5187199796 0.4358102684
| 18> H 1.5444569352 -0.5620724036 1.149328533
| 19> H 1.3769114258 -0.2497087352 -1.3878260567
| 20> H 0.8877910254 1.415585563 -1.0816388873
| 21> H -2.38531049 0.514334298 0.498821779
| 22> H -0.9450751201 0.6880009227 1.4949453344
| 23> H -1.2734689564 1.8618953905 0.2038157646
| 24> H -0.1767981578 -1.970457566 -0.6367557677
| 25> *
| 26>
| 27>                          ****END OF INPUT****

CARTESIAN COORDINATES (ANGSTROEM)
---------------------------------
  C      1.687591    0.388485    0.640268
  C      0.893346    0.408958   -0.661629
  C     -0.563165   -0.051693   -0.489087
  H     -1.056339    0.008106   -1.474988
  C     -1.342027    0.817919    0.492930
  O     -0.638692   -1.388734   -0.018660
  H      1.366615    1.186632    1.303437
  H      2.747160    0.518720    0.435810
  H      1.544457   -0.562072    1.149329
  H      1.376911   -0.249709   -1.387826
  H      0.887791    1.415586   -1.081639
  H     -2.385310    0.514334    0.498822
  H     -0.945075    0.688001    1.494945
  H     -1.273469    1.861895    0.203816
  H     -0.176798   -1.970458   -0.636756

 Total Charge           Charge          ....    0
 Multiplicity           Mult            ....    1
 Number of Electrons    NEL             ....   42
 Basis Dimension        Dim             ....  150

ORBITAL ENERGIES
----------------

  NO   OCC          E(Eh)            E(eV)
   0   2.0000     -18.947650      -515.5918
   1   2.0000     -10.074706      -274.1467
   2   2.0000     -10.016733      -272.5692
   3   2.0000     -10.009656      -272.3766
   4   2.0000     -10.007635      -272.3216
   5   2.0000      -0.984440       -26.7880
   6   2.0000      -0.745394       -20.2832
   7   2.0000      -0.684190       -18.6178
   8   2.0000      -0.602063       -16.3830
   9   2.0000      -0.535970       -14.5845
  10   2.0000      -0.465133       -12.6569
  11   2.0000      -0.429519       -11.6878
  12   2.0000      -0.415007       -11.2929
  13   2.0000      -0.365713        -9.9516
  14   2.0000      -0.351899        -9.5757
  15   2.0000      -0.342921        -9.3313
  16   2.0000      -0.334867        -9.1122
  17   2.0000      -0.313218        -8.5231
  18   2.0000      -0.298126        -8.1124
  19   2.0000      -0.279036        -7.5929
  20   2.0000      -0.236151        -6.4260
  21   0.0000       0.078029         2.1233
  22   0.0000       0.116279         3.1641
  23   0.0000       0.125995         3.4285
  24   0.0000       0.144140         3.9223
  25   0.0000       0.153310         4.1718

MULLIKEN ATOMIC CHARGES
-----------------------
   0 C :   -0.548084
   1 C :   -0.236969
   2 C :    0.063450
   3 H :    0.144279
   4 C :   -0.534103
   5 O :   -0.516409
   6 H :    0.162981
   7 H :    0.158275
   8 H :    0.163398
   9 H :    0.153164
  10 H :    0.152067
  11 H :    0.160830
  12 H :    0.169051
  13 H :    0.165451
  14 H :    0.342619
Sum of atomic charges:   -0.0000000

LOEWDIN ATOMIC CHARGES
----------------------
   0 C :   -0.431690
   1 C :   -0.299085
   2 C :    0.046455
   3 H :    0.167197
   4 C :   -0.393888
   5 O :   -0.655247
   6 H :    0.154229
   7 H :    0.154224
   8 H :    0.157287
   9 H :    0.160253
  10 H :    0.163532
  11 H :    0.160852
  12 H :    0.162929
  13 H :    0.166362
  14 H :    0.286589

  Mayer bond orders larger than 0.100000
B(  0-C ,  1-C ) :   0.8684 B(  0-C ,  6-H ) :   0.9749 B(  0-C ,  7-H ) :   0.9670
B(  0-C ,  8-H ) :   0.9819 B(  1-C ,  2-C ) :   0.9324 B(  1-C ,  9-H ) :   0.9738
B(  1-C , 10-H ) :   0.9663 B(  2-C ,  3-H ) :   0.9549 B(  2-C ,  4-C ) :   0.9304
B(  2-C ,  5-O ) :   0.8808 B(  4-C , 11-H ) :   0.9635 B(  4-C , 12-H ) :   0.9727
B(  4-C , 13-H ) :   0.9679 B(  5-O , 14-H ) :   0.8737

Dispersion correction           -0.003252214
FINAL SINGLE POINT ENERGY      -233.609690171817

DIPOLE MOMENT
-------------

Method             : SCF
Type of density    : Electron Density
Multiplicity       :   1
Irrep              :   0
Energy             :  -233.6146618613981616 Eh
Relativity type    :
Basis              : AO
                                X                 Y                 Z
Electronic contribution:     -1.529500637      -2.901281585      -1.214827986
Nuclear contribution   :      1.947464409       3.179464849       0.473452113
                        -----------------------------------------
Total Dipole Moment    :      0.417963772       0.278183264      -0.741375873
                        -----------------------------------------
Magnitude (a.u.)       :      0.895386971
Magnitude (Debye)      :      2.275892812

Rotational constants in cm-1:             0.213813             0.131059             0.107343
Rotational constants in MHz :          6409.964113          3929.041291          3218.062350

                             ****ORCA TERMINATED NORMALLY****
TOTAL RUN TIME: 0 days 0 hours 0 minutes 17 seconds 242 msec
