                         Program Version 6.0.0  -   RELEASE  -
|  1> ! r2scan-3c def2/J RI DEFGRID2 scfconv6 printgap
|  2> %output
|  3>     printlevel normal
|  4> end
|  5> * xyz 0 1
|  6> C -2.5295201428 -1.3814107182 -0.420778027
|  7> C -1.967277733 -0.0201534619 0.0092944684
|  8> C -2.4189795467 1.0521384055 -0.9934056867
|  9> C -2.5445688099 0.3095646632 1.391967573
| 10> C -0.4454447322 -0.0285051397 0.0260549029
| 11> C 0.2835674058 -0.8013220088 -0.873811808
| 12> C 1.6640062258 -0.7866513192 -0.8928627752
| 13> C 2.3686161484 0.0178584442 -0.005167131
| 14> C 1.6588970773 0.8060444607 0.8895116347
| 15> C 0.2758948695 0.780085685 0.8970001235
| 16> O 3.7310449656 0.0020422694 -0.0541146566
| 17> H -2.102726065 -2.1783478987 0.1838874857
| 18> H -3.6093142725 -1.3906374635 -0.2907695497
| 19> H -2.3238599379 -1.5868463381 -1.4673690656
| 20> H -2.0471832887 2.030283444 -0.6964777461
| 21> H -2.035228131 0.8291816605 -1.9864299489
| 22> H -3.5048413815 1.0912488279 -1.039753081
| 23> H -2.3477005711 1.3405432113 1.6720464334
| 24> H -3.623586655 0.1733390968 1.3810235286
| 25> H -2.1224142061 -0.3482225768 2.1481612637
| 26> H -0.2218260864 -1.4352523669 -1.5837113669
| 27> H 2.2158405008 -1.3942649018 -1.5933195818
| 28> H 2.1854530849 1.4451776665 1.5843217349
| 29> H -0.234312238 1.4118524889 1.6055752572
| 30> H 4.0989469249 0.6033854194 0.6105028054
| 31> *
| 32>
| 33>                          ****END OF INPUT****

CARTESIAN COORDINATES (ANGSTROEM)
---------------------------------
  C     -2.529520   -1.381411   -0.420778
  C     -1.967278   -0.020153    0.009294
  C     -2.418980    1.052138   -0.993406
  C     -2.544569    0.309565    1.391968
  C     -0.445445   -0.028505    0.026055
  C      0.283567   -0.801322   -0.873812
  C      1.664006   -0.786651   -0.892863
  C      2.368616    0.017858   -0.005167
  C      1.658897    0.806044    0.889512
  C      0.275895    0.780086    0.897000
  O      3.731045    0.002042   -0.054115
  H     -2.102726   -2.178348    0.183887
  H     -3.609314   -1.390637   -0.290770
  H     -2.323860   -1.586846   -1.467369
  H     -2.047183    2.030283   -0.696478
  H     -2.035228    0.829182   -1.986430
  H     -3.504841    1.091249   -1.039753
  H     -2.347701    1.340543    1.672046
  H     -3.623587    0.173339    1.381024
  H     -2.122414   -0.348223    2.148161
  H     -0.221826   -1.435252   -1.583711
  H      2.215841   -1.394265   -1.593320
  H      2.185453    1.445178    1.584322
  H     -0.234312    1.411852    1.605575
  H      4.098947    0.603385    0.610503

 Total Charge           Charge          ....    0
 Multiplicity           Mult            ....    1
 Number of Electrons    NEL             ....   82
 Basis Dimension        Dim             ....  284

ORBITAL ENERGIES
----------------

  NO   OCC          E(Eh)            E(eV)
   0   2.0000     -18.983130      -516.5572
   1   2.0000     -10.092155      -274.6215
   2   2.0000     -10.048697      -273.4390
   3   2.0000     -10.032102      -272.9874
   4   2.0000     -10.031812      -272.9795
   5   2.0000     -10.031258      -272.9644
   6   2.0000     -10.030120      -272.9334
   7   2.0000     -10.026948      -272.8471
   8   2.0000     -10.016992      -272.5762
   9   2.0000     -10.016513      -272.5632
  10   2.0000     -10.015927      -272.5472
  11   2.0000      -1.025879       -27.9156
  12   2.0000      -0.828204       -22.5366
  13   2.0000      -0.781573       -21.2677
  14   2.0000      -0.717460       -19.5231
  15   2.0000      -0.696545       -18.9540
  16   2.0000      -0.654306       -17.8046
  17   2.0000      -0.652616       -17.7586
  18   2.0000      -0.593485       -16.1495
  19   2.0000      -0.575578       -15.6623
  20   2.0000      -0.519068       -14.1246
  21   2.0000      -0.515988       -14.0407
  22   2.0000      -0.455099       -12.3839
  23   2.0000      -0.437345       -11.9008
  24   2.0000      -0.418269       -11.3817
  25   2.0000      -0.407738       -11.0951
  26   2.0000      -0.399500       -10.8709
  27   2.0000      -0.389404       -10.5962
  28   2.0000      -0.380896       -10.3647
  29   2.0000      -0.377457       -10.2711
  30   2.0000      -0.362131        -9.8541
  31   2.0000      -0.353989        -9.6325
  32   2.0000      -0.341978        -9.3057
  33   2.0000      -0.333765        -9.0822
  34   2.0000      -0.312916        -8.5149
  35   2.0000      -0.311415        -8.4740
  36   2.0000      -0.295664        -8.0454
  37   2.0000      -0.290129        -7.8948
  38   2.0000      -0.285814        -7.7774
  39   2.0000      -0.235353        -6.4043
  40   2.0000      -0.198059        -5.3895
  41   0.0000      -0.030965        -0.8426
  42   0.0000      -0.012480        -0.3396
  43   0.0000       0.057843         1.5740
  44   0.0000       0.073842         2.0093
  45   0.0000       0.087797         2.3891

MULLIKEN ATOMIC CHARGES
-----------------------
   0 C :   -0.528655
   1 C :    0.151387
   2 C :   -0.495426
   3 C :   -0.534536
   4 C :    0.157119
   5 C :   -0.187695
   6 C :   -0.331691
   7 C :    0.429856
   8 C :   -0.359092
   9 C :   -0.199832
  10 O :   -0.415415
  11 H :    0.174168
  12 H :    0.156853
  13 H :    0.148410
  14 H :    0.160180
  15 H :    0.161144
  16 H :    0.149211
  17 H :    0.148152
  18 H :    0.157616
  19 H :    0.174660
  20 H :    0.141280
  21 H :    0.154359
  22 H :    0.136466
  23 H :    0.140841
  24 H :    0.310640
Sum of atomic charges:    0.0000000

LOEWDIN ATOMIC CHARGES
----------------------
   0 C :   -0.401411
   1 C :   -0.186817
   2 C :   -0.388579
   3 C :   -0.402539
   4 C :   -0.094181
   5 C :   -0.143166
   6 C :   -0.141140
   7 C :    0.177541
   8 C :   -0.171162
   9 C :   -0.144952
  10 O :   -0.498726
  11 H :    0.163561
  12 H :    0.156770
  13 H :    0.153934
  14 H :    0.159251
  15 H :    0.159557
  16 H :    0.154494
  17 H :    0.153690
  18 H :    0.157054
  19 H :    0.163275
  20 H :    0.172026
  21 H :    0.178894
  22 H :    0.167396
  23 H :    0.171840
  24 H :    0.283392

  Mayer bond orders larger than 0.100000
B(  0-C ,  1-C ) :   0.9087 B(  0-C , 11-H ) :   0.9829 B(  0-C , 12-H ) :   0.9794
B(  0-C , 13-H ) :   0.9634 B(  1-C ,  2-C ) :   0.9912 B(  1-C ,  3-C ) :   0.9037
B(  1-C ,  4-C ) :   0.7856 B(  2-C , 14-H ) :   0.9719 B(  2-C , 15-H ) :   0.9711
B(  2-C , 16-H ) :   0.9723 B(  3-C , 17-H ) :   0.9637 B(  3-C , 18-H ) :   0.9794
B(  3-C , 19-H ) :   0.9840 B(  4-C ,  5-C ) :   1.4074 B(  4-C ,  9-C ) :   1.4400
B(  5-C ,  6-C ) :   1.4199 B(  5-C , 20-H ) :   0.9421 B(  6-C ,  7-C ) :   1.4228
B(  6-C , 21-H ) :   0.9472 B(  7-C ,  8-C ) :   1.3439 B(  7-C , 10-O ) :   0.9226
B(  8-C ,  9-C ) :   1.4430 B(  8-C , 22-H ) :   0.9195 B(  9-C , 23-H ) :   0.9329
B( 10-O , 24-H ) :   0.8832

Dispersion correction           -0.009174420
FINAL SINGLE POINT ENERGY      -464.599606899837

DIPOLE MOMENT
-------------

Method             : SCF
Type of density    : Electron Density
Multiplicity       :   1
Irrep              :   0
Energy             :  -464.6006117094578940 Eh
Relativity type    :
Basis              : AO
                                X                 Y                 Z
Electronic contribution:     14.534546266      -0.216603569      -0.133218969
Nuclear contribution   :    -14.648359249       0.554900411       0.494257764
                        -----------------------------------------
Total Dipole Moment    :     -0.113812984       0.338296841       0.361038795
                        -----------------------------------------
Magnitude (a.u.)       :      0.507688053
Magnitude (Debye)      :      1.290440479

Rotational constants in cm-1:             0.085824             0.021579             0.019434
Rotational constants in MHz :          2572.939081           646.935723           582.629033

                             ****ORCA TERMINATED NORMALLY****
TOTAL RUN TIME: 0 days 0 hours 0 minutes 38 seconds 657 msec
