                         Program Version 6.0.0  -   RELEASE  -
|  1> ! r2scan-3c def2/J RI DEFGRID2 scfconv6 printgap
|  2> %output
|  3>     printlevel normal
|  4> end
|  5> %cpcm
|  6>     smd true
|  7>     smdsolvent "water"
|  8> end
|  9> * xyz 0 1
| 10> C -2.5295201428 -1.3814107182 -0.420778027
| 11> C -1.967277733 -0.0201534619 0.0092944684
| 12> C -2.4189795467 1.0521384055 -0.9934056867
| 13> C -2.5445688099 0.3095646632 1.391967573
| 14> C -0.4454447322 -0.0285051397 0.0260549029
| 15> C 0.2835674058 -0.8013220088 -0.873811808
| 16> C 1.6640062258 -0.7866513192 -0.8928627752
| 17> C 2.3686161484 0.0178584442 -0.005167131
| 18> C 1.6588970773 0.8060444607 0.8895116347
| 19> C 0.2758948695 0.780085685 0.8970001235
| 20> O 3.7310449656 0.0020422694 -0.0541146566
| 21> H -2.102726065 -2.1783478987 0.1838874857
| 22> H -3.6093142725 -1.3906374635 -0.2907695497
| 23> H -2.3238599379 -1.5868463381 -1.4673690656
| 24> H -2.0471832887 2.030283444 -0.6964777461
| 25> H -2.035228131 0.8291816605 -1.9864299489
| 26> H -3.5048413815 1.0912488279 -1.039753081
| 27> H -2.3477005711 1.3405432113 1.6720464334
| 28> H -3.623586655 0.1733390968 1.3810235286
| 29> H -2.1224142061 -0.3482225768 2.1481612637
| 30> H -0.2218260864 -1.4352523669 -1.5837113669
| 31> H 2.2158405008 -1.3942649018 -1.5933195818
| 32> H 2.1854530849 1.4451776665 1.5843217349
| 33> H -0.234312238 1.4118524889 1.6055752572
| 34> H 4.0989469249 0.6033854194 0.6105028054
| 35> *
| 36>
| 37>                          ****END OF INPUT****

CARTESIAN COORDINATES (ANGSTROEM)
---------------------------------
  C     -2.529520   -1.381411   -0.420778
  C     -1.967278   -0.020153    0.009294
  C     -2.418980    1.052138   -0.993406
  C     -2.544569    0.309565    1.391968
  C     -0.445445   -0.028505    0.026055
  C      0.283567   -0.801322   -0.873812
  C      1.664006   -0.786651   -0.892863
  C      2.368616    0.017858   -0.005167
  C      1.658897    0.806044    0.889512
  C      0.275895    0.780086    0.897000
  O      3.731045    0.002042   -0.054115
  H     -2.102726   -2.178348    0.183887
  H     -3.609314   -1.390637   -0.290770
  H     -2.323860   -1.586846   -1.467369
  H     -2.047183    2.030283   -0.696478
  H     -2.035228    0.829182   -1.986430
  H     -3.504841    1.091249   -1.039753
  H     -2.347701    1.340543    1.672046
  H     -3.623587    0.173339    1.381024
  H     -2.122414   -0.348223    2.148161
  H     -0.221826   -1.435252   -1.583711
  H      2.215841   -1.394265   -1.593320
  H      2.185453    1.445178    1.584322
  H     -0.234312    1.411852    1.605575
  H      4.098947    0.603385    0.610503

 Total Charge           Charge          ....    0
 Multiplicity           Mult            ....    1
 Number of Electrons    NEL             ....   82
 Basis Dimension        Dim             ....  284

ORBITAL ENERGIES
----------------

  NO   OCC          E(Eh)            E(eV)
   0   2.0000     -18.981142      -516.5031
   1   2.0000     -10.092488      -274.6306
   2   2.0000     -10.042760      -273.2774
   3   2.0000     -10.031169      -272.9620
   4   2.0000     -10.029296      -272.9110
   5   2.0000     -10.029124      -272.9063
   6   2.0000     -10.028370      -272.8858
   7   2.0000     -10.027627      -272.8656
   8   2.0000     -10.009225      -272.3649
   9   2.0000     -10.007637      -272.3216
  10   2.0000     -10.007627      -272.3214
  11   2.0000      -1.023874       -27.8610
  12   2.0000      -0.827703       -22.5229
  13   2.0000      -0.776890       -21.1403
  14   2.0000      -0.716604       -19.4998
  15   2.0000      -0.694756       -18.9053
  16   2.0000      -0.646201       -17.5840
  17   2.0000      -0.645902       -17.5759
  18   2.0000      -0.590026       -16.0554
  19   2.0000      -0.573034       -15.5930
  20   2.0000      -0.514085       -13.9890
  21   2.0000      -0.511970       -13.9314
  22   2.0000      -0.450947       -12.2709
  23   2.0000      -0.433961       -11.8087
  24   2.0000      -0.412025       -11.2118
  25   2.0000      -0.401476       -10.9247
  26   2.0000      -0.393604       -10.7105
  27   2.0000      -0.385228       -10.4826
  28   2.0000      -0.382196       -10.4001
  29   2.0000      -0.374312       -10.1855
  30   2.0000      -0.356529        -9.7017
  31   2.0000      -0.350384        -9.5344
  32   2.0000      -0.336086        -9.1454
  33   2.0000      -0.325401        -8.8546
  34   2.0000      -0.309853        -8.4315
  35   2.0000      -0.308515        -8.3951
  36   2.0000      -0.291551        -7.9335
  37   2.0000      -0.285925        -7.7804
  38   2.0000      -0.279468        -7.6047
  39   2.0000      -0.238088        -6.4787
  40   2.0000      -0.200238        -5.4487
  41   0.0000      -0.032307        -0.8791
  42   0.0000      -0.014330        -0.3899
  43   0.0000       0.079798         2.1714
  44   0.0000       0.082447         2.2435
  45   0.0000       0.098633         2.6839

MULLIKEN ATOMIC CHARGES
-----------------------
   0 C :   -0.572935
   1 C :    0.231588
   2 C :   -0.549518
   3 C :   -0.576457
   4 C :    0.089119
   5 C :   -0.216761
   6 C :   -0.372915
   7 C :    0.383768
   8 C :   -0.370107
   9 C :   -0.206444
  10 O :   -0.462537
  11 H :    0.178108
  12 H :    0.172506
  13 H :    0.167893
  14 H :    0.171469
  15 H :    0.171891
  16 H :    0.164578
  17 H :    0.168068
  18 H :    0.172950
  19 H :    0.178879
  20 H :    0.172748
  21 H :    0.180742
  22 H :    0.181116
  23 H :    0.172192
  24 H :    0.370061
Sum of atomic charges:    0.0000000

LOEWDIN ATOMIC CHARGES
----------------------
   0 C :   -0.408008
   1 C :   -0.182961
   2 C :   -0.396445
   3 C :   -0.408572
   4 C :   -0.103371
   5 C :   -0.154283
   6 C :   -0.160158
   7 C :    0.163083
   8 C :   -0.169301
   9 C :   -0.154408
  10 O :   -0.517685
  11 H :    0.163538
  12 H :    0.161238
  13 H :    0.159350
  14 H :    0.161055
  15 H :    0.161126
  16 H :    0.159608
  17 H :    0.159413
  18 H :    0.161377
  19 H :    0.163560
  20 H :    0.182618
  21 H :    0.186279
  22 H :    0.185090
  23 H :    0.182727
  24 H :    0.305131

  Mayer bond orders larger than 0.100000
B(  0-C ,  1-C ) :   0.8918 B(  0-C , 11-H ) :   0.9815 B(  0-C , 12-H ) :   0.9758
B(  0-C , 13-H ) :   0.9615 B(  1-C ,  2-C ) :   0.9613 B(  1-C ,  3-C ) :   0.8894
B(  1-C ,  4-C ) :   0.7934 B(  2-C , 14-H ) :   0.9718 B(  2-C , 15-H ) :   0.9714
B(  2-C , 16-H ) :   0.9696 B(  3-C , 17-H ) :   0.9615 B(  3-C , 18-H ) :   0.9757
B(  3-C , 19-H ) :   0.9822 B(  4-C ,  5-C ) :   1.3841 B(  4-C ,  9-C ) :   1.3982
B(  5-C ,  6-C ) :   1.4084 B(  5-C , 20-H ) :   0.9503 B(  6-C ,  7-C ) :   1.3601
B(  6-C , 21-H ) :   0.9584 B(  7-C ,  8-C ) :   1.3322 B(  7-C , 10-O ) :   0.9285
B(  8-C ,  9-C ) :   1.3914 B(  8-C , 22-H ) :   0.9504 B(  9-C , 23-H ) :   0.9489
B( 10-O , 24-H ) :   0.8514

Dispersion correction           -0.009174420
FINAL SINGLE POINT ENERGY      -464.607204132288

DIPOLE MOMENT
-------------

Method             : SCF
Type of density    : Electron Density
Multiplicity       :   1
Irrep              :   0
Energy             :  -464.6082089419094245 Eh
Relativity type    :
Basis              : AO
                                X                 Y                 Z
Electronic contribution:     14.445562990      -0.019187024       0.048272691
Nuclear contribution   :    -14.648359249       0.554900411       0.494257764
                        -----------------------------------------
Total Dipole Moment    :     -0.202796259       0.535713387       0.542530455
                        -----------------------------------------
Magnitude (a.u.)       :      0.788957825
Magnitude (Debye)      :      2.005371423

Rotational constants in cm-1:             0.085824             0.021579             0.019434
Rotational constants in MHz :          2572.939081           646.935723           582.629033

                             ****ORCA TERMINATED NORMALLY****
TOTAL RUN TIME: 0 days 0 hours 0 minutes 50 seconds 567 msec
