                         Program Version 6.0.0  -   RELEASE  -
|  1> ! pbe def2-sv(p) def2/J RI DEFGRID1 loosescf d4 GCP(DFT/SV(P)) printgap
|  2> %output
|  3>     printlevel normal
|  4> end
|  5> * xyz 0 1
|  6> C -2.8486369079 -0.7866330288 0.9993488504
|  7> C -2.3674559991 0.0099098917 -0.2125111387
|  8> H -3.2571290887 0.3834981017 -0.7302643454
|  9> C -1.5714651922 -0.847758634 -1.196337272
| 10> C -0.3196462293 -1.4356979857 -0.5517670656
| 11> C 0.4490051177 -0.4146495291 0.317090768
| 12> H 0.1590564353 -0.5803726604 1.3625842259
| 13> C -0.0146708295 0.9980262578 0.0523276237
| 14> O 0.7253130855 1.9360721658 -0.1760677547
| 15> C -1.5033361509 1.2174413853 0.1801419174
| 16> C 1.9741437265 -0.632995796 0.2412065788
| 17> C 2.5753799649 -0.219095754 -1.1011901794
| 18> C 2.683317929 0.0982182641 1.3809594504
| 19> H -2.0207379637 -1.119138728 1.617468802
| 20> H -3.5057040776 -0.1731961719 1.6113969124
| 21> H -3.4072496553 -1.6602997729 0.6725914345
| 22> H -2.1940598289 -1.6566838606 -1.5807930556
| 23> H -1.2812573854 -0.2168468008 -2.0406870097
| 24> H -0.5897988738 -2.294144486 0.0631588828
| 25> H 0.3380656516 -1.8004980132 -1.3405776476
| 26> H -1.6843390131 1.4925074971 1.2225678685
| 27> H -1.7507870572 2.0936249338 -0.4227855974
| 28> H 2.1405893225 -1.7095541889 0.3729778892
| 29> H 2.4814315279 0.8541366347 -1.2421719137
| 30> H 2.0818180816 -0.7192988503 -1.930831818
| 31> H 3.6309812994 -0.4785352449 -1.1279443607
| 32> H 3.7520562049 -0.0976613618 1.3455637999
| 33> H 2.3062157583 -0.230314362 2.3472898102
| 34> H 2.5291725827 1.1710090223 1.293205477
| 35> *
| 36>
| 37>                          ****END OF INPUT****

CARTESIAN COORDINATES (ANGSTROEM)
---------------------------------
  C     -2.848637   -0.786633    0.999349
  C     -2.367456    0.009910   -0.212511
  H     -3.257129    0.383498   -0.730264
  C     -1.571465   -0.847759   -1.196337
  C     -0.319646   -1.435698   -0.551767
  C      0.449005   -0.414650    0.317091
  H      0.159056   -0.580373    1.362584
  C     -0.014671    0.998026    0.052328
  O      0.725313    1.936072   -0.176068
  C     -1.503336    1.217441    0.180142
  C      1.974144   -0.632996    0.241207
  C      2.575380   -0.219096   -1.101190
  C      2.683318    0.098218    1.380959
  H     -2.020738   -1.119139    1.617469
  H     -3.505704   -0.173196    1.611397
  H     -3.407250   -1.660300    0.672591
  H     -2.194060   -1.656684   -1.580793
  H     -1.281257   -0.216847   -2.040687
  H     -0.589799   -2.294144    0.063159
  H      0.338066   -1.800498   -1.340578
  H     -1.684339    1.492507    1.222568
  H     -1.750787    2.093625   -0.422786
  H      2.140589   -1.709554    0.372978
  H      2.481432    0.854137   -1.242172
  H      2.081818   -0.719299   -1.930832
  H      3.630981   -0.478535   -1.127944
  H      3.752056   -0.097661    1.345564
  H      2.306216   -0.230314    2.347290
  H      2.529173    1.171009    1.293205

 Total Charge           Charge          ....    0
 Multiplicity           Mult            ....    1
 Number of Electrons    NEL             ....   86
 Basis Dimension        Dim             ....  190

ORBITAL ENERGIES
----------------

  NO   OCC          E(Eh)            E(eV)
   0   2.0000     -18.733978      -509.7775
   1   2.0000      -9.971665      -271.3428
   2   2.0000      -9.905561      -269.5440
   3   2.0000      -9.901214      -269.4257
   4   2.0000      -9.894225      -269.2356
   5   2.0000      -9.893768      -269.2231
   6   2.0000      -9.890830      -269.1432
   7   2.0000      -9.889291      -269.1013
   8   2.0000      -9.882494      -268.9163
   9   2.0000      -9.862807      -268.3806
  10   2.0000      -9.861602      -268.3478
  11   2.0000      -0.933868       -25.4118
  12   2.0000      -0.768082       -20.9006
  13   2.0000      -0.726030       -19.7563
  14   2.0000      -0.673330       -18.3222
  15   2.0000      -0.655051       -17.8248
  16   2.0000      -0.620214       -16.8769
  17   2.0000      -0.602457       -16.3937
  18   2.0000      -0.555180       -15.1072
  19   2.0000      -0.528379       -14.3779
  20   2.0000      -0.496733       -13.5168
  21   2.0000      -0.448263       -12.1979
  22   2.0000      -0.442048       -12.0287
  23   2.0000      -0.424552       -11.5526
  24   2.0000      -0.421071       -11.4579
  25   2.0000      -0.399358       -10.8671
  26   2.0000      -0.385952       -10.5023
  27   2.0000      -0.375440       -10.2162
  28   2.0000      -0.363044        -9.8789
  29   2.0000      -0.356282        -9.6949
  30   2.0000      -0.349939        -9.5223
  31   2.0000      -0.347136        -9.4461
  32   2.0000      -0.336152        -9.1472
  33   2.0000      -0.327453        -8.9105
  34   2.0000      -0.317091        -8.6285
  35   2.0000      -0.310649        -8.4532
  36   2.0000      -0.301797        -8.2123
  37   2.0000      -0.287886        -7.8338
  38   2.0000      -0.285005        -7.7554
  39   2.0000      -0.281843        -7.6693
  40   2.0000      -0.272134        -7.4051
  41   2.0000      -0.267115        -7.2686
  42   2.0000      -0.187416        -5.0999
  43   0.0000      -0.052945        -1.4407
  44   0.0000       0.024079         0.6552
  45   0.0000       0.038589         1.0501
  46   0.0000       0.053168         1.4468
  47   0.0000       0.066194         1.8012

MULLIKEN ATOMIC CHARGES
-----------------------
   0 C :   -0.268817
   1 C :   -0.175301
   2 H :    0.076017
   3 C :   -0.103752
   4 C :   -0.135774
   5 C :   -0.130927
   6 H :    0.089673
   7 C :   -0.036159
   8 O :   -0.157467
   9 C :   -0.070289
  10 C :   -0.127891
  11 C :   -0.266342
  12 C :   -0.251906
  13 H :    0.109495
  14 H :    0.105879
  15 H :    0.102688
  16 H :    0.086223
  17 H :    0.088415
  18 H :    0.084218
  19 H :    0.098327
  20 H :    0.108950
  21 H :    0.096090
  22 H :    0.064654
  23 H :    0.125997
  24 H :    0.092497
  25 H :    0.094474
  26 H :    0.094937
  27 H :    0.087497
  28 H :    0.118594
Sum of atomic charges:    0.0000000

LOEWDIN ATOMIC CHARGES
----------------------
   0 C :   -0.333697
   1 C :   -0.151777
   2 H :    0.120800
   3 C :   -0.220003
   4 C :   -0.212576
   5 C :   -0.161656
   6 H :    0.138082
   7 C :    0.057074
   8 O :   -0.125473
   9 C :   -0.238270
  10 C :   -0.140676
  11 C :   -0.339296
  12 C :   -0.335574
  13 H :    0.115948
  14 H :    0.121448
  15 H :    0.120482
  16 H :    0.119012
  17 H :    0.119968
  18 H :    0.120099
  19 H :    0.124226
  20 H :    0.143806
  21 H :    0.135369
  22 H :    0.113547
  23 H :    0.127075
  24 H :    0.111089
  25 H :    0.117510
  26 H :    0.116990
  27 H :    0.111226
  28 H :    0.125244

  Mayer bond orders larger than 0.100000
B(  0-C ,  1-C ) :   1.0954 B(  0-C , 13-H ) :   0.9411 B(  0-C , 14-H ) :   0.9464
B(  0-C , 15-H ) :   0.9477 B(  1-C ,  2-H ) :   0.8992 B(  1-C ,  3-C ) :   1.1325
B(  1-C ,  9-C ) :   1.0362 B(  3-C ,  4-C ) :   1.1688 B(  3-C , 16-H ) :   0.9148
B(  3-C , 17-H ) :   0.8969 B(  4-C ,  5-C ) :   1.0664 B(  4-C , 18-H ) :   0.9006
B(  4-C , 19-H ) :   0.9022 B(  5-C ,  6-H ) :   0.8390 B(  5-C ,  7-C ) :   0.9765
B(  5-C , 10-C ) :   1.0364 B(  7-C ,  8-O ) :   2.1495 B(  7-C ,  9-C ) :   1.0399
B(  9-C , 20-H ) :   0.8813 B(  9-C , 21-H ) :   0.8917 B( 10-C , 11-C ) :   1.1053
B( 10-C , 12-C ) :   1.1058 B( 10-C , 22-H ) :   0.9020 B( 11-C , 23-H ) :   0.9352
B( 11-C , 24-H ) :   0.9425 B( 11-C , 25-H ) :   0.9473 B( 12-C , 26-H ) :   0.9496
B( 12-C , 27-H ) :   0.9464 B( 12-C , 28-H ) :   0.9419

Dispersion correction           -0.030794983
FINAL SINGLE POINT ENERGY      -466.026537459822

DIPOLE MOMENT
-------------

Method             : SCF
Type of density    : Electron Density
Multiplicity       :   1
Irrep              :   0
Energy             :  -466.1232724061842418 Eh
Relativity type    :
Basis              : AO
                                X                 Y                 Z
Electronic contribution:     -0.481254477       5.541869055      -1.226048953
Nuclear contribution   :     -0.244118453      -6.296176159       1.397834248
                        -----------------------------------------
Total Dipole Moment    :     -0.725372930      -0.754307104       0.171785294
                        -----------------------------------------
Magnitude (a.u.)       :      1.060497657
Magnitude (Debye)      :      2.695570824

Rotational constants in cm-1:             0.062012             0.025538             0.023322
Rotational constants in MHz :          1859.076682           765.622115           699.162834

                             ****ORCA TERMINATED NORMALLY****
TOTAL RUN TIME: 0 days 0 hours 0 minutes 13 seconds 14 msec
