                         Program Version 6.0.0  -   RELEASE  -
|  1> ! r2scan-3c def2/J RI DEFGRID2 scfconv6 printgap
|  2> %output
|  3>     printlevel normal
|  4> end
|  5> * xyz 0 1
|  6> C -1.949173659 -0.1239261579 -0.0311730225
|  7> C -0.572311213 0.5277707071 0.0032878754
|  8> C 0.5475771928 -0.511964449 0.0065024768
|  9> N 1.8854046727 0.0912598523 -0.0326321687
| 10> H -2.0564996356 -0.7355001309 -0.9237918127
| 11> H -2.0920862511 -0.7602822429 0.839291132
| 12> H -2.7277360688 0.6344572665 -0.0360016844
| 13> H -0.4867658562 1.1513234217 0.8977121739
| 14> H -0.4508292028 1.1719097415 -0.8703042823
| 15> H 0.4323723521 -1.1583791631 0.8843525434
| 16> H 0.4458960888 -1.1479656024 -0.8819144043
| 17> H 2.4457614742 -0.2336843205 0.7449091224
| 18> H 1.8109400931 1.0983106048 0.0540137526
| 19> *
| 20>
| 21>                          ****END OF INPUT****

CARTESIAN COORDINATES (ANGSTROEM)
---------------------------------
  C     -1.949174   -0.123926   -0.031173
  C     -0.572311    0.527771    0.003288
  C      0.547577   -0.511964    0.006502
  N      1.885405    0.091260   -0.032632
  H     -2.056500   -0.735500   -0.923792
  H     -2.092086   -0.760282    0.839291
  H     -2.727736    0.634457   -0.036002
  H     -0.486766    1.151323    0.897712
  H     -0.450829    1.171910   -0.870304
  H      0.432372   -1.158379    0.884353
  H      0.445896   -1.147966   -0.881914
  H      2.445761   -0.233684    0.744909
  H      1.810940    1.098311    0.054014

 Total Charge           Charge          ....    0
 Multiplicity           Mult            ....    1
 Number of Electrons    NEL             ....   34
 Basis Dimension        Dim             ....  126

ORBITAL ENERGIES
----------------

  NO   OCC          E(Eh)            E(eV)
   0   2.0000     -14.130579      -384.5126
   1   2.0000     -10.047042      -273.3939
   2   2.0000     -10.027683      -272.8671
   3   2.0000     -10.019258      -272.6379
   4   2.0000      -0.841153       -22.8889
   5   2.0000      -0.735598       -20.0166
   6   2.0000      -0.624659       -16.9978
   7   2.0000      -0.555734       -15.1223
   8   2.0000      -0.452321       -12.3083
   9   2.0000      -0.427527       -11.6336
  10   2.0000      -0.412921       -11.2362
  11   2.0000      -0.362818        -9.8728
  12   2.0000      -0.360487        -9.8093
  13   2.0000      -0.325502        -8.8574
  14   2.0000      -0.308239        -8.3876
  15   2.0000      -0.299378        -8.1465
  16   2.0000      -0.199566        -5.4305
  17   0.0000       0.079198         2.1551
  18   0.0000       0.097858         2.6629
  19   0.0000       0.123198         3.3524
  20   0.0000       0.143086         3.8936
  21   0.0000       0.147751         4.0205

MULLIKEN ATOMIC CHARGES
-----------------------
   0 C :   -0.471759
   1 C :   -0.242736
   2 C :   -0.175986
   3 N :   -0.584879
   4 H :    0.145136
   5 H :    0.140890
   6 H :    0.146027
   7 H :    0.135924
   8 H :    0.140743
   9 H :    0.121871
  10 H :    0.143071
  11 H :    0.248027
  12 H :    0.253671
Sum of atomic charges:   -0.0000000

LOEWDIN ATOMIC CHARGES
----------------------
   0 C :   -0.423208
   1 C :   -0.301046
   2 C :   -0.080848
   3 N :   -0.739944
   4 H :    0.151626
   5 H :    0.150165
   6 H :    0.151554
   7 H :    0.150254
   8 H :    0.153156
   9 H :    0.157370
  10 H :    0.161631
  11 H :    0.233091
  12 H :    0.236199

  Mayer bond orders larger than 0.100000
B(  0-C ,  1-C ) :   0.9188 B(  0-C ,  4-H ) :   0.9826 B(  0-C ,  5-H ) :   0.9811
B(  0-C ,  6-H ) :   0.9705 B(  1-C ,  2-C ) :   0.9096 B(  1-C ,  7-H ) :   0.9562
B(  1-C ,  8-H ) :   0.9620 B(  2-C ,  3-N ) :   0.8983 B(  2-C ,  9-H ) :   0.9821
B(  2-C , 10-H ) :   0.9910 B(  3-N , 11-H ) :   0.9230 B(  3-N , 12-H ) :   0.9179

Dispersion correction           -0.002382382
FINAL SINGLE POINT ENERGY      -174.421009312636

DIPOLE MOMENT
-------------

Method             : SCF
Type of density    : Electron Density
Multiplicity       :   1
Irrep              :   0
Energy             :  -174.4277736018306939 Eh
Relativity type    :
Basis              : AO
                                X                 Y                 Z
Electronic contribution:      2.245357476       0.132672412      -0.200173635
Nuclear contribution   :     -2.502925413       0.019443958       0.664295464
                        -----------------------------------------
Total Dipole Moment    :     -0.257567937       0.152116370       0.464121829
                        -----------------------------------------
Magnitude (a.u.)       :      0.552168185
Magnitude (Debye)      :      1.403499988

Rotational constants in cm-1:             0.831696             0.125224             0.116793
Rotational constants in MHz :         24933.621619          3754.125996          3501.377052

                             ****ORCA TERMINATED NORMALLY****
TOTAL RUN TIME: 0 days 0 hours 0 minutes 10 seconds 990 msec
