                         Program Version 6.0.0  -   RELEASE  -
|  1> ! r2scan-3c def2/J RI DEFGRID2 scfconv6 printgap
|  2> %output
|  3>     printlevel normal
|  4> end
|  5> %cpcm
|  6>     smd true
|  7>     smdsolvent "water"
|  8> end
|  9> * xyz 0 1
| 10> C -1.949173659 -0.1239261579 -0.0311730225
| 11> C -0.572311213 0.5277707071 0.0032878754
| 12> C 0.5475771928 -0.511964449 0.0065024768
| 13> N 1.8854046727 0.0912598523 -0.0326321687
| 14> H -2.0564996356 -0.7355001309 -0.9237918127
| 15> H -2.0920862511 -0.7602822429 0.839291132
| 16> H -2.7277360688 0.6344572665 -0.0360016844
| 17> H -0.4867658562 1.1513234217 0.8977121739
| 18> H -0.4508292028 1.1719097415 -0.8703042823
| 19> H 0.4323723521 -1.1583791631 0.8843525434
| 20> H 0.4458960888 -1.1479656024 -0.8819144043
| 21> H 2.4457614742 -0.2336843205 0.7449091224
| 22> H 1.8109400931 1.0983106048 0.0540137526
| 23> *
| 24>
| 25>                          ****END OF INPUT****

CARTESIAN COORDINATES (ANGSTROEM)
---------------------------------
  C     -1.949174   -0.123926   -0.031173
  C     -0.572311    0.527771    0.003288
  C      0.547577   -0.511964    0.006502
  N      1.885405    0.091260   -0.032632
  H     -2.056500   -0.735500   -0.923792
  H     -2.092086   -0.760282    0.839291
  H     -2.727736    0.634457   -0.036002
  H     -0.486766    1.151323    0.897712
  H     -0.450829    1.171910   -0.870304
  H      0.432372   -1.158379    0.884353
  H      0.445896   -1.147966   -0.881914
  H      2.445761   -0.233684    0.744909
  H      1.810940    1.098311    0.054014

 Total Charge           Charge          ....    0
 Multiplicity           Mult            ....    1
 Number of Electrons    NEL             ....   34
 Basis Dimension        Dim             ....  126

ORBITAL ENERGIES
----------------

  NO   OCC          E(Eh)            E(eV)
   0   2.0000     -14.125805      -384.3827
   1   2.0000     -10.040810      -273.2243
   2   2.0000     -10.018221      -272.6096
   3   2.0000     -10.009228      -272.3650
   4   2.0000      -0.836231       -22.7550
   5   2.0000      -0.726924       -19.7806
   6   2.0000      -0.617214       -16.7952
   7   2.0000      -0.547556       -14.8998
   8   2.0000      -0.445244       -12.1157
   9   2.0000      -0.419731       -11.4215
  10   2.0000      -0.405531       -11.0351
  11   2.0000      -0.356337        -9.6964
  12   2.0000      -0.352197        -9.5838
  13   2.0000      -0.316910        -8.6236
  14   2.0000      -0.299667        -8.1544
  15   2.0000      -0.290136        -7.8950
  16   2.0000      -0.201261        -5.4766
  17   0.0000       0.088800         2.4164
  18   0.0000       0.107344         2.9210
  19   0.0000       0.136652         3.7185
  20   0.0000       0.149174         4.0592
  21   0.0000       0.154330         4.1995

MULLIKEN ATOMIC CHARGES
-----------------------
   0 C :   -0.509613
   1 C :   -0.238633
   2 C :   -0.203906
   3 N :   -0.675759
   4 H :    0.154263
   5 H :    0.153429
   6 H :    0.156970
   7 H :    0.147331
   8 H :    0.146683
   9 H :    0.142713
  10 H :    0.140718
  11 H :    0.291029
  12 H :    0.294774
Sum of atomic charges:    0.0000000

LOEWDIN ATOMIC CHARGES
----------------------
   0 C :   -0.431290
   1 C :   -0.300040
   2 C :   -0.086234
   3 N :   -0.764706
   4 H :    0.153338
   5 H :    0.153300
   6 H :    0.154297
   7 H :    0.154624
   8 H :    0.155082
   9 H :    0.164565
  10 H :    0.159629
  11 H :    0.242598
  12 H :    0.244836

  Mayer bond orders larger than 0.100000
B(  0-C ,  1-C ) :   0.9092 B(  0-C ,  4-H ) :   0.9803 B(  0-C ,  5-H ) :   0.9782
B(  0-C ,  6-H ) :   0.9682 B(  1-C ,  2-C ) :   0.9151 B(  1-C ,  7-H ) :   0.9551
B(  1-C ,  8-H ) :   0.9608 B(  2-C ,  3-N ) :   0.9076 B(  2-C ,  9-H ) :   0.9794
B(  2-C , 10-H ) :   0.9860 B(  3-N , 11-H ) :   0.9042 B(  3-N , 12-H ) :   0.9008

Dispersion correction           -0.002382382
FINAL SINGLE POINT ENERGY      -174.426717566249

DIPOLE MOMENT
-------------

Method             : SCF
Type of density    : Electron Density
Multiplicity       :   1
Irrep              :   0
Energy             :  -174.4334818554445405 Eh
Relativity type    :
Basis              : AO
                                X                 Y                 Z
Electronic contribution:      2.175289626       0.194302827      -0.023130757
Nuclear contribution   :     -2.502925413       0.019443958       0.664295464
                        -----------------------------------------
Total Dipole Moment    :     -0.327635787       0.213746785       0.641164707
                        -----------------------------------------
Magnitude (a.u.)       :      0.751082605
Magnitude (Debye)      :      1.909100262

Rotational constants in cm-1:             0.831696             0.125224             0.116793
Rotational constants in MHz :         24933.621619          3754.125996          3501.377052

                             ****ORCA TERMINATED NORMALLY****
TOTAL RUN TIME: 0 days 0 hours 0 minutes 14 seconds 599 msec
