                         Program Version 6.0.0  -   RELEASE  -
|  1> ! pbe def2-sv(p) def2/J RI DEFGRID1 loosescf d4 GCP(DFT/SV(P)) printgap
|  2> %output
|  3>     printlevel normal
|  4> end
|  5> * xyz 0 1
|  6> C -1.6553116112 1.2398455223 -0.0112629908
|  7> C -0.9507902485 -0.0224145859 0.4734616694
|  8> H -0.9392927483 -0.0768724805 1.5678419371
|  9> C 0.5227381726 0.0093896517 0.031293448
| 10> F 1.1818776551 1.0794350789 0.510690382
| 11> F 1.2107607092 -1.0700758048 0.4407486675
| 12> F 0.6586907261 0.052566821 -1.307209153
| 13> O -1.5438733077 -1.2087733679 0.034399581
| 14> H -2.6957459882 1.2023047577 0.295975508
| 15> H -1.6026432133 1.3089518668 -1.0958619146
| 16> H -1.1870877425 2.1186809646 0.4219338252
| 17> H -1.7568570635 -1.1519330821 -0.910619537
| 18> *
| 19>
| 20>                          ****END OF INPUT****

CARTESIAN COORDINATES (ANGSTROEM)
---------------------------------
  C     -1.655312    1.239846   -0.011263
  C     -0.950790   -0.022415    0.473462
  H     -0.939293   -0.076872    1.567842
  C      0.522738    0.009390    0.031293
  F      1.181878    1.079435    0.510690
  F      1.210761   -1.070076    0.440749
  F      0.658691    0.052567   -1.307209
  O     -1.543873   -1.208773    0.034400
  H     -2.695746    1.202305    0.295976
  H     -1.602643    1.308952   -1.095862
  H     -1.187088    2.118681    0.421934
  H     -1.756857   -1.151933   -0.910620

 Total Charge           Charge          ....    0
 Multiplicity           Mult            ....    1
 Number of Electrons    NEL             ....   58
 Basis Dimension        Dim             ....  108

ORBITAL ENERGIES
----------------

  NO   OCC          E(Eh)            E(eV)
   0   2.0000     -24.287491      -660.8962
   1   2.0000     -24.285594      -660.8446
   2   2.0000     -24.278033      -660.6389
   3   2.0000     -18.771478      -510.7979
   4   2.0000     -10.115556      -275.2583
   5   2.0000      -9.969579      -271.2860
   6   2.0000      -9.899983      -269.3922
   7   2.0000      -1.187413       -32.3112
   8   2.0000      -1.096547       -29.8386
   9   2.0000      -1.091128       -29.6911
  10   2.0000      -0.951456       -25.8904
  11   2.0000      -0.714242       -19.4355
  12   2.0000      -0.631524       -17.1846
  13   2.0000      -0.580922       -15.8077
  14   2.0000      -0.525064       -14.2877
  15   2.0000      -0.523322       -14.2403
  16   2.0000      -0.512564       -13.9476
  17   2.0000      -0.442509       -12.0413
  18   2.0000      -0.423692       -11.5292
  19   2.0000      -0.395692       -10.7673
  20   2.0000      -0.393117       -10.6972
  21   2.0000      -0.380896       -10.3647
  22   2.0000      -0.359549        -9.7838
  23   2.0000      -0.355872        -9.6838
  24   2.0000      -0.349983        -9.5235
  25   2.0000      -0.333829        -9.0839
  26   2.0000      -0.332454        -9.0465
  27   2.0000      -0.297402        -8.0927
  28   2.0000      -0.243235        -6.6188
  29   0.0000       0.019662         0.5350
  30   0.0000       0.051243         1.3944
  31   0.0000       0.067445         1.8353
  32   0.0000       0.092612         2.5201
  33   0.0000       0.100251         2.7280

MULLIKEN ATOMIC CHARGES
-----------------------
   0 C :   -0.281539
   1 C :   -0.023273
   2 H :    0.101144
   3 C :    0.392905
   4 F :   -0.144728
   5 F :   -0.136312
   6 F :   -0.152718
   7 O :   -0.414303
   8 H :    0.125919
   9 H :    0.106812
  10 H :    0.121965
  11 H :    0.304128
Sum of atomic charges:   -0.0000000

LOEWDIN ATOMIC CHARGES
----------------------
   0 C :   -0.354470
   1 C :   -0.098501
   2 H :    0.132013
   3 C :    0.096386
   4 F :   -0.051577
   5 F :   -0.045123
   6 F :   -0.055053
   7 O :   -0.303289
   8 H :    0.131997
   9 H :    0.123371
  10 H :    0.135190
  11 H :    0.289057

  Mayer bond orders larger than 0.100000
B(  0-C ,  1-C ) :   1.0947 B(  0-C ,  8-H ) :   0.9425 B(  0-C ,  9-H ) :   0.9389
B(  0-C , 10-H ) :   0.9347 B(  1-C ,  2-H ) :   0.8836 B(  1-C ,  3-C ) :   0.9448
B(  1-C ,  7-O ) :   1.0520 B(  3-C ,  4-F ) :   1.1446 B(  3-C ,  5-F ) :   1.1826
B(  3-C ,  6-F ) :   1.1378 B(  7-O , 11-H ) :   0.8457

Dispersion correction           -0.008186319
FINAL SINGLE POINT ENERGY      -491.115804667400

DIPOLE MOMENT
-------------

Method             : SCF
Type of density    : Electron Density
Multiplicity       :   1
Irrep              :   0
Energy             :  -491.1869063925189494 Eh
Relativity type    :
Basis              : AO
                                X                 Y                 Z
Electronic contribution:      9.791796978      -2.665247165      -0.802837646
Nuclear contribution   :    -10.525773848       3.115591611       0.592141454
                        -----------------------------------------
Total Dipole Moment    :     -0.733976870       0.450344446      -0.210696191
                        -----------------------------------------
Magnitude (a.u.)       :      0.886524140
Magnitude (Debye)      :      2.253365287

Rotational constants in cm-1:             0.117501             0.079601             0.065342
Rotational constants in MHz :          3522.599328          2386.389518          1958.893546

                             ****ORCA TERMINATED NORMALLY****
TOTAL RUN TIME: 0 days 0 hours 0 minutes 5 seconds 964 msec
