                         Program Version 6.0.0  -   RELEASE  -
|  1> ! pbe def2-sv(p) def2/J RI DEFGRID1 loosescf d4 GCP(DFT/SV(P)) printgap
|  2> %output
|  3>     printlevel normal
|  4> end
|  5> * xyz 0 1
|  6> C 0.2621757016 -0.5431559339 -0.0002763562
|  7> C 1.3996988529 0.1504817402 0.0001942174
|  8> F 2.6011208038 -0.3700120452 0.0005251443
|  9> F 1.4388850142 1.4622293758 -0.0004888367
| 10> C -1.1069199463 0.1054320705 -6.6814e-05
| 11> F -1.294271363 0.8779461674 1.0779844707
| 12> F -1.2852998695 0.8967458064 -1.0657611715
| 13> F -2.0725296462 -0.8053667426 -0.0118796832
| 14> F 0.2612543517 -1.8799489166 -0.0002857561
| 15> *
| 16>
| 17>                          ****END OF INPUT****

CARTESIAN COORDINATES (ANGSTROEM)
---------------------------------
  C      0.262176   -0.543156   -0.000276
  C      1.399699    0.150482    0.000194
  F      2.601121   -0.370012    0.000525
  F      1.438885    1.462229   -0.000489
  C     -1.106920    0.105432   -0.000067
  F     -1.294271    0.877946    1.077984
  F     -1.285300    0.896746   -1.065761
  F     -2.072530   -0.805367   -0.011880
  F      0.261254   -1.879949   -0.000286

 Total Charge           Charge          ....    0
 Multiplicity           Mult            ....    1
 Number of Electrons    NEL             ....   72
 Basis Dimension        Dim             ....  126

ORBITAL ENERGIES
----------------

  NO   OCC          E(Eh)            E(eV)
   0   2.0000     -24.334465      -662.1744
   1   2.0000     -24.333450      -662.1468
   2   2.0000     -24.309357      -661.4912
   3   2.0000     -24.309157      -661.4858
   4   2.0000     -24.301527      -661.2782
   5   2.0000     -24.301372      -661.2739
   6   2.0000     -10.150002      -276.1956
   7   2.0000     -10.086337      -274.4632
   8   2.0000     -10.012333      -272.4494
   9   2.0000      -1.213415       -33.0187
  10   2.0000      -1.205403       -32.8007
  11   2.0000      -1.147593       -31.2276
  12   2.0000      -1.139341       -31.0030
  13   2.0000      -1.119674       -30.4679
  14   2.0000      -1.113153       -30.2904
  15   2.0000      -0.753761       -20.5109
  16   2.0000      -0.656724       -17.8704
  17   2.0000      -0.598565       -16.2878
  18   2.0000      -0.568460       -15.4686
  19   2.0000      -0.560226       -15.2445
  20   2.0000      -0.543387       -14.7863
  21   2.0000      -0.536308       -14.5937
  22   2.0000      -0.513955       -13.9854
  23   2.0000      -0.498299       -13.5594
  24   2.0000      -0.427401       -11.6302
  25   2.0000      -0.426654       -11.6098
  26   2.0000      -0.415091       -11.2952
  27   2.0000      -0.411816       -11.2061
  28   2.0000      -0.411062       -11.1856
  29   2.0000      -0.403222       -10.9722
  30   2.0000      -0.394332       -10.7303
  31   2.0000      -0.373244       -10.1565
  32   2.0000      -0.373083       -10.1521
  33   2.0000      -0.352675        -9.5968
  34   2.0000      -0.340950        -9.2777
  35   2.0000      -0.241723        -6.5776
  36   0.0000      -0.050101        -1.3633
  37   0.0000      -0.007529        -0.2049
  38   0.0000       0.076929         2.0934
  39   0.0000       0.118562         3.2262
  40   0.0000       0.151843         4.1319

MULLIKEN ATOMIC CHARGES
-----------------------
   0 C :   -0.018888
   1 C :    0.293684
   2 F :   -0.089183
   3 F :   -0.089982
   4 C :    0.410858
   5 F :   -0.128313
   6 F :   -0.128132
   7 F :   -0.110962
   8 F :   -0.139081
Sum of atomic charges:    0.0000000

LOEWDIN ATOMIC CHARGES
----------------------
   0 C :   -0.089210
   1 C :    0.069824
   2 F :    0.021017
   3 F :    0.015754
   4 C :    0.094099
   5 F :   -0.038739
   6 F :   -0.038528
   7 F :   -0.016082
   8 F :   -0.018135

  Mayer bond orders larger than 0.100000
B(  0-C ,  1-C ) :   1.6102 B(  0-C ,  4-C ) :   0.9012 B(  0-C ,  8-F ) :   1.1270
B(  1-C ,  2-F ) :   1.2101 B(  1-C ,  3-F ) :   1.2045 B(  4-C ,  5-F ) :   1.1841
B(  4-C ,  6-F ) :   1.1839 B(  4-C ,  7-F ) :   1.1943

Dispersion correction           -0.007105822
FINAL SINGLE POINT ENERGY      -712.038421851485

DIPOLE MOMENT
-------------

Method             : SCF
Type of density    : Electron Density
Multiplicity       :   1
Irrep              :   0
Energy             :  -712.1015273240130909 Eh
Relativity type    :
Basis              : AO
                                X                 Y                 Z
Electronic contribution:      0.060810573       0.172312036      -0.000542324
Nuclear contribution   :      0.325076440      -0.168258170      -0.000087252
                        -----------------------------------------
Total Dipole Moment    :      0.385887013       0.004053866      -0.000629576
                        -----------------------------------------
Magnitude (a.u.)       :      0.385908819
Magnitude (Debye)      :      0.980902266

Rotational constants in cm-1:             0.084198             0.042493             0.033080
Rotational constants in MHz :          2524.195849          1273.921603           991.699765

                             ****ORCA TERMINATED NORMALLY****
TOTAL RUN TIME: 0 days 0 hours 0 minutes 5 seconds 800 msec
