                         Program Version 6.0.0  -   RELEASE  -
|  1> ! wb97x-v def2-tzvp def2/J RIJCOSX DEFGRID2 scfconv7 GCP(DFT/TZ) printgap
|  2> %output
|  3>     printlevel normal
|  4> end
|  5> * xyz 0 1
|  6> C 0.7314670808680035 -1.205251221191183 -0.21885812474258967
|  7> C -0.7313548471585347 -1.1993930823533616 0.19762040439204057
|  8> N -1.3998796447666118 2.899599175871309e-05 -0.3386312750673038
|  9> C -0.7311713405807359 1.1993288321595827 0.19765567168832346
| 10> C 0.7316118273290303 1.204992269612614 -0.21893514550678358
| 11> N 1.4678279870045439 -0.00015910524447935924 0.215795813503728
| 12> H 0.8010969436586348 -1.272436003035706 -1.3120781394907441
| 13> H 1.2257214816390973 -2.090852754732265 0.19416580756686921
| 14> H -1.2313081365446765 -2.095223104375285 -0.18798983842858338
| 15> H -0.7835726387575069 -1.2383890446340051 1.3021064648158944
| 16> H -2.3545184733854887 9.070312533699747e-05 0.007584106896838177
| 17> H -1.2310450111053912 2.0952532512531645 -0.18783365264634022
| 18> H -0.783283854063742 1.238244178079957 1.302152294378826
| 19> H 0.8011538111735419 1.2720305151557763 -1.312172361388257
| 20> H 1.2260242309217488 2.0905777259899736 0.1939344360786944
| 21> H 1.440407827615227 -0.00012274227584899643 1.2348871758683146
| 22> *
| 23>
| 24>                          ****END OF INPUT****

CARTESIAN COORDINATES (ANGSTROEM)
---------------------------------
  C      0.731467   -1.205251   -0.218858
  C     -0.731355   -1.199393    0.197620
  N     -1.399880    0.000029   -0.338631
  C     -0.731171    1.199329    0.197656
  C      0.731612    1.204992   -0.218935
  N      1.467828   -0.000159    0.215796
  H      0.801097   -1.272436   -1.312078
  H      1.225721   -2.090853    0.194166
  H     -1.231308   -2.095223   -0.187990
  H     -0.783573   -1.238389    1.302106
  H     -2.354518    0.000091    0.007584
  H     -1.231045    2.095253   -0.187834
  H     -0.783284    1.238244    1.302152
  H      0.801154    1.272031   -1.312172
  H      1.226024    2.090578    0.193934
  H      1.440408   -0.000123    1.234887

 Total Charge           Charge          ....    0
 Multiplicity           Mult            ....    1
 Number of Electrons    NEL             ....   48
 Basis Dimension        Dim             ....  246

ORBITAL ENERGIES
----------------

  NO   OCC          E(Eh)            E(eV)
   0   2.0000     -16.513489      -449.3549
   1   2.0000     -16.509249      -449.2395
   2   2.0000     -12.066227      -328.3387
   3   2.0000     -12.066001      -328.3326
   4   2.0000     -12.062467      -328.2364
   5   2.0000     -12.062335      -328.2328
   6   2.0000      -1.483972       -40.3809
   7   2.0000      -1.445375       -39.3307
   8   2.0000      -1.272790       -34.6344
   9   2.0000      -1.188328       -32.3360
  10   2.0000      -1.134968       -30.8840
  11   2.0000      -1.053972       -28.6800
  12   2.0000      -0.978726       -26.6325
  13   2.0000      -0.928780       -25.2734
  14   2.0000      -0.924207       -25.1490
  15   2.0000      -0.903758       -24.5925
  16   2.0000      -0.889302       -24.1991
  17   2.0000      -0.861233       -23.4353
  18   2.0000      -0.831538       -22.6273
  19   2.0000      -0.794662       -21.6238
  20   2.0000      -0.792384       -21.5619
  21   2.0000      -0.784863       -21.3572
  22   2.0000      -0.724289       -19.7089
  23   2.0000      -0.698528       -19.0079
  24   0.0000      -0.110403        -3.0042
  25   0.0000      -0.061530        -1.6743
  26   0.0000      -0.054948        -1.4952
  27   0.0000      -0.041289        -1.1235
  28   0.0000      -0.041040        -1.1167

MULLIKEN ATOMIC CHARGES
-----------------------
   0 C :   -0.126877
   1 C :   -0.136530
   2 N :   -0.302348
   3 C :   -0.136539
   4 C :   -0.126878
   5 N :   -0.289343
   6 H :    0.092462
   7 H :    0.107147
   8 H :    0.099807
   9 H :    0.080427
  10 H :    0.185479
  11 H :    0.099811
  12 H :    0.080425
  13 H :    0.092465
  14 H :    0.107148
  15 H :    0.173343
Sum of atomic charges:   -0.0000000

LOEWDIN ATOMIC CHARGES
----------------------
   0 C :   -0.309065
   1 C :   -0.317050
   2 N :   -0.029414
   3 C :   -0.317054
   4 C :   -0.309065
   5 N :   -0.029007
   6 H :    0.130888
   7 H :    0.126871
   8 H :    0.126320
   9 H :    0.111194
  10 H :    0.160104
  11 H :    0.126318
  12 H :    0.111195
  13 H :    0.130891
  14 H :    0.126869
  15 H :    0.160005

  Mayer bond orders larger than 0.100000
B(  0-C ,  1-C ) :   0.9969 B(  0-C ,  5-N ) :   1.0248 B(  0-C ,  6-H ) :   0.9706
B(  0-C ,  7-H ) :   0.9825 B(  1-C ,  2-N ) :   0.9941 B(  1-C ,  8-H ) :   0.9626
B(  1-C ,  9-H ) :   0.9769 B(  2-N ,  3-C ) :   0.9940 B(  2-N , 10-H ) :   0.9393
B(  3-C ,  4-C ) :   0.9969 B(  3-C , 11-H ) :   0.9626 B(  3-C , 12-H ) :   0.9769
B(  4-C ,  5-N ) :   1.0247 B(  4-C , 13-H ) :   0.9706 B(  4-C , 14-H ) :   0.9825
B(  5-N , 15-H ) :   0.9377

FINAL SINGLE POINT ENERGY      -267.944857320970

DIPOLE MOMENT
-------------

Method             : SCF
Type of density    : Electron Density
Multiplicity       :   1
Irrep              :   0
Energy             :  -267.9562086294699270 Eh
Relativity type    :
Basis              : AO
                                X                 Y                 Z
Electronic contribution:      0.296614545       0.000094862      -0.657306875
Nuclear contribution   :     -0.840724001      -0.000063887       1.265324570
                        -----------------------------------------
Total Dipole Moment    :     -0.544109457       0.000030975       0.608017695
                        -----------------------------------------
Magnitude (a.u.)       :      0.815929298
Magnitude (Debye)      :      2.073927458

Rotational constants in cm-1:             0.158574             0.149800             0.087280
Rotational constants in MHz :          4753.915881          4490.889701          2616.581862

                             ****ORCA TERMINATED NORMALLY****
TOTAL RUN TIME: 0 days 0 hours 1 minutes 11 seconds 638 msec
