                         Program Version 6.0.0  -   RELEASE  -
|  1> ! wb97x-v def2-tzvp def2/J RIJCOSX DEFGRID2 scfconv7 GCP(DFT/TZ) printgap
|  2> %output
|  3>     printlevel normal
|  4> end
|  5> %cpcm
|  6>     smd true
|  7>     smdsolvent "water"
|  8> end
|  9> * xyz 0 1
| 10> C 0.7314670808680035 -1.205251221191183 -0.21885812474258967
| 11> C -0.7313548471585347 -1.1993930823533616 0.19762040439204057
| 12> N -1.3998796447666118 2.899599175871309e-05 -0.3386312750673038
| 13> C -0.7311713405807359 1.1993288321595827 0.19765567168832346
| 14> C 0.7316118273290303 1.204992269612614 -0.21893514550678358
| 15> N 1.4678279870045439 -0.00015910524447935924 0.215795813503728
| 16> H 0.8010969436586348 -1.272436003035706 -1.3120781394907441
| 17> H 1.2257214816390973 -2.090852754732265 0.19416580756686921
| 18> H -1.2313081365446765 -2.095223104375285 -0.18798983842858338
| 19> H -0.7835726387575069 -1.2383890446340051 1.3021064648158944
| 20> H -2.3545184733854887 9.070312533699747e-05 0.007584106896838177
| 21> H -1.2310450111053912 2.0952532512531645 -0.18783365264634022
| 22> H -0.783283854063742 1.238244178079957 1.302152294378826
| 23> H 0.8011538111735419 1.2720305151557763 -1.312172361388257
| 24> H 1.2260242309217488 2.0905777259899736 0.1939344360786944
| 25> H 1.440407827615227 -0.00012274227584899643 1.2348871758683146
| 26> *
| 27>
| 28>                          ****END OF INPUT****

CARTESIAN COORDINATES (ANGSTROEM)
---------------------------------
  C      0.731467   -1.205251   -0.218858
  C     -0.731355   -1.199393    0.197620
  N     -1.399880    0.000029   -0.338631
  C     -0.731171    1.199329    0.197656
  C      0.731612    1.204992   -0.218935
  N      1.467828   -0.000159    0.215796
  H      0.801097   -1.272436   -1.312078
  H      1.225721   -2.090853    0.194166
  H     -1.231308   -2.095223   -0.187990
  H     -0.783573   -1.238389    1.302106
  H     -2.354518    0.000091    0.007584
  H     -1.231045    2.095253   -0.187834
  H     -0.783284    1.238244    1.302152
  H      0.801154    1.272031   -1.312172
  H      1.226024    2.090578    0.193934
  H      1.440408   -0.000123    1.234887

 Total Charge           Charge          ....    0
 Multiplicity           Mult            ....    1
 Number of Electrons    NEL             ....   48
 Basis Dimension        Dim             ....  246

ORBITAL ENERGIES
----------------

  NO   OCC          E(Eh)            E(eV)
   0   2.0000     -16.506187      -449.1562
   1   2.0000     -16.505990      -449.1508
   2   2.0000     -12.056024      -328.0611
   3   2.0000     -12.055684      -328.0518
   4   2.0000     -12.054538      -328.0207
   5   2.0000     -12.054527      -328.0203
   6   2.0000      -1.477205       -40.1968
   7   2.0000      -1.439355       -39.1669
   8   2.0000      -1.264316       -34.4038
   9   2.0000      -1.180094       -32.1120
  10   2.0000      -1.127466       -30.6799
  11   2.0000      -1.046455       -28.4755
  12   2.0000      -0.970357       -26.4048
  13   2.0000      -0.921829       -25.0842
  14   2.0000      -0.917030       -24.9537
  15   2.0000      -0.895881       -24.3781
  16   2.0000      -0.880041       -23.9471
  17   2.0000      -0.855024       -23.2664
  18   2.0000      -0.822395       -22.3785
  19   2.0000      -0.786641       -21.4056
  20   2.0000      -0.786201       -21.3936
  21   2.0000      -0.775023       -21.0894
  22   2.0000      -0.720623       -19.6092
  23   2.0000      -0.692711       -18.8496
  24   0.0000      -0.102363        -2.7854
  25   0.0000      -0.054251        -1.4762
  26   0.0000      -0.045749        -1.2449
  27   0.0000      -0.033844        -0.9209
  28   0.0000      -0.024295        -0.6611

MULLIKEN ATOMIC CHARGES
-----------------------
   0 C :   -0.131983
   1 C :   -0.150619
   2 N :   -0.387720
   3 C :   -0.150625
   4 C :   -0.131982
   5 N :   -0.382267
   6 H :    0.099835
   7 H :    0.124818
   8 H :    0.119734
   9 H :    0.098326
  10 H :    0.229086
  11 H :    0.119740
  12 H :    0.098324
  13 H :    0.099835
  14 H :    0.124818
  15 H :    0.220681
Sum of atomic charges:   -0.0000000

LOEWDIN ATOMIC CHARGES
----------------------
   0 C :   -0.314215
   1 C :   -0.314287
   2 N :   -0.051517
   3 C :   -0.314290
   4 C :   -0.314216
   5 N :   -0.055393
   6 H :    0.128800
   7 H :    0.131213
   8 H :    0.130099
   9 H :    0.119340
  10 H :    0.171703
  11 H :    0.130097
  12 H :    0.119341
  13 H :    0.128802
  14 H :    0.131210
  15 H :    0.173314

  Mayer bond orders larger than 0.100000
B(  0-C ,  1-C ) :   0.9954 B(  0-C ,  5-N ) :   1.0097 B(  0-C ,  6-H ) :   0.9731
B(  0-C ,  7-H ) :   0.9751 B(  1-C ,  2-N ) :   0.9879 B(  1-C ,  8-H ) :   0.9638
B(  1-C ,  9-H ) :   0.9777 B(  2-N ,  3-C ) :   0.9879 B(  2-N , 10-H ) :   0.9275
B(  3-C ,  4-C ) :   0.9954 B(  3-C , 11-H ) :   0.9638 B(  3-C , 12-H ) :   0.9777
B(  4-C ,  5-N ) :   1.0097 B(  4-C , 13-H ) :   0.9731 B(  4-C , 14-H ) :   0.9751
B(  5-N , 15-H ) :   0.9264

FINAL SINGLE POINT ENERGY      -267.962534652847

DIPOLE MOMENT
-------------

Method             : SCF
Type of density    : Electron Density
Multiplicity       :   1
Irrep              :   0
Energy             :  -267.9738859613472073 Eh
Relativity type    :
Basis              : AO
                                X                 Y                 Z
Electronic contribution:      0.096746050       0.000105780      -0.320037780
Nuclear contribution   :     -0.840724001      -0.000063887       1.265324570
                        -----------------------------------------
Total Dipole Moment    :     -0.743977952       0.000041893       0.945286790
                        -----------------------------------------
Magnitude (a.u.)       :      1.202942355
Magnitude (Debye)      :      3.057636472

Rotational constants in cm-1:             0.158574             0.149800             0.087280
Rotational constants in MHz :          4753.915881          4490.889701          2616.581862

                             ****ORCA TERMINATED NORMALLY****
TOTAL RUN TIME: 0 days 0 hours 1 minutes 13 seconds 127 msec
