                         Program Version 6.0.0  -   RELEASE  -
|  1> ! wb97x-v def2-tzvp def2/J RIJCOSX DEFGRID2 scfconv7 GCP(DFT/TZ) printgap
|  2> %output
|  3>     printlevel normal
|  4> end
|  5> * xyz 0 1
|  6> C -4.280260098482089 -0.24755394110264145 -0.0840960820632188
|  7> C -2.793257397792396 -0.04633952674952539 -0.0684431664672016
|  8> C -1.962019312609626 -0.8664889837815768 0.7003404489926044
|  9> C -0.5806525938149057 -0.7071223351940374 0.683349738527832
| 10> C 0.002848998962654257 0.29693336987163443 -0.09365714464753518
| 11> C -0.8228157535393188 1.1388981224411185 -0.844796278608705
| 12> C -2.1993418633805626 0.9583594377240914 -0.8414958161970796
| 13> C 1.4676948962767438 0.5820174936503436 -0.059504176365930965
| 14> O 1.8570630895798588 1.7586102189042387 0.1086536327135951
| 15> N 2.3400236602367825 -0.4424274893977106 -0.1743819056918383
| 16> C 3.7694105946017378 -0.16370203226790475 -0.040208494318837565
| 17> C 2.009232326047229 -1.7657544904040674 -0.7029920749035581
| 18> H -4.807827093171436 0.7065410587145561 -0.17042619052060473
| 19> H -4.575425173636477 -0.8609664195116662 -0.9439895615507327
| 20> H -4.621512368645499 -0.7594704168774843 0.8192966385114314
| 21> H -2.402963645888282 -1.6395004111497322 1.3235182952267572
| 22> H 0.04133355179863238 -1.355862363272698 1.2921298137532795
| 23> H -0.3780702688976683 1.9326704672440136 -1.4370253431479914
| 24> H -2.82758403034597 1.6106744129184423 -1.4417933982887527
| 25> H 4.193475975805229 0.2088507642356176 -0.9812770164431016
| 26> H 4.279941663378105 -1.0905889430646454 0.23215231263037872
| 27> H 3.9386579275868674 0.5791398412334292 0.7406208103307313
| 28> H 0.9810501030604727 -1.795718770918394 -1.0598401291823147
| 29> H 2.150229392197631 -2.5410588416525237 0.057958099166960056
| 30> H 2.672444933414163 -1.984341238549979 -1.5474175026442145
| 31> *
| 32>
| 33>                          ****END OF INPUT****

CARTESIAN COORDINATES (ANGSTROEM)
---------------------------------
  C     -4.280260   -0.247554   -0.084096
  C     -2.793257   -0.046340   -0.068443
  C     -1.962019   -0.866489    0.700340
  C     -0.580653   -0.707122    0.683350
  C      0.002849    0.296933   -0.093657
  C     -0.822816    1.138898   -0.844796
  C     -2.199342    0.958359   -0.841496
  C      1.467695    0.582017   -0.059504
  O      1.857063    1.758610    0.108654
  N      2.340024   -0.442427   -0.174382
  C      3.769411   -0.163702   -0.040208
  C      2.009232   -1.765754   -0.702992
  H     -4.807827    0.706541   -0.170426
  H     -4.575425   -0.860966   -0.943990
  H     -4.621512   -0.759470    0.819297
  H     -2.402964   -1.639500    1.323518
  H      0.041334   -1.355862    1.292130
  H     -0.378070    1.932670   -1.437025
  H     -2.827584    1.610674   -1.441793
  H      4.193476    0.208851   -0.981277
  H      4.279942   -1.090589    0.232152
  H      3.938658    0.579140    0.740621
  H      0.981050   -1.795719   -1.059840
  H      2.150229   -2.541059    0.057958
  H      2.672445   -1.984341   -1.547418

 Total Charge           Charge          ....    0
 Multiplicity           Mult            ....    1
 Number of Electrons    NEL             ....   88
 Basis Dimension        Dim             ....  450

ORBITAL ENERGIES
----------------

  NO   OCC          E(Eh)            E(eV)
   0   2.0000     -21.622238      -588.3710
   1   2.0000     -16.559948      -450.6191
   2   2.0000     -12.143474      -330.4407
   3   2.0000     -12.087287      -328.9118
   4   2.0000     -12.075557      -328.5926
   5   2.0000     -12.067225      -328.3659
   6   2.0000     -12.062263      -328.2309
   7   2.0000     -12.060174      -328.1740
   8   2.0000     -12.055850      -328.0564
   9   2.0000     -12.053864      -328.0023
  10   2.0000     -12.051777      -327.9455
  11   2.0000     -12.048593      -327.8589
  12   2.0000      -1.668653       -45.4064
  13   2.0000      -1.527390       -41.5624
  14   2.0000      -1.393119       -37.9087
  15   2.0000      -1.312535       -35.7159
  16   2.0000      -1.278465       -34.7888
  17   2.0000      -1.243750       -33.8441
  18   2.0000      -1.238928       -33.7129
  19   2.0000      -1.198860       -32.6226
  20   2.0000      -1.116476       -30.3809
  21   2.0000      -1.109044       -30.1786
  22   2.0000      -1.058457       -28.8021
  23   2.0000      -1.016077       -27.6489
  24   2.0000      -1.005519       -27.3616
  25   2.0000      -0.963957       -26.2306
  26   2.0000      -0.945207       -25.7204
  27   2.0000      -0.929782       -25.3007
  28   2.0000      -0.922796       -25.1106
  29   2.0000      -0.897744       -24.4289
  30   2.0000      -0.878360       -23.9014
  31   2.0000      -0.865846       -23.5609
  32   2.0000      -0.855266       -23.2730
  33   2.0000      -0.846772       -23.0418
  34   2.0000      -0.843939       -22.9647
  35   2.0000      -0.838465       -22.8158
  36   2.0000      -0.832273       -22.6473
  37   2.0000      -0.826827       -22.4991
  38   2.0000      -0.814182       -22.1550
  39   2.0000      -0.801463       -21.8089
  40   2.0000      -0.769691       -20.9444
  41   2.0000      -0.736267       -20.0348
  42   2.0000      -0.645943       -17.5770
  43   2.0000      -0.643455       -17.5093
  44   0.0000      -0.305325        -8.3083
  45   0.0000      -0.241037        -6.5589
  46   0.0000      -0.226740        -6.1699
  47   0.0000      -0.126819        -3.4509
  48   0.0000      -0.096776        -2.6334

MULLIKEN ATOMIC CHARGES
-----------------------
   0 C :   -0.366471
   1 C :    0.156210
   2 C :   -0.172670
   3 C :   -0.202253
   4 C :    0.118485
   5 C :   -0.190994
   6 C :   -0.183511
   7 C :    0.227176
   8 O :   -0.406952
   9 N :   -0.070871
  10 C :   -0.285812
  11 C :   -0.318700
  12 H :    0.124798
  13 H :    0.126535
  14 H :    0.120556
  15 H :    0.115565
  16 H :    0.130922
  17 H :    0.135184
  18 H :    0.118011
  19 H :    0.126602
  20 H :    0.120064
  21 H :    0.153861
  22 H :    0.162062
  23 H :    0.130138
  24 H :    0.132064
Sum of atomic charges:    0.0000000

LOEWDIN ATOMIC CHARGES
----------------------
   0 C :   -0.250219
   1 C :   -0.161627
   2 C :   -0.117330
   3 C :   -0.104190
   4 C :   -0.122314
   5 C :   -0.081458
   6 C :   -0.110229
   7 C :   -0.376394
   8 O :    0.029266
   9 N :    0.157579
  10 C :   -0.272187
  11 C :   -0.279712
  12 H :    0.127171
  13 H :    0.129461
  14 H :    0.125449
  15 H :    0.143942
  16 H :    0.148581
  17 H :    0.154109
  18 H :    0.145153
  19 H :    0.115168
  20 H :    0.114982
  21 H :    0.126987
  22 H :    0.129186
  23 H :    0.111587
  24 H :    0.117040

  Mayer bond orders larger than 0.100000
B(  0-C ,  1-C ) :   0.9214 B(  0-C , 12-H ) :   0.9889 B(  0-C , 13-H ) :   0.9624
B(  0-C , 14-H ) :   0.9942 B(  1-C ,  2-C ) :   1.3919 B(  1-C ,  6-C ) :   1.3634
B(  2-C ,  3-C ) :   1.4442 B(  2-C , 15-H ) :   0.9734 B(  3-C ,  4-C ) :   1.3544
B(  3-C , 16-H ) :   0.9740 B(  4-C ,  5-C ) :   1.4083 B(  4-C ,  7-C ) :   0.8772
B(  5-C ,  6-C ) :   1.4540 B(  5-C , 17-H ) :   0.9695 B(  6-C , 18-H ) :   0.9791
B(  7-C ,  8-O ) :   2.0234 B(  7-C ,  9-N ) :   1.2837 B(  9-N , 10-C ) :   0.9306
B(  9-N , 11-C ) :   0.9220 B( 10-C , 19-H ) :   0.9782 B( 10-C , 20-H ) :   0.9697
B( 10-C , 21-H ) :   0.9693 B( 11-C , 22-H ) :   0.9699 B( 11-C , 23-H ) :   0.9794
B( 11-C , 24-H ) :   0.9700

FINAL SINGLE POINT ENERGY      -518.905851891048

DIPOLE MOMENT
-------------

Method             : SCF
Type of density    : Electron Density
Multiplicity       :   1
Irrep              :   0
Energy             :  -518.9211032926480129 Eh
Relativity type    :
Basis              : AO
                                X                 Y                 Z
Electronic contribution:      0.609762103       5.368047223       1.081188658
Nuclear contribution   :     -0.961968335      -6.910814445      -1.420002085
                        -----------------------------------------
Total Dipole Moment    :     -0.352206232      -1.542767222      -0.338813426
                        -----------------------------------------
Magnitude (a.u.)       :      1.618324587
Magnitude (Debye)      :      4.113454198

Rotational constants in cm-1:             0.079314             0.016924             0.015047
Rotational constants in MHz :          2377.773033           507.372239           451.097187

                             ****ORCA TERMINATED NORMALLY****
TOTAL RUN TIME: 0 days 0 hours 5 minutes 52 seconds 681 msec
