                         Program Version 6.0.0  -   RELEASE  -
|  1> ! wb97x-v def2-tzvp def2/J RIJCOSX DEFGRID2 scfconv7 GCP(DFT/TZ) printgap
|  2> %output
|  3>     printlevel normal
|  4> end
|  5> %cpcm
|  6>     smd true
|  7>     smdsolvent "water"
|  8> end
|  9> * xyz 0 1
| 10> C -4.280260098482089 -0.24755394110264145 -0.0840960820632188
| 11> C -2.793257397792396 -0.04633952674952539 -0.0684431664672016
| 12> C -1.962019312609626 -0.8664889837815768 0.7003404489926044
| 13> C -0.5806525938149057 -0.7071223351940374 0.683349738527832
| 14> C 0.002848998962654257 0.29693336987163443 -0.09365714464753518
| 15> C -0.8228157535393188 1.1388981224411185 -0.844796278608705
| 16> C -2.1993418633805626 0.9583594377240914 -0.8414958161970796
| 17> C 1.4676948962767438 0.5820174936503436 -0.059504176365930965
| 18> O 1.8570630895798588 1.7586102189042387 0.1086536327135951
| 19> N 2.3400236602367825 -0.4424274893977106 -0.1743819056918383
| 20> C 3.7694105946017378 -0.16370203226790475 -0.040208494318837565
| 21> C 2.009232326047229 -1.7657544904040674 -0.7029920749035581
| 22> H -4.807827093171436 0.7065410587145561 -0.17042619052060473
| 23> H -4.575425173636477 -0.8609664195116662 -0.9439895615507327
| 24> H -4.621512368645499 -0.7594704168774843 0.8192966385114314
| 25> H -2.402963645888282 -1.6395004111497322 1.3235182952267572
| 26> H 0.04133355179863238 -1.355862363272698 1.2921298137532795
| 27> H -0.3780702688976683 1.9326704672440136 -1.4370253431479914
| 28> H -2.82758403034597 1.6106744129184423 -1.4417933982887527
| 29> H 4.193475975805229 0.2088507642356176 -0.9812770164431016
| 30> H 4.279941663378105 -1.0905889430646454 0.23215231263037872
| 31> H 3.9386579275868674 0.5791398412334292 0.7406208103307313
| 32> H 0.9810501030604727 -1.795718770918394 -1.0598401291823147
| 33> H 2.150229392197631 -2.5410588416525237 0.057958099166960056
| 34> H 2.672444933414163 -1.984341238549979 -1.5474175026442145
| 35> *
| 36>
| 37>                          ****END OF INPUT****

CARTESIAN COORDINATES (ANGSTROEM)
---------------------------------
  C     -4.280260   -0.247554   -0.084096
  C     -2.793257   -0.046340   -0.068443
  C     -1.962019   -0.866489    0.700340
  C     -0.580653   -0.707122    0.683350
  C      0.002849    0.296933   -0.093657
  C     -0.822816    1.138898   -0.844796
  C     -2.199342    0.958359   -0.841496
  C      1.467695    0.582017   -0.059504
  O      1.857063    1.758610    0.108654
  N      2.340024   -0.442427   -0.174382
  C      3.769411   -0.163702   -0.040208
  C      2.009232   -1.765754   -0.702992
  H     -4.807827    0.706541   -0.170426
  H     -4.575425   -0.860966   -0.943990
  H     -4.621512   -0.759470    0.819297
  H     -2.402964   -1.639500    1.323518
  H      0.041334   -1.355862    1.292130
  H     -0.378070    1.932670   -1.437025
  H     -2.827584    1.610674   -1.441793
  H      4.193476    0.208851   -0.981277
  H      4.279942   -1.090589    0.232152
  H      3.938658    0.579140    0.740621
  H      0.981050   -1.795719   -1.059840
  H      2.150229   -2.541059    0.057958
  H      2.672445   -1.984341   -1.547418

 Total Charge           Charge          ....    0
 Multiplicity           Mult            ....    1
 Number of Electrons    NEL             ....   88
 Basis Dimension        Dim             ....  450

ORBITAL ENERGIES
----------------

  NO   OCC          E(Eh)            E(eV)
   0   2.0000     -21.643113      -588.9391
   1   2.0000     -16.563575      -450.7178
   2   2.0000     -12.157093      -330.8113
   3   2.0000     -12.070493      -328.4548
   4   2.0000     -12.067395      -328.3705
   5   2.0000     -12.064303      -328.2864
   6   2.0000     -12.062851      -328.2469
   7   2.0000     -12.057318      -328.0963
   8   2.0000     -12.055868      -328.0568
   9   2.0000     -12.048843      -327.8657
  10   2.0000     -12.048355      -327.8524
  11   2.0000     -12.035149      -327.4930
  12   2.0000      -1.692061       -46.0433
  13   2.0000      -1.528722       -41.5986
  14   2.0000      -1.392220       -37.8842
  15   2.0000      -1.310944       -35.6726
  16   2.0000      -1.276494       -34.7352
  17   2.0000      -1.241075       -33.7714
  18   2.0000      -1.230526       -33.4843
  19   2.0000      -1.192587       -32.4520
  20   2.0000      -1.115340       -30.3499
  21   2.0000      -1.107392       -30.1337
  22   2.0000      -1.066024       -29.0080
  23   2.0000      -1.018773       -27.7222
  24   2.0000      -1.012113       -27.5410
  25   2.0000      -0.962894       -26.2017
  26   2.0000      -0.940227       -25.5849
  27   2.0000      -0.930474       -25.3195
  28   2.0000      -0.919724       -25.0270
  29   2.0000      -0.896424       -24.3929
  30   2.0000      -0.881669       -23.9914
  31   2.0000      -0.874290       -23.7906
  32   2.0000      -0.858726       -23.3671
  33   2.0000      -0.839783       -22.8517
  34   2.0000      -0.832974       -22.6664
  35   2.0000      -0.826122       -22.4799
  36   2.0000      -0.822011       -22.3681
  37   2.0000      -0.820057       -22.3149
  38   2.0000      -0.815244       -22.1839
  39   2.0000      -0.794264       -21.6130
  40   2.0000      -0.769497       -20.9391
  41   2.0000      -0.734169       -19.9777
  42   2.0000      -0.644828       -17.5467
  43   2.0000      -0.643168       -17.5015
  44   0.0000      -0.310772        -8.4565
  45   0.0000      -0.239638        -6.5209
  46   0.0000      -0.228921        -6.2293
  47   0.0000      -0.120510        -3.2792
  48   0.0000      -0.093912        -2.5555

MULLIKEN ATOMIC CHARGES
-----------------------
   0 C :   -0.396580
   1 C :    0.133601
   2 C :   -0.215239
   3 C :   -0.219789
   4 C :    0.106448
   5 C :   -0.239486
   6 C :   -0.232260
   7 C :    0.308921
   8 O :   -0.567788
   9 N :   -0.053279
  10 C :   -0.325987
  11 C :   -0.328227
  12 H :    0.144312
  13 H :    0.144847
  14 H :    0.144029
  15 H :    0.160644
  16 H :    0.175542
  17 H :    0.161683
  18 H :    0.159650
  19 H :    0.150804
  20 H :    0.156846
  21 H :    0.148210
  22 H :    0.171459
  23 H :    0.154465
  24 H :    0.157172
Sum of atomic charges:    0.0000000

LOEWDIN ATOMIC CHARGES
----------------------
   0 C :   -0.250034
   1 C :   -0.163569
   2 C :   -0.117456
   3 C :   -0.100321
   4 C :   -0.135468
   5 C :   -0.099443
   6 C :   -0.115397
   7 C :   -0.369534
   8 O :   -0.065637
   9 N :    0.173901
  10 C :   -0.270244
  11 C :   -0.265891
  12 H :    0.132078
  13 H :    0.135221
  14 H :    0.131151
  15 H :    0.155333
  16 H :    0.160505
  17 H :    0.157234
  18 H :    0.155405
  19 H :    0.121210
  20 H :    0.127793
  21 H :    0.123032
  22 H :    0.132181
  23 H :    0.121682
  24 H :    0.126267

  Mayer bond orders larger than 0.100000
B(  0-C ,  1-C ) :   0.9372 B(  0-C , 12-H ) :   0.9818 B(  0-C , 13-H ) :   0.9567
B(  0-C , 14-H ) :   0.9876 B(  1-C ,  2-C ) :   1.3685 B(  1-C ,  6-C ) :   1.3490
B(  2-C ,  3-C ) :   1.4347 B(  2-C , 15-H ) :   0.9792 B(  3-C ,  4-C ) :   1.3420
B(  3-C , 16-H ) :   0.9753 B(  4-C ,  5-C ) :   1.3506 B(  4-C ,  7-C ) :   0.9010
B(  5-C ,  6-C ) :   1.4592 B(  5-C , 17-H ) :   0.9758 B(  6-C , 18-H ) :   0.9841
B(  7-C ,  8-O ) :   1.8392 B(  7-C ,  9-N ) :   1.3587 B(  9-N , 10-C ) :   0.9173
B(  9-N , 11-C ) :   0.9094 B( 10-C , 19-H ) :   0.9721 B( 10-C , 20-H ) :   0.9650
B( 10-C , 21-H ) :   0.9673 B( 11-C , 22-H ) :   0.9642 B( 11-C , 23-H ) :   0.9732
B( 11-C , 24-H ) :   0.9643

FINAL SINGLE POINT ENERGY      -518.919853018908

DIPOLE MOMENT
-------------

Method             : SCF
Type of density    : Electron Density
Multiplicity       :   1
Irrep              :   0
Energy             :  -518.9351044205081962 Eh
Relativity type    :
Basis              : AO
                                X                 Y                 Z
Electronic contribution:      0.445217265       4.463095005       0.948752322
Nuclear contribution   :     -0.961968335      -6.910814445      -1.420002085
                        -----------------------------------------
Total Dipole Moment    :     -0.516751070      -2.447719440      -0.471249762
                        -----------------------------------------
Magnitude (a.u.)       :      2.545670533
Magnitude (Debye)      :      6.470580269

Rotational constants in cm-1:             0.079314             0.016924             0.015047
Rotational constants in MHz :          2377.773033           507.372239           451.097187

                             ****ORCA TERMINATED NORMALLY****
TOTAL RUN TIME: 0 days 0 hours 5 minutes 52 seconds 675 msec
