                         Program Version 6.0.0  -   RELEASE  -
|  1> ! pbe def2-sv(p) def2/J RI DEFGRID1 loosescf d4 GCP(DFT/SV(P)) printgap
|  2> %output
|  3>     printlevel normal
|  4> end
|  5> * xyz 0 1
|  6> C -2.1249529892 -1.1793827818 -0.1859745929
|  7> C -1.2616544549 -0.3278710276 0.7551011092
|  8> H -1.8517278774 -0.1296111728 1.65599289
|  9> C -0.9034668002 1.0343856849 0.130405967
| 10> H -1.1624586122 1.0281665453 -0.9411841329
| 11> C 0.6088805298 1.2871690606 0.250317498
| 12> H 0.8856234218 1.3528697247 1.3084092186
| 13> C 1.3264901802 0.0985567415 -0.3905827756
| 14> H 0.9472786145 -0.0235022365 -1.419440815
| 15> C 0.9846820764 -1.1842475326 0.409733376
| 16> H 1.8118695935 -1.4056669274 1.0959073312
| 17> O -0.1246807293 -1.0181252139 1.2591566243
| 18> O 0.869552074 -2.2931434483 -0.4202882551
| 19> O 2.7090005606 0.3469438884 -0.4106422134
| 20> O 0.9448543041 2.5280216892 -0.3136200298
| 21> O -1.6451927868 2.0352567099 0.7823161989
| 22> O -1.4893453833 -1.3324821619 -1.443739561
| 23> H -3.0832794559 -0.66504885 -0.3030977137
| 24> H -2.2838380976 -2.1563331453 0.2841094386
| 25> H 0.0873673983 -2.1642172263 -0.9992042553
| 26> H 3.1666016216 -0.3961185138 -0.8295760881
| 27> H 1.0639076886 2.4369442596 -1.2699927908
| 28> H -1.2193469838 2.8898727431 0.6071928374
| 29> H -2.1033629091 -1.7632079459 -2.0563828099
| 30> *
| 31>
| 32>                          ****END OF INPUT****

CARTESIAN COORDINATES (ANGSTROEM)
---------------------------------
  C     -2.124953   -1.179383   -0.185975
  C     -1.261654   -0.327871    0.755101
  H     -1.851728   -0.129611    1.655993
  C     -0.903467    1.034386    0.130406
  H     -1.162459    1.028167   -0.941184
  C      0.608881    1.287169    0.250317
  H      0.885623    1.352870    1.308409
  C      1.326490    0.098557   -0.390583
  H      0.947279   -0.023502   -1.419441
  C      0.984682   -1.184248    0.409733
  H      1.811870   -1.405667    1.095907
  O     -0.124681   -1.018125    1.259157
  O      0.869552   -2.293143   -0.420288
  O      2.709001    0.346944   -0.410642
  O      0.944854    2.528022   -0.313620
  O     -1.645193    2.035257    0.782316
  O     -1.489345   -1.332482   -1.443740
  H     -3.083279   -0.665049   -0.303098
  H     -2.283838   -2.156333    0.284109
  H      0.087367   -2.164217   -0.999204
  H      3.166602   -0.396119   -0.829576
  H      1.063908    2.436944   -1.269993
  H     -1.219347    2.889873    0.607193
  H     -2.103363   -1.763208   -2.056383

 Total Charge           Charge          ....    0
 Multiplicity           Mult            ....    1
 Number of Electrons    NEL             ....   96
 Basis Dimension        Dim             ....  192

ORBITAL ENERGIES
----------------

  NO   OCC          E(Eh)            E(eV)
   0   2.0000     -18.796629      -511.4823
   1   2.0000     -18.760781      -510.5068
   2   2.0000     -18.755013      -510.3499
   3   2.0000     -18.751152      -510.2448
   4   2.0000     -18.744030      -510.0510
   5   2.0000     -18.736357      -509.8422
   6   2.0000      -9.973964      -271.4054
   7   2.0000      -9.951809      -270.8025
   8   2.0000      -9.948955      -270.7248
   9   2.0000      -9.939014      -270.4543
  10   2.0000      -9.938163      -270.4312
  11   2.0000      -9.938082      -270.4290
  12   2.0000      -0.975425       -26.5427
  13   2.0000      -0.957293       -26.0493
  14   2.0000      -0.942026       -25.6338
  15   2.0000      -0.926730       -25.2176
  16   2.0000      -0.911874       -24.8134
  17   2.0000      -0.896559       -24.3966
  18   2.0000      -0.707596       -19.2547
  19   2.0000      -0.691155       -18.8073
  20   2.0000      -0.624479       -16.9929
  21   2.0000      -0.581410       -15.8210
  22   2.0000      -0.568794       -15.4777
  23   2.0000      -0.531580       -14.4650
  24   2.0000      -0.498545       -13.5661
  25   2.0000      -0.488301       -13.2873
  26   2.0000      -0.469897       -12.7865
  27   2.0000      -0.455976       -12.4077
  28   2.0000      -0.453762       -12.3475
  29   2.0000      -0.429187       -11.6788
  30   2.0000      -0.424659       -11.5556
  31   2.0000      -0.412000       -11.2111
  32   2.0000      -0.390751       -10.6329
  33   2.0000      -0.377264       -10.2659
  34   2.0000      -0.357404        -9.7254
  35   2.0000      -0.345790        -9.4094
  36   2.0000      -0.332093        -9.0367
  37   2.0000      -0.312484        -8.5031
  38   2.0000      -0.298249        -8.1158
  39   2.0000      -0.293034        -7.9739
  40   2.0000      -0.282015        -7.6740
  41   2.0000      -0.275279        -7.4907
  42   2.0000      -0.262253        -7.1363
  43   2.0000      -0.243167        -6.6169
  44   2.0000      -0.236165        -6.4264
  45   2.0000      -0.213402        -5.8070
  46   2.0000      -0.209176        -5.6920
  47   2.0000      -0.204788        -5.5726
  48   0.0000      -0.002591        -0.0705
  49   0.0000       0.019950         0.5429
  50   0.0000       0.045170         1.2291
  51   0.0000       0.054391         1.4801
  52   0.0000       0.059113         1.6085

MULLIKEN ATOMIC CHARGES
-----------------------
   0 C :   -0.007935
   1 C :    0.072235
   2 H :    0.091312
   3 C :    0.051645
   4 H :    0.044336
   5 C :    0.065989
   6 H :    0.073839
   7 C :   -0.015577
   8 H :    0.038220
   9 C :    0.198250
  10 H :    0.066886
  11 O :   -0.305070
  12 O :   -0.420433
  13 O :   -0.403674
  14 O :   -0.412616
  15 O :   -0.420633
  16 O :   -0.441056
  17 H :    0.100198
  18 H :    0.099763
  19 H :    0.292833
  20 H :    0.305461
  21 H :    0.301165
  22 H :    0.302216
  23 H :    0.322647
Sum of atomic charges:   -0.0000000

LOEWDIN ATOMIC CHARGES
----------------------
   0 C :   -0.138085
   1 C :   -0.056605
   2 H :    0.134356
   3 C :   -0.076313
   4 H :    0.093450
   5 C :   -0.077142
   6 H :    0.123388
   7 C :   -0.098452
   8 H :    0.094245
   9 C :   -0.011028
  10 H :    0.111242
  11 O :   -0.141920
  12 O :   -0.328568
  13 O :   -0.316708
  14 O :   -0.306980
  15 O :   -0.326130
  16 O :   -0.325859
  17 H :    0.116587
  18 H :    0.110911
  19 H :    0.262134
  20 H :    0.289355
  21 H :    0.287047
  22 H :    0.282053
  23 H :    0.299021

  Mayer bond orders larger than 0.100000
B(  0-C ,  1-C ) :   1.0682 B(  0-C , 16-O ) :   1.0062 B(  0-C , 17-H ) :   0.9142
B(  0-C , 18-H ) :   0.9119 B(  1-C ,  2-H ) :   0.8810 B(  1-C ,  3-C ) :   0.9725
B(  1-C , 11-O ) :   1.0495 B(  3-C ,  4-H ) :   0.8733 B(  3-C ,  5-C ) :   1.0129
B(  3-C , 15-O ) :   1.0831 B(  5-C ,  6-H ) :   0.8633 B(  5-C ,  7-C ) :   1.0128
B(  5-C , 14-O ) :   1.0528 B(  7-C ,  8-H ) :   0.8705 B(  7-C ,  9-C ) :   0.9903
B(  7-C , 13-O ) :   1.0918 B(  9-C , 10-H ) :   0.8917 B(  9-C , 11-O ) :   1.0397
B(  9-C , 12-O ) :   1.1279 B( 12-O , 19-H ) :   0.7890 B( 13-O , 20-H ) :   0.8448
B( 14-O , 21-H ) :   0.8463 B( 15-O , 22-H ) :   0.8302 B( 16-O , 19-H ) :   0.1286
B( 16-O , 23-H ) :   0.8382

Dispersion correction           -0.025178352
FINAL SINGLE POINT ENERGY      -685.694716744191

DIPOLE MOMENT
-------------

Method             : SCF
Type of density    : Electron Density
Multiplicity       :   1
Irrep              :   0
Energy             :  -685.8267842717357325 Eh
Relativity type    :
Basis              : AO
                                X                 Y                 Z
Electronic contribution:      2.546936519       0.545305914       1.249675952
Nuclear contribution   :     -3.491309102      -0.930331648      -2.698084936
                        -----------------------------------------
Total Dipole Moment    :     -0.944372583      -0.385025735      -1.448408984
                        -----------------------------------------
Magnitude (a.u.)       :      1.771432464
Magnitude (Debye)      :      4.502623495

Rotational constants in cm-1:             0.036119             0.032468             0.021268
Rotational constants in MHz :          1082.834273           973.370644           637.594722

                             ****ORCA TERMINATED NORMALLY****
TOTAL RUN TIME: 0 days 0 hours 0 minutes 12 seconds 347 msec
