                         Program Version 6.0.0  -   RELEASE  -
|  1> ! pbe def2-sv(p) def2/J RI DEFGRID1 loosescf d4 GCP(DFT/SV(P)) printgap
|  2> %output
|  3>     printlevel normal
|  4> end
|  5> * xyz 0 1
|  6> C 1.0850428524 -1.4960226041 0.0315359409
|  7> C 0.4576529143 -0.1324192429 0.0259070996
|  8> C 1.187226473 0.9739011683 -0.0945761361
|  9> C -0.9964709122 -0.1234650918 0.1865842211
| 10> C -1.8142080405 0.8701834542 -0.1372680037
| 11> H 2.158487058 -1.4324726986 -0.1228894622
| 12> H 0.6510384207 -2.1115403678 -0.7551986368
| 13> H 0.8960034975 -1.9896061909 0.984072141
| 14> H 0.7483343319 1.9557417884 -0.0713346992
| 15> H 2.2568312183 0.9334200925 -0.2096442118
| 16> H -1.4136830589 -1.039010218 0.5873712138
| 17> H -2.8776041588 0.7952383604 0.0106625157
| 18> H -1.4571011898 1.7898295348 -0.5682143161
| 19> *
| 20>
| 21>                          ****END OF INPUT****

CARTESIAN COORDINATES (ANGSTROEM)
---------------------------------
  C      1.085043   -1.496023    0.031536
  C      0.457653   -0.132419    0.025907
  C      1.187226    0.973901   -0.094576
  C     -0.996471   -0.123465    0.186584
  C     -1.814208    0.870183   -0.137268
  H      2.158487   -1.432473   -0.122889
  H      0.651038   -2.111540   -0.755199
  H      0.896003   -1.989606    0.984072
  H      0.748334    1.955742   -0.071335
  H      2.256831    0.933420   -0.209644
  H     -1.413683   -1.039010    0.587371
  H     -2.877604    0.795238    0.010663
  H     -1.457101    1.789830   -0.568214

 Total Charge           Charge          ....    0
 Multiplicity           Mult            ....    1
 Number of Electrons    NEL             ....   38
 Basis Dimension        Dim             ....   86

ORBITAL ENERGIES
----------------

  NO   OCC          E(Eh)            E(eV)
   0   2.0000      -9.903175      -269.4791
   1   2.0000      -9.894809      -269.2514
   2   2.0000      -9.883154      -268.9343
   3   2.0000      -9.881007      -268.8759
   4   2.0000      -9.874819      -268.7075
   5   2.0000      -0.739875       -20.1330
   6   2.0000      -0.665040       -18.0967
   7   2.0000      -0.614008       -16.7080
   8   2.0000      -0.542473       -14.7614
   9   2.0000      -0.460403       -12.5282
  10   2.0000      -0.428324       -11.6553
  11   2.0000      -0.404152       -10.9975
  12   2.0000      -0.377810       -10.2807
  13   2.0000      -0.365213        -9.9379
  14   2.0000      -0.338048        -9.1988
  15   2.0000      -0.314678        -8.5628
  16   2.0000      -0.300204        -8.1690
  17   2.0000      -0.272193        -7.4068
  18   2.0000      -0.202721        -5.5163
  19   0.0000      -0.058179        -1.5831
  20   0.0000       0.036076         0.9817
  21   0.0000       0.051370         1.3978
  22   0.0000       0.073997         2.0136
  23   0.0000       0.079510         2.1636

MULLIKEN ATOMIC CHARGES
-----------------------
   0 C :   -0.236636
   1 C :   -0.021658
   2 C :   -0.235947
   3 C :   -0.077245
   4 C :   -0.195166
   5 H :    0.100492
   6 H :    0.114556
   7 H :    0.114449
   8 H :    0.089812
   9 H :    0.086815
  10 H :    0.058235
  11 H :    0.101064
  12 H :    0.101229
Sum of atomic charges:   -0.0000000

LOEWDIN ATOMIC CHARGES
----------------------
   0 C :   -0.321972
   1 C :   -0.063726
   2 C :   -0.246278
   3 C :   -0.127249
   4 C :   -0.231552
   5 H :    0.124155
   6 H :    0.129595
   7 H :    0.130312
   8 H :    0.119239
   9 H :    0.119974
  10 H :    0.121257
  11 H :    0.124195
  12 H :    0.122051

  Mayer bond orders larger than 0.100000
B(  0-C ,  1-C ) :   1.0952 B(  0-C ,  5-H ) :   0.9444 B(  0-C ,  6-H ) :   0.9371
B(  0-C ,  7-H ) :   0.9325 B(  1-C ,  2-C ) :   1.9893 B(  1-C ,  3-C ) :   1.0861
B(  2-C ,  4-C ) :   0.1080 B(  2-C ,  8-H ) :   0.9056 B(  2-C ,  9-H ) :   0.9053
B(  3-C ,  4-C ) :   1.9984 B(  3-C , 10-H ) :   0.9298 B(  4-C , 11-H ) :   0.9208
B(  4-C , 12-H ) :   0.9123

Dispersion correction           -0.009120532
FINAL SINGLE POINT ENERGY      -194.823340239484

DIPOLE MOMENT
-------------

Method             : SCF
Type of density    : Electron Density
Multiplicity       :   1
Irrep              :   0
Energy             :  -194.8616115133912103 Eh
Relativity type    :
Basis              : AO
                                X                 Y                 Z
Electronic contribution:     -0.915115686       0.875939694       0.148883097
Nuclear contribution   :      0.902808974      -1.030488205      -0.136199596
                        -----------------------------------------
Total Dipole Moment    :     -0.012306712      -0.154548511       0.012683502
                        -----------------------------------------
Magnitude (a.u.)       :      0.155555677
Magnitude (Debye)      :      0.395391108

Rotational constants in cm-1:             0.305130             0.132236             0.094836
Rotational constants in MHz :          9147.557674          3964.344811          2843.104601

                             ****ORCA TERMINATED NORMALLY****
TOTAL RUN TIME: 0 days 0 hours 0 minutes 4 seconds 707 msec
