                         Program Version 6.0.0  -   RELEASE  -
|  1> ! wb97x-v def2-tzvp def2/J RIJCOSX DEFGRID2 scfconv7 GCP(DFT/TZ) printgap
|  2> %output
|  3>     printlevel normal
|  4> end
|  5> %cpcm
|  6>     smd true
|  7>     smdsolvent "water"
|  8> end
|  9> * xyz 0 1
| 10> C -1.1875213887078684 -1.2103899058095253 4.534555311777759e-06
| 11> C 0.20212980378644513 -1.211739635138902 -2.3703411778332646e-06
| 12> C 0.8817162579022266 0.0007033690504320979 -2.5799488160321785e-06
| 13> C 0.20301818493431822 1.212246064663423 6.548440651420819e-06
| 14> C -1.1879474106901624 1.209516961612392 1.3175878988267524e-05
| 15> C -1.8809797585426324 -0.000512829308096279 1.0606400271438324e-05
| 16> O -3.2543527735285376 -0.056750417137762785 1.7608764853128235e-05
| 17> Cl 2.6468358862240287 0.00039096073783231796 -1.0697520612994846e-05
| 18> H -1.7363735165637346 -2.1460086124740783 4.899065105403605e-06
| 19> H 0.7445606244692516 -2.150255222576717 -7.830376323137848e-06
| 20> H 0.7439417588984607 2.1516522277483108 8.288088008629018e-06
| 21> H -1.734583866642172 2.1480115864196403 2.106882177455958e-05
| 22> H -3.606276231552461 0.844706592152098 2.6072352816767745e-05
| 23> *
| 24>
| 25>                          ****END OF INPUT****

CARTESIAN COORDINATES (ANGSTROEM)
---------------------------------
  C     -1.187521   -1.210390    0.000005
  C      0.202130   -1.211740   -0.000002
  C      0.881716    0.000703   -0.000003
  C      0.203018    1.212246    0.000007
  C     -1.187947    1.209517    0.000013
  C     -1.880980   -0.000513    0.000011
  O     -3.254353   -0.056750    0.000018
  Cl     2.646836    0.000391   -0.000011
  H     -1.736374   -2.146009    0.000005
  H      0.744561   -2.150255   -0.000008
  H      0.743942    2.151652    0.000008
  H     -1.734584    2.148012    0.000021
  H     -3.606276    0.844707    0.000026

 Total Charge           Charge          ....    0
 Multiplicity           Mult            ....    1
 Number of Electrons    NEL             ....   66
 Basis Dimension        Dim             ....  284

ORBITAL ENERGIES
----------------

  NO   OCC          E(Eh)            E(eV)
   0   2.0000    -107.144324     -2915.5453
   1   2.0000     -21.704660      -590.6138
   2   2.0000     -12.120035      -329.8029
   3   2.0000     -12.109959      -329.5287
   4   2.0000     -12.065429      -328.3170
   5   2.0000     -12.064811      -328.3002
   6   2.0000     -12.056992      -328.0874
   7   2.0000     -12.055302      -328.0414
   8   2.0000     -11.297461      -307.4196
   9   2.0000      -9.088948      -247.3228
  10   2.0000      -9.086439      -247.2546
  11   2.0000      -9.086387      -247.2531
  12   2.0000      -1.718714       -46.7686
  13   2.0000      -1.430426       -38.9239
  14   2.0000      -1.379406       -37.5355
  15   2.0000      -1.290589       -35.1187
  16   2.0000      -1.278688       -34.7949
  17   2.0000      -1.157973       -31.5100
  18   2.0000      -1.130055       -30.7504
  19   2.0000      -1.066979       -29.0340
  20   2.0000      -1.014799       -27.6141
  21   2.0000      -0.964893       -26.2561
  22   2.0000      -0.953873       -25.9562
  23   2.0000      -0.951836       -25.9008
  24   2.0000      -0.908660       -24.7259
  25   2.0000      -0.886021       -24.1099
  26   2.0000      -0.870504       -23.6876
  27   2.0000      -0.825128       -22.4529
  28   2.0000      -0.825032       -22.4503
  29   2.0000      -0.789190       -21.4749
  30   2.0000      -0.768666       -20.9165
  31   2.0000      -0.653809       -17.7910
  32   2.0000      -0.650786       -17.7088
  33   0.0000      -0.263878        -7.1805
  34   0.0000      -0.263102        -7.1594
  35   0.0000      -0.249626        -6.7927
  36   0.0000      -0.145408        -3.9567
  37   0.0000      -0.084064        -2.2875

MULLIKEN ATOMIC CHARGES
-----------------------
   0 C :   -0.245003
   1 C :   -0.187434
   2 C :    0.132298
   3 C :   -0.194136
   4 C :   -0.248228
   5 C :    0.273732
   6 O :   -0.464020
   7 Cl:   -0.132637
   8 H :    0.163509
   9 H :    0.171265
  10 H :    0.173523
  11 H :    0.176625
  12 H :    0.380505
Sum of atomic charges:    0.0000000

LOEWDIN ATOMIC CHARGES
----------------------
   0 C :   -0.121034
   1 C :   -0.141400
   2 C :   -0.430633
   3 C :   -0.141453
   4 C :   -0.126435
   5 C :   -0.265889
   6 O :    0.046017
   7 Cl:    0.332675
   8 H :    0.158608
   9 H :    0.158038
  10 H :    0.158224
  11 H :    0.160717
  12 H :    0.212565

  Mayer bond orders larger than 0.100000
B(  0-C ,  1-C ) :   1.4317 B(  0-C ,  5-C ) :   1.3800 B(  0-C ,  8-H ) :   0.9742
B(  1-C ,  2-C ) :   1.3616 B(  1-C ,  9-H ) :   0.9706 B(  2-C ,  3-C ) :   1.3671
B(  2-C ,  7-Cl) :   0.9561 B(  3-C ,  4-C ) :   1.3824 B(  3-C , 10-H ) :   0.9613
B(  4-C ,  5-C ) :   1.3684 B(  4-C , 11-H ) :   0.9643 B(  5-C ,  6-O ) :   1.1109
B(  6-O , 12-H ) :   0.8473

FINAL SINGLE POINT ENERGY      -767.042728577206

DIPOLE MOMENT
-------------

Method             : SCF
Type of density    : Electron Density
Multiplicity       :   1
Irrep              :   0
Energy             :  -767.0492577168059825 Eh
Relativity type    :
Basis              : AO
                                X                 Y                 Z
Electronic contribution:      7.861695316      -0.011270583      -0.000044173
Nuclear contribution   :     -8.856264882       0.795390365       0.000055638
                        -----------------------------------------
Total Dipole Moment    :     -0.994569566       0.784119782       0.000011465
                        -----------------------------------------
Magnitude (a.u.)       :      1.266496133
Magnitude (Debye)      :      3.219177337

Rotational constants in cm-1:             0.187629             0.032121             0.027426
Rotational constants in MHz :          5624.982580           962.956632           822.201618

                             ****ORCA TERMINATED NORMALLY****
TOTAL RUN TIME: 0 days 0 hours 1 minutes 50 seconds 65 msec
