                         Program Version 6.0.0  -   RELEASE  -
|  1> ! pbe def2-sv(p) def2/J RI DEFGRID1 loosescf d4 GCP(DFT/SV(P)) printgap
|  2> %output
|  3>     printlevel normal
|  4> end
|  5> * xyz 0 1
|  6> C -3.430589133 -1.1195620326 0.5799296913
|  7> C -2.1971640761 -1.2372430188 -0.3161994051
|  8> C -1.2228172536 -0.0961302438 -0.1580925534
|  9> C -1.6992471393 1.1895259726 -0.0715196612
| 10> C -0.8490091825 2.2898185927 0.0936834511
| 11> C 0.5005830865 2.1052683278 0.1734220641
| 12> C 1.0465186636 0.8102704611 0.065432593
| 13> C 0.1853091509 -0.3095993176 -0.1140490347
| 14> C 0.7918584079 -1.578922296 -0.2522670757
| 15> C 2.1489772747 -1.73518046 -0.1978231903
| 16> C 2.988143408 -0.6295920845 -0.0018844978
| 17> C 2.4430587587 0.615597587 0.1239012559
| 18> H -4.0121825616 -2.0366445715 0.5232011979
| 19> H -4.0735249617 -0.2975665095 0.2789299557
| 20> H -3.1310815741 -0.9633872597 1.6137337485
| 21> H -2.515547901 -1.2833186185 -1.3621029775
| 22> H -1.7085558646 -2.1809289692 -0.0814526075
| 23> H -2.7608242277 1.3725988141 -0.1312669347
| 24> H -1.2736722227 3.2805541092 0.1614872937
| 25> H 1.1697293382 2.9422587255 0.3109326463
| 26> H 0.1809018241 -2.4522993017 -0.4158319072
| 27> H 2.583540783 -2.7177833863 -0.308105343
| 28> H 4.057764734 -0.7700553243 0.0429507057
| 29> H 3.0746566934 1.4808508711 0.2668460616
| 30> *
| 31>
| 32>                          ****END OF INPUT****

CARTESIAN COORDINATES (ANGSTROEM)
---------------------------------
  C     -3.430589   -1.119562    0.579930
  C     -2.197164   -1.237243   -0.316199
  C     -1.222817   -0.096130   -0.158093
  C     -1.699247    1.189526   -0.071520
  C     -0.849009    2.289819    0.093683
  C      0.500583    2.105268    0.173422
  C      1.046519    0.810270    0.065433
  C      0.185309   -0.309599   -0.114049
  C      0.791858   -1.578922   -0.252267
  C      2.148977   -1.735180   -0.197823
  C      2.988143   -0.629592   -0.001884
  C      2.443059    0.615598    0.123901
  H     -4.012183   -2.036645    0.523201
  H     -4.073525   -0.297567    0.278930
  H     -3.131082   -0.963387    1.613734
  H     -2.515548   -1.283319   -1.362103
  H     -1.708556   -2.180929   -0.081453
  H     -2.760824    1.372599   -0.131267
  H     -1.273672    3.280554    0.161487
  H      1.169729    2.942259    0.310933
  H      0.180902   -2.452299   -0.415832
  H      2.583541   -2.717783   -0.308105
  H      4.057765   -0.770055    0.042951
  H      3.074657    1.480851    0.266846

 Total Charge           Charge          ....    0
 Multiplicity           Mult            ....    1
 Number of Electrons    NEL             ....   84
 Basis Dimension        Dim             ....  192

ORBITAL ENERGIES
----------------

  NO   OCC          E(Eh)            E(eV)
   0   2.0000      -9.903420      -269.4858
   1   2.0000      -9.903339      -269.4835
   2   2.0000      -9.900691      -269.4115
   3   2.0000      -9.892829      -269.1976
   4   2.0000      -9.891526      -269.1621
   5   2.0000      -9.890595      -269.1368
   6   2.0000      -9.889695      -269.1123
   7   2.0000      -9.889369      -269.1034
   8   2.0000      -9.889117      -269.0966
   9   2.0000      -9.887991      -269.0659
  10   2.0000      -9.886885      -269.0358
  11   2.0000      -9.879649      -268.8389
  12   2.0000      -0.794045       -21.6071
  13   2.0000      -0.745646       -20.2901
  14   2.0000      -0.715870       -19.4798
  15   2.0000      -0.674821       -18.3628
  16   2.0000      -0.664034       -18.0693
  17   2.0000      -0.635095       -17.2818
  18   2.0000      -0.572785       -15.5863
  19   2.0000      -0.554227       -15.0813
  20   2.0000      -0.547124       -14.8880
  21   2.0000      -0.508798       -13.8451
  22   2.0000      -0.463890       -12.6231
  23   2.0000      -0.448283       -12.1984
  24   2.0000      -0.443124       -12.0580
  25   2.0000      -0.410002       -11.1567
  26   2.0000      -0.399117       -10.8605
  27   2.0000      -0.384862       -10.4726
  28   2.0000      -0.378762       -10.3066
  29   2.0000      -0.369584       -10.0569
  30   2.0000      -0.354018        -9.6333
  31   2.0000      -0.353451        -9.6179
  32   2.0000      -0.334991        -9.1156
  33   2.0000      -0.327307        -8.9065
  34   2.0000      -0.317483        -8.6392
  35   2.0000      -0.310149        -8.4396
  36   2.0000      -0.292315        -7.9543
  37   2.0000      -0.287462        -7.8222
  38   2.0000      -0.279184        -7.5970
  39   2.0000      -0.250876        -6.8267
  40   2.0000      -0.223121        -6.0714
  41   2.0000      -0.191856        -5.2207
  42   0.0000      -0.066147        -1.7999
  43   0.0000      -0.037742        -1.0270
  44   0.0000      -0.003572        -0.0972
  45   0.0000       0.041636         1.1330
  46   0.0000       0.052529         1.4294

MULLIKEN ATOMIC CHARGES
-----------------------
   0 C :   -0.291014
   1 C :   -0.133796
   2 C :    0.016274
   3 C :   -0.153007
   4 C :   -0.028580
   5 C :   -0.126650
   6 C :    0.135085
   7 C :    0.130426
   8 C :   -0.167978
   9 C :   -0.040112
  10 C :   -0.038002
  11 C :   -0.128402
  12 H :    0.102410
  13 H :    0.112698
  14 H :    0.111925
  15 H :    0.103860
  16 H :    0.096269
  17 H :    0.036050
  18 H :    0.047749
  19 H :    0.036181
  20 H :    0.040754
  21 H :    0.048816
  22 H :    0.050800
  23 H :    0.038243
Sum of atomic charges:    0.0000000

LOEWDIN ATOMIC CHARGES
----------------------
   0 C :   -0.335408
   1 C :   -0.220306
   2 C :   -0.028448
   3 C :   -0.125628
   4 C :   -0.123771
   5 C :   -0.116666
   6 C :   -0.022732
   7 C :   -0.023299
   8 C :   -0.118302
   9 C :   -0.124758
  10 C :   -0.126565
  11 C :   -0.110018
  12 H :    0.120487
  13 H :    0.117148
  14 H :    0.123156
  15 H :    0.132048
  16 H :    0.121801
  17 H :    0.121537
  18 H :    0.123302
  19 H :    0.122581
  20 H :    0.123669
  21 H :    0.123277
  22 H :    0.123785
  23 H :    0.123110

  Mayer bond orders larger than 0.100000
B(  0-C ,  1-C ) :   1.1538 B(  0-C , 12-H ) :   0.9488 B(  0-C , 13-H ) :   0.9445
B(  0-C , 14-H ) :   0.9575 B(  1-C ,  2-C ) :   1.0912 B(  1-C , 15-H ) :   0.8982
B(  1-C , 16-H ) :   0.8947 B(  2-C ,  3-C ) :   1.4713 B(  2-C ,  7-C ) :   1.2630
B(  3-C ,  4-C ) :   1.2551 B(  3-C , 17-H ) :   0.9572 B(  4-C ,  5-C ) :   1.4391
B(  4-C , 18-H ) :   0.9623 B(  5-C ,  6-C ) :   1.2423 B(  5-C , 19-H ) :   0.9671
B(  6-C ,  7-C ) :   1.2441 B(  6-C , 11-C ) :   1.2417 B(  7-C ,  8-C ) :   1.2461
B(  8-C ,  9-C ) :   1.4796 B(  8-C , 20-H ) :   0.9455 B(  9-C , 10-C ) :   1.2591
B(  9-C , 21-H ) :   0.9586 B( 10-C , 11-C ) :   1.4549 B( 10-C , 22-H ) :   0.9634
B( 11-C , 23-H ) :   0.9645

Dispersion correction           -0.029194277
FINAL SINGLE POINT ENERGY      -463.477852049022

DIPOLE MOMENT
-------------

Method             : SCF
Type of density    : Electron Density
Multiplicity       :   1
Irrep              :   0
Energy             :  -463.5387578822017076 Eh
Relativity type    :
Basis              : AO
                                X                 Y                 Z
Electronic contribution:      7.743160754       3.295458471      -0.871811599
Nuclear contribution   :     -7.888873446      -3.401540202       0.843716060
                        -----------------------------------------
Total Dipole Moment    :     -0.145712692      -0.106081731      -0.028095539
                        -----------------------------------------
Magnitude (a.u.)       :      0.182414038
Magnitude (Debye)      :      0.463659638

Rotational constants in cm-1:             0.053844             0.026887             0.018381
Rotational constants in MHz :          1614.188934           806.057821           551.051291

                             ****ORCA TERMINATED NORMALLY****
TOTAL RUN TIME: 0 days 0 hours 0 minutes 11 seconds 245 msec
