                         Program Version 6.0.0  -   RELEASE  -
|  1> ! pbe def2-sv(p) def2/J RI DEFGRID1 loosescf d4 GCP(DFT/SV(P)) printgap
|  2> %output
|  3>     printlevel normal
|  4> end
|  5> * xyz 0 1
|  6> C -2.860651901 0.5836739396 -0.5444867015
|  7> C -1.7300018137 0.5148449878 0.4906068396
|  8> H -2.1798906785 0.6173252669 1.4847959726
|  9> C -0.6905894048 1.6225889505 0.287674585
| 10> C 0.1772875804 1.401077453 -0.9457467204
| 11> C 0.8501923367 0.0214220669 -0.9993994856
| 12> H 1.2175092928 -0.1147765149 -2.0224574989
| 13> C -0.1756545311 -1.0962590222 -0.7392576105
| 14> C -1.0930489688 -0.85256705 0.4229530388
| 15> O -1.3649174825 -1.7256671562 1.2297118012
| 16> C 2.0625240914 -0.1015994797 -0.1033614807
| 17> C 3.2736923292 -0.1670636518 -0.6381601265
| 18> C 1.8812327373 -0.1463034953 1.3842026837
| 19> H -3.3980123828 1.5214340448 -0.4301226354
| 20> H -2.4735398133 0.525268783 -1.5568449132
| 21> H -3.5593400848 -0.23615081 -0.3911103099
| 22> H -1.2124542296 2.5766665394 0.1906997134
| 23> H -0.066311229 1.682195792 1.1781559081
| 24> H -0.438203844 1.5137527819 -1.8395220498
| 25> H 0.9507673897 2.1701236909 -0.9825246956
| 26> H -0.8213451179 -1.1797643761 -1.6170232039
| 27> H 0.328459936 -2.0552166869 -0.6028978627
| 28> H 4.1577211721 -0.2545525955 -0.029410649
| 29> H 3.4349010363 -0.127472574 -1.7020451698
| 30> H 2.7230326332 -0.6519715083 1.8512026996
| 31> H 1.8364626951 0.8632092506 1.7916514507
| 32> H 0.9680738571 -0.6666354758 1.6615622523
| 33> *
| 34>
| 35>                          ****END OF INPUT****

CARTESIAN COORDINATES (ANGSTROEM)
---------------------------------
  C     -2.860652    0.583674   -0.544487
  C     -1.730002    0.514845    0.490607
  H     -2.179891    0.617325    1.484796
  C     -0.690589    1.622589    0.287675
  C      0.177288    1.401077   -0.945747
  C      0.850192    0.021422   -0.999399
  H      1.217509   -0.114777   -2.022457
  C     -0.175655   -1.096259   -0.739258
  C     -1.093049   -0.852567    0.422953
  O     -1.364917   -1.725667    1.229712
  C      2.062524   -0.101599   -0.103361
  C      3.273692   -0.167064   -0.638160
  C      1.881233   -0.146303    1.384203
  H     -3.398012    1.521434   -0.430123
  H     -2.473540    0.525269   -1.556845
  H     -3.559340   -0.236151   -0.391110
  H     -1.212454    2.576667    0.190700
  H     -0.066311    1.682196    1.178156
  H     -0.438204    1.513753   -1.839522
  H      0.950767    2.170124   -0.982525
  H     -0.821345   -1.179764   -1.617023
  H      0.328460   -2.055217   -0.602898
  H      4.157721   -0.254553   -0.029411
  H      3.434901   -0.127473   -1.702045
  H      2.723033   -0.651972    1.851203
  H      1.836463    0.863209    1.791651
  H      0.968074   -0.666635    1.661562

 Total Charge           Charge          ....    0
 Multiplicity           Mult            ....    1
 Number of Electrons    NEL             ....   84
 Basis Dimension        Dim             ....  186

ORBITAL ENERGIES
----------------

  NO   OCC          E(Eh)            E(eV)
   0   2.0000     -18.736858      -509.8558
   1   2.0000      -9.970001      -271.2975
   2   2.0000      -9.908315      -269.6189
   3   2.0000      -9.902442      -269.4591
   4   2.0000      -9.901932      -269.4453
   5   2.0000      -9.895014      -269.2570
   6   2.0000      -9.894965      -269.2557
   7   2.0000      -9.894894      -269.2538
   8   2.0000      -9.891454      -269.1601
   9   2.0000      -9.882651      -268.9206
  10   2.0000      -9.875042      -268.7136
  11   2.0000      -0.931707       -25.3530
  12   2.0000      -0.773023       -21.0350
  13   2.0000      -0.729237       -19.8436
  14   2.0000      -0.683630       -18.6025
  15   2.0000      -0.666553       -18.1378
  16   2.0000      -0.623535       -16.9672
  17   2.0000      -0.603646       -16.4260
  18   2.0000      -0.557652       -15.1745
  19   2.0000      -0.537340       -14.6218
  20   2.0000      -0.482702       -13.1350
  21   2.0000      -0.452455       -12.3119
  22   2.0000      -0.437811       -11.9135
  23   2.0000      -0.424226       -11.5438
  24   2.0000      -0.417007       -11.3473
  25   2.0000      -0.398384       -10.8406
  26   2.0000      -0.395195       -10.7538
  27   2.0000      -0.379075       -10.3152
  28   2.0000      -0.368589       -10.0298
  29   2.0000      -0.361626        -9.8403
  30   2.0000      -0.360109        -9.7991
  31   2.0000      -0.351478        -9.5642
  32   2.0000      -0.347119        -9.4456
  33   2.0000      -0.327609        -8.9147
  34   2.0000      -0.320599        -8.7239
  35   2.0000      -0.312590        -8.5060
  36   2.0000      -0.303579        -8.2608
  37   2.0000      -0.290868        -7.9149
  38   2.0000      -0.282580        -7.6894
  39   2.0000      -0.274343        -7.4653
  40   2.0000      -0.219809        -5.9813
  41   2.0000      -0.189308        -5.1513
  42   0.0000      -0.055184        -1.5016
  43   0.0000      -0.015260        -0.4152
  44   0.0000       0.021347         0.5809
  45   0.0000       0.043507         1.1839
  46   0.0000       0.059599         1.6218

MULLIKEN ATOMIC CHARGES
-----------------------
   0 C :   -0.272295
   1 C :   -0.118361
   2 H :    0.069620
   3 C :   -0.121305
   4 C :   -0.128262
   5 C :   -0.113116
   6 H :    0.055427
   7 C :   -0.084003
   8 C :   -0.016869
   9 O :   -0.167101
  10 C :   -0.061725
  11 C :   -0.234155
  12 C :   -0.244056
  13 H :    0.110330
  14 H :    0.109622
  15 H :    0.119502
  16 H :    0.083465
  17 H :    0.092314
  18 H :    0.087021
  19 H :    0.091941
  20 H :    0.109609
  21 H :    0.096347
  22 H :    0.083037
  23 H :    0.086024
  24 H :    0.104763
  25 H :    0.127084
  26 H :    0.135141
Sum of atomic charges:   -0.0000000

LOEWDIN ATOMIC CHARGES
----------------------
   0 C :   -0.321579
   1 C :   -0.168170
   2 H :    0.127584
   3 C :   -0.217343
   4 C :   -0.214251
   5 C :   -0.125025
   6 H :    0.123745
   7 C :   -0.232488
   8 C :    0.047255
   9 O :   -0.135716
  10 C :   -0.048742
  11 C :   -0.263064
  12 C :   -0.332694
  13 H :    0.125350
  14 H :    0.116270
  15 H :    0.127820
  16 H :    0.120480
  17 H :    0.120127
  18 H :    0.117797
  19 H :    0.125484
  20 H :    0.144644
  21 H :    0.133741
  22 H :    0.116579
  23 H :    0.116193
  24 H :    0.130889
  25 H :    0.132590
  26 H :    0.132523

  Mayer bond orders larger than 0.100000
B(  0-C ,  1-C ) :   1.0848 B(  0-C , 13-H ) :   0.9435 B(  0-C , 14-H ) :   0.9414
B(  0-C , 15-H ) :   0.9457 B(  1-C ,  2-H ) :   0.8692 B(  1-C ,  3-C ) :   1.0644
B(  1-C ,  8-C ) :   0.9667 B(  3-C ,  4-C ) :   1.1240 B(  3-C , 16-H ) :   0.9085
B(  3-C , 17-H ) :   0.9022 B(  4-C ,  5-C ) :   1.0684 B(  4-C , 18-H ) :   0.9112
B(  4-C , 19-H ) :   0.9099 B(  5-C ,  6-H ) :   0.8659 B(  5-C ,  7-C ) :   1.0378
B(  5-C , 10-C ) :   1.0313 B(  7-C ,  8-C ) :   1.0302 B(  7-C , 20-H ) :   0.8796
B(  7-C , 21-H ) :   0.8910 B(  8-C ,  9-O ) :   2.1553 B( 10-C , 11-C ) :   2.0271
B( 10-C , 12-C ) :   1.1191 B( 11-C , 22-H ) :   0.9122 B( 11-C , 23-H ) :   0.9094
B( 12-C , 24-H ) :   0.9272 B( 12-C , 25-H ) :   0.9140 B( 12-C , 26-H ) :   0.9116

Dispersion correction           -0.030065062
FINAL SINGLE POINT ENERGY      -464.824052388273

DIPOLE MOMENT
-------------

Method             : SCF
Type of density    : Electron Density
Multiplicity       :   1
Irrep              :   0
Energy             :  -464.9092828136145954 Eh
Relativity type    :
Basis              : AO
                                X                 Y                 Z
Electronic contribution:     -1.290526874      -4.930992944       2.182925631
Nuclear contribution   :      1.356829538       5.775502896      -2.811172913
                        -----------------------------------------
Total Dipole Moment    :      0.066302664       0.844509951      -0.628247283
                        -----------------------------------------
Magnitude (a.u.)       :      1.054650534
Magnitude (Debye)      :      2.680708619

Rotational constants in cm-1:             0.060167             0.028426             0.024562
Rotational constants in MHz :          1803.760345           852.204334           736.354619

                             ****ORCA TERMINATED NORMALLY****
TOTAL RUN TIME: 0 days 0 hours 0 minutes 17 seconds 524 msec
