                         Program Version 6.0.0  -   RELEASE  -
|  1> ! pbe def2-sv(p) def2/J RI DEFGRID1 loosescf d4 GCP(DFT/SV(P)) printgap
|  2> %output
|  3>     printlevel normal
|  4> end
|  5> * xyz 0 1
|  6> C 3.3657757453 -0.1112467482 0.0125894601
|  7> N 1.948393446 -0.3507840025 0.1781367354
|  8> C 1.6144890776 -1.5975028726 0.8274411511
|  9> C 1.0582159932 0.5649441328 -0.2251712558
| 10> O 1.3965266411 1.6537134519 -0.7039028143
| 11> C -0.3926474006 0.2267941784 -0.0916137278
| 12> C -0.957331323 -0.8038119858 -0.836384436
| 13> C -2.3172479368 -1.0478660436 -0.7609763204
| 14> C -3.119565508 -0.2703738718 0.0581909657
| 15> C -2.5624525334 0.7634265528 0.7925725412
| 16> C -1.2047947719 1.0190917135 0.7109112987
| 17> H 3.4955238939 0.8321916361 -0.5138224809
| 18> H 3.810962257 -0.9200312614 -0.567227147
| 19> H 3.8549338213 -0.0531280725 0.9857953304
| 20> H 1.8260205267 -2.437673468 0.163051228
| 21> H 0.565036295 -1.6145728624 1.1058509383
| 22> H 2.2236702342 -1.702291931 1.725946604
| 23> H -0.3323014391 -1.4035690741 -1.4807612977
| 24> H -2.7508330241 -1.8465808592 -1.3428489575
| 25> H -4.1791693759 -0.465399541 0.1190658263
| 26> H -3.185312977 1.3765891153 1.4256212043
| 27> H -0.7623785962 1.8323079824 1.2673489895
| 28> *
| 29>
| 30>                          ****END OF INPUT****

CARTESIAN COORDINATES (ANGSTROEM)
---------------------------------
  C      3.365776   -0.111247    0.012589
  N      1.948393   -0.350784    0.178137
  C      1.614489   -1.597503    0.827441
  C      1.058216    0.564944   -0.225171
  O      1.396527    1.653713   -0.703903
  C     -0.392647    0.226794   -0.091614
  C     -0.957331   -0.803812   -0.836384
  C     -2.317248   -1.047866   -0.760976
  C     -3.119566   -0.270374    0.058191
  C     -2.562453    0.763427    0.792573
  C     -1.204795    1.019092    0.710911
  H      3.495524    0.832192   -0.513822
  H      3.810962   -0.920031   -0.567227
  H      3.854934   -0.053128    0.985795
  H      1.826021   -2.437673    0.163051
  H      0.565036   -1.614573    1.105851
  H      2.223670   -1.702292    1.725947
  H     -0.332301   -1.403569   -1.480761
  H     -2.750833   -1.846581   -1.342849
  H     -4.179169   -0.465400    0.119066
  H     -3.185313    1.376589    1.425621
  H     -0.762379    1.832308    1.267349

 Total Charge           Charge          ....    0
 Multiplicity           Mult            ....    1
 Number of Electrons    NEL             ....   80
 Basis Dimension        Dim             ....  176

ORBITAL ENERGIES
----------------

  NO   OCC          E(Eh)            E(eV)
   0   2.0000     -18.706126      -509.0196
   1   2.0000     -14.028511      -381.7352
   2   2.0000      -9.977033      -271.4889
   3   2.0000      -9.925304      -270.0812
   4   2.0000      -9.915130      -269.8044
   5   2.0000      -9.906411      -269.5672
   6   2.0000      -9.900332      -269.4017
   7   2.0000      -9.898334      -269.3474
   8   2.0000      -9.897027      -269.3118
   9   2.0000      -9.896905      -269.3085
  10   2.0000      -9.896570      -269.2994
  11   2.0000      -0.927805       -25.2469
  12   2.0000      -0.848770       -23.0962
  13   2.0000      -0.781887       -21.2762
  14   2.0000      -0.691924       -18.8282
  15   2.0000      -0.675842       -18.3906
  16   2.0000      -0.654772       -17.8173
  17   2.0000      -0.634720       -17.2716
  18   2.0000      -0.554816       -15.0973
  19   2.0000      -0.548361       -14.9217
  20   2.0000      -0.498905       -13.5759
  21   2.0000      -0.480133       -13.0651
  22   2.0000      -0.441065       -12.0020
  23   2.0000      -0.436544       -11.8790
  24   2.0000      -0.420614       -11.4455
  25   2.0000      -0.409233       -11.1358
  26   2.0000      -0.394515       -10.7353
  27   2.0000      -0.380342       -10.3496
  28   2.0000      -0.366391        -9.9700
  29   2.0000      -0.365583        -9.9480
  30   2.0000      -0.351751        -9.5716
  31   2.0000      -0.343343        -9.3428
  32   2.0000      -0.330246        -8.9864
  33   2.0000      -0.323726        -8.8090
  34   2.0000      -0.311299        -8.4709
  35   2.0000      -0.302233        -8.2242
  36   2.0000      -0.237418        -6.4605
  37   2.0000      -0.235098        -6.3973
  38   2.0000      -0.204703        -5.5703
  39   2.0000      -0.190057        -5.1717
  40   0.0000      -0.047801        -1.3007
  41   0.0000      -0.039833        -1.0839
  42   0.0000       0.006364         0.1732
  43   0.0000       0.029104         0.7920
  44   0.0000       0.045455         1.2369

MULLIKEN ATOMIC CHARGES
-----------------------
   0 C :   -0.180147
   1 N :   -0.228463
   2 C :   -0.181063
   3 C :    0.134236
   4 O :   -0.238253
   5 C :   -0.016253
   6 C :   -0.085941
   7 C :   -0.047902
   8 C :   -0.045237
   9 C :   -0.048793
  10 C :   -0.070485
  11 H :    0.144346
  12 H :    0.106977
  13 H :    0.110347
  14 H :    0.107625
  15 H :    0.160927
  16 H :    0.109174
  17 H :    0.047563
  18 H :    0.054468
  19 H :    0.056152
  20 H :    0.056541
  21 H :    0.054184
Sum of atomic charges:    0.0000000

LOEWDIN ATOMIC CHARGES
----------------------
   0 C :   -0.254017
   1 N :   -0.044569
   2 C :   -0.250412
   3 C :    0.029596
   4 O :   -0.206987
   5 C :   -0.061483
   6 C :   -0.116992
   7 C :   -0.121100
   8 C :   -0.121737
   9 C :   -0.119285
  10 C :   -0.100858
  11 H :    0.137385
  12 H :    0.116314
  13 H :    0.116727
  14 H :    0.114198
  15 H :    0.136522
  16 H :    0.117245
  17 H :    0.124226
  18 H :    0.124721
  19 H :    0.124705
  20 H :    0.125667
  21 H :    0.130136

  Mayer bond orders larger than 0.100000
B(  0-C ,  1-N ) :   1.0014 B(  0-C , 11-H ) :   0.9277 B(  0-C , 12-H ) :   0.9511
B(  0-C , 13-H ) :   0.9524 B(  1-N ,  2-C ) :   1.0144 B(  1-N ,  3-C ) :   1.1997
B(  1-N ,  4-O ) :   0.1013 B(  2-C , 14-H ) :   0.9484 B(  2-C , 15-H ) :   0.9303
B(  2-C , 16-H ) :   0.9447 B(  3-C ,  4-O ) :   2.0294 B(  3-C ,  5-C ) :   0.9005
B(  5-C ,  6-C ) :   1.3775 B(  5-C , 10-C ) :   1.3992 B(  6-C ,  7-C ) :   1.3706
B(  6-C , 17-H ) :   0.9630 B(  7-C ,  8-C ) :   1.3808 B(  7-C , 18-H ) :   0.9638
B(  8-C ,  9-C ) :   1.3734 B(  8-C , 19-H ) :   0.9654 B(  9-C , 10-C ) :   1.3623
B(  9-C , 20-H ) :   0.9647 B( 10-C , 21-H ) :   0.9670

Dispersion correction           -0.024097621
FINAL SINGLE POINT ENERGY      -478.521580085286

DIPOLE MOMENT
-------------

Method             : SCF
Type of density    : Electron Density
Multiplicity       :   1
Irrep              :   0
Energy             :  -478.5878317818448977 Eh
Relativity type    :
Basis              : AO
                                X                 Y                 Z
Electronic contribution:     -4.285358401       4.688395875      -2.076127408
Nuclear contribution   :      4.315205093      -5.983730838       2.699999951
                        -----------------------------------------
Total Dipole Moment    :      0.029846692      -1.295334963       0.623872544
                        -----------------------------------------
Magnitude (a.u.)       :      1.438054394
Magnitude (Debye)      :      3.655243783

Rotational constants in cm-1:             0.081865             0.024001             0.021378
Rotational constants in MHz :          2454.240511           719.539980           640.888274

                             ****ORCA TERMINATED NORMALLY****
TOTAL RUN TIME: 0 days 0 hours 0 minutes 13 seconds 457 msec
