                         Program Version 6.0.0  -   RELEASE  -
|  1> ! r2scan-3c def2/J RI DEFGRID2 scfconv6 printgap
|  2> %output
|  3>     printlevel normal
|  4> end
|  5> * xyz 0 1
|  6> C -3.1842566882 -0.3313185408 0.0016782459
|  7> O -2.0887826761 0.5640969722 -0.0012517853
|  8> C -0.8239385468 0.049072946 -0.0007173111
|  9> C -0.5142107576 -1.3050173161 -0.0002682457
| 10> C 0.8160531021 -1.6959067187 0.0003035679
| 11> C 1.8362235003 -0.7687378547 0.0004460321
| 12> C 1.5259916653 0.5904775812 -5.62987e-05
| 13> C 0.2010927252 0.9938788361 -0.0006932712
| 14> O 2.5518269768 1.4811256276 0.0002693189
| 15> H -4.0695267245 0.3005423701 0.0023890201
| 16> H -3.1789642499 -0.9583958127 0.8969503117
| 17> H -3.1820481756 -0.9606763629 -0.8919480526
| 18> H -1.2868641866 -2.0554261188 -0.0004273973
| 19> H 1.0546761135 -2.748185689 0.000488053
| 20> H 2.8717995482 -1.0668581128 0.0009219903
| 21> H -0.0692157925 2.0388793377 -0.0010617333
| 22> H 2.2144271333 2.3897189623 2.8442e-05
| 23> *
| 24>
| 25>                          ****END OF INPUT****

CARTESIAN COORDINATES (ANGSTROEM)
---------------------------------
  C     -3.184257   -0.331319    0.001678
  O     -2.088783    0.564097   -0.001252
  C     -0.823939    0.049073   -0.000717
  C     -0.514211   -1.305017   -0.000268
  C      0.816053   -1.695907    0.000304
  C      1.836224   -0.768738    0.000446
  C      1.525992    0.590478   -0.000056
  C      0.201093    0.993879   -0.000693
  O      2.551827    1.481126    0.000269
  H     -4.069527    0.300542    0.002389
  H     -3.178964   -0.958396    0.896950
  H     -3.182048   -0.960676   -0.891948
  H     -1.286864   -2.055426   -0.000427
  H      1.054676   -2.748186    0.000488
  H      2.871800   -1.066858    0.000922
  H     -0.069216    2.038879   -0.001062
  H      2.214427    2.389719    0.000028

 Total Charge           Charge          ....    0
 Multiplicity           Mult            ....    1
 Number of Electrons    NEL             ....   66
 Basis Dimension        Dim             ....  221

ORBITAL ENERGIES
----------------

  NO   OCC          E(Eh)            E(eV)
   0   2.0000     -18.985889      -516.6323
   1   2.0000     -18.984683      -516.5995
   2   2.0000     -10.096807      -274.7481
   3   2.0000     -10.096422      -274.7376
   4   2.0000     -10.087178      -274.4861
   5   2.0000     -10.036515      -273.1075
   6   2.0000     -10.027866      -272.8721
   7   2.0000     -10.025841      -272.8170
   8   2.0000     -10.022158      -272.7168
   9   2.0000      -1.033338       -28.1185
  10   2.0000      -1.028707       -27.9926
  11   2.0000      -0.818898       -22.2834
  12   2.0000      -0.728702       -19.8290
  13   2.0000      -0.709006       -19.2930
  14   2.0000      -0.666153       -18.1270
  15   2.0000      -0.597362       -16.2550
  16   2.0000      -0.561579       -15.2813
  17   2.0000      -0.522636       -14.2216
  18   2.0000      -0.484119       -13.1735
  19   2.0000      -0.456416       -12.4197
  20   2.0000      -0.445788       -12.1305
  21   2.0000      -0.438503       -11.9323
  22   2.0000      -0.402613       -10.9557
  23   2.0000      -0.397764       -10.8237
  24   2.0000      -0.381741       -10.3877
  25   2.0000      -0.356408        -9.6983
  26   2.0000      -0.343886        -9.3576
  27   2.0000      -0.332148        -9.0382
  28   2.0000      -0.324056        -8.8180
  29   2.0000      -0.299738        -8.1563
  30   2.0000      -0.282831        -7.6962
  31   2.0000      -0.214011        -5.8235
  32   2.0000      -0.197969        -5.3870
  33   0.0000      -0.026234        -0.7139
  34   0.0000      -0.005789        -0.1575
  35   0.0000       0.057601         1.5674
  36   0.0000       0.064855         1.7648
  37   0.0000       0.086238         2.3467

MULLIKEN ATOMIC CHARGES
-----------------------
   0 C :   -0.332012
   1 O :   -0.194306
   2 C :    0.337133
   3 C :   -0.309333
   4 C :   -0.124517
   5 C :   -0.319401
   6 C :    0.473485
   7 C :   -0.495969
   8 O :   -0.410402
   9 H :    0.153653
  10 H :    0.153600
  11 H :    0.153529
  12 H :    0.147778
  13 H :    0.147029
  14 H :    0.157259
  15 H :    0.148571
  16 H :    0.313903
Sum of atomic charges:   -0.0000000

LOEWDIN ATOMIC CHARGES
----------------------
   0 C :   -0.055592
   1 O :   -0.685012
   2 C :    0.198598
   3 C :   -0.201033
   4 C :   -0.141176
   5 C :   -0.167392
   6 C :    0.189463
   7 C :   -0.143418
   8 O :   -0.493393
   9 H :    0.179827
  10 H :    0.165124
  11 H :    0.165058
  12 H :    0.174062
  13 H :    0.168831
  14 H :    0.179007
  15 H :    0.182102
  16 H :    0.284943

  Mayer bond orders larger than 0.100000
B(  0-C ,  1-O ) :   0.8593 B(  0-C ,  9-H ) :   0.9679 B(  0-C , 10-H ) :   0.9639
B(  0-C , 11-H ) :   0.9639 B(  1-O ,  2-C ) :   1.0248 B(  2-C ,  3-C ) :   1.3878
B(  2-C ,  7-C ) :   1.4534 B(  3-C ,  4-C ) :   1.3885 B(  3-C , 12-H ) :   0.9247
B(  4-C ,  5-C ) :   1.4292 B(  4-C , 13-H ) :   0.9528 B(  5-C ,  6-C ) :   1.3970
B(  5-C , 14-H ) :   0.9424 B(  6-C ,  7-C ) :   1.2911 B(  6-C ,  8-O ) :   0.9091
B(  7-C , 15-H ) :   0.9133 B(  8-O , 16-H ) :   0.8822

Dispersion correction           -0.005300551
FINAL SINGLE POINT ENERGY      -421.902860753106

DIPOLE MOMENT
-------------

Method             : SCF
Type of density    : Electron Density
Multiplicity       :   1
Irrep              :   0
Energy             :  -421.9056829482516378 Eh
Relativity type    :
Basis              : AO
                                X                 Y                 Z
Electronic contribution:      4.614703477       2.857236130      -0.005765839
Nuclear contribution   :     -5.289784307      -2.840880804       0.006872211
                        -----------------------------------------
Total Dipole Moment    :     -0.675080830       0.016355326       0.001106372
                        -----------------------------------------
Magnitude (a.u.)       :      0.675279829
Magnitude (Debye)      :      1.716424919

Rotational constants in cm-1:             0.121758             0.037750             0.028975
Rotational constants in MHz :          3650.213087          1131.705671           868.662274

                             ****ORCA TERMINATED NORMALLY****
TOTAL RUN TIME: 0 days 0 hours 0 minutes 23 seconds 128 msec
