                         Program Version 6.0.0  -   RELEASE  -
|  1> ! r2scan-3c def2/J RI DEFGRID2 scfconv6 printgap
|  2> %output
|  3>     printlevel normal
|  4> end
|  5> %cpcm
|  6>     smd true
|  7>     smdsolvent "water"
|  8> end
|  9> * xyz 0 1
| 10> C -3.1842566882 -0.3313185408 0.0016782459
| 11> O -2.0887826761 0.5640969722 -0.0012517853
| 12> C -0.8239385468 0.049072946 -0.0007173111
| 13> C -0.5142107576 -1.3050173161 -0.0002682457
| 14> C 0.8160531021 -1.6959067187 0.0003035679
| 15> C 1.8362235003 -0.7687378547 0.0004460321
| 16> C 1.5259916653 0.5904775812 -5.62987e-05
| 17> C 0.2010927252 0.9938788361 -0.0006932712
| 18> O 2.5518269768 1.4811256276 0.0002693189
| 19> H -4.0695267245 0.3005423701 0.0023890201
| 20> H -3.1789642499 -0.9583958127 0.8969503117
| 21> H -3.1820481756 -0.9606763629 -0.8919480526
| 22> H -1.2868641866 -2.0554261188 -0.0004273973
| 23> H 1.0546761135 -2.748185689 0.000488053
| 24> H 2.8717995482 -1.0668581128 0.0009219903
| 25> H -0.0692157925 2.0388793377 -0.0010617333
| 26> H 2.2144271333 2.3897189623 2.8442e-05
| 27> *
| 28>
| 29>                          ****END OF INPUT****

CARTESIAN COORDINATES (ANGSTROEM)
---------------------------------
  C     -3.184257   -0.331319    0.001678
  O     -2.088783    0.564097   -0.001252
  C     -0.823939    0.049073   -0.000717
  C     -0.514211   -1.305017   -0.000268
  C      0.816053   -1.695907    0.000304
  C      1.836224   -0.768738    0.000446
  C      1.525992    0.590478   -0.000056
  C      0.201093    0.993879   -0.000693
  O      2.551827    1.481126    0.000269
  H     -4.069527    0.300542    0.002389
  H     -3.178964   -0.958396    0.896950
  H     -3.182048   -0.960676   -0.891948
  H     -1.286864   -2.055426   -0.000427
  H      1.054676   -2.748186    0.000488
  H      2.871800   -1.066858    0.000922
  H     -0.069216    2.038879   -0.001062
  H      2.214427    2.389719    0.000028

 Total Charge           Charge          ....    0
 Multiplicity           Mult            ....    1
 Number of Electrons    NEL             ....   66
 Basis Dimension        Dim             ....  221

ORBITAL ENERGIES
----------------

  NO   OCC          E(Eh)            E(eV)
   0   2.0000     -18.988122      -516.6931
   1   2.0000     -18.984299      -516.5890
   2   2.0000     -10.099847      -274.8308
   3   2.0000     -10.098906      -274.8052
   4   2.0000     -10.072624      -274.0900
   5   2.0000     -10.037685      -273.1393
   6   2.0000     -10.028313      -272.8843
   7   2.0000     -10.026057      -272.8229
   8   2.0000     -10.025002      -272.7942
   9   2.0000      -1.034743       -28.1568
  10   2.0000      -1.028449       -27.9855
  11   2.0000      -0.822026       -22.3685
  12   2.0000      -0.728768       -19.8308
  13   2.0000      -0.710342       -19.3294
  14   2.0000      -0.660594       -17.9757
  15   2.0000      -0.596751       -16.2384
  16   2.0000      -0.559782       -15.2324
  17   2.0000      -0.519472       -14.1355
  18   2.0000      -0.482416       -13.1272
  19   2.0000      -0.454681       -12.3725
  20   2.0000      -0.445751       -12.1295
  21   2.0000      -0.432756       -11.7759
  22   2.0000      -0.398398       -10.8410
  23   2.0000      -0.394627       -10.7383
  24   2.0000      -0.385437       -10.4883
  25   2.0000      -0.356254        -9.6942
  26   2.0000      -0.340407        -9.2630
  27   2.0000      -0.331950        -9.0328
  28   2.0000      -0.326006        -8.8711
  29   2.0000      -0.299105        -8.1390
  30   2.0000      -0.286035        -7.7834
  31   2.0000      -0.218085        -5.9344
  32   2.0000      -0.202859        -5.5201
  33   0.0000      -0.030328        -0.8253
  34   0.0000      -0.010759        -0.2928
  35   0.0000       0.069590         1.8936
  36   0.0000       0.081629         2.2212
  37   0.0000       0.094948         2.5837

MULLIKEN ATOMIC CHARGES
-----------------------
   0 C :   -0.337217
   1 O :   -0.233403
   2 C :    0.340648
   3 C :   -0.318779
   4 C :   -0.175640
   5 C :   -0.359428
   6 C :    0.405797
   7 C :   -0.497818
   8 O :   -0.455184
   9 H :    0.173000
  10 H :    0.171475
  11 H :    0.171454
  12 H :    0.185531
  13 H :    0.181789
  14 H :    0.184657
  15 H :    0.190181
  16 H :    0.372937
Sum of atomic charges:   -0.0000000

LOEWDIN ATOMIC CHARGES
----------------------
   0 C :   -0.051300
   1 O :   -0.709931
   2 C :    0.185290
   3 C :   -0.203954
   4 C :   -0.152004
   5 C :   -0.186309
   6 C :    0.177006
   7 C :   -0.144597
   8 O :   -0.509506
   9 H :    0.187265
  10 H :    0.174359
  11 H :    0.174309
  12 H :    0.187970
  13 H :    0.180710
  14 H :    0.186566
  15 H :    0.197362
  16 H :    0.306764

  Mayer bond orders larger than 0.100000
B(  0-C ,  1-O ) :   0.8514 B(  0-C ,  9-H ) :   0.9598 B(  0-C , 10-H ) :   0.9564
B(  0-C , 11-H ) :   0.9564 B(  1-O ,  2-C ) :   1.0068 B(  2-C ,  3-C ) :   1.3564
B(  2-C ,  7-C ) :   1.3669 B(  3-C ,  4-C ) :   1.3609 B(  3-C , 12-H ) :   0.9339
B(  4-C ,  5-C ) :   1.4018 B(  4-C , 13-H ) :   0.9632 B(  5-C ,  6-C ) :   1.3352
B(  5-C , 14-H ) :   0.9534 B(  6-C ,  7-C ) :   1.3311 B(  6-C ,  8-O ) :   0.9166
B(  7-C , 15-H ) :   0.9328 B(  8-O , 16-H ) :   0.8505

Dispersion correction           -0.005300551
FINAL SINGLE POINT ENERGY      -421.913254790094

DIPOLE MOMENT
-------------

Method             : SCF
Type of density    : Electron Density
Multiplicity       :   1
Irrep              :   0
Energy             :  -421.9160769852401813 Eh
Relativity type    :
Basis              : AO
                                X                 Y                 Z
Electronic contribution:      4.369127180       2.838772563      -0.005383232
Nuclear contribution   :     -5.289784307      -2.840880804       0.006872211
                        -----------------------------------------
Total Dipole Moment    :     -0.920657128      -0.002108241       0.001488979
                        -----------------------------------------
Magnitude (a.u.)       :      0.920660746
Magnitude (Debye)      :      2.340133642

Rotational constants in cm-1:             0.121758             0.037750             0.028975
Rotational constants in MHz :          3650.213087          1131.705671           868.662274

                             ****ORCA TERMINATED NORMALLY****
TOTAL RUN TIME: 0 days 0 hours 0 minutes 27 seconds 391 msec
