                         Program Version 6.0.0  -   RELEASE  -
|  1> ! pbe def2-sv(p) def2/J RI DEFGRID1 loosescf d4 GCP(DFT/SV(P)) printgap
|  2> %output
|  3>     printlevel normal
|  4> end
|  5> * xyz 0 1
|  6> C 1.9386562464 -0.1337487722 -1.67108e-05
|  7> C 0.560954359 0.5180786336 3.18013e-05
|  8> C -0.5609547099 -0.5180830027 2.36322e-05
|  9> C -1.9386512516 0.1337543685 -2.35376e-05
| 10> H 2.0641605656 -0.7583267309 -0.8817410809
| 11> H 2.7200487004 0.6222539577 -8.00587e-05
| 12> H 2.0641279456 -0.7583745255 0.8817113734
| 13> H 0.460802487 1.155431679 0.8816617792
| 14> H 0.4608926061 1.1554058536 -0.8816125387
| 15> H -0.4607935349 -1.1554341804 -0.8815899726
| 16> H -0.4609135747 -1.1554453123 0.8816466944
| 17> H -2.0642492034 0.7584021692 0.8816490193
| 18> H -2.7200216036 -0.6222476349 -6.34148e-05
| 19> H -2.0641097253 0.7583201014 -0.8817627472
| 20> *
| 21>
| 22>                          ****END OF INPUT****

CARTESIAN COORDINATES (ANGSTROEM)
---------------------------------
  C      1.938656   -0.133749   -0.000017
  C      0.560954    0.518079    0.000032
  C     -0.560955   -0.518083    0.000024
  C     -1.938651    0.133754   -0.000024
  H      2.064161   -0.758327   -0.881741
  H      2.720049    0.622254   -0.000080
  H      2.064128   -0.758375    0.881711
  H      0.460802    1.155432    0.881662
  H      0.460893    1.155406   -0.881613
  H     -0.460794   -1.155434   -0.881590
  H     -0.460914   -1.155445    0.881647
  H     -2.064249    0.758402    0.881649
  H     -2.720022   -0.622248   -0.000063
  H     -2.064110    0.758320   -0.881763

 Total Charge           Charge          ....    0
 Multiplicity           Mult            ....    1
 Number of Electrons    NEL             ....   34
 Basis Dimension        Dim             ....   76

ORBITAL ENERGIES
----------------

  NO   OCC          E(Eh)            E(eV)
   0   2.0000      -9.878961      -268.8202
   1   2.0000      -9.878918      -268.8190
   2   2.0000      -9.869145      -268.5531
   3   2.0000      -9.869139      -268.5529
   4   2.0000      -0.713647       -19.4193
   5   2.0000      -0.646494       -17.5920
   6   2.0000      -0.556857       -15.1528
   7   2.0000      -0.509611       -13.8672
   8   2.0000      -0.420425       -11.4403
   9   2.0000      -0.379109       -10.3161
  10   2.0000      -0.369973       -10.0675
  11   2.0000      -0.364130        -9.9085
  12   2.0000      -0.322537        -8.7767
  13   2.0000      -0.305498        -8.3130
  14   2.0000      -0.288986        -7.8637
  15   2.0000      -0.280750        -7.6396
  16   2.0000      -0.277306        -7.5459
  17   0.0000       0.040149         1.0925
  18   0.0000       0.064888         1.7657
  19   0.0000       0.075819         2.0631
  20   0.0000       0.082628         2.2484
  21   0.0000       0.118333         3.2200

MULLIKEN ATOMIC CHARGES
-----------------------
   0 C :   -0.258952
   1 C :   -0.200442
   2 C :   -0.200436
   3 C :   -0.258946
   4 H :    0.096004
   5 H :    0.100692
   6 H :    0.096008
   7 H :    0.083348
   8 H :    0.083342
   9 H :    0.083341
  10 H :    0.083344
  11 H :    0.096007
  12 H :    0.100688
  13 H :    0.096001
Sum of atomic charges:   -0.0000000

LOEWDIN ATOMIC CHARGES
----------------------
   0 C :   -0.340458
   1 C :   -0.235476
   2 C :   -0.235477
   3 C :   -0.340462
   4 H :    0.116140
   5 H :    0.117803
   6 H :    0.116140
   7 H :    0.112926
   8 H :    0.112927
   9 H :    0.112927
  10 H :    0.112926
  11 H :    0.116141
  12 H :    0.117804
  13 H :    0.116140

  Mayer bond orders larger than 0.100000
B(  0-C ,  1-C ) :   1.1551 B(  0-C ,  4-H ) :   0.9551 B(  0-C ,  5-H ) :   0.9537
B(  0-C ,  6-H ) :   0.9551 B(  1-C ,  2-C ) :   1.1315 B(  1-C ,  7-H ) :   0.9294
B(  1-C ,  8-H ) :   0.9294 B(  2-C ,  3-C ) :   1.1551 B(  2-C ,  9-H ) :   0.9294
B(  2-C , 10-H ) :   0.9294 B(  3-C , 11-H ) :   0.9551 B(  3-C , 12-H ) :   0.9537
B(  3-C , 13-H ) :   0.9551

Dispersion correction           -0.007864704
FINAL SINGLE POINT ENERGY      -158.024523069590

DIPOLE MOMENT
-------------

Method             : SCF
Type of density    : Electron Density
Multiplicity       :   1
Irrep              :   0
Energy             :  -158.0725291428898629 Eh
Relativity type    :
Basis              : AO
                                X                 Y                 Z
Electronic contribution:      0.000040629       0.000010384       0.000135909
Nuclear contribution   :     -0.000051916      -0.000013719      -0.000169759
                        -----------------------------------------
Total Dipole Moment    :     -0.000011286      -0.000003335      -0.000033850
                        -----------------------------------------
Magnitude (a.u.)       :      0.000035838
Magnitude (Debye)      :      0.000091092

Rotational constants in cm-1:             0.779431             0.122992             0.115342
Rotational constants in MHz :         23366.759281          3687.217286          3457.863476

                             ****ORCA TERMINATED NORMALLY****
TOTAL RUN TIME: 0 days 0 hours 0 minutes 5 seconds 305 msec
