                         Program Version 6.0.0  -   RELEASE  -
|  1> ! pbe def2-sv(p) def2/J RI DEFGRID1 loosescf d4 GCP(DFT/SV(P)) printgap
|  2> %output
|  3>     printlevel normal
|  4> end
|  5> * xyz 0 1
|  6> C 1.6761129572 -1.0988963838 0.0026085799
|  7> C 1.0519199755 0.2916506087 -0.0036637877
|  8> C -0.457749381 0.3475120025 -0.0004220997
|  9> O -1.0585211827 1.4018497048 -0.0005912637
| 10> O -1.1343607995 -0.7936895301 0.0018381662
| 11> H 2.7580358364 -0.998718467 0.0019829499
| 12> H 1.3997204119 -1.6534990503 0.8966283438
| 13> H 1.3998454319 -1.6617413103 -0.8862729663
| 14> H 1.3802883699 0.8654358851 0.8659723022
| 15> H 1.3762994774 0.8552583274 -0.8814124232
| 16> H -0.5587429719 -1.582040296 0.0009130264
| 17> *
| 18>
| 19>                          ****END OF INPUT****

CARTESIAN COORDINATES (ANGSTROEM)
---------------------------------
  C      1.676113   -1.098896    0.002609
  C      1.051920    0.291651   -0.003664
  C     -0.457749    0.347512   -0.000422
  O     -1.058521    1.401850   -0.000591
  O     -1.134361   -0.793690    0.001838
  H      2.758036   -0.998718    0.001983
  H      1.399720   -1.653499    0.896628
  H      1.399845   -1.661741   -0.886273
  H      1.380288    0.865436    0.865972
  H      1.376299    0.855258   -0.881412
  H     -0.558743   -1.582040    0.000913

 Total Charge           Charge          ....    0
 Multiplicity           Mult            ....    1
 Number of Electrons    NEL             ....   40
 Basis Dimension        Dim             ....   82

ORBITAL ENERGIES
----------------

  NO   OCC          E(Eh)            E(eV)
   0   2.0000     -18.801219      -511.6072
   1   2.0000     -18.723315      -509.4873
   2   2.0000     -10.011094      -272.4157
   3   2.0000      -9.914702      -269.7928
   4   2.0000      -9.910426      -269.6764
   5   2.0000      -1.004488       -27.3335
   6   2.0000      -0.907695       -24.6996
   7   2.0000      -0.722722       -19.6663
   8   2.0000      -0.606495       -16.5036
   9   2.0000      -0.566023       -15.4023
  10   2.0000      -0.469380       -12.7725
  11   2.0000      -0.443378       -12.0649
  12   2.0000      -0.393388       -10.7046
  13   2.0000      -0.381790       -10.3890
  14   2.0000      -0.365111        -9.9352
  15   2.0000      -0.348908        -9.4943
  16   2.0000      -0.332183        -9.0392
  17   2.0000      -0.318800        -8.6750
  18   2.0000      -0.262843        -7.1523
  19   2.0000      -0.212120        -5.7721
  20   0.0000      -0.020595        -0.5604
  21   0.0000       0.004482         0.1220
  22   0.0000       0.056729         1.5437
  23   0.0000       0.076053         2.0695
  24   0.0000       0.080540         2.1916

MULLIKEN ATOMIC CHARGES
-----------------------
   0 C :   -0.354453
   1 C :   -0.220301
   2 C :    0.095487
   3 O :   -0.191503
   4 O :   -0.275147
   5 H :    0.124433
   6 H :    0.122235
   7 H :    0.122042
   8 H :    0.133395
   9 H :    0.133517
  10 H :    0.310295
Sum of atomic charges:    0.0000000

LOEWDIN ATOMIC CHARGES
----------------------
   0 C :   -0.363590
   1 C :   -0.273483
   2 C :    0.019864
   3 O :   -0.160386
   4 O :   -0.197117
   5 H :    0.136803
   6 H :    0.122435
   7 H :    0.122338
   8 H :    0.148865
   9 H :    0.148904
  10 H :    0.295367

  Mayer bond orders larger than 0.100000
B(  0-C ,  1-C ) :   1.1125 B(  0-C ,  5-H ) :   0.9352 B(  0-C ,  6-H ) :   0.9449
B(  0-C ,  7-H ) :   0.9446 B(  1-C ,  2-C ) :   1.0011 B(  1-C ,  8-H ) :   0.9053
B(  1-C ,  9-H ) :   0.9052 B(  2-C ,  3-O ) :   2.1171 B(  2-C ,  4-O ) :   1.2520
B(  4-O , 10-H ) :   0.8147

Dispersion correction           -0.006601262
FINAL SINGLE POINT ENERGY      -267.810516010845

DIPOLE MOMENT
-------------

Method             : SCF
Type of density    : Electron Density
Multiplicity       :   1
Irrep              :   0
Energy             :  -267.8550336498885827 Eh
Relativity type    :
Basis              : AO
                                X                 Y                 Z
Electronic contribution:     -5.941883703       2.747701928       0.000265044
Nuclear contribution   :      7.243397145      -3.908131354      -0.002034931
                        -----------------------------------------
Total Dipole Moment    :      1.301513442      -1.160429426      -0.001769887
                        -----------------------------------------
Magnitude (a.u.)       :      1.743713516
Magnitude (Debye)      :      4.432167527

Rotational constants in cm-1:             0.327192             0.132069             0.097509
Rotational constants in MHz :          9808.954884          3959.340504          2923.260724

                             ****ORCA TERMINATED NORMALLY****
TOTAL RUN TIME: 0 days 0 hours 0 minutes 5 seconds 566 msec
