                         Program Version 6.0.0  -   RELEASE  -
|  1> ! wb97x-v def2-tzvp def2/J RIJCOSX DEFGRID2 scfconv7 GCP(DFT/TZ) printgap
|  2> %output
|  3>     printlevel normal
|  4> end
|  5> * xyz 0 1
|  6> C -1.64951542440405 -1.3927321653115146 0.6199785899900634
|  7> C -1.4364711111437343 0.11490308653594665 0.4694943981819176
|  8> C -2.7395969099460777 0.7687766705081099 -0.00286343485537569
|  9> C -0.31070651246400044 0.5074798188598422 -0.5023311440256077
| 10> C 1.1534065566393426 0.1011936747658874 -0.20145709998226186
| 11> C 2.059922210935238 1.0028784878777997 -1.0544837903186197
| 12> C 1.4948293610536103 0.3171344986980253 1.2766997592311058
| 13> C 1.4469096808391237 -1.353677500135348 -0.5955711431172709
| 14> H -2.557774000398454 -1.591129839641692 1.200501673925192
| 15> H -1.7687695703063677 -1.8685827603566258 -0.3613878888695929
| 16> H -0.82010265162212 -1.8817715599684066 1.1363373805548846
| 17> H -1.1970204501034776 0.5273661962233162 1.459086206687786
| 18> H -2.6332023712249555 1.8554363016387567 -0.09182682131748011
| 19> H -3.0306228473525736 0.37794645561936946 -0.9859441103580112
| 20> H -3.5592556986363633 0.5640353612169481 0.6944758576569604
| 21> H -0.5712078362864751 0.13566128497600172 -1.5047319877219676
| 22> H -0.3305252671161681 1.6041234861016418 -0.5706633275832572
| 23> H 1.94740565129408 2.055578869814613 -0.7709943226607014
| 24> H 1.811167482290269 0.910876968404014 -2.118620162031144
| 25> H 3.113328131871279 0.7268861651895144 -0.9289309173885815
| 26> H 1.2734831659641597 1.345682275153723 1.5854647249342386
| 27> H 2.561825275609101 0.13551759873863534 1.450928795310021
| 28> H 0.9310160536031985 -0.361085000622032 1.9258427219060885
| 29> H 1.2030856047214584 -1.5255036260877124 -1.6505557226841159
| 30> H 0.88307135072432 -2.0724279391267264 0.002799899153353837
| 31> H 2.5124444456211146 -1.5731665152603 -0.45783383680247886
| 32> *
| 33>
| 34>                          ****END OF INPUT****

CARTESIAN COORDINATES (ANGSTROEM)
---------------------------------
  C     -1.649515   -1.392732    0.619979
  C     -1.436471    0.114903    0.469494
  C     -2.739597    0.768777   -0.002863
  C     -0.310707    0.507480   -0.502331
  C      1.153407    0.101194   -0.201457
  C      2.059922    1.002878   -1.054484
  C      1.494829    0.317134    1.276700
  C      1.446910   -1.353678   -0.595571
  H     -2.557774   -1.591130    1.200502
  H     -1.768770   -1.868583   -0.361388
  H     -0.820103   -1.881772    1.136337
  H     -1.197020    0.527366    1.459086
  H     -2.633202    1.855436   -0.091827
  H     -3.030623    0.377946   -0.985944
  H     -3.559256    0.564035    0.694476
  H     -0.571208    0.135661   -1.504732
  H     -0.330525    1.604123   -0.570663
  H      1.947406    2.055579   -0.770994
  H      1.811167    0.910877   -2.118620
  H      3.113328    0.726886   -0.928931
  H      1.273483    1.345682    1.585465
  H      2.561825    0.135518    1.450929
  H      0.931016   -0.361085    1.925843
  H      1.203086   -1.525504   -1.650556
  H      0.883071   -2.072428    0.002800
  H      2.512444   -1.573167   -0.457834

 Total Charge           Charge          ....    0
 Multiplicity           Mult            ....    1
 Number of Electrons    NEL             ....   66
 Basis Dimension        Dim             ....  356

ORBITAL ENERGIES
----------------

  NO   OCC          E(Eh)            E(eV)
   0   2.0000     -12.054158      -328.0103
   1   2.0000     -12.045741      -327.7813
   2   2.0000     -12.034134      -327.4654
   3   2.0000     -12.030348      -327.3624
   4   2.0000     -12.030001      -327.3530
   5   2.0000     -12.029963      -327.3519
   6   2.0000     -12.029008      -327.3259
   7   2.0000     -12.027645      -327.2889
   8   2.0000      -1.335529       -36.3416
   9   2.0000      -1.292936       -35.1826
  10   2.0000      -1.178498       -32.0686
  11   2.0000      -1.174648       -31.9638
  12   2.0000      -1.169317       -31.8187
  13   2.0000      -1.167589       -31.7717
  14   2.0000      -1.046125       -28.4665
  15   2.0000      -0.993201       -27.0264
  16   2.0000      -0.901659       -24.5354
  17   2.0000      -0.887069       -24.1384
  18   2.0000      -0.882355       -24.0101
  19   2.0000      -0.865609       -23.5544
  20   2.0000      -0.844457       -22.9788
  21   2.0000      -0.833196       -22.6724
  22   2.0000      -0.816492       -22.2179
  23   2.0000      -0.810591       -22.0573
  24   2.0000      -0.804189       -21.8831
  25   2.0000      -0.791615       -21.5409
  26   2.0000      -0.790955       -21.5230
  27   2.0000      -0.783946       -21.3322
  28   2.0000      -0.773642       -21.0519
  29   2.0000      -0.764277       -20.7970
  30   2.0000      -0.750833       -20.4312
  31   2.0000      -0.749095       -20.3839
  32   2.0000      -0.738511       -20.0959
  33   0.0000      -0.055164        -1.5011
  34   0.0000      -0.035670        -0.9706
  35   0.0000      -0.030095        -0.8189
  36   0.0000      -0.021783        -0.5927
  37   0.0000      -0.019448        -0.5292

MULLIKEN ATOMIC CHARGES
-----------------------
   0 C :   -0.364698
   1 C :    0.002608
   2 C :   -0.343941
   3 C :   -0.261536
   4 C :    0.137552
   5 C :   -0.355737
   6 C :   -0.382375
   7 C :   -0.354195
   8 H :    0.112313
   9 H :    0.110299
  10 H :    0.104800
  11 H :    0.078409
  12 H :    0.108373
  13 H :    0.103503
  14 H :    0.111902
  15 H :    0.098202
  16 H :    0.095948
  17 H :    0.109505
  18 H :    0.110946
  19 H :    0.110797
  20 H :    0.114661
  21 H :    0.113754
  22 H :    0.114195
  23 H :    0.109640
  24 H :    0.105868
  25 H :    0.109204
Sum of atomic charges:    0.0000000

LOEWDIN ATOMIC CHARGES
----------------------
   0 C :   -0.283235
   1 C :   -0.307504
   2 C :   -0.282756
   3 C :   -0.201383
   4 C :   -0.354194
   5 C :   -0.261618
   6 C :   -0.259297
   7 C :   -0.259269
   8 H :    0.118806
   9 H :    0.119937
  10 H :    0.111429
  11 H :    0.146658
  12 H :    0.116555
  13 H :    0.118735
  14 H :    0.116576
  15 H :    0.139861
  16 H :    0.143480
  17 H :    0.118386
  18 H :    0.120840
  19 H :    0.118858
  20 H :    0.121521
  21 H :    0.121263
  22 H :    0.119201
  23 H :    0.120499
  24 H :    0.116231
  25 H :    0.120420

  Mayer bond orders larger than 0.100000
B(  0-C ,  1-C ) :   0.9734 B(  0-C ,  8-H ) :   0.9824 B(  0-C ,  9-H ) :   0.9731
B(  0-C , 10-H ) :   0.9832 B(  1-C ,  2-C ) :   0.9768 B(  1-C ,  3-C ) :   0.9753
B(  1-C , 11-H ) :   0.9684 B(  2-C , 12-H ) :   0.9836 B(  2-C , 13-H ) :   0.9769
B(  2-C , 14-H ) :   0.9865 B(  3-C ,  4-C ) :   0.9340 B(  3-C , 15-H ) :   0.9725
B(  3-C , 16-H ) :   0.9783 B(  4-C ,  5-C ) :   0.9745 B(  4-C ,  6-C ) :   0.9534
B(  4-C ,  7-C ) :   0.9862 B(  5-C , 17-H ) :   0.9758 B(  5-C , 18-H ) :   0.9787
B(  5-C , 19-H ) :   0.9830 B(  6-C , 20-H ) :   0.9818 B(  6-C , 21-H ) :   0.9777
B(  6-C , 22-H ) :   0.9780 B(  7-C , 23-H ) :   0.9803 B(  7-C , 24-H ) :   0.9729
B(  7-C , 25-H ) :   0.9812

FINAL SINGLE POINT ENERGY      -315.713276301628

DIPOLE MOMENT
-------------

Method             : SCF
Type of density    : Electron Density
Multiplicity       :   1
Irrep              :   0
Energy             :  -315.7326765345276272 Eh
Relativity type    :
Basis              : AO
                                X                 Y                 Z
Electronic contribution:      0.209444575       0.638959920       0.046742321
Nuclear contribution   :     -0.216154250      -0.617880749      -0.005800843
                        -----------------------------------------
Total Dipole Moment    :     -0.006709675       0.021079172       0.040941478
                        -----------------------------------------
Magnitude (a.u.)       :      0.046535533
Magnitude (Debye)      :      0.118283925

Rotational constants in cm-1:             0.099208             0.040706             0.036907
Rotational constants in MHz :          2974.176655          1220.328173          1106.449445

                             ****ORCA TERMINATED NORMALLY****
TOTAL RUN TIME: 0 days 0 hours 4 minutes 12 seconds 92 msec
