                         Program Version 6.0.0  -   RELEASE  -
|  1> ! wb97x-v def2-tzvp def2/J RIJCOSX DEFGRID2 scfconv7 GCP(DFT/TZ) printgap
|  2> %output
|  3>     printlevel normal
|  4> end
|  5> %cpcm
|  6>     smd true
|  7>     smdsolvent "water"
|  8> end
|  9> * xyz 0 1
| 10> C -1.64951542440405 -1.3927321653115146 0.6199785899900634
| 11> C -1.4364711111437343 0.11490308653594665 0.4694943981819176
| 12> C -2.7395969099460777 0.7687766705081099 -0.00286343485537569
| 13> C -0.31070651246400044 0.5074798188598422 -0.5023311440256077
| 14> C 1.1534065566393426 0.1011936747658874 -0.20145709998226186
| 15> C 2.059922210935238 1.0028784878777997 -1.0544837903186197
| 16> C 1.4948293610536103 0.3171344986980253 1.2766997592311058
| 17> C 1.4469096808391237 -1.353677500135348 -0.5955711431172709
| 18> H -2.557774000398454 -1.591129839641692 1.200501673925192
| 19> H -1.7687695703063677 -1.8685827603566258 -0.3613878888695929
| 20> H -0.82010265162212 -1.8817715599684066 1.1363373805548846
| 21> H -1.1970204501034776 0.5273661962233162 1.459086206687786
| 22> H -2.6332023712249555 1.8554363016387567 -0.09182682131748011
| 23> H -3.0306228473525736 0.37794645561936946 -0.9859441103580112
| 24> H -3.5592556986363633 0.5640353612169481 0.6944758576569604
| 25> H -0.5712078362864751 0.13566128497600172 -1.5047319877219676
| 26> H -0.3305252671161681 1.6041234861016418 -0.5706633275832572
| 27> H 1.94740565129408 2.055578869814613 -0.7709943226607014
| 28> H 1.811167482290269 0.910876968404014 -2.118620162031144
| 29> H 3.113328131871279 0.7268861651895144 -0.9289309173885815
| 30> H 1.2734831659641597 1.345682275153723 1.5854647249342386
| 31> H 2.561825275609101 0.13551759873863534 1.450928795310021
| 32> H 0.9310160536031985 -0.361085000622032 1.9258427219060885
| 33> H 1.2030856047214584 -1.5255036260877124 -1.6505557226841159
| 34> H 0.88307135072432 -2.0724279391267264 0.002799899153353837
| 35> H 2.5124444456211146 -1.5731665152603 -0.45783383680247886
| 36> *
| 37>
| 38>                          ****END OF INPUT****

CARTESIAN COORDINATES (ANGSTROEM)
---------------------------------
  C     -1.649515   -1.392732    0.619979
  C     -1.436471    0.114903    0.469494
  C     -2.739597    0.768777   -0.002863
  C     -0.310707    0.507480   -0.502331
  C      1.153407    0.101194   -0.201457
  C      2.059922    1.002878   -1.054484
  C      1.494829    0.317134    1.276700
  C      1.446910   -1.353678   -0.595571
  H     -2.557774   -1.591130    1.200502
  H     -1.768770   -1.868583   -0.361388
  H     -0.820103   -1.881772    1.136337
  H     -1.197020    0.527366    1.459086
  H     -2.633202    1.855436   -0.091827
  H     -3.030623    0.377946   -0.985944
  H     -3.559256    0.564035    0.694476
  H     -0.571208    0.135661   -1.504732
  H     -0.330525    1.604123   -0.570663
  H      1.947406    2.055579   -0.770994
  H      1.811167    0.910877   -2.118620
  H      3.113328    0.726886   -0.928931
  H      1.273483    1.345682    1.585465
  H      2.561825    0.135518    1.450929
  H      0.931016   -0.361085    1.925843
  H      1.203086   -1.525504   -1.650556
  H      0.883071   -2.072428    0.002800
  H      2.512444   -1.573167   -0.457834

 Total Charge           Charge          ....    0
 Multiplicity           Mult            ....    1
 Number of Electrons    NEL             ....   66
 Basis Dimension        Dim             ....  356

ORBITAL ENERGIES
----------------

  NO   OCC          E(Eh)            E(eV)
   0   2.0000     -12.045674      -327.7795
   1   2.0000     -12.036556      -327.5314
   2   2.0000     -12.024302      -327.1979
   3   2.0000     -12.021415      -327.1193
   4   2.0000     -12.020324      -327.0897
   5   2.0000     -12.020268      -327.0881
   6   2.0000     -12.020023      -327.0815
   7   2.0000     -12.018585      -327.0423
   8   2.0000      -1.326373       -36.0925
   9   2.0000      -1.283925       -34.9374
  10   2.0000      -1.169502       -31.8238
  11   2.0000      -1.165828       -31.7238
  12   2.0000      -1.160883       -31.5892
  13   2.0000      -1.159038       -31.5390
  14   2.0000      -1.037418       -28.2296
  15   2.0000      -0.984436       -26.7879
  16   2.0000      -0.892454       -24.2849
  17   2.0000      -0.877977       -23.8910
  18   2.0000      -0.873320       -23.7642
  19   2.0000      -0.856717       -23.3125
  20   2.0000      -0.835474       -22.7344
  21   2.0000      -0.824298       -22.4303
  22   2.0000      -0.807623       -21.9765
  23   2.0000      -0.801902       -21.8209
  24   2.0000      -0.795481       -21.6461
  25   2.0000      -0.782714       -21.2987
  26   2.0000      -0.782033       -21.2802
  27   2.0000      -0.774656       -21.0795
  28   2.0000      -0.764787       -20.8109
  29   2.0000      -0.755509       -20.5584
  30   2.0000      -0.741760       -20.1843
  31   2.0000      -0.740183       -20.1414
  32   2.0000      -0.729177       -19.8419
  33   0.0000      -0.045763        -1.2453
  34   0.0000      -0.025189        -0.6854
  35   0.0000      -0.020861        -0.5677
  36   0.0000      -0.012095        -0.3291
  37   0.0000      -0.009742        -0.2651

MULLIKEN ATOMIC CHARGES
-----------------------
   0 C :   -0.425757
   1 C :    0.025027
   2 C :   -0.403473
   3 C :   -0.301012
   4 C :    0.198721
   5 C :   -0.422979
   6 C :   -0.445291
   7 C :   -0.422984
   8 H :    0.127439
   9 H :    0.122170
  10 H :    0.128383
  11 H :    0.084641
  12 H :    0.124325
  13 H :    0.117376
  14 H :    0.128176
  15 H :    0.111999
  16 H :    0.109131
  17 H :    0.126011
  18 H :    0.125363
  19 H :    0.127631
  20 H :    0.129414
  21 H :    0.129441
  22 H :    0.131675
  23 H :    0.125568
  24 H :    0.123406
  25 H :    0.125597
Sum of atomic charges:    0.0000000

LOEWDIN ATOMIC CHARGES
----------------------
   0 C :   -0.289984
   1 C :   -0.306615
   2 C :   -0.290823
   3 C :   -0.203192
   4 C :   -0.351818
   5 C :   -0.269250
   6 C :   -0.265700
   7 C :   -0.266631
   8 H :    0.120050
   9 H :    0.121052
  10 H :    0.115594
  11 H :    0.148194
  12 H :    0.118434
  13 H :    0.120260
  14 H :    0.118524
  15 H :    0.141694
  16 H :    0.145302
  17 H :    0.120560
  18 H :    0.122326
  19 H :    0.120880
  20 H :    0.123505
  21 H :    0.122679
  22 H :    0.122057
  23 H :    0.122279
  24 H :    0.118456
  25 H :    0.122168

  Mayer bond orders larger than 0.100000
B(  0-C ,  1-C ) :   0.9631 B(  0-C ,  8-H ) :   0.9805 B(  0-C ,  9-H ) :   0.9724
B(  0-C , 10-H ) :   0.9807 B(  1-C ,  2-C ) :   0.9619 B(  1-C ,  3-C ) :   0.9772
B(  1-C , 11-H ) :   0.9686 B(  2-C , 12-H ) :   0.9820 B(  2-C , 13-H ) :   0.9766
B(  2-C , 14-H ) :   0.9844 B(  3-C ,  4-C ) :   0.9328 B(  3-C , 15-H ) :   0.9729
B(  3-C , 16-H ) :   0.9778 B(  4-C ,  5-C ) :   0.9535 B(  4-C ,  6-C ) :   0.9393
B(  4-C ,  7-C ) :   0.9672 B(  5-C , 17-H ) :   0.9760 B(  5-C , 18-H ) :   0.9785
B(  5-C , 19-H ) :   0.9818 B(  6-C , 20-H ) :   0.9800 B(  6-C , 21-H ) :   0.9773
B(  6-C , 22-H ) :   0.9767 B(  7-C , 23-H ) :   0.9798 B(  7-C , 24-H ) :   0.9727
B(  7-C , 25-H ) :   0.9809

FINAL SINGLE POINT ENERGY      -315.709299682074

DIPOLE MOMENT
-------------

Method             : SCF
Type of density    : Electron Density
Multiplicity       :   1
Irrep              :   0
Energy             :  -315.7286999149739586 Eh
Relativity type    :
Basis              : AO
                                X                 Y                 Z
Electronic contribution:      0.215134393       0.642811046       0.072348513
Nuclear contribution   :     -0.216154250      -0.617880749      -0.005800843
                        -----------------------------------------
Total Dipole Moment    :     -0.001019857       0.024930298       0.066547669
                        -----------------------------------------
Magnitude (a.u.)       :      0.071071458
Magnitude (Debye)      :      0.180649290

Rotational constants in cm-1:             0.099208             0.040706             0.036907
Rotational constants in MHz :          2974.176655          1220.328173          1106.449445

                             ****ORCA TERMINATED NORMALLY****
TOTAL RUN TIME: 0 days 0 hours 4 minutes 27 seconds 724 msec
