                         Program Version 6.0.0  -   RELEASE  -
|  1> ! pbe def2-sv(p) def2/J RI DEFGRID1 loosescf d4 GCP(DFT/SV(P)) printgap
|  2> %output
|  3>     printlevel normal
|  4> end
|  5> * xyz 0 1
|  6> C -2.4217526193 -1.1073167489 -0.3194342913
|  7> C -1.0696520431 -0.5990254262 0.2021314719
|  8> H -1.1045831717 -0.5788836698 1.3025796573
|  9> C -0.7557293042 0.8167334892 -0.3075214452
| 10> H -0.7549454035 0.7916479448 -1.4114040449
| 11> C 0.6381339126 1.2332228598 0.180682929
| 12> H 0.6197369082 1.3299306583 1.2725795401
| 13> C 1.6836335404 0.1764646985 -0.2034360206
| 14> H 1.7834212244 0.1462590691 -1.3023346923
| 15> C 1.2153795388 -1.2155012454 0.2747586611
| 16> H 1.2061280701 -1.219367838 1.3764540064
| 17> O -0.071763844 -1.4965729641 -0.2379658377
| 18> O 2.0579448932 -2.2332775284 -0.1045666988
| 19> O 2.9263015074 0.4450956546 0.3896253738
| 20> O 0.991366483 2.5101746258 -0.296279024
| 21> O -1.7465329261 1.7009679905 0.1506635484
| 22> O -3.5071399173 -0.5258018558 0.3487586677
| 23> H -2.4786024746 -2.1827211576 -0.1396448003
| 24> H -2.4817383681 -0.9290503124 -1.4012615504
| 25> H 1.9984846402 -2.3701386941 -1.0638015448
| 26> H 3.1199432341 1.3922205976 0.2966899155
| 27> H 1.0447863116 2.4995122278 -1.2645092975
| 28> H -1.4064225478 2.6088324991 0.1039857126
| 29> H -3.4062892679 0.4401084232 0.3178771586
| 30> *
| 31>
| 32>                          ****END OF INPUT****

CARTESIAN COORDINATES (ANGSTROEM)
---------------------------------
  C     -2.421753   -1.107317   -0.319434
  C     -1.069652   -0.599025    0.202131
  H     -1.104583   -0.578884    1.302580
  C     -0.755729    0.816733   -0.307521
  H     -0.754945    0.791648   -1.411404
  C      0.638134    1.233223    0.180683
  H      0.619737    1.329931    1.272580
  C      1.683634    0.176465   -0.203436
  H      1.783421    0.146259   -1.302335
  C      1.215380   -1.215501    0.274759
  H      1.206128   -1.219368    1.376454
  O     -0.071764   -1.496573   -0.237966
  O      2.057945   -2.233278   -0.104567
  O      2.926302    0.445096    0.389625
  O      0.991366    2.510175   -0.296279
  O     -1.746533    1.700968    0.150664
  O     -3.507140   -0.525802    0.348759
  H     -2.478602   -2.182721   -0.139645
  H     -2.481738   -0.929050   -1.401262
  H      1.998485   -2.370139   -1.063802
  H      3.119943    1.392221    0.296690
  H      1.044786    2.499512   -1.264509
  H     -1.406423    2.608832    0.103986
  H     -3.406289    0.440108    0.317877

 Total Charge           Charge          ....    0
 Multiplicity           Mult            ....    1
 Number of Electrons    NEL             ....   96
 Basis Dimension        Dim             ....  192

ORBITAL ENERGIES
----------------

  NO   OCC          E(Eh)            E(eV)
   0   2.0000     -18.786616      -511.2098
   1   2.0000     -18.778629      -510.9925
   2   2.0000     -18.777563      -510.9635
   3   2.0000     -18.760376      -510.4958
   4   2.0000     -18.758375      -510.4413
   5   2.0000     -18.735565      -509.8207
   6   2.0000      -9.992173      -271.9009
   7   2.0000      -9.959404      -271.0092
   8   2.0000      -9.957884      -270.9678
   9   2.0000      -9.951784      -270.8018
  10   2.0000      -9.949089      -270.7285
  11   2.0000      -9.928305      -270.1629
  12   2.0000      -0.989512       -26.9260
  13   2.0000      -0.970515       -26.4091
  14   2.0000      -0.949614       -25.8403
  15   2.0000      -0.931511       -25.3477
  16   2.0000      -0.921212       -25.0675
  17   2.0000      -0.911073       -24.7916
  18   2.0000      -0.715681       -19.4747
  19   2.0000      -0.695474       -18.9248
  20   2.0000      -0.619244       -16.8505
  21   2.0000      -0.598007       -16.2726
  22   2.0000      -0.572016       -15.5653
  23   2.0000      -0.548434       -14.9237
  24   2.0000      -0.507642       -13.8136
  25   2.0000      -0.501330       -13.6419
  26   2.0000      -0.481215       -13.0945
  27   2.0000      -0.460241       -12.5238
  28   2.0000      -0.458179       -12.4677
  29   2.0000      -0.437469       -11.9041
  30   2.0000      -0.433139       -11.7863
  31   2.0000      -0.420694       -11.4477
  32   2.0000      -0.397710       -10.8222
  33   2.0000      -0.375973       -10.2307
  34   2.0000      -0.367184        -9.9916
  35   2.0000      -0.349796        -9.5184
  36   2.0000      -0.339417        -9.2360
  37   2.0000      -0.319299        -8.6886
  38   2.0000      -0.312632        -8.5072
  39   2.0000      -0.309024        -8.4090
  40   2.0000      -0.292968        -7.9721
  41   2.0000      -0.281069        -7.6483
  42   2.0000      -0.259588        -7.0638
  43   2.0000      -0.250853        -6.8261
  44   2.0000      -0.242541        -6.5999
  45   2.0000      -0.225844        -6.1455
  46   2.0000      -0.222450        -6.0532
  47   2.0000      -0.207630        -5.6499
  48   0.0000      -0.008533        -0.2322
  49   0.0000       0.019239         0.5235
  50   0.0000       0.034115         0.9283
  51   0.0000       0.037544         1.0216
  52   0.0000       0.050218         1.3665

MULLIKEN ATOMIC CHARGES
-----------------------
   0 C :    0.115441
   1 C :   -0.032358
   2 H :    0.067102
   3 C :    0.066091
   4 H :    0.038749
   5 C :    0.021117
   6 H :    0.075751
   7 C :    0.042120
   8 H :    0.021791
   9 C :    0.208311
  10 H :    0.059065
  11 O :   -0.304532
  12 O :   -0.365086
  13 O :   -0.399676
  14 O :   -0.418503
  15 O :   -0.424605
  16 O :   -0.446848
  17 H :    0.094478
  18 H :    0.059244
  19 H :    0.302176
  20 H :    0.302770
  21 H :    0.303383
  22 H :    0.311741
  23 H :    0.302278
Sum of atomic charges:   -0.0000000

LOEWDIN ATOMIC CHARGES
----------------------
   0 C :   -0.116958
   1 C :   -0.068542
   2 H :    0.109624
   3 C :   -0.080330
   4 H :    0.094861
   5 C :   -0.095378
   6 H :    0.123021
   7 C :   -0.097228
   8 H :    0.089704
   9 C :    0.009214
  10 H :    0.104152
  11 O :   -0.150482
  12 O :   -0.277333
  13 O :   -0.312708
  14 O :   -0.311336
  15 O :   -0.314974
  16 O :   -0.339736
  17 H :    0.118049
  18 H :    0.094993
  19 H :    0.288313
  20 H :    0.283751
  21 H :    0.286937
  22 H :    0.288388
  23 H :    0.273997

  Mayer bond orders larger than 0.100000
B(  0-C ,  1-C ) :   1.0328 B(  0-C , 16-O ) :   1.0907 B(  0-C , 17-H ) :   0.9200
B(  0-C , 18-H ) :   0.9045 B(  1-C ,  2-H ) :   0.8780 B(  1-C ,  3-C ) :   1.0126
B(  1-C , 11-O ) :   0.9872 B(  3-C ,  4-H ) :   0.8616 B(  3-C ,  5-C ) :   1.0120
B(  3-C , 15-O ) :   1.0450 B(  5-C ,  6-H ) :   0.8645 B(  5-C ,  7-C ) :   1.0151
B(  5-C , 14-O ) :   1.0120 B(  7-C ,  8-H ) :   0.8528 B(  7-C ,  9-C ) :   0.9724
B(  7-C , 13-O ) :   1.0957 B(  9-C , 10-H ) :   0.8781 B(  9-C , 11-O ) :   1.0013
B(  9-C , 12-O ) :   1.1647 B( 12-O , 19-H ) :   0.8421 B( 13-O , 20-H ) :   0.8347
B( 14-O , 21-H ) :   0.8445 B( 15-O , 22-H ) :   0.8235 B( 16-O , 23-H ) :   0.8229

Dispersion correction           -0.023847273
FINAL SINGLE POINT ENERGY      -685.699812467176

DIPOLE MOMENT
-------------

Method             : SCF
Type of density    : Electron Density
Multiplicity       :   1
Irrep              :   0
Energy             :  -685.8306724856965957 Eh
Relativity type    :
Basis              : AO
                                X                 Y                 Z
Electronic contribution:      2.211564704      -0.479012538       0.653942542
Nuclear contribution   :     -1.735440236       1.815054587      -1.790815244
                        -----------------------------------------
Total Dipole Moment    :      0.476124468       1.336042050      -1.136872702
                        -----------------------------------------
Magnitude (a.u.)       :      1.817741018
Magnitude (Debye)      :      4.620330483

Rotational constants in cm-1:             0.043178             0.024517             0.016423
Rotational constants in MHz :          1294.444690           734.990310           492.351145

                             ****ORCA TERMINATED NORMALLY****
TOTAL RUN TIME: 0 days 0 hours 0 minutes 12 seconds 7 msec
