                         Program Version 6.0.0  -   RELEASE  -
|  1> ! pbe def2-sv(p) def2/J RI DEFGRID1 loosescf d4 GCP(DFT/SV(P)) printgap
|  2> %output
|  3>     printlevel normal
|  4> end
|  5> * xyz 0 1
|  6> C -3.3192774143 0.7657313672 -0.121784057
|  7> C -2.4710797884 -0.4832849853 0.0919076594
|  8> C -0.9812922625 -0.258720093 0.0491386091
|  9> C -0.395759135 0.9800979117 0.2650524411
| 10> C 0.9793225851 1.1386955117 0.2323050813
| 11> C 1.8035953144 0.0501745953 -0.014978531
| 12> C 1.2296683238 -1.1994168428 -0.2293203119
| 13> C -0.1418872539 -1.3421619539 -0.197388198
| 14> O 3.1628774554 0.1523015534 -0.0586293034
| 15> H -4.3676488833 0.4881256039 -0.1998824062
| 16> H -3.0282206469 1.2729603405 -1.0387072129
| 17> H -3.2165367742 1.4577032676 0.7099782824
| 18> H -2.7259488855 -1.2222116759 -0.6717590623
| 19> H -2.7251181477 -0.9250542601 1.0608403745
| 20> H -1.0081544284 1.8454349694 0.4613640597
| 21> H 1.409574234 2.1158450861 0.4005022038
| 22> H 1.8761673252 -2.0415299859 -0.4211832529
| 23> H -0.5725852553 -2.3183528768 -0.3675311986
| 24> H 3.4373858544 1.0670518754 0.1040973312
| 25> *
| 26>
| 27>                          ****END OF INPUT****

CARTESIAN COORDINATES (ANGSTROEM)
---------------------------------
  C     -3.319277    0.765731   -0.121784
  C     -2.471080   -0.483285    0.091908
  C     -0.981292   -0.258720    0.049139
  C     -0.395759    0.980098    0.265052
  C      0.979323    1.138696    0.232305
  C      1.803595    0.050175   -0.014979
  C      1.229668   -1.199417   -0.229320
  C     -0.141887   -1.342162   -0.197388
  O      3.162877    0.152302   -0.058629
  H     -4.367649    0.488126   -0.199882
  H     -3.028221    1.272960   -1.038707
  H     -3.216537    1.457703    0.709978
  H     -2.725949   -1.222212   -0.671759
  H     -2.725118   -0.925054    1.060840
  H     -1.008154    1.845435    0.461364
  H      1.409574    2.115845    0.400502
  H      1.876167   -2.041530   -0.421183
  H     -0.572585   -2.318353   -0.367531
  H      3.437386    1.067052    0.104097

 Total Charge           Charge          ....    0
 Multiplicity           Mult            ....    1
 Number of Electrons    NEL             ....   66
 Basis Dimension        Dim             ....  146

ORBITAL ENERGIES
----------------

  NO   OCC          E(Eh)            E(eV)
   0   2.0000     -18.777078      -510.9503
   1   2.0000      -9.946354      -270.6541
   2   2.0000      -9.890964      -269.1468
   3   2.0000      -9.888752      -269.0866
   4   2.0000      -9.888153      -269.0703
   5   2.0000      -9.887543      -269.0537
   6   2.0000      -9.886322      -269.0205
   7   2.0000      -9.882339      -268.9121
   8   2.0000      -9.876614      -268.7563
   9   2.0000      -0.957823       -26.0637
  10   2.0000      -0.772048       -21.0085
  11   2.0000      -0.704521       -19.1710
  12   2.0000      -0.668923       -18.2023
  13   2.0000      -0.642743       -17.4899
  14   2.0000      -0.568003       -15.4561
  15   2.0000      -0.557407       -15.1678
  16   2.0000      -0.512816       -13.9544
  17   2.0000      -0.491766       -13.3816
  18   2.0000      -0.437325       -11.9002
  19   2.0000      -0.410214       -11.1625
  20   2.0000      -0.399853       -10.8806
  21   2.0000      -0.389172       -10.5899
  22   2.0000      -0.371962       -10.1216
  23   2.0000      -0.360397        -9.8069
  24   2.0000      -0.357730        -9.7343
  25   2.0000      -0.329874        -8.9763
  26   2.0000      -0.320531        -8.7221
  27   2.0000      -0.310438        -8.4474
  28   2.0000      -0.294872        -8.0239
  29   2.0000      -0.285692        -7.7741
  30   2.0000      -0.279948        -7.6178
  31   2.0000      -0.225503        -6.1363
  32   2.0000      -0.186743        -5.0815
  33   0.0000      -0.031343        -0.8529
  34   0.0000      -0.013685        -0.3724
  35   0.0000       0.025451         0.6926
  36   0.0000       0.045266         1.2318
  37   0.0000       0.063300         1.7225

MULLIKEN ATOMIC CHARGES
-----------------------
   0 C :   -0.279181
   1 C :   -0.143452
   2 C :    0.085080
   3 C :   -0.142363
   4 C :   -0.155079
   5 C :    0.249952
   6 C :   -0.117723
   7 C :   -0.122458
   8 O :   -0.340319
   9 H :    0.102909
  10 H :    0.106682
  11 H :    0.110241
  12 H :    0.089265
  13 H :    0.101753
  14 H :    0.036595
  15 H :    0.022351
  16 H :    0.042746
  17 H :    0.037621
  18 H :    0.315381
Sum of atomic charges:    0.0000000

LOEWDIN ATOMIC CHARGES
----------------------
   0 C :   -0.340925
   1 C :   -0.219955
   2 C :   -0.063284
   3 C :   -0.121086
   4 C :   -0.175818
   5 C :    0.019138
   6 C :   -0.146052
   7 C :   -0.113000
   8 O :   -0.240628
   9 H :    0.121630
  10 H :    0.120895
  11 H :    0.118457
  12 H :    0.123239
  13 H :    0.128560
  14 H :    0.122459
  15 H :    0.118366
  16 H :    0.129552
  17 H :    0.121630
  18 H :    0.296820

  Mayer bond orders larger than 0.100000
B(  0-C ,  1-C ) :   1.1836 B(  0-C ,  9-H ) :   0.9480 B(  0-C , 10-H ) :   0.9543
B(  0-C , 11-H ) :   0.9394 B(  1-C ,  2-C ) :   1.0555 B(  1-C , 12-H ) :   0.9137
B(  1-C , 13-H ) :   0.9001 B(  2-C ,  3-C ) :   1.4056 B(  2-C ,  7-C ) :   1.3628
B(  3-C ,  4-C ) :   1.3423 B(  3-C , 14-H ) :   0.9523 B(  4-C ,  5-C ) :   1.3182
B(  4-C , 15-H ) :   0.9562 B(  5-C ,  6-C ) :   1.3522 B(  5-C ,  8-O ) :   1.1798
B(  6-C ,  7-C ) :   1.3769 B(  6-C , 16-H ) :   0.9643 B(  7-C , 17-H ) :   0.9649
B(  8-O , 18-H ) :   0.8436

Dispersion correction           -0.018612540
FINAL SINGLE POINT ENERGY      -385.234266896441

DIPOLE MOMENT
-------------

Method             : SCF
Type of density    : Electron Density
Multiplicity       :   1
Irrep              :   0
Energy             :  -385.2938319586567104 Eh
Relativity type    :
Basis              : AO
                                X                 Y                 Z
Electronic contribution:     10.122307759      -1.141969247       0.082835079
Nuclear contribution   :    -10.198946911       1.634644754       0.034518008
                        -----------------------------------------
Total Dipole Moment    :     -0.076639152       0.492675507       0.117353086
                        -----------------------------------------
Magnitude (a.u.)       :      0.512225011
Magnitude (Debye)      :      1.301972509

Rotational constants in cm-1:             0.155226             0.032034             0.026972
Rotational constants in MHz :          4653.552364           960.361443           808.603897

                             ****ORCA TERMINATED NORMALLY****
TOTAL RUN TIME: 0 days 0 hours 0 minutes 9 seconds 674 msec
