                         Program Version 6.0.0  -   RELEASE  -
|  1> ! pbe def2-sv(p) def2/J RI DEFGRID1 loosescf d4 GCP(DFT/SV(P)) printgap
|  2> %output
|  3>     printlevel normal
|  4> end
|  5> * xyz 0 1
|  6> C -2.5545766998 -0.6888092375 -0.344225205
|  7> C -1.1789403567 -0.3106416953 0.2172417171
|  8> H -1.2448580089 -0.2442367144 1.31580775
|  9> C -0.7013383385 1.0408495136 -0.3517634348
| 10> H -0.6707921398 0.9613334645 -1.4446700176
| 11> C 0.7139948193 1.3268020222 0.1835664625
| 12> H 0.669285951 1.4041298292 1.2789716073
| 13> C 1.6447345446 0.1581048017 -0.1926315638
| 14> H 1.7200943873 0.0678904679 -1.2816972654
| 15> C 1.039949008 -1.1594462032 0.3376894232
| 16> H 1.0189019736 -1.1228087499 1.4500452555
| 17> O -0.2760933482 -1.3454885629 -0.1355998774
| 18> O 1.811438595 -2.2074229507 -0.112905052
| 19> O 2.9566521497 0.3560112146 0.2498212647
| 20> O 1.2125388452 2.5689487461 -0.2309493947
| 21> O -1.6004194436 2.0796291261 -0.0788035126
| 22> O -3.160405323 -1.7352799434 0.3666021962
| 23> H -2.4368749974 -0.945512632 -1.4030902178
| 24> H -3.2166940915 0.1739972366 -0.2541046379
| 25> H 1.3746464509 -3.0518329509 0.080813631
| 26> H 2.9760201418 0.4780133135 1.2103161653
| 27> H 1.3229665944 2.5839114869 -1.1918855902
| 28> H -1.5193406179 2.3600138141 0.844539729
| 29> H -2.6258540569 -2.5348044163 0.2606222794
| 30> *
| 31>
| 32>                          ****END OF INPUT****

CARTESIAN COORDINATES (ANGSTROEM)
---------------------------------
  C     -2.554577   -0.688809   -0.344225
  C     -1.178940   -0.310642    0.217242
  H     -1.244858   -0.244237    1.315808
  C     -0.701338    1.040850   -0.351763
  H     -0.670792    0.961333   -1.444670
  C      0.713995    1.326802    0.183566
  H      0.669286    1.404130    1.278972
  C      1.644735    0.158105   -0.192632
  H      1.720094    0.067890   -1.281697
  C      1.039949   -1.159446    0.337689
  H      1.018902   -1.122809    1.450045
  O     -0.276093   -1.345489   -0.135600
  O      1.811439   -2.207423   -0.112905
  O      2.956652    0.356011    0.249821
  O      1.212539    2.568949   -0.230949
  O     -1.600419    2.079629   -0.078804
  O     -3.160405   -1.735280    0.366602
  H     -2.436875   -0.945513   -1.403090
  H     -3.216694    0.173997   -0.254105
  H      1.374646   -3.051833    0.080814
  H      2.976020    0.478013    1.210316
  H      1.322967    2.583911   -1.191886
  H     -1.519341    2.360014    0.844540
  H     -2.625854   -2.534804    0.260622

 Total Charge           Charge          ....    0
 Multiplicity           Mult            ....    1
 Number of Electrons    NEL             ....   96
 Basis Dimension        Dim             ....  192

ORBITAL ENERGIES
----------------

  NO   OCC          E(Eh)            E(eV)
   0   2.0000     -18.783104      -511.1142
   1   2.0000     -18.766340      -510.6581
   2   2.0000     -18.760966      -510.5118
   3   2.0000     -18.754649      -510.3399
   4   2.0000     -18.754177      -510.3271
   5   2.0000     -18.748146      -510.1630
   6   2.0000      -9.995077      -271.9799
   7   2.0000      -9.952019      -270.8082
   8   2.0000      -9.949963      -270.7523
   9   2.0000      -9.947622      -270.6886
  10   2.0000      -9.947210      -270.6773
  11   2.0000      -9.931559      -270.2515
  12   2.0000      -0.991576       -26.9822
  13   2.0000      -0.950433       -25.8626
  14   2.0000      -0.939646       -25.5691
  15   2.0000      -0.928179       -25.2570
  16   2.0000      -0.920771       -25.0555
  17   2.0000      -0.916523       -24.9399
  18   2.0000      -0.709339       -19.3021
  19   2.0000      -0.695609       -18.9285
  20   2.0000      -0.621564       -16.9136
  21   2.0000      -0.588165       -16.0048
  22   2.0000      -0.571454       -15.5500
  23   2.0000      -0.552551       -15.0357
  24   2.0000      -0.510412       -13.8890
  25   2.0000      -0.492232       -13.3943
  26   2.0000      -0.479587       -13.0502
  27   2.0000      -0.464652       -12.6438
  28   2.0000      -0.446159       -12.1406
  29   2.0000      -0.435504       -11.8507
  30   2.0000      -0.428093       -11.6490
  31   2.0000      -0.414175       -11.2703
  32   2.0000      -0.384971       -10.4756
  33   2.0000      -0.373789       -10.1713
  34   2.0000      -0.363976        -9.9043
  35   2.0000      -0.356333        -9.6963
  36   2.0000      -0.328717        -8.9448
  37   2.0000      -0.317202        -8.6315
  38   2.0000      -0.308055        -8.3826
  39   2.0000      -0.291900        -7.9430
  40   2.0000      -0.284994        -7.7551
  41   2.0000      -0.279420        -7.6034
  42   2.0000      -0.262132        -7.1330
  43   2.0000      -0.251686        -6.8487
  44   2.0000      -0.240387        -6.5413
  45   2.0000      -0.227178        -6.1818
  46   2.0000      -0.208527        -5.6743
  47   2.0000      -0.207562        -5.6480
  48   0.0000       0.011407         0.3104
  49   0.0000       0.016290         0.4433
  50   0.0000       0.022067         0.6005
  51   0.0000       0.032903         0.8953
  52   0.0000       0.045366         1.2345

MULLIKEN ATOMIC CHARGES
-----------------------
   0 C :    0.096980
   1 C :   -0.022280
   2 H :    0.041354
   3 C :    0.055833
   4 H :    0.055041
   5 C :    0.060223
   6 H :    0.032023
   7 C :    0.051886
   8 H :    0.062281
   9 C :    0.182824
  10 H :    0.019000
  11 O :   -0.320424
  12 O :   -0.363017
  13 O :   -0.394750
  14 O :   -0.394669
  15 O :   -0.398979
  16 O :   -0.431572
  17 H :    0.072212
  18 H :    0.093375
  19 H :    0.304791
  20 H :    0.297627
  21 H :    0.301787
  22 H :    0.303061
  23 H :    0.295394
Sum of atomic charges:   -0.0000000

LOEWDIN ATOMIC CHARGES
----------------------
   0 C :   -0.127173
   1 C :   -0.082753
   2 H :    0.097684
   3 C :   -0.081161
   4 H :    0.114077
   5 C :   -0.089884
   6 H :    0.102389
   7 C :   -0.090081
   8 H :    0.119954
   9 C :   -0.003988
  10 H :    0.070996
  11 O :   -0.161824
  12 O :   -0.287398
  13 O :   -0.298233
  14 O :   -0.305654
  15 O :   -0.301093
  16 O :   -0.334692
  17 H :    0.103059
  18 H :    0.121075
  19 H :    0.289330
  20 H :    0.285674
  21 H :    0.289536
  22 H :    0.288550
  23 H :    0.281608

  Mayer bond orders larger than 0.100000
B(  0-C ,  1-C ) :   1.0453 B(  0-C , 16-O ) :   1.0804 B(  0-C , 17-H ) :   0.9086
B(  0-C , 18-H ) :   0.9090 B(  1-C ,  2-H ) :   0.8690 B(  1-C ,  3-C ) :   0.9593
B(  1-C , 11-O ) :   0.9769 B(  3-C ,  4-H ) :   0.8664 B(  3-C ,  5-C ) :   0.9903
B(  3-C , 15-O ) :   1.0551 B(  5-C ,  6-H ) :   0.8600 B(  5-C ,  7-C ) :   0.9830
B(  5-C , 14-O ) :   1.0955 B(  7-C ,  8-H ) :   0.8607 B(  7-C ,  9-C ) :   0.9581
B(  7-C , 13-O ) :   1.0672 B(  9-C , 10-H ) :   0.8806 B(  9-C , 11-O ) :   1.0042
B(  9-C , 12-O ) :   1.2000 B( 12-O , 19-H ) :   0.8397 B( 13-O , 20-H ) :   0.8482
B( 14-O , 21-H ) :   0.8493 B( 15-O , 22-H ) :   0.8458 B( 16-O , 23-H ) :   0.8513

Dispersion correction           -0.023595645
FINAL SINGLE POINT ENERGY      -685.690951059355

DIPOLE MOMENT
-------------

Method             : SCF
Type of density    : Electron Density
Multiplicity       :   1
Irrep              :   0
Energy             :  -685.8193584093088475 Eh
Relativity type    :
Basis              : AO
                                X                 Y                 Z
Electronic contribution:      2.494225288      -0.529686131      -0.299382031
Nuclear contribution   :     -2.455750742       0.117849018       0.813006190
                        -----------------------------------------
Total Dipole Moment    :      0.038474547      -0.411837113       0.513624159
                        -----------------------------------------
Magnitude (a.u.)       :      0.659469389
Magnitude (Debye)      :      1.676237973

Rotational constants in cm-1:             0.039350             0.025567             0.016219
Rotational constants in MHz :          1179.697493           766.472223           486.233333

                             ****ORCA TERMINATED NORMALLY****
TOTAL RUN TIME: 0 days 0 hours 0 minutes 11 seconds 555 msec
