                         Program Version 6.0.0  -   RELEASE  -
|  1> ! pbe def2-sv(p) def2/J RI DEFGRID1 loosescf d4 GCP(DFT/SV(P)) printgap
|  2> %output
|  3>     printlevel normal
|  4> end
|  5> * xyz 0 1
|  6> C -1.1986688703 -1.2016474847 0.0088524467
|  7> C 0.1807417539 -1.2040223365 0.002426736
|  8> C 0.8640054352 3.0911e-06 -3.68384e-05
|  9> C 0.1807475164 1.2040297482 0.0025045663
| 10> C -1.1986644539 1.201654965 0.0088150925
| 11> C -1.9174204226 1.5416e-06 0.0106301575
| 12> N -3.2815453964 -6.3117e-06 -0.0478164778
| 13> Cl 2.6138763378 -3.5951e-06 -0.0033183878
| 14> H -1.7319575361 -2.1396823228 0.0103356968
| 15> H 0.7260536264 -2.1344630868 0.0019806998
| 16> H 0.7260512899 2.1344467577 0.0017793616
| 17> H -1.7319429535 2.139672894 0.010276269
| 18> H -3.7571169057 -0.8553455025 0.180669118
| 19> H -3.7571313251 0.8553527642 0.1806318551
| 20> *
| 21>
| 22>                          ****END OF INPUT****

CARTESIAN COORDINATES (ANGSTROEM)
---------------------------------
  C     -1.198669   -1.201647    0.008852
  C      0.180742   -1.204022    0.002427
  C      0.864005    0.000003   -0.000037
  C      0.180748    1.204030    0.002505
  C     -1.198664    1.201655    0.008815
  C     -1.917420    0.000002    0.010630
  N     -3.281545   -0.000006   -0.047816
  Cl     2.613876   -0.000004   -0.003318
  H     -1.731958   -2.139682    0.010336
  H      0.726054   -2.134463    0.001981
  H      0.726051    2.134447    0.001779
  H     -1.731943    2.139673    0.010276
  H     -3.757117   -0.855346    0.180669
  H     -3.757131    0.855353    0.180632

 Total Charge           Charge          ....    0
 Multiplicity           Mult            ....    1
 Number of Electrons    NEL             ....   66
 Basis Dimension        Dim             ....  128

ORBITAL ENERGIES
----------------

  NO   OCC          E(Eh)            E(eV)
   0   2.0000    -100.622636     -2738.0811
   1   2.0000     -14.000574      -380.9750
   2   2.0000      -9.937796      -270.4212
   3   2.0000      -9.931572      -270.2518
   4   2.0000      -9.894825      -269.2519
   5   2.0000      -9.894822      -269.2518
   6   2.0000      -9.891761      -269.1685
   7   2.0000      -9.891754      -269.1683
   8   2.0000      -9.158384      -249.2123
   9   2.0000      -6.989705      -190.1996
  10   2.0000      -6.978276      -189.8885
  11   2.0000      -6.977968      -189.8802
  12   2.0000      -0.845876       -23.0175
  13   2.0000      -0.793120       -21.5819
  14   2.0000      -0.737603       -20.0712
  15   2.0000      -0.676377       -18.4051
  16   2.0000      -0.637254       -17.3406
  17   2.0000      -0.562404       -15.3038
  18   2.0000      -0.535318       -14.5667
  19   2.0000      -0.482510       -13.1298
  20   2.0000      -0.478719       -13.0266
  21   2.0000      -0.423763       -11.5312
  22   2.0000      -0.398528       -10.8445
  23   2.0000      -0.390990       -10.6394
  24   2.0000      -0.380121       -10.3436
  25   2.0000      -0.357130        -9.7180
  26   2.0000      -0.332398        -9.0450
  27   2.0000      -0.310273        -8.4429
  28   2.0000      -0.310212        -8.4413
  29   2.0000      -0.253057        -6.8860
  30   2.0000      -0.248931        -6.7738
  31   2.0000      -0.232031        -6.3139
  32   2.0000      -0.171432        -4.6649
  33   0.0000      -0.036390        -0.9902
  34   0.0000      -0.015658        -0.4261
  35   0.0000       0.014708         0.4002
  36   0.0000       0.033902         0.9225
  37   0.0000       0.058933         1.6036

MULLIKEN ATOMIC CHARGES
-----------------------
   0 C :   -0.143069
   1 C :   -0.081940
   2 C :    0.112322
   3 C :   -0.081932
   4 C :   -0.143061
   5 C :    0.182161
   6 N :   -0.327612
   7 Cl:   -0.112821
   8 H :    0.027392
   9 H :    0.045972
  10 H :    0.045959
  11 H :    0.027382
  12 H :    0.224622
  13 H :    0.224626
Sum of atomic charges:   -0.0000000

LOEWDIN ATOMIC CHARGES
----------------------
   0 C :   -0.157645
   1 C :   -0.132465
   2 C :   -0.156999
   3 C :   -0.132467
   4 C :   -0.157645
   5 C :   -0.009136
   6 N :   -0.307335
   7 Cl:    0.095527
   8 H :    0.121284
   9 H :    0.129291
  10 H :    0.129292
  11 H :    0.121284
  12 H :    0.228507
  13 H :    0.228507

  Mayer bond orders larger than 0.100000
B(  0-C ,  1-C ) :   1.3782 B(  0-C ,  5-C ) :   1.3077 B(  0-C ,  8-H ) :   0.9610
B(  1-C ,  2-C ) :   1.3813 B(  1-C ,  9-H ) :   0.9624 B(  2-C ,  3-C ) :   1.3813
B(  2-C ,  7-Cl) :   0.9408 B(  3-C ,  4-C ) :   1.3782 B(  3-C , 10-H ) :   0.9624
B(  4-C ,  5-C ) :   1.3077 B(  4-C , 11-H ) :   0.9610 B(  5-C ,  6-N ) :   1.2554
B(  6-N , 12-H ) :   0.8806 B(  6-N , 13-H ) :   0.8806

Dispersion correction           -0.015482864
FINAL SINGLE POINT ENERGY      -746.243771319073

DIPOLE MOMENT
-------------

Method             : SCF
Type of density    : Electron Density
Multiplicity       :   1
Irrep              :   0
Energy             :  -746.2827159336734439 Eh
Relativity type    :
Basis              : AO
                                X                 Y                 Z
Electronic contribution:     10.992069371       0.000024669      -0.100120458
Nuclear contribution   :    -12.463470537      -0.000012562       0.366019390
                        -----------------------------------------
Total Dipole Moment    :     -1.471401167       0.000012107       0.265898932
                        -----------------------------------------
Magnitude (a.u.)       :      1.495233639
Magnitude (Debye)      :      3.800581873

Rotational constants in cm-1:             0.188349             0.032597             0.027797
Rotational constants in MHz :          5646.555244           977.227848           833.333999

                             ****ORCA TERMINATED NORMALLY****
TOTAL RUN TIME: 0 days 0 hours 0 minutes 6 seconds 712 msec
