                         Program Version 6.0.0  -   RELEASE  -
|  1> ! r2scan-3c def2/J RI DEFGRID2 scfconv6 printgap
|  2> %output
|  3>     printlevel normal
|  4> end
|  5> * xyz 0 1
|  6> C -2.1115931692 -0.002522899 -0.3297692231
|  7> C -0.8028886906 -0.0676727521 0.4495487115
|  8> C 0.0946091258 -1.2251908549 -0.0241696518
|  9> C 1.5174147459 -0.6819569026 0.0697108992
| 10> C 1.3520380841 0.7619486704 -0.3932559136
| 11> C 0.0524476625 1.2088698852 0.2821264276
| 12> H -1.9161362402 0.1697409142 -1.3860476268
| 13> H -2.6597745054 -0.9367744473 -0.2284685367
| 14> H -2.7384079722 0.8049938778 0.0421088643
| 15> H -1.0417275048 -0.206420896 1.5081203349
| 16> H -0.0501034623 -2.126262461 0.5701583874
| 17> H -0.1346770558 -1.4637468142 -1.0642306925
| 18> H 1.8608624288 -0.7038751195 1.1053136371
| 19> H 2.2222632482 -1.2440001685 -0.5413693916
| 20> H 2.1978714662 1.3922735446 -0.1226605459
| 21> H 1.2397966115 0.7858862646 -1.4783116188
| 22> H 0.2720899247 1.6438865515 1.2575745812
| 23> H -0.4679071299 1.9620544939 -0.3079767581
| 24> *
| 25>
| 26>                          ****END OF INPUT****

CARTESIAN COORDINATES (ANGSTROEM)
---------------------------------
  C     -2.111593   -0.002523   -0.329769
  C     -0.802889   -0.067673    0.449549
  C      0.094609   -1.225191   -0.024170
  C      1.517415   -0.681957    0.069711
  C      1.352038    0.761949   -0.393256
  C      0.052448    1.208870    0.282126
  H     -1.916136    0.169741   -1.386048
  H     -2.659775   -0.936774   -0.228469
  H     -2.738408    0.804994    0.042109
  H     -1.041728   -0.206421    1.508120
  H     -0.050103   -2.126262    0.570158
  H     -0.134677   -1.463747   -1.064231
  H      1.860862   -0.703875    1.105314
  H      2.222263   -1.244000   -0.541369
  H      2.197871    1.392274   -0.122661
  H      1.239797    0.785886   -1.478312
  H      0.272090    1.643887    1.257575
  H     -0.467907    1.962054   -0.307977

 Total Charge           Charge          ....    0
 Multiplicity           Mult            ....    1
 Number of Electrons    NEL             ....   48
 Basis Dimension        Dim             ....  174

ORBITAL ENERGIES
----------------

  NO   OCC          E(Eh)            E(eV)
   0   2.0000     -10.026094      -272.8239
   1   2.0000     -10.018289      -272.6115
   2   2.0000     -10.018146      -272.6076
   3   2.0000     -10.016457      -272.5616
   4   2.0000     -10.016010      -272.5495
   5   2.0000     -10.012284      -272.4481
   6   2.0000      -0.803116       -21.8539
   7   2.0000      -0.708488       -19.2789
   8   2.0000      -0.671175       -18.2636
   9   2.0000      -0.614393       -16.7185
  10   2.0000      -0.534320       -14.5396
  11   2.0000      -0.510140       -13.8816
  12   2.0000      -0.452031       -12.3004
  13   2.0000      -0.432949       -11.7811
  14   2.0000      -0.391059       -10.6413
  15   2.0000      -0.383267       -10.4292
  16   2.0000      -0.367713       -10.0060
  17   2.0000      -0.344367        -9.3707
  18   2.0000      -0.301692        -8.2095
  19   2.0000      -0.299699        -8.1552
  20   2.0000      -0.291631        -7.9357
  21   2.0000      -0.286697        -7.8014
  22   2.0000      -0.283126        -7.7042
  23   2.0000      -0.275317        -7.4918
  24   0.0000       0.085172         2.3176
  25   0.0000       0.099707         2.7132
  26   0.0000       0.107113         2.9147
  27   0.0000       0.130128         3.5410
  28   0.0000       0.138723         3.7748

MULLIKEN ATOMIC CHARGES
-----------------------
   0 C :   -0.539695
   1 C :    0.057885
   2 C :   -0.391970
   3 C :   -0.236506
   4 C :   -0.302526
   5 C :   -0.387002
   6 H :    0.147806
   7 H :    0.144008
   8 H :    0.147404
   9 H :    0.152999
  10 H :    0.151893
  11 H :    0.153217
  12 H :    0.144078
  13 H :    0.149473
  14 H :    0.149250
  15 H :    0.151095
  16 H :    0.152881
  17 H :    0.155709
Sum of atomic charges:   -0.0000000

LOEWDIN ATOMIC CHARGES
----------------------
   0 C :   -0.415320
   1 C :   -0.236206
   2 C :   -0.300659
   3 C :   -0.303095
   4 C :   -0.303881
   5 C :   -0.302325
   6 H :    0.150963
   7 H :    0.152757
   8 H :    0.151418
   9 H :    0.156536
  10 H :    0.157432
  11 H :    0.157320
  12 H :    0.154870
  13 H :    0.155178
  14 H :    0.155340
  15 H :    0.153956
  16 H :    0.157148
  17 H :    0.158566

  Mayer bond orders larger than 0.100000
B(  0-C ,  1-C ) :   0.8913 B(  0-C ,  6-H ) :   0.9934 B(  0-C ,  7-H ) :   0.9727
B(  0-C ,  8-H ) :   0.9795 B(  1-C ,  2-C ) :   0.9308 B(  1-C ,  5-C ) :   0.9313
B(  1-C ,  9-H ) :   0.9389 B(  2-C ,  3-C ) :   0.8897 B(  2-C , 10-H ) :   0.9511
B(  2-C , 11-H ) :   1.0070 B(  3-C ,  4-C ) :   0.8987 B(  3-C , 12-H ) :   0.9783
B(  3-C , 13-H ) :   0.9579 B(  4-C ,  5-C ) :   0.9240 B(  4-C , 14-H ) :   0.9508
B(  4-C , 15-H ) :   0.9953 B(  5-C , 16-H ) :   0.9766 B(  5-C , 17-H ) :   0.9794

Dispersion correction           -0.004681485
FINAL SINGLE POINT ENERGY      -235.784128462480

DIPOLE MOMENT
-------------

Method             : SCF
Type of density    : Electron Density
Multiplicity       :   1
Irrep              :   0
Energy             :  -235.7869619873453644 Eh
Relativity type    :
Basis              : AO
                                X                 Y                 Z
Electronic contribution:      1.156148636      -0.080502746       0.646532074
Nuclear contribution   :     -1.140665711       0.072947561      -0.605855714
                        -----------------------------------------
Total Dipole Moment    :      0.015482925      -0.007555185       0.040676360
                        -----------------------------------------
Magnitude (a.u.)       :      0.044174291
Magnitude (Debye)      :      0.112282125

Rotational constants in cm-1:             0.197020             0.103081             0.078958
Rotational constants in MHz :          5906.510629          3090.283519          2367.102232

                             ****ORCA TERMINATED NORMALLY****
TOTAL RUN TIME: 0 days 0 hours 0 minutes 10 seconds 949 msec
