                         Program Version 6.0.0  -   RELEASE  -
|  1> ! r2scan-3c def2/J RI DEFGRID2 scfconv6 printgap
|  2> %output
|  3>     printlevel normal
|  4> end
|  5> %cpcm
|  6>     smd true
|  7>     smdsolvent "water"
|  8> end
|  9> * xyz 0 1
| 10> C -2.1115931692 -0.002522899 -0.3297692231
| 11> C -0.8028886906 -0.0676727521 0.4495487115
| 12> C 0.0946091258 -1.2251908549 -0.0241696518
| 13> C 1.5174147459 -0.6819569026 0.0697108992
| 14> C 1.3520380841 0.7619486704 -0.3932559136
| 15> C 0.0524476625 1.2088698852 0.2821264276
| 16> H -1.9161362402 0.1697409142 -1.3860476268
| 17> H -2.6597745054 -0.9367744473 -0.2284685367
| 18> H -2.7384079722 0.8049938778 0.0421088643
| 19> H -1.0417275048 -0.206420896 1.5081203349
| 20> H -0.0501034623 -2.126262461 0.5701583874
| 21> H -0.1346770558 -1.4637468142 -1.0642306925
| 22> H 1.8608624288 -0.7038751195 1.1053136371
| 23> H 2.2222632482 -1.2440001685 -0.5413693916
| 24> H 2.1978714662 1.3922735446 -0.1226605459
| 25> H 1.2397966115 0.7858862646 -1.4783116188
| 26> H 0.2720899247 1.6438865515 1.2575745812
| 27> H -0.4679071299 1.9620544939 -0.3079767581
| 28> *
| 29>
| 30>                          ****END OF INPUT****

CARTESIAN COORDINATES (ANGSTROEM)
---------------------------------
  C     -2.111593   -0.002523   -0.329769
  C     -0.802889   -0.067673    0.449549
  C      0.094609   -1.225191   -0.024170
  C      1.517415   -0.681957    0.069711
  C      1.352038    0.761949   -0.393256
  C      0.052448    1.208870    0.282126
  H     -1.916136    0.169741   -1.386048
  H     -2.659775   -0.936774   -0.228469
  H     -2.738408    0.804994    0.042109
  H     -1.041728   -0.206421    1.508120
  H     -0.050103   -2.126262    0.570158
  H     -0.134677   -1.463747   -1.064231
  H      1.860862   -0.703875    1.105314
  H      2.222263   -1.244000   -0.541369
  H      2.197871    1.392274   -0.122661
  H      1.239797    0.785886   -1.478312
  H      0.272090    1.643887    1.257575
  H     -0.467907    1.962054   -0.307977

 Total Charge           Charge          ....    0
 Multiplicity           Mult            ....    1
 Number of Electrons    NEL             ....   48
 Basis Dimension        Dim             ....  174

ORBITAL ENERGIES
----------------

  NO   OCC          E(Eh)            E(eV)
   0   2.0000     -10.019419      -272.6423
   1   2.0000     -10.011756      -272.4337
   2   2.0000     -10.011596      -272.4294
   3   2.0000     -10.009673      -272.3770
   4   2.0000     -10.009320      -272.3674
   5   2.0000     -10.005560      -272.2651
   6   2.0000      -0.796598       -21.6765
   7   2.0000      -0.702202       -19.1079
   8   2.0000      -0.664933       -18.0937
   9   2.0000      -0.608264       -16.5517
  10   2.0000      -0.528038       -14.3686
  11   2.0000      -0.503803       -13.7092
  12   2.0000      -0.445436       -12.1209
  13   2.0000      -0.426640       -11.6095
  14   2.0000      -0.384553       -10.4642
  15   2.0000      -0.376503       -10.2452
  16   2.0000      -0.361328        -9.8322
  17   2.0000      -0.337666        -9.1883
  18   2.0000      -0.295400        -8.0383
  19   2.0000      -0.293583        -7.9888
  20   2.0000      -0.284714        -7.7475
  21   2.0000      -0.280339        -7.6284
  22   2.0000      -0.276611        -7.5270
  23   2.0000      -0.268306        -7.3010
  24   0.0000       0.092838         2.5263
  25   0.0000       0.106283         2.8921
  26   0.0000       0.113290         3.0828
  27   0.0000       0.134603         3.6627
  28   0.0000       0.144106         3.9213

MULLIKEN ATOMIC CHARGES
-----------------------
   0 C :   -0.574450
   1 C :    0.061478
   2 C :   -0.407281
   3 C :   -0.257966
   4 C :   -0.319567
   5 C :   -0.402545
   6 H :    0.159157
   7 H :    0.152419
   8 H :    0.156049
   9 H :    0.161246
  10 H :    0.160080
  11 H :    0.160539
  12 H :    0.153611
  13 H :    0.156923
  14 H :    0.156767
  15 H :    0.160019
  16 H :    0.161209
  17 H :    0.162311
Sum of atomic charges:   -0.0000000

LOEWDIN ATOMIC CHARGES
----------------------
   0 C :   -0.423281
   1 C :   -0.235365
   2 C :   -0.304378
   3 C :   -0.307473
   4 C :   -0.308113
   5 C :   -0.306024
   6 H :    0.153914
   7 H :    0.154293
   8 H :    0.153245
   9 H :    0.158745
  10 H :    0.159091
  11 H :    0.159253
  12 H :    0.157115
  13 H :    0.156796
  14 H :    0.156832
  15 H :    0.156282
  16 H :    0.159102
  17 H :    0.159967

  Mayer bond orders larger than 0.100000
B(  0-C ,  1-C ) :   0.8847 B(  0-C ,  6-H ) :   0.9898 B(  0-C ,  7-H ) :   0.9711
B(  0-C ,  8-H ) :   0.9770 B(  1-C ,  2-C ) :   0.9296 B(  1-C ,  5-C ) :   0.9299
B(  1-C ,  9-H ) :   0.9406 B(  2-C ,  3-C ) :   0.8889 B(  2-C , 10-H ) :   0.9502
B(  2-C , 11-H ) :   1.0048 B(  3-C ,  4-C ) :   0.8974 B(  3-C , 12-H ) :   0.9775
B(  3-C , 13-H ) :   0.9563 B(  4-C ,  5-C ) :   0.9197 B(  4-C , 14-H ) :   0.9498
B(  4-C , 15-H ) :   0.9930 B(  5-C , 16-H ) :   0.9759 B(  5-C , 17-H ) :   0.9785

Dispersion correction           -0.004681485
FINAL SINGLE POINT ENERGY      -235.781932571160

DIPOLE MOMENT
-------------

Method             : SCF
Type of density    : Electron Density
Multiplicity       :   1
Irrep              :   0
Energy             :  -235.7847660960255780 Eh
Relativity type    :
Basis              : AO
                                X                 Y                 Z
Electronic contribution:      1.155621393      -0.080891066       0.652036298
Nuclear contribution   :     -1.140665711       0.072947561      -0.605855714
                        -----------------------------------------
Total Dipole Moment    :      0.014955682      -0.007943504       0.046180584
                        -----------------------------------------
Magnitude (a.u.)       :      0.049187580
Magnitude (Debye)      :      0.125024892

Rotational constants in cm-1:             0.197020             0.103081             0.078958
Rotational constants in MHz :          5906.510629          3090.283519          2367.102232

                             ****ORCA TERMINATED NORMALLY****
TOTAL RUN TIME: 0 days 0 hours 0 minutes 12 seconds 767 msec
