                         Program Version 6.0.0  -   RELEASE  -
|  1> ! r2scan-3c def2/J RI DEFGRID2 scfconv6 printgap
|  2> %output
|  3>     printlevel normal
|  4> end
|  5> * xyz 0 1
|  6> C -2.6822204688 0.8689517949 0.0180738203
|  7> C -1.663359501 -0.1100881243 -0.5562984348
|  8> C -0.5893208348 -0.5033114903 0.4725440059
|  9> C 0.864305999 -0.1604675556 0.0961914537
| 10> C 1.2841943796 -0.8993346639 -1.1768250379
| 11> C 1.0355848085 1.348402967 -0.09405911
| 12> C 1.770660645 -0.6142939004 1.2465102113
| 13> H -2.190998343 1.7843491567 0.3399734011
| 14> H -3.4292670928 1.1253094946 -0.7302125889
| 15> H -3.1920302591 0.4320503174 0.874044355
| 16> H -2.1882050316 -1.0032207247 -0.9002979648
| 17> H -1.2032287372 0.3445418006 -1.4334396321
| 18> H -0.641255658 -1.5785236882 0.6564719745
| 19> H -0.8135517491 -0.0081620507 1.4198666626
| 20> H 0.6872645832 -0.5891940578 -2.0302158929
| 21> H 2.3286167779 -0.6956052851 -1.4027752536
| 22> H 1.1642206423 -1.9728413969 -1.0488578639
| 23> H 0.7483409294 1.8793819998 0.810898149
| 24> H 0.4261860033 1.7160976496 -0.9150985096
| 25> H 2.0747364498 1.583796147 -0.3135271312
| 26> H 1.5050434181 -0.1028602395 2.1691922346
| 27> H 1.6760795701 -1.6856417468 1.4098978865
| 28> H 2.811558147 -0.3936174464 1.0209475144
| 29> *
| 30>
| 31>                          ****END OF INPUT****

CARTESIAN COORDINATES (ANGSTROEM)
---------------------------------
  C     -2.682220    0.868952    0.018074
  C     -1.663360   -0.110088   -0.556298
  C     -0.589321   -0.503311    0.472544
  C      0.864306   -0.160468    0.096191
  C      1.284194   -0.899335   -1.176825
  C      1.035585    1.348403   -0.094059
  C      1.770661   -0.614294    1.246510
  H     -2.190998    1.784349    0.339973
  H     -3.429267    1.125309   -0.730213
  H     -3.192030    0.432050    0.874044
  H     -2.188205   -1.003221   -0.900298
  H     -1.203229    0.344542   -1.433440
  H     -0.641256   -1.578524    0.656472
  H     -0.813552   -0.008162    1.419867
  H      0.687265   -0.589194   -2.030216
  H      2.328617   -0.695605   -1.402775
  H      1.164221   -1.972841   -1.048858
  H      0.748341    1.879382    0.810898
  H      0.426186    1.716098   -0.915099
  H      2.074736    1.583796   -0.313527
  H      1.505043   -0.102860    2.169192
  H      1.676080   -1.685642    1.409898
  H      2.811558   -0.393617    1.020948

 Total Charge           Charge          ....    0
 Multiplicity           Mult            ....    1
 Number of Electrons    NEL             ....   58
 Basis Dimension        Dim             ....  213

ORBITAL ENERGIES
----------------

  NO   OCC          E(Eh)            E(eV)
   0   2.0000     -10.038678      -273.1663
   1   2.0000     -10.020973      -272.6845
   2   2.0000     -10.017496      -272.5899
   3   2.0000     -10.013932      -272.4930
   4   2.0000     -10.011951      -272.4390
   5   2.0000     -10.011401      -272.4241
   6   2.0000     -10.011205      -272.4187
   7   2.0000      -0.792287       -21.5592
   8   2.0000      -0.731749       -19.9119
   9   2.0000      -0.650073       -17.6894
  10   2.0000      -0.648769       -17.6539
  11   2.0000      -0.640034       -17.4162
  12   2.0000      -0.557305       -15.1650
  13   2.0000      -0.494012       -13.4428
  14   2.0000      -0.435682       -11.8555
  15   2.0000      -0.425546       -11.5797
  16   2.0000      -0.408177       -11.1070
  17   2.0000      -0.393955       -10.7201
  18   2.0000      -0.379113       -10.3162
  19   2.0000      -0.367822       -10.0089
  20   2.0000      -0.351445        -9.5633
  21   2.0000      -0.339215        -9.2305
  22   2.0000      -0.329975        -8.9791
  23   2.0000      -0.320874        -8.7314
  24   2.0000      -0.312844        -8.5129
  25   2.0000      -0.302164        -8.2223
  26   2.0000      -0.282397        -7.6844
  27   2.0000      -0.276410        -7.5215
  28   2.0000      -0.272208        -7.4072
  29   0.0000       0.077252         2.1021
  30   0.0000       0.099174         2.6987
  31   0.0000       0.112535         3.0622
  32   0.0000       0.117248         3.1905
  33   0.0000       0.129973         3.5367

MULLIKEN ATOMIC CHARGES
-----------------------
   0 C :   -0.500460
   1 C :   -0.216165
   2 C :   -0.318514
   3 C :    0.093830
   4 C :   -0.482853
   5 C :   -0.503664
   6 C :   -0.487328
   7 H :    0.148297
   8 H :    0.143529
   9 H :    0.147015
  10 H :    0.146679
  11 H :    0.140118
  12 H :    0.156338
  13 H :    0.159530
  14 H :    0.150791
  15 H :    0.151207
  16 H :    0.153340
  17 H :    0.155506
  18 H :    0.154229
  19 H :    0.151993
  20 H :    0.151719
  21 H :    0.151376
  22 H :    0.153486
Sum of atomic charges:    0.0000000

LOEWDIN ATOMIC CHARGES
----------------------
   0 C :   -0.424771
   1 C :   -0.317417
   2 C :   -0.298161
   3 C :   -0.213561
   4 C :   -0.406402
   5 C :   -0.407579
   6 C :   -0.409482
   7 H :    0.149105
   8 H :    0.148642
   9 H :    0.149337
  10 H :    0.152853
  11 H :    0.151608
  12 H :    0.160686
  13 H :    0.161645
  14 H :    0.154765
  15 H :    0.156130
  16 H :    0.157043
  17 H :    0.156942
  18 H :    0.154984
  19 H :    0.156796
  20 H :    0.155811
  21 H :    0.156002
  22 H :    0.155023

  Mayer bond orders larger than 0.100000
B(  0-C ,  1-C ) :   0.8934 B(  0-C ,  7-H ) :   0.9829 B(  0-C ,  8-H ) :   0.9748
B(  0-C ,  9-H ) :   0.9837 B(  1-C ,  2-C ) :   0.8253 B(  1-C , 10-H ) :   0.9673
B(  1-C , 11-H ) :   0.9846 B(  2-C ,  3-C ) :   0.8933 B(  2-C , 12-H ) :   0.9780
B(  2-C , 13-H ) :   1.0016 B(  3-C ,  4-C ) :   0.9362 B(  3-C ,  5-C ) :   0.9172
B(  3-C ,  6-C ) :   0.9405 B(  4-C , 14-H ) :   0.9669 B(  4-C , 15-H ) :   0.9757
B(  4-C , 16-H ) :   0.9772 B(  5-C , 17-H ) :   0.9774 B(  5-C , 18-H ) :   0.9699
B(  5-C , 19-H ) :   0.9737 B(  6-C , 20-H ) :   0.9772 B(  6-C , 21-H ) :   0.9762
B(  6-C , 22-H ) :   0.9784

Dispersion correction           -0.006566508
FINAL SINGLE POINT ENERGY      -276.286109568276

DIPOLE MOMENT
-------------

Method             : SCF
Type of density    : Electron Density
Multiplicity       :   1
Irrep              :   0
Energy             :  -276.2908393393257143 Eh
Relativity type    :
Basis              : AO
                                X                 Y                 Z
Electronic contribution:      0.209132259      -0.806942513       0.053840786
Nuclear contribution   :     -0.221866126       0.784171552      -0.068610241
                        -----------------------------------------
Total Dipole Moment    :     -0.012733868      -0.022770961      -0.014769455
                        -----------------------------------------
Magnitude (a.u.)       :      0.029980074
Magnitude (Debye)      :      0.076203293

Rotational constants in cm-1:             0.131635             0.050472             0.049269
Rotational constants in MHz :          3946.308788          1513.119828          1477.043021

                             ****ORCA TERMINATED NORMALLY****
TOTAL RUN TIME: 0 days 0 hours 0 minutes 17 seconds 732 msec
