                         Program Version 6.0.0  -   RELEASE  -
|  1> ! r2scan-3c def2/J RI DEFGRID2 scfconv6 printgap
|  2> %output
|  3>     printlevel normal
|  4> end
|  5> %cpcm
|  6>     smd true
|  7>     smdsolvent "water"
|  8> end
|  9> * xyz 0 1
| 10> C -2.6822204688 0.8689517949 0.0180738203
| 11> C -1.663359501 -0.1100881243 -0.5562984348
| 12> C -0.5893208348 -0.5033114903 0.4725440059
| 13> C 0.864305999 -0.1604675556 0.0961914537
| 14> C 1.2841943796 -0.8993346639 -1.1768250379
| 15> C 1.0355848085 1.348402967 -0.09405911
| 16> C 1.770660645 -0.6142939004 1.2465102113
| 17> H -2.190998343 1.7843491567 0.3399734011
| 18> H -3.4292670928 1.1253094946 -0.7302125889
| 19> H -3.1920302591 0.4320503174 0.874044355
| 20> H -2.1882050316 -1.0032207247 -0.9002979648
| 21> H -1.2032287372 0.3445418006 -1.4334396321
| 22> H -0.641255658 -1.5785236882 0.6564719745
| 23> H -0.8135517491 -0.0081620507 1.4198666626
| 24> H 0.6872645832 -0.5891940578 -2.0302158929
| 25> H 2.3286167779 -0.6956052851 -1.4027752536
| 26> H 1.1642206423 -1.9728413969 -1.0488578639
| 27> H 0.7483409294 1.8793819998 0.810898149
| 28> H 0.4261860033 1.7160976496 -0.9150985096
| 29> H 2.0747364498 1.583796147 -0.3135271312
| 30> H 1.5050434181 -0.1028602395 2.1691922346
| 31> H 1.6760795701 -1.6856417468 1.4098978865
| 32> H 2.811558147 -0.3936174464 1.0209475144
| 33> *
| 34>
| 35>                          ****END OF INPUT****

CARTESIAN COORDINATES (ANGSTROEM)
---------------------------------
  C     -2.682220    0.868952    0.018074
  C     -1.663360   -0.110088   -0.556298
  C     -0.589321   -0.503311    0.472544
  C      0.864306   -0.160468    0.096191
  C      1.284194   -0.899335   -1.176825
  C      1.035585    1.348403   -0.094059
  C      1.770661   -0.614294    1.246510
  H     -2.190998    1.784349    0.339973
  H     -3.429267    1.125309   -0.730213
  H     -3.192030    0.432050    0.874044
  H     -2.188205   -1.003221   -0.900298
  H     -1.203229    0.344542   -1.433440
  H     -0.641256   -1.578524    0.656472
  H     -0.813552   -0.008162    1.419867
  H      0.687265   -0.589194   -2.030216
  H      2.328617   -0.695605   -1.402775
  H      1.164221   -1.972841   -1.048858
  H      0.748341    1.879382    0.810898
  H      0.426186    1.716098   -0.915099
  H      2.074736    1.583796   -0.313527
  H      1.505043   -0.102860    2.169192
  H      1.676080   -1.685642    1.409898
  H      2.811558   -0.393617    1.020948

 Total Charge           Charge          ....    0
 Multiplicity           Mult            ....    1
 Number of Electrons    NEL             ....   58
 Basis Dimension        Dim             ....  213

ORBITAL ENERGIES
----------------

  NO   OCC          E(Eh)            E(eV)
   0   2.0000     -10.031402      -272.9683
   1   2.0000     -10.012882      -272.4644
   2   2.0000     -10.009331      -272.3678
   3   2.0000     -10.006833      -272.2998
   4   2.0000     -10.003626      -272.2125
   5   2.0000     -10.003579      -272.2112
   6   2.0000     -10.003537      -272.2101
   7   2.0000      -0.784544       -21.3485
   8   2.0000      -0.724406       -19.7121
   9   2.0000      -0.642603       -17.4861
  10   2.0000      -0.641643       -17.4600
  11   2.0000      -0.632929       -17.2229
  12   2.0000      -0.550020       -14.9668
  13   2.0000      -0.486786       -13.2461
  14   2.0000      -0.427800       -11.6410
  15   2.0000      -0.417870       -11.3708
  16   2.0000      -0.400601       -10.9009
  17   2.0000      -0.386574       -10.5192
  18   2.0000      -0.371718       -10.1150
  19   2.0000      -0.360363        -9.8060
  20   2.0000      -0.343979        -9.3601
  21   2.0000      -0.331766        -9.0278
  22   2.0000      -0.322273        -8.7695
  23   2.0000      -0.313274        -8.5246
  24   2.0000      -0.305134        -8.3031
  25   2.0000      -0.294650        -8.0178
  26   2.0000      -0.274758        -7.4766
  27   2.0000      -0.268742        -7.3128
  28   2.0000      -0.264493        -7.1972
  29   0.0000       0.085902         2.3375
  30   0.0000       0.106632         2.9016
  31   0.0000       0.120428         3.2770
  32   0.0000       0.124233         3.3806
  33   0.0000       0.137218         3.7339

MULLIKEN ATOMIC CHARGES
-----------------------
   0 C :   -0.534225
   1 C :   -0.236577
   2 C :   -0.339784
   3 C :    0.155085
   4 C :   -0.537694
   5 C :   -0.552870
   6 C :   -0.540122
   7 H :    0.156381
   8 H :    0.152613
   9 H :    0.156086
  10 H :    0.154183
  11 H :    0.155909
  12 H :    0.165714
  13 H :    0.167067
  14 H :    0.163546
  15 H :    0.162862
  16 H :    0.164761
  17 H :    0.166229
  18 H :    0.166579
  19 H :    0.163218
  20 H :    0.163181
  21 H :    0.162696
  22 H :    0.165163
Sum of atomic charges:   -0.0000000

LOEWDIN ATOMIC CHARGES
----------------------
   0 C :   -0.432741
   1 C :   -0.320840
   2 C :   -0.301344
   3 C :   -0.208374
   4 C :   -0.415623
   5 C :   -0.416059
   6 C :   -0.418748
   7 H :    0.150853
   8 H :    0.150409
   9 H :    0.151250
  10 H :    0.154138
  11 H :    0.155905
  12 H :    0.162686
  13 H :    0.163260
  14 H :    0.157462
  15 H :    0.158590
  16 H :    0.159219
  17 H :    0.159248
  18 H :    0.158010
  19 H :    0.158907
  20 H :    0.158082
  21 H :    0.158193
  22 H :    0.157516

  Mayer bond orders larger than 0.100000
B(  0-C ,  1-C ) :   0.8877 B(  0-C ,  7-H ) :   0.9806 B(  0-C ,  8-H ) :   0.9731
B(  0-C ,  9-H ) :   0.9807 B(  1-C ,  2-C ) :   0.8178 B(  1-C , 10-H ) :   0.9677
B(  1-C , 11-H ) :   0.9837 B(  2-C ,  3-C ) :   0.8891 B(  2-C , 12-H ) :   0.9779
B(  2-C , 13-H ) :   1.0003 B(  3-C ,  4-C ) :   0.9213 B(  3-C ,  5-C ) :   0.9057
B(  3-C ,  6-C ) :   0.9232 B(  4-C , 14-H ) :   0.9661 B(  4-C , 15-H ) :   0.9745
B(  4-C , 16-H ) :   0.9759 B(  5-C , 17-H ) :   0.9754 B(  5-C , 18-H ) :   0.9681
B(  5-C , 19-H ) :   0.9730 B(  6-C , 20-H ) :   0.9762 B(  6-C , 21-H ) :   0.9752
B(  6-C , 22-H ) :   0.9769

Dispersion correction           -0.006566508
FINAL SINGLE POINT ENERGY      -276.282456066781

DIPOLE MOMENT
-------------

Method             : SCF
Type of density    : Electron Density
Multiplicity       :   1
Irrep              :   0
Energy             :  -276.2871858378309184 Eh
Relativity type    :
Basis              : AO
                                X                 Y                 Z
Electronic contribution:      0.211432603      -0.804949633       0.042293807
Nuclear contribution   :     -0.221866126       0.784171552      -0.068610241
                        -----------------------------------------
Total Dipole Moment    :     -0.010433524      -0.020778081      -0.026316434
                        -----------------------------------------
Magnitude (a.u.)       :      0.035116118
Magnitude (Debye)      :      0.089258079

Rotational constants in cm-1:             0.131635             0.050472             0.049269
Rotational constants in MHz :          3946.308788          1513.119828          1477.043021

                             ****ORCA TERMINATED NORMALLY****
TOTAL RUN TIME: 0 days 0 hours 0 minutes 21 seconds 535 msec
