                         Program Version 6.0.0  -   RELEASE  -
|  1> ! pbe def2-sv(p) def2/J RI DEFGRID1 loosescf d4 GCP(DFT/SV(P)) printgap
|  2> %output
|  3>     printlevel normal
|  4> end
|  5> * xyz 0 1
|  6> C -2.4883968489 -0.2247481508 -0.5430729228
|  7> C -1.211440992 -0.2010052126 0.3022516761
|  8> H -1.4360394583 -0.5835717473 1.3098382238
|  9> C -0.6152212227 1.2128958515 0.4714327358
| 10> H -1.35946153 1.9602872034 0.1582841931
| 11> C 0.6242224185 1.3695185337 -0.4369724412
| 12> H 1.0754039402 2.3535897225 -0.2709582077
| 13> C 1.6909876899 0.3076926717 -0.0977102401
| 14> H 2.2801838972 0.128967487 -1.0114435742
| 15> C 0.9881797648 -1.009774374 0.3129742257
| 16> H 0.8575427479 -1.0120188998 1.4064193332
| 17> O -0.2748906917 -1.0738043623 -0.3190895897
| 18> O 1.7153226486 -2.1408344676 -0.0025157292
| 19> O 2.511264773 0.8148944571 0.921171068
| 20> O 0.2649086372 1.3344993218 -1.7927981682
| 21> O -0.3030940897 1.366106813 1.8331809664
| 22> O -3.0583671803 -1.5061518206 -0.5984639904
| 23> H -2.2693964476 0.1466344918 -1.5524410992
| 24> H -3.2357104965 0.4218516908 -0.0806223548
| 25> H 1.6805928654 -2.3023178531 -0.9582559062
| 26> H 3.1853275271 0.1609329477 1.1551407254
| 27> H -0.0579388324 0.4449752208 -2.005190465
| 28> H 0.1435143883 2.2118387359 1.9816665289
| 29> H -2.382655192 -2.1324136083 -0.8970592396
| 30> *
| 31>
| 32>                          ****END OF INPUT****

CARTESIAN COORDINATES (ANGSTROEM)
---------------------------------
  C     -2.488397   -0.224748   -0.543073
  C     -1.211441   -0.201005    0.302252
  H     -1.436039   -0.583572    1.309838
  C     -0.615221    1.212896    0.471433
  H     -1.359462    1.960287    0.158284
  C      0.624222    1.369519   -0.436972
  H      1.075404    2.353590   -0.270958
  C      1.690988    0.307693   -0.097710
  H      2.280184    0.128967   -1.011444
  C      0.988180   -1.009774    0.312974
  H      0.857543   -1.012019    1.406419
  O     -0.274891   -1.073804   -0.319090
  O      1.715323   -2.140834   -0.002516
  O      2.511265    0.814894    0.921171
  O      0.264909    1.334499   -1.792798
  O     -0.303094    1.366107    1.833181
  O     -3.058367   -1.506152   -0.598464
  H     -2.269396    0.146634   -1.552441
  H     -3.235710    0.421852   -0.080622
  H      1.680593   -2.302318   -0.958256
  H      3.185328    0.160933    1.155141
  H     -0.057939    0.444975   -2.005190
  H      0.143514    2.211839    1.981667
  H     -2.382655   -2.132414   -0.897059

 Total Charge           Charge          ....    0
 Multiplicity           Mult            ....    1
 Number of Electrons    NEL             ....   96
 Basis Dimension        Dim             ....  192

ORBITAL ENERGIES
----------------

  NO   OCC          E(Eh)            E(eV)
   0   2.0000     -18.789112      -511.2777
   1   2.0000     -18.770475      -510.7706
   2   2.0000     -18.760521      -510.4997
   3   2.0000     -18.758383      -510.4416
   4   2.0000     -18.756756      -510.3973
   5   2.0000     -18.747082      -510.1340
   6   2.0000      -9.991265      -271.8761
   7   2.0000      -9.949965      -270.7523
   8   2.0000      -9.947550      -270.6866
   9   2.0000      -9.947098      -270.6743
  10   2.0000      -9.944123      -270.5933
  11   2.0000      -9.939012      -270.4543
  12   2.0000      -0.996774       -27.1236
  13   2.0000      -0.946243       -25.7486
  14   2.0000      -0.939090       -25.5539
  15   2.0000      -0.930144       -25.3105
  16   2.0000      -0.928272       -25.2596
  17   2.0000      -0.917466       -24.9655
  18   2.0000      -0.703700       -19.1486
  19   2.0000      -0.691925       -18.8282
  20   2.0000      -0.619324       -16.8527
  21   2.0000      -0.600228       -16.3330
  22   2.0000      -0.570457       -15.5229
  23   2.0000      -0.541052       -14.7228
  24   2.0000      -0.502925       -13.6853
  25   2.0000      -0.494514       -13.4564
  26   2.0000      -0.485661       -13.2155
  27   2.0000      -0.466788       -12.7020
  28   2.0000      -0.446002       -12.1363
  29   2.0000      -0.441795       -12.0219
  30   2.0000      -0.419646       -11.4191
  31   2.0000      -0.405915       -11.0455
  32   2.0000      -0.381257       -10.3745
  33   2.0000      -0.379666       -10.3312
  34   2.0000      -0.367037        -9.9876
  35   2.0000      -0.347383        -9.4528
  36   2.0000      -0.335022        -9.1164
  37   2.0000      -0.323519        -8.8034
  38   2.0000      -0.310264        -8.4427
  39   2.0000      -0.305933        -8.3249
  40   2.0000      -0.295416        -8.0387
  41   2.0000      -0.281062        -7.6481
  42   2.0000      -0.258165        -7.0250
  43   2.0000      -0.251556        -6.8452
  44   2.0000      -0.237897        -6.4735
  45   2.0000      -0.220582        -6.0023
  46   2.0000      -0.214020        -5.8238
  47   2.0000      -0.210597        -5.7306
  48   0.0000       0.013252         0.3606
  49   0.0000       0.019130         0.5205
  50   0.0000       0.028300         0.7701
  51   0.0000       0.047231         1.2852
  52   0.0000       0.053430         1.4539

MULLIKEN ATOMIC CHARGES
-----------------------
   0 C :    0.081793
   1 C :   -0.026265
   2 H :    0.092357
   3 C :    0.034576
   4 H :    0.073479
   5 C :    0.027376
   6 H :    0.072059
   7 C :    0.074975
   8 H :    0.047590
   9 C :    0.163039
  10 H :    0.075884
  11 O :   -0.334621
  12 O :   -0.381173
  13 O :   -0.414877
  14 O :   -0.417526
  15 O :   -0.404405
  16 O :   -0.431817
  17 H :    0.062840
  18 H :    0.096827
  19 H :    0.301302
  20 H :    0.305753
  21 H :    0.296472
  22 H :    0.305307
  23 H :    0.299057
Sum of atomic charges:   -0.0000000

LOEWDIN ATOMIC CHARGES
----------------------
   0 C :   -0.126973
   1 C :   -0.072020
   2 H :    0.120394
   3 C :   -0.076304
   4 H :    0.105010
   5 C :   -0.071638
   6 H :    0.116794
   7 C :   -0.092186
   8 H :    0.099526
   9 C :   -0.008386
  10 H :    0.108195
  11 O :   -0.169440
  12 O :   -0.293782
  13 O :   -0.316401
  14 O :   -0.310405
  15 O :   -0.311403
  16 O :   -0.333871
  17 H :    0.095298
  18 H :    0.123314
  19 H :    0.286147
  20 H :    0.289938
  21 H :    0.268575
  22 H :    0.288234
  23 H :    0.281383

  Mayer bond orders larger than 0.100000
B(  0-C ,  1-C ) :   1.0616 B(  0-C , 16-O ) :   1.0792 B(  0-C , 17-H ) :   0.8974
B(  0-C , 18-H ) :   0.9161 B(  1-C ,  2-H ) :   0.8847 B(  1-C ,  3-C ) :   0.9451
B(  1-C , 11-O ) :   0.9638 B(  3-C ,  4-H ) :   0.9007 B(  3-C ,  5-C ) :   0.9972
B(  3-C , 15-O ) :   1.0725 B(  5-C ,  6-H ) :   0.8834 B(  5-C ,  7-C ) :   0.9564
B(  5-C , 14-O ) :   1.0497 B(  7-C ,  8-H ) :   0.8880 B(  7-C ,  9-C ) :   0.9998
B(  7-C , 13-O ) :   1.0752 B(  9-C , 10-H ) :   0.8635 B(  9-C , 11-O ) :   1.0132
B(  9-C , 12-O ) :   1.1326 B( 12-O , 19-H ) :   0.8418 B( 13-O , 20-H ) :   0.8428
B( 14-O , 21-H ) :   0.8233 B( 15-O , 22-H ) :   0.8416 B( 16-O , 23-H ) :   0.8438

Dispersion correction           -0.024795638
FINAL SINGLE POINT ENERGY      -685.690105478658

DIPOLE MOMENT
-------------

Method             : SCF
Type of density    : Electron Density
Multiplicity       :   1
Irrep              :   0
Energy             :  -685.8207460174716061 Eh
Relativity type    :
Basis              : AO
                                X                 Y                 Z
Electronic contribution:      2.113469780      -1.658878897       0.432327502
Nuclear contribution   :     -1.412070945       1.669682799      -0.716730791
                        -----------------------------------------
Total Dipole Moment    :      0.701398835       0.010803902      -0.284403290
                        -----------------------------------------
Magnitude (a.u.)       :      0.756942720
Magnitude (Debye)      :      1.923995491

Rotational constants in cm-1:             0.041532             0.025495             0.021389
Rotational constants in MHz :          1245.091507           764.332311           641.220225

                             ****ORCA TERMINATED NORMALLY****
TOTAL RUN TIME: 0 days 0 hours 0 minutes 12 seconds 152 msec
