                         Program Version 6.0.0  -   RELEASE  -
|  1> ! pbe def2-sv(p) def2/J RI DEFGRID1 loosescf d4 GCP(DFT/SV(P)) printgap
|  2> %output
|  3>     printlevel normal
|  4> end
|  5> * xyz 0 1
|  6> C -1.5502620083 0.916555529 -0.255568954
|  7> C -1.3272555082 -0.5083723204 0.2355645076
|  8> C 0.0807845618 -1.0024193265 0.4083816815
|  9> C 1.2653655493 -0.4710543367 0.1414728088
| 10> C 1.6235104161 0.8545803798 -0.4545542214
| 11> H -2.6099251604 1.1563903602 -0.1885211725
| 12> H -1.2505143572 1.0266023091 -1.294023133
| 13> H -1.000775719 1.6272620269 0.3546815296
| 14> H -1.8149272657 -0.6185050423 1.2105170587
| 15> H -1.8370706289 -1.2016587888 -0.4425379894
| 16> H 0.0884707149 -1.9943108574 0.85025921
| 17> H 2.1315755441 -1.0670998331 0.4075484442
| 18> H 1.7578048192 1.5942740532 0.3353998451
| 19> H 0.8698984703 1.2190267701 -1.1415716811
| 20> H 2.5674770514 0.7688640687 -0.9889856422
| 21> *
| 22>
| 23>                          ****END OF INPUT****

CARTESIAN COORDINATES (ANGSTROEM)
---------------------------------
  C     -1.550262    0.916556   -0.255569
  C     -1.327256   -0.508372    0.235565
  C      0.080785   -1.002419    0.408382
  C      1.265366   -0.471054    0.141473
  C      1.623510    0.854580   -0.454554
  H     -2.609925    1.156390   -0.188521
  H     -1.250514    1.026602   -1.294023
  H     -1.000776    1.627262    0.354682
  H     -1.814927   -0.618505    1.210517
  H     -1.837071   -1.201659   -0.442538
  H      0.088471   -1.994311    0.850259
  H      2.131576   -1.067100    0.407548
  H      1.757805    1.594274    0.335400
  H      0.869898    1.219027   -1.141572
  H      2.567477    0.768864   -0.988986

 Total Charge           Charge          ....    0
 Multiplicity           Mult            ....    1
 Number of Electrons    NEL             ....   40
 Basis Dimension        Dim             ....   90

ORBITAL ENERGIES
----------------

  NO   OCC          E(Eh)            E(eV)
   0   2.0000      -9.888237      -269.0726
   1   2.0000      -9.879796      -268.8429
   2   2.0000      -9.879213      -268.8270
   3   2.0000      -9.874195      -268.6905
   4   2.0000      -9.873947      -268.6838
   5   2.0000      -0.719742       -19.5852
   6   2.0000      -0.669693       -18.2233
   7   2.0000      -0.613778       -16.7018
   8   2.0000      -0.549625       -14.9561
   9   2.0000      -0.458524       -12.4771
  10   2.0000      -0.419234       -11.4079
  11   2.0000      -0.401912       -10.9366
  12   2.0000      -0.371204       -10.1010
  13   2.0000      -0.361341        -9.8326
  14   2.0000      -0.343483        -9.3467
  15   2.0000      -0.335803        -9.1377
  16   2.0000      -0.312452        -8.5023
  17   2.0000      -0.293167        -7.9775
  18   2.0000      -0.273133        -7.4323
  19   2.0000      -0.206818        -5.6278
  20   0.0000      -0.001491        -0.0406
  21   0.0000       0.037242         1.0134
  22   0.0000       0.064338         1.7507
  23   0.0000       0.071747         1.9523
  24   0.0000       0.091587         2.4922

MULLIKEN ATOMIC CHARGES
-----------------------
   0 C :   -0.286845
   1 C :   -0.137629
   2 C :   -0.138602
   3 C :   -0.175456
   4 C :   -0.225382
   5 H :    0.098058
   6 H :    0.117535
   7 H :    0.111873
   8 H :    0.091862
   9 H :    0.096138
  10 H :    0.061320
  11 H :    0.063233
  12 H :    0.116142
  13 H :    0.108013
  14 H :    0.099741
Sum of atomic charges:    0.0000000

LOEWDIN ATOMIC CHARGES
----------------------
   0 C :   -0.342315
   1 C :   -0.232243
   2 C :   -0.152769
   3 C :   -0.161062
   4 C :   -0.343147
   5 H :    0.120065
   6 H :    0.119210
   7 H :    0.121005
   8 H :    0.126100
   9 H :    0.126959
  10 H :    0.118507
  11 H :    0.118799
  12 H :    0.131035
  13 H :    0.125260
  14 H :    0.124597

  Mayer bond orders larger than 0.100000
B(  0-C ,  1-C ) :   1.1653 B(  0-C ,  5-H ) :   0.9436 B(  0-C ,  6-H ) :   0.9443
B(  0-C ,  7-H ) :   0.9518 B(  1-C ,  2-C ) :   1.0870 B(  1-C ,  8-H ) :   0.9101
B(  1-C ,  9-H ) :   0.9079 B(  2-C ,  3-C ) :   2.0390 B(  2-C , 10-H ) :   0.9140
B(  3-C ,  4-C ) :   1.1111 B(  3-C , 11-H ) :   0.9166 B(  4-C , 12-H ) :   0.9326
B(  4-C , 13-H ) :   0.9384 B(  4-C , 14-H ) :   0.9383

Dispersion correction           -0.010208522
FINAL SINGLE POINT ENERGY      -196.025326236801

DIPOLE MOMENT
-------------

Method             : SCF
Type of density    : Electron Density
Multiplicity       :   1
Irrep              :   0
Energy             :  -196.0732916439017401 Eh
Relativity type    :
Basis              : AO
                                X                 Y                 Z
Electronic contribution:      0.936028021      -2.274370447       0.830708891
Nuclear contribution   :     -1.030099622       2.355603170      -0.841758887
                        -----------------------------------------
Total Dipole Moment    :     -0.094071601       0.081232723      -0.011049996
                        -----------------------------------------
Magnitude (a.u.)       :      0.124781104
Magnitude (Debye)      :      0.317168359

Rotational constants in cm-1:             0.255379             0.122637             0.086908
Rotational constants in MHz :          7656.068173          3676.556367          2605.424690

                             ****ORCA TERMINATED NORMALLY****
TOTAL RUN TIME: 0 days 0 hours 0 minutes 6 seconds 154 msec
