                         Program Version 6.0.0  -   RELEASE  -
|  1> ! wb97x-v def2-tzvp def2/J RIJCOSX DEFGRID2 scfconv7 GCP(DFT/TZ) printgap
|  2> %output
|  3>     printlevel normal
|  4> end
|  5> * xyz 0 1
|  6> C -2.686834794311711 -1.7109311260671902 0.8314506528966934
|  7> C -2.3304687271888596 -1.0079744384863394 -0.48514146949401915
|  8> C -1.3044207210256828 0.07914417002693211 -0.29465758984246854
|  9> C -1.7100417445312583 1.3956014622417066 -0.19888729759961052
| 10> C -0.7946484380249004 2.4427367327335787 0.032228850636112534
| 11> C 0.5451161963480822 2.174423164667763 0.1667602438560151
| 12> C 1.0177420292960278 0.843055250406339 0.07177793592070811
| 13> C 0.08693570330099998 -0.22414626444424032 -0.1606231504217693
| 14> C 0.5963919603926336 -1.545118593349283 -0.2551049013355339
| 15> C 1.9422488006639553 -1.800291950350713 -0.12644584474973034
| 16> C 2.852731535527033 -0.7479946347808294 0.10457489698928339
| 17> C 2.3972966839293446 0.5447629053711062 0.1996979420405127
| 18> H -3.106893497813307 -0.99576864993908 1.5461188199495963
| 19> H -1.8057263743270033 -2.168826229024129 1.2913863722114054
| 20> H -3.4287595797863872 -2.497344606636502 0.660074493814356
| 21> H -3.236317272120214 -0.5603282605147272 -0.9061889405127641
| 22> H -1.9768140004587589 -1.7471773440545322 -1.212088565729699
| 23> H -2.7661144035754996 1.6302497239331841 -0.3033905313904782
| 24> H -1.1577148800892327 3.463663072763942 0.1003943309491404
| 25> H 1.259520306152039 2.97312588769244 0.3449348533872649
| 26> H -0.08399492346759758 -2.3704426188209387 -0.43241539492251985
| 27> H 2.308054972708745 -2.8193716347199587 -0.20456542001654032
| 28> H 3.912033984217089 -0.9628901224089506 0.20444401831379655
| 29> H 3.0903797623024007 1.3632573897142382 0.3740892226557811
| 30> *
| 31>
| 32>                          ****END OF INPUT****

CARTESIAN COORDINATES (ANGSTROEM)
---------------------------------
  C     -2.686835   -1.710931    0.831451
  C     -2.330469   -1.007974   -0.485141
  C     -1.304421    0.079144   -0.294658
  C     -1.710042    1.395601   -0.198887
  C     -0.794648    2.442737    0.032229
  C      0.545116    2.174423    0.166760
  C      1.017742    0.843055    0.071778
  C      0.086936   -0.224146   -0.160623
  C      0.596392   -1.545119   -0.255105
  C      1.942249   -1.800292   -0.126446
  C      2.852732   -0.747995    0.104575
  C      2.397297    0.544763    0.199698
  H     -3.106893   -0.995769    1.546119
  H     -1.805726   -2.168826    1.291386
  H     -3.428760   -2.497345    0.660074
  H     -3.236317   -0.560328   -0.906189
  H     -1.976814   -1.747177   -1.212089
  H     -2.766114    1.630250   -0.303391
  H     -1.157715    3.463663    0.100394
  H      1.259520    2.973126    0.344935
  H     -0.083995   -2.370443   -0.432415
  H      2.308055   -2.819372   -0.204565
  H      3.912034   -0.962890    0.204444
  H      3.090380    1.363257    0.374089

 Total Charge           Charge          ....    0
 Multiplicity           Mult            ....    1
 Number of Electrons    NEL             ....   84
 Basis Dimension        Dim             ....  444

ORBITAL ENERGIES
----------------

  NO   OCC          E(Eh)            E(eV)
   0   2.0000     -12.061519      -328.2106
   1   2.0000     -12.060107      -328.1722
   2   2.0000     -12.058838      -328.1377
   3   2.0000     -12.053417      -327.9902
   4   2.0000     -12.052889      -327.9758
   5   2.0000     -12.051434      -327.9362
   6   2.0000     -12.051219      -327.9303
   7   2.0000     -12.050186      -327.9022
   8   2.0000     -12.050042      -327.8983
   9   2.0000     -12.048770      -327.8637
  10   2.0000     -12.047103      -327.8183
  11   2.0000     -12.038103      -327.5734
  12   2.0000      -1.401676       -38.1415
  13   2.0000      -1.350584       -36.7512
  14   2.0000      -1.316062       -35.8119
  15   2.0000      -1.269939       -34.5568
  16   2.0000      -1.268673       -34.5223
  17   2.0000      -1.232138       -33.5282
  18   2.0000      -1.140257       -31.0280
  19   2.0000      -1.123258       -30.5654
  20   2.0000      -1.112965       -30.2853
  21   2.0000      -1.061103       -28.8741
  22   2.0000      -0.999527       -27.1985
  23   2.0000      -0.978825       -26.6352
  24   2.0000      -0.969656       -26.3857
  25   2.0000      -0.914404       -24.8822
  26   2.0000      -0.905676       -24.6447
  27   2.0000      -0.899777       -24.4842
  28   2.0000      -0.883521       -24.0418
  29   2.0000      -0.865565       -23.5532
  30   2.0000      -0.855366       -23.2757
  31   2.0000      -0.843742       -22.9594
  32   2.0000      -0.831413       -22.6239
  33   2.0000      -0.816294       -22.2125
  34   2.0000      -0.807273       -21.9670
  35   2.0000      -0.790697       -21.5159
  36   2.0000      -0.781794       -21.2737
  37   2.0000      -0.771158       -20.9843
  38   2.0000      -0.724001       -19.7011
  39   2.0000      -0.676174       -18.3996
  40   2.0000      -0.627448       -17.0737
  41   2.0000      -0.595992       -16.2178
  42   0.0000      -0.283384        -7.7113
  43   0.0000      -0.255460        -6.9514
  44   0.0000      -0.199659        -5.4330
  45   0.0000      -0.129438        -3.5222
  46   0.0000      -0.050603        -1.3770

MULLIKEN ATOMIC CHARGES
-----------------------
   0 C :   -0.339367
   1 C :   -0.221177
   2 C :    0.158167
   3 C :   -0.193171
   4 C :   -0.100362
   5 C :   -0.239280
   6 C :    0.172613
   7 C :    0.086819
   8 C :   -0.255208
   9 C :   -0.136463
  10 C :   -0.110125
  11 C :   -0.188402
  12 H :    0.113740
  13 H :    0.119617
  14 H :    0.111070
  15 H :    0.105956
  16 H :    0.107803
  17 H :    0.110212
  18 H :    0.114721
  19 H :    0.110731
  20 H :    0.127540
  21 H :    0.116115
  22 H :    0.116539
  23 H :    0.111911
Sum of atomic charges:   -0.0000000

LOEWDIN ATOMIC CHARGES
----------------------
   0 C :   -0.293950
   1 C :   -0.239781
   2 C :   -0.104183
   3 C :   -0.115642
   4 C :   -0.140400
   5 C :   -0.106747
   6 C :   -0.089052
   7 C :   -0.060002
   8 C :   -0.102615
   9 C :   -0.141444
  10 C :   -0.142075
  11 C :   -0.100154
  12 H :    0.119320
  13 H :    0.118817
  14 H :    0.115670
  15 H :    0.139680
  16 H :    0.136875
  17 H :    0.144214
  18 H :    0.141967
  19 H :    0.144408
  20 H :    0.146530
  21 H :    0.141725
  22 H :    0.141657
  23 H :    0.145183

  Mayer bond orders larger than 0.100000
B(  0-C ,  1-C ) :   0.9749 B(  0-C , 12-H ) :   0.9783 B(  0-C , 13-H ) :   0.9809
B(  0-C , 14-H ) :   0.9791 B(  1-C ,  2-C ) :   0.9016 B(  1-C , 15-H ) :   0.9898
B(  1-C , 16-H ) :   0.9867 B(  2-C ,  3-C ) :   1.5501 B(  2-C ,  7-C ) :   1.1762
B(  3-C ,  4-C ) :   1.2662 B(  3-C , 17-H ) :   0.9748 B(  4-C ,  5-C ) :   1.5646
B(  4-C , 18-H ) :   0.9817 B(  5-C ,  6-C ) :   1.2100 B(  5-C , 19-H ) :   0.9836
B(  6-C ,  7-C ) :   1.2987 B(  6-C , 11-C ) :   1.2251 B(  7-C ,  8-C ) :   1.1887
B(  8-C ,  9-C ) :   1.6148 B(  8-C , 20-H ) :   0.9682 B(  9-C , 10-C ) :   1.2748
B(  9-C , 21-H ) :   0.9745 B( 10-C , 11-C ) :   1.5648 B( 10-C , 22-H ) :   0.9774
B( 11-C , 23-H ) :   0.9822

FINAL SINGLE POINT ENERGY      -464.535784116946

DIPOLE MOMENT
-------------

Method             : SCF
Type of density    : Electron Density
Multiplicity       :   1
Irrep              :   0
Energy             :  -464.5491012613460953 Eh
Relativity type    :
Basis              : AO
                                X                 Y                 Z
Electronic contribution:      6.470023115       4.353634970      -1.361371132
Nuclear contribution   :     -6.581890977      -4.444640654       1.365094223
                        -----------------------------------------
Total Dipole Moment    :     -0.111867862      -0.091005684       0.003723091
                        -----------------------------------------
Magnitude (a.u.)       :      0.144257805
Magnitude (Debye)      :      0.366674201

Rotational constants in cm-1:             0.046273             0.030626             0.019379
Rotational constants in MHz :          1387.215363           918.141957           580.958839

                             ****ORCA TERMINATED NORMALLY****
TOTAL RUN TIME: 0 days 0 hours 5 minutes 52 seconds 377 msec
