                         Program Version 6.0.0  -   RELEASE  -
|  1> ! wb97x-v def2-tzvp def2/J RIJCOSX DEFGRID2 scfconv7 GCP(DFT/TZ) printgap
|  2> %output
|  3>     printlevel normal
|  4> end
|  5> %cpcm
|  6>     smd true
|  7>     smdsolvent "water"
|  8> end
|  9> * xyz 0 1
| 10> C -2.686834794311711 -1.7109311260671902 0.8314506528966934
| 11> C -2.3304687271888596 -1.0079744384863394 -0.48514146949401915
| 12> C -1.3044207210256828 0.07914417002693211 -0.29465758984246854
| 13> C -1.7100417445312583 1.3956014622417066 -0.19888729759961052
| 14> C -0.7946484380249004 2.4427367327335787 0.032228850636112534
| 15> C 0.5451161963480822 2.174423164667763 0.1667602438560151
| 16> C 1.0177420292960278 0.843055250406339 0.07177793592070811
| 17> C 0.08693570330099998 -0.22414626444424032 -0.1606231504217693
| 18> C 0.5963919603926336 -1.545118593349283 -0.2551049013355339
| 19> C 1.9422488006639553 -1.800291950350713 -0.12644584474973034
| 20> C 2.852731535527033 -0.7479946347808294 0.10457489698928339
| 21> C 2.3972966839293446 0.5447629053711062 0.1996979420405127
| 22> H -3.106893497813307 -0.99576864993908 1.5461188199495963
| 23> H -1.8057263743270033 -2.168826229024129 1.2913863722114054
| 24> H -3.4287595797863872 -2.497344606636502 0.660074493814356
| 25> H -3.236317272120214 -0.5603282605147272 -0.9061889405127641
| 26> H -1.9768140004587589 -1.7471773440545322 -1.212088565729699
| 27> H -2.7661144035754996 1.6302497239331841 -0.3033905313904782
| 28> H -1.1577148800892327 3.463663072763942 0.1003943309491404
| 29> H 1.259520306152039 2.97312588769244 0.3449348533872649
| 30> H -0.08399492346759758 -2.3704426188209387 -0.43241539492251985
| 31> H 2.308054972708745 -2.8193716347199587 -0.20456542001654032
| 32> H 3.912033984217089 -0.9628901224089506 0.20444401831379655
| 33> H 3.0903797623024007 1.3632573897142382 0.3740892226557811
| 34> *
| 35>
| 36>                          ****END OF INPUT****

CARTESIAN COORDINATES (ANGSTROEM)
---------------------------------
  C     -2.686835   -1.710931    0.831451
  C     -2.330469   -1.007974   -0.485141
  C     -1.304421    0.079144   -0.294658
  C     -1.710042    1.395601   -0.198887
  C     -0.794648    2.442737    0.032229
  C      0.545116    2.174423    0.166760
  C      1.017742    0.843055    0.071778
  C      0.086936   -0.224146   -0.160623
  C      0.596392   -1.545119   -0.255105
  C      1.942249   -1.800292   -0.126446
  C      2.852732   -0.747995    0.104575
  C      2.397297    0.544763    0.199698
  H     -3.106893   -0.995769    1.546119
  H     -1.805726   -2.168826    1.291386
  H     -3.428760   -2.497345    0.660074
  H     -3.236317   -0.560328   -0.906189
  H     -1.976814   -1.747177   -1.212089
  H     -2.766114    1.630250   -0.303391
  H     -1.157715    3.463663    0.100394
  H      1.259520    2.973126    0.344935
  H     -0.083995   -2.370443   -0.432415
  H      2.308055   -2.819372   -0.204565
  H      3.912034   -0.962890    0.204444
  H      3.090380    1.363257    0.374089

 Total Charge           Charge          ....    0
 Multiplicity           Mult            ....    1
 Number of Electrons    NEL             ....   84
 Basis Dimension        Dim             ....  444

ORBITAL ENERGIES
----------------

  NO   OCC          E(Eh)            E(eV)
   0   2.0000     -12.061711      -328.2158
   1   2.0000     -12.060129      -328.1728
   2   2.0000     -12.058080      -328.1170
   3   2.0000     -12.051057      -327.9259
   4   2.0000     -12.050568      -327.9126
   5   2.0000     -12.049276      -327.8775
   6   2.0000     -12.049073      -327.8719
   7   2.0000     -12.047824      -327.8380
   8   2.0000     -12.046714      -327.8078
   9   2.0000     -12.044536      -327.7485
  10   2.0000     -12.040467      -327.6378
  11   2.0000     -12.029159      -327.3301
  12   2.0000      -1.402068       -38.1522
  13   2.0000      -1.349834       -36.7308
  14   2.0000      -1.314049       -35.7571
  15   2.0000      -1.268367       -34.5140
  16   2.0000      -1.266388       -34.4602
  17   2.0000      -1.228106       -33.4185
  18   2.0000      -1.137127       -30.9428
  19   2.0000      -1.121961       -30.5301
  20   2.0000      -1.108851       -30.1734
  21   2.0000      -1.057362       -28.7723
  22   2.0000      -0.997056       -27.1313
  23   2.0000      -0.976891       -26.5826
  24   2.0000      -0.967516       -26.3274
  25   2.0000      -0.911421       -24.8010
  26   2.0000      -0.902961       -24.5708
  27   2.0000      -0.894454       -24.3393
  28   2.0000      -0.878546       -23.9065
  29   2.0000      -0.859494       -23.3880
  30   2.0000      -0.848884       -23.0993
  31   2.0000      -0.838235       -22.8095
  32   2.0000      -0.826309       -22.4850
  33   2.0000      -0.812829       -22.1182
  34   2.0000      -0.802118       -21.8268
  35   2.0000      -0.791076       -21.5263
  36   2.0000      -0.775427       -21.1004
  37   2.0000      -0.761883       -20.7319
  38   2.0000      -0.724651       -19.7187
  39   2.0000      -0.676869       -18.4185
  40   2.0000      -0.628988       -17.1156
  41   2.0000      -0.596166       -16.2225
  42   0.0000      -0.283308        -7.7092
  43   0.0000      -0.256670        -6.9843
  44   0.0000      -0.200086        -5.4446
  45   0.0000      -0.128881        -3.5070
  46   0.0000      -0.045458        -1.2370

MULLIKEN ATOMIC CHARGES
-----------------------
   0 C :   -0.394898
   1 C :   -0.203446
   2 C :    0.120850
   3 C :   -0.232587
   4 C :   -0.135804
   5 C :   -0.287583
   6 C :    0.151014
   7 C :    0.067816
   8 C :   -0.287647
   9 C :   -0.177632
  10 C :   -0.149332
  11 C :   -0.230993
  12 H :    0.126439
  13 H :    0.131092
  14 H :    0.129875
  15 H :    0.126872
  16 H :    0.125071
  17 H :    0.154297
  18 H :    0.159088
  19 H :    0.157232
  20 H :    0.170604
  21 H :    0.160267
  22 H :    0.160907
  23 H :    0.158495
Sum of atomic charges:   -0.0000000

LOEWDIN ATOMIC CHARGES
----------------------
   0 C :   -0.298637
   1 C :   -0.237580
   2 C :   -0.110996
   3 C :   -0.122124
   4 C :   -0.149293
   5 C :   -0.116486
   6 C :   -0.103402
   7 C :   -0.072071
   8 C :   -0.106721
   9 C :   -0.149443
  10 C :   -0.149937
  11 C :   -0.108435
  12 H :    0.120104
  13 H :    0.120013
  14 H :    0.119947
  15 H :    0.144910
  16 H :    0.142665
  17 H :    0.154503
  18 H :    0.151586
  19 H :    0.154953
  20 H :    0.157507
  21 H :    0.151527
  22 H :    0.151442
  23 H :    0.155967

  Mayer bond orders larger than 0.100000
B(  0-C ,  1-C ) :   0.9652 B(  0-C , 12-H ) :   0.9775 B(  0-C , 13-H ) :   0.9797
B(  0-C , 14-H ) :   0.9764 B(  1-C ,  2-C ) :   0.9263 B(  1-C , 15-H ) :   0.9806
B(  1-C , 16-H ) :   0.9768 B(  2-C ,  3-C ) :   1.5380 B(  2-C ,  7-C ) :   1.1627
B(  3-C ,  4-C ) :   1.2459 B(  3-C , 17-H ) :   0.9824 B(  4-C ,  5-C ) :   1.5402
B(  4-C , 18-H ) :   0.9856 B(  5-C ,  6-C ) :   1.1952 B(  5-C , 19-H ) :   0.9913
B(  6-C ,  7-C ) :   1.2672 B(  6-C , 11-C ) :   1.2133 B(  7-C ,  8-C ) :   1.1836
B(  8-C ,  9-C ) :   1.5875 B(  8-C , 20-H ) :   0.9741 B(  9-C , 10-C ) :   1.2544
B(  9-C , 21-H ) :   0.9792 B( 10-C , 11-C ) :   1.5435 B( 10-C , 22-H ) :   0.9805
B( 11-C , 23-H ) :   0.9880

FINAL SINGLE POINT ENERGY      -464.538806238430

DIPOLE MOMENT
-------------

Method             : SCF
Type of density    : Electron Density
Multiplicity       :   1
Irrep              :   0
Energy             :  -464.5521233828300751 Eh
Relativity type    :
Basis              : AO
                                X                 Y                 Z
Electronic contribution:      6.403172254       4.278551234      -1.384981552
Nuclear contribution   :     -6.581890977      -4.444640654       1.365094223
                        -----------------------------------------
Total Dipole Moment    :     -0.178718723      -0.166089419      -0.019887329
                        -----------------------------------------
Magnitude (a.u.)       :      0.244788854
Magnitude (Debye)      :      0.622203819

Rotational constants in cm-1:             0.046273             0.030626             0.019379
Rotational constants in MHz :          1387.215363           918.141957           580.958839

                             ****ORCA TERMINATED NORMALLY****
TOTAL RUN TIME: 0 days 0 hours 6 minutes 4 seconds 599 msec
