                         Program Version 6.0.0  -   RELEASE  -
|  1> ! pbe def2-sv(p) def2/J RI DEFGRID1 loosescf d4 GCP(DFT/SV(P)) printgap
|  2> %output
|  3>     printlevel normal
|  4> end
|  5> * xyz 0 1
|  6> C 1.0969296911 -0.0011097903 0.0542052493
|  7> C -0.0130051747 1.0512547343 -0.06895012
|  8> N -1.0200216342 0.0010249876 0.1377235139
|  9> C -0.0151364372 -1.0512179181 -0.0689631004
| 10> H 1.5838383811 -0.0016925076 1.0244402926
| 11> H 1.8442515313 -0.0018243211 -0.7341579417
| 12> H -0.0478732986 1.8193125156 0.7057161787
| 13> H -0.0456920559 1.5331268988 -1.0520612705
| 14> H -1.7952440385 0.0018453242 -0.5140005252
| 15> H -0.0516676722 -1.8191786632 0.7057275335
| 16> H -0.0488289246 -1.5330471588 -1.0520455642
| 17> *
| 18>
| 19>                          ****END OF INPUT****

CARTESIAN COORDINATES (ANGSTROEM)
---------------------------------
  C      1.096930   -0.001110    0.054205
  C     -0.013005    1.051255   -0.068950
  N     -1.020022    0.001025    0.137724
  C     -0.015136   -1.051218   -0.068963
  H      1.583838   -0.001693    1.024440
  H      1.844252   -0.001824   -0.734158
  H     -0.047873    1.819313    0.705716
  H     -0.045692    1.533127   -1.052061
  H     -1.795244    0.001845   -0.514001
  H     -0.051668   -1.819179    0.705728
  H     -0.048829   -1.533047   -1.052046

 Total Charge           Charge          ....    0
 Multiplicity           Mult            ....    1
 Number of Electrons    NEL             ....   32
 Basis Dimension        Dim             ....   70

ORBITAL ENERGIES
----------------

  NO   OCC          E(Eh)            E(eV)
   0   2.0000     -13.959267      -379.8510
   1   2.0000      -9.904658      -269.5195
   2   2.0000      -9.904636      -269.5188
   3   2.0000      -9.883916      -268.9550
   4   2.0000      -0.840014       -22.8579
   5   2.0000      -0.640965       -17.4415
   6   2.0000      -0.599155       -16.3038
   7   2.0000      -0.490077       -13.3357
   8   2.0000      -0.462867       -12.5953
   9   2.0000      -0.428549       -11.6614
  10   2.0000      -0.359074        -9.7709
  11   2.0000      -0.342661        -9.3243
  12   2.0000      -0.320580        -8.7234
  13   2.0000      -0.289671        -7.8823
  14   2.0000      -0.277266        -7.5448
  15   2.0000      -0.169462        -4.6113
  16   0.0000       0.031634         0.8608
  17   0.0000       0.058512         1.5922
  18   0.0000       0.071523         1.9463
  19   0.0000       0.083697         2.2775
  20   0.0000       0.121206         3.2982

MULLIKEN ATOMIC CHARGES
-----------------------
   0 C :   -0.234191
   1 C :   -0.045713
   2 N :   -0.385404
   3 C :   -0.045714
   4 H :    0.097800
   5 H :    0.098349
   6 H :    0.086885
   7 H :    0.073319
   8 H :    0.194468
   9 H :    0.086884
  10 H :    0.073316
Sum of atomic charges:   -0.0000000

LOEWDIN ATOMIC CHARGES
----------------------
   0 C :   -0.238941
   1 C :   -0.158324
   2 N :   -0.286287
   3 C :   -0.158328
   4 H :    0.123762
   5 H :    0.117460
   6 H :    0.103261
   7 H :    0.097127
   8 H :    0.199884
   9 H :    0.103261
  10 H :    0.097127

  Mayer bond orders larger than 0.100000
B(  0-C ,  1-C ) :   1.1481 B(  0-C ,  3-C ) :   1.1481 B(  0-C ,  4-H ) :   0.9133
B(  0-C ,  5-H ) :   0.9329 B(  1-C ,  2-N ) :   1.0859 B(  1-C ,  6-H ) :   0.9315
B(  1-C ,  7-H ) :   0.9191 B(  2-N ,  3-C ) :   1.0859 B(  2-N ,  8-H ) :   0.8866
B(  3-C ,  9-H ) :   0.9315 B(  3-C , 10-H ) :   0.9191

Dispersion correction           -0.006427162
FINAL SINGLE POINT ENERGY      -172.817412199902

DIPOLE MOMENT
-------------

Method             : SCF
Type of density    : Electron Density
Multiplicity       :   1
Irrep              :   0
Energy             :  -172.8590895862756156 Eh
Relativity type    :
Basis              : AO
                                X                 Y                 Z
Electronic contribution:     -1.201847074       0.001229965       0.393545216
Nuclear contribution   :      1.344208781      -0.001362127      -0.858964835
                        -----------------------------------------
Total Dipole Moment    :      0.142361707      -0.000132162      -0.465419620
                        -----------------------------------------
Magnitude (a.u.)       :      0.486705553
Magnitude (Debye)      :      1.237107202

Rotational constants in cm-1:             0.387752             0.385195             0.221220
Rotational constants in MHz :         11624.504185         11547.852893          6632.003671

                             ****ORCA TERMINATED NORMALLY****
TOTAL RUN TIME: 0 days 0 hours 0 minutes 4 seconds 591 msec
