                         Program Version 6.0.0  -   RELEASE  -
|  1> ! pbe def2-sv(p) def2/J RI DEFGRID1 loosescf d4 GCP(DFT/SV(P)) printgap
|  2> %output
|  3>     printlevel normal
|  4> end
|  5> * xyz 0 1
|  6> C -1.7961022063 -1.3959237485 -0.423562007
|  7> C -1.1062053811 -0.4886810722 0.6139894759
|  8> H -1.7674489831 -0.3491384309 1.4776154559
|  9> C -0.8243099888 0.9118864961 0.0308154489
| 10> H -1.0251000213 0.9009265468 -1.0476162301
| 11> C 0.6575069415 1.2629305628 0.2405544043
| 12> H 0.8616217074 1.3266139394 1.318148891
| 13> C 1.5082268594 0.137493373 -0.3553720049
| 14> H 1.2535523493 0.0240791341 -1.4201277035
| 15> C 1.1933493064 -1.1833297974 0.3645324467
| 16> H 2.0086118524 -1.3763684148 1.0766433676
| 17> O 0.044865486 -1.1074526362 1.1741360351
| 18> O 1.1072836431 -2.1929797628 -0.5897608568
| 19> O 2.8793946093 0.3918317061 -0.2079522907
| 20> O 1.0220338724 2.4569291005 -0.4124798373
| 21> O -1.6716047152 1.835556724 0.6804592726
| 22> O -2.9540978349 -0.8095586694 -0.9581975999
| 23> H -2.0169865177 -2.3620461329 0.0455601467
| 24> H -1.1214956916 -1.5634976323 -1.2663661524
| 25> H 1.1325046613 -3.0633576142 -0.1636278794
| 26> H 3.0599390354 1.2750564797 -0.5690673797
| 27> H 0.6895255309 3.2142402019 0.0889184809
| 28> H -1.8665437292 2.5768380892 0.0911989275
| 29> H -3.6204113066 -0.7155365568 -0.262431376
| 30> *
| 31>
| 32>                          ****END OF INPUT****

CARTESIAN COORDINATES (ANGSTROEM)
---------------------------------
  C     -1.796102   -1.395924   -0.423562
  C     -1.106205   -0.488681    0.613989
  H     -1.767449   -0.349138    1.477615
  C     -0.824310    0.911886    0.030815
  H     -1.025100    0.900927   -1.047616
  C      0.657507    1.262931    0.240554
  H      0.861622    1.326614    1.318149
  C      1.508227    0.137493   -0.355372
  H      1.253552    0.024079   -1.420128
  C      1.193349   -1.183330    0.364532
  H      2.008612   -1.376368    1.076643
  O      0.044865   -1.107453    1.174136
  O      1.107284   -2.192980   -0.589761
  O      2.879395    0.391832   -0.207952
  O      1.022034    2.456929   -0.412480
  O     -1.671605    1.835557    0.680459
  O     -2.954098   -0.809559   -0.958198
  H     -2.016987   -2.362046    0.045560
  H     -1.121496   -1.563498   -1.266366
  H      1.132505   -3.063358   -0.163628
  H      3.059939    1.275056   -0.569067
  H      0.689526    3.214240    0.088918
  H     -1.866544    2.576838    0.091199
  H     -3.620411   -0.715537   -0.262431

 Total Charge           Charge          ....    0
 Multiplicity           Mult            ....    1
 Number of Electrons    NEL             ....   96
 Basis Dimension        Dim             ....  192

ORBITAL ENERGIES
----------------

  NO   OCC          E(Eh)            E(eV)
   0   2.0000     -18.764721      -510.6140
   1   2.0000     -18.764257      -510.6014
   2   2.0000     -18.760257      -510.4925
   3   2.0000     -18.757526      -510.4182
   4   2.0000     -18.749688      -510.2050
   5   2.0000     -18.742942      -510.0214
   6   2.0000      -9.981894      -271.6212
   7   2.0000      -9.938726      -270.4465
   8   2.0000      -9.938215      -270.4326
   9   2.0000      -9.936829      -270.3949
  10   2.0000      -9.936641      -270.3897
  11   2.0000      -9.924987      -270.0726
  12   2.0000      -0.976401       -26.5692
  13   2.0000      -0.948016       -25.7968
  14   2.0000      -0.931405       -25.3448
  15   2.0000      -0.923565       -25.1315
  16   2.0000      -0.914181       -24.8761
  17   2.0000      -0.909809       -24.7572
  18   2.0000      -0.702750       -19.1228
  19   2.0000      -0.688294       -18.7294
  20   2.0000      -0.616750       -16.7826
  21   2.0000      -0.579688       -15.7741
  22   2.0000      -0.566123       -15.4050
  23   2.0000      -0.509968       -13.8769
  24   2.0000      -0.503418       -13.6987
  25   2.0000      -0.487214       -13.2578
  26   2.0000      -0.476504       -12.9663
  27   2.0000      -0.459407       -12.5011
  28   2.0000      -0.454407       -12.3650
  29   2.0000      -0.426727       -11.6118
  30   2.0000      -0.405621       -11.0375
  31   2.0000      -0.387356       -10.5405
  32   2.0000      -0.381030       -10.3684
  33   2.0000      -0.374398       -10.1879
  34   2.0000      -0.359838        -9.7917
  35   2.0000      -0.342831        -9.3289
  36   2.0000      -0.330179        -8.9846
  37   2.0000      -0.314171        -8.5490
  38   2.0000      -0.304702        -8.2914
  39   2.0000      -0.286395        -7.7932
  40   2.0000      -0.274762        -7.4766
  41   2.0000      -0.260189        -7.0801
  42   2.0000      -0.255213        -6.9447
  43   2.0000      -0.246090        -6.6964
  44   2.0000      -0.236047        -6.4232
  45   2.0000      -0.225804        -6.1444
  46   2.0000      -0.212743        -5.7890
  47   2.0000      -0.197280        -5.3683
  48   0.0000       0.003074         0.0836
  49   0.0000       0.027031         0.7355
  50   0.0000       0.030386         0.8268
  51   0.0000       0.043278         1.1776
  52   0.0000       0.055403         1.5076

MULLIKEN ATOMIC CHARGES
-----------------------
   0 C :    0.008275
   1 C :    0.031512
   2 H :    0.069409
   3 C :    0.032432
   4 H :    0.067881
   5 C :    0.055583
   6 H :    0.060170
   7 C :    0.022881
   8 H :    0.066128
   9 C :    0.210721
  10 H :    0.073069
  11 O :   -0.311666
  12 O :   -0.387135
  13 O :   -0.417377
  14 O :   -0.425812
  15 O :   -0.414086
  16 O :   -0.427757
  17 H :    0.073321
  18 H :    0.109137
  19 H :    0.303994
  20 H :    0.304441
  21 H :    0.299808
  22 H :    0.297452
  23 H :    0.297620
Sum of atomic charges:   -0.0000000

LOEWDIN ATOMIC CHARGES
----------------------
   0 C :   -0.144993
   1 C :   -0.067820
   2 H :    0.116414
   3 C :   -0.079225
   4 H :    0.110663
   5 C :   -0.087243
   6 H :    0.109038
   7 C :   -0.074547
   8 H :    0.108010
   9 C :    0.003042
  10 H :    0.106937
  11 O :   -0.145550
  12 O :   -0.299644
  13 O :   -0.317007
  14 O :   -0.323416
  15 O :   -0.323219
  16 O :   -0.330902
  17 H :    0.095639
  18 H :    0.116729
  19 H :    0.287431
  20 H :    0.284397
  21 H :    0.286314
  22 H :    0.284668
  23 H :    0.284284

  Mayer bond orders larger than 0.100000
B(  0-C ,  1-C ) :   1.0404 B(  0-C , 16-O ) :   1.0503 B(  0-C , 17-H ) :   0.9197
B(  0-C , 18-H ) :   0.9068 B(  1-C ,  2-H ) :   0.8870 B(  1-C ,  3-C ) :   0.9724
B(  1-C , 11-O ) :   1.0173 B(  3-C ,  4-H ) :   0.8864 B(  3-C ,  5-C ) :   0.9955
B(  3-C , 15-O ) :   1.0740 B(  5-C ,  6-H ) :   0.8724 B(  5-C ,  7-C ) :   1.0059
B(  5-C , 14-O ) :   1.0744 B(  7-C ,  8-H ) :   0.8785 B(  7-C ,  9-C ) :   1.0031
B(  7-C , 13-O ) :   1.0841 B(  9-C , 10-H ) :   0.8882 B(  9-C , 11-O ) :   1.0575
B(  9-C , 12-O ) :   1.1323 B( 12-O , 19-H ) :   0.8407 B( 13-O , 20-H ) :   0.8350
B( 14-O , 21-H ) :   0.8435 B( 15-O , 22-H ) :   0.8473 B( 16-O , 23-H ) :   0.8514

Dispersion correction           -0.024455992
FINAL SINGLE POINT ENERGY      -685.691646723804

DIPOLE MOMENT
-------------

Method             : SCF
Type of density    : Electron Density
Multiplicity       :   1
Irrep              :   0
Energy             :  -685.8211745743461734 Eh
Relativity type    :
Basis              : AO
                                X                 Y                 Z
Electronic contribution:      1.784348847       0.598252611       0.930502151
Nuclear contribution   :     -2.256744396      -0.096745318      -0.596776149
                        -----------------------------------------
Total Dipole Moment    :     -0.472395549       0.501507293       0.333726002
                        -----------------------------------------
Magnitude (a.u.)       :      0.765532601
Magnitude (Debye)      :      1.945829235

Rotational constants in cm-1:             0.038423             0.028549             0.019083
Rotational constants in MHz :          1151.887144           855.874241           572.094289

                             ****ORCA TERMINATED NORMALLY****
TOTAL RUN TIME: 0 days 0 hours 0 minutes 12 seconds 149 msec
