                         Program Version 6.0.0  -   RELEASE  -
|  1> ! pbe def2-sv(p) def2/J RI DEFGRID1 loosescf d4 GCP(DFT/SV(P)) printgap
|  2> %output
|  3>     printlevel normal
|  4> end
|  5> * xyz 0 1
|  6> C -2.3355160406 -0.7783777476 0.733749466
|  7> C -0.8685482251 -0.3261560329 0.7482146637
|  8> H -0.6045342225 -0.0117555019 1.7665529877
|  9> C -0.6268375163 0.8536417671 -0.19782814
| 10> H -0.8494828369 0.520789132 -1.223552193
| 11> C 0.8513288689 1.2993455477 -0.1200629064
| 12> H 0.9248266785 2.1045302803 0.6195378617
| 13> C 1.7633551032 0.1526030165 0.3618474688
| 14> H 2.7505158672 0.3009655129 -0.0980724387
| 15> C 1.1950194804 -1.1795272783 -0.1514821173
| 16> H 1.8221974682 -2.0223034275 0.178871594
| 17> O -0.0793386493 -1.4549230036 0.3713526514
| 18> O 1.1845141212 -1.0925700428 -1.5460345207
| 19> O 1.8430179899 0.191977413 1.7613745781
| 20> O 1.2967641037 1.8382985784 -1.3373911535
| 21> O -1.4952331029 1.8938511115 0.1773997504
| 22> O -2.7231768987 -1.31599946 -0.50374671
| 23> H -2.9656150338 0.0933743548 0.9121688778
| 24> H -2.4833381635 -1.5106425853 1.5360502691
| 25> H 0.948017304 -1.9461101751 -1.9391750902
| 26> H 2.5288344405 -0.4148662907 2.0764441287
| 27> H 1.3170448499 1.1300918385 -2.0008348576
| 28> H -1.3833810819 2.6323387176 -0.4385143929
| 29> H -2.1738837203 -2.0954864226 -0.671448967
| 30> *
| 31>
| 32>                          ****END OF INPUT****

CARTESIAN COORDINATES (ANGSTROEM)
---------------------------------
  C     -2.335516   -0.778378    0.733749
  C     -0.868548   -0.326156    0.748215
  H     -0.604534   -0.011756    1.766553
  C     -0.626838    0.853642   -0.197828
  H     -0.849483    0.520789   -1.223552
  C      0.851329    1.299346   -0.120063
  H      0.924827    2.104530    0.619538
  C      1.763355    0.152603    0.361847
  H      2.750516    0.300966   -0.098072
  C      1.195019   -1.179527   -0.151482
  H      1.822197   -2.022303    0.178872
  O     -0.079339   -1.454923    0.371353
  O      1.184514   -1.092570   -1.546035
  O      1.843018    0.191977    1.761375
  O      1.296764    1.838299   -1.337391
  O     -1.495233    1.893851    0.177400
  O     -2.723177   -1.315999   -0.503747
  H     -2.965615    0.093374    0.912169
  H     -2.483338   -1.510643    1.536050
  H      0.948017   -1.946110   -1.939175
  H      2.528834   -0.414866    2.076444
  H      1.317045    1.130092   -2.000835
  H     -1.383381    2.632339   -0.438514
  H     -2.173884   -2.095486   -0.671449

 Total Charge           Charge          ....    0
 Multiplicity           Mult            ....    1
 Number of Electrons    NEL             ....   96
 Basis Dimension        Dim             ....  192

ORBITAL ENERGIES
----------------

  NO   OCC          E(Eh)            E(eV)
   0   2.0000     -18.782424      -511.0957
   1   2.0000     -18.773897      -510.8637
   2   2.0000     -18.765564      -510.6370
   3   2.0000     -18.745986      -510.1042
   4   2.0000     -18.742533      -510.0103
   5   2.0000     -18.738319      -509.8956
   6   2.0000      -9.995930      -272.0031
   7   2.0000      -9.947608      -270.6882
   8   2.0000      -9.934919      -270.3429
   9   2.0000      -9.933447      -270.3028
  10   2.0000      -9.931401      -270.2472
  11   2.0000      -9.919278      -269.9173
  12   2.0000      -0.989959       -26.9382
  13   2.0000      -0.942789       -25.6546
  14   2.0000      -0.931553       -25.3488
  15   2.0000      -0.928107       -25.2551
  16   2.0000      -0.912849       -24.8399
  17   2.0000      -0.908821       -24.7303
  18   2.0000      -0.698038       -18.9946
  19   2.0000      -0.691463       -18.8157
  20   2.0000      -0.615635       -16.7523
  21   2.0000      -0.588466       -16.0130
  22   2.0000      -0.561552       -15.2806
  23   2.0000      -0.527704       -14.3596
  24   2.0000      -0.501803       -13.6547
  25   2.0000      -0.481880       -13.1126
  26   2.0000      -0.472273       -12.8512
  27   2.0000      -0.454723       -12.3736
  28   2.0000      -0.442433       -12.0392
  29   2.0000      -0.439225       -11.9519
  30   2.0000      -0.422136       -11.4869
  31   2.0000      -0.386514       -10.5176
  32   2.0000      -0.379833       -10.3358
  33   2.0000      -0.369411       -10.0522
  34   2.0000      -0.358164        -9.7461
  35   2.0000      -0.353057        -9.6072
  36   2.0000      -0.340374        -9.2621
  37   2.0000      -0.308560        -8.3963
  38   2.0000      -0.301800        -8.2124
  39   2.0000      -0.289789        -7.8855
  40   2.0000      -0.276661        -7.5283
  41   2.0000      -0.267033        -7.2663
  42   2.0000      -0.262068        -7.1312
  43   2.0000      -0.242001        -6.5852
  44   2.0000      -0.229670        -6.2496
  45   2.0000      -0.221350        -6.0233
  46   2.0000      -0.208917        -5.6849
  47   2.0000      -0.200440        -5.4543
  48   0.0000       0.004970         0.1352
  49   0.0000       0.011945         0.3250
  50   0.0000       0.040681         1.1070
  51   0.0000       0.049332         1.3424
  52   0.0000       0.068757         1.8710

MULLIKEN ATOMIC CHARGES
-----------------------
   0 C :    0.084686
   1 C :    0.013254
   2 H :    0.071444
   3 C :    0.063806
   4 H :    0.035508
   5 C :    0.104894
   6 H :    0.071222
   7 C :   -0.002088
   8 H :    0.074389
   9 C :    0.166937
  10 H :    0.051211
  11 O :   -0.325816
  12 O :   -0.400105
  13 O :   -0.403777
  14 O :   -0.434728
  15 O :   -0.417071
  16 O :   -0.440583
  17 H :    0.100939
  18 H :    0.073811
  19 H :    0.309077
  20 H :    0.304825
  21 H :    0.302638
  22 H :    0.307947
  23 H :    0.287579
Sum of atomic charges:   -0.0000000

LOEWDIN ATOMIC CHARGES
----------------------
   0 C :   -0.126772
   1 C :   -0.069601
   2 H :    0.114943
   3 C :   -0.078065
   4 H :    0.100069
   5 C :   -0.069316
   6 H :    0.123805
   7 C :   -0.090158
   8 H :    0.109484
   9 C :   -0.010263
  10 H :    0.090555
  11 O :   -0.151052
  12 O :   -0.312227
  13 O :   -0.304900
  14 O :   -0.319439
  15 O :   -0.316285
  16 O :   -0.334647
  17 H :    0.124904
  18 H :    0.097766
  19 H :    0.289960
  20 H :    0.290060
  21 H :    0.276137
  22 H :    0.291573
  23 H :    0.273468

  Mayer bond orders larger than 0.100000
B(  0-C ,  1-C ) :   1.0350 B(  0-C , 16-O ) :   1.0600 B(  0-C , 17-H ) :   0.9110
B(  0-C , 18-H ) :   0.9201 B(  1-C ,  2-H ) :   0.8603 B(  1-C ,  3-C ) :   1.0707
B(  1-C , 11-O ) :   0.9661 B(  3-C ,  4-H ) :   0.8405 B(  3-C ,  5-C ) :   1.0299
B(  3-C , 15-O ) :   1.0568 B(  5-C ,  6-H ) :   0.8487 B(  5-C ,  7-C ) :   1.0025
B(  5-C , 14-O ) :   1.0404 B(  7-C ,  8-H ) :   0.8856 B(  7-C ,  9-C ) :   1.0177
B(  7-C , 13-O ) :   1.0442 B(  9-C , 10-H ) :   0.8962 B(  9-C , 11-O ) :   1.0841
B(  9-C , 12-O ) :   1.1085 B( 12-O , 19-H ) :   0.8361 B( 13-O , 20-H ) :   0.8451
B( 14-O , 21-H ) :   0.8339 B( 15-O , 22-H ) :   0.8445 B( 16-O , 23-H ) :   0.8451

Dispersion correction           -0.025053189
FINAL SINGLE POINT ENERGY      -685.694366074287

DIPOLE MOMENT
-------------

Method             : SCF
Type of density    : Electron Density
Multiplicity       :   1
Irrep              :   0
Energy             :  -685.8251822869981424 Eh
Relativity type    :
Basis              : AO
                                X                 Y                 Z
Electronic contribution:      1.239218219       0.024055083      -0.905834784
Nuclear contribution   :     -0.157968374      -1.142801060       0.657676327
                        -----------------------------------------
Total Dipole Moment    :      1.081249845      -1.118745976      -0.248158457
                        -----------------------------------------
Magnitude (a.u.)       :      1.575524169
Magnitude (Debye)      :      4.004664182

Rotational constants in cm-1:             0.040426             0.027124             0.023376
Rotational constants in MHz :          1211.939114           813.164595           700.805780

                             ****ORCA TERMINATED NORMALLY****
TOTAL RUN TIME: 0 days 0 hours 0 minutes 12 seconds 408 msec
