                         Program Version 6.0.0  -   RELEASE  -
|  1> ! wb97x-v def2-tzvp def2/J RIJCOSX DEFGRID2 scfconv7 GCP(DFT/TZ) printgap
|  2> %output
|  3>     printlevel normal
|  4> end
|  5> * xyz 0 1
|  6> C 1.4490876506490944 0.969326425454416 0.019558904179760642
|  7> C 0.7528823443839351 -0.3613726290890081 -0.0027586809887316334
|  8> O 1.4061241797123363 -1.4102535169104709 -0.016025036959645824
|  9> C -0.7183271851607013 -0.42834988185985384 -0.014887119911507948
| 10> C -1.561427552517836 0.5894983025582191 0.7490267887228074
| 11> C -1.5516253056858342 0.6299178193136246 -0.7323987728878898
| 12> H 1.1866883535399397 1.5580494615618923 -0.8655624337570774
| 13> H 1.1469587498213318 1.555561631365016 0.8933026691483883
| 14> H 2.52844640596174 0.8160733491328637 0.04275556340737222
| 15> H -1.1027546945398863 -1.442453438486042 -0.043345809457275224
| 16> H -2.431559298375707 0.18109572252064793 1.2507392634110703
| 17> H -1.0335456547071251 1.3673836282590226 1.2881817786783543
| 18> H -2.415371569297564 0.25088663380220616 -1.2671317920303353
| 19> H -1.0156726721197424 1.4357181036290843 -1.2200833526883963
| 20> *
| 21>
| 22>                          ****END OF INPUT****

CARTESIAN COORDINATES (ANGSTROEM)
---------------------------------
  C      1.449088    0.969326    0.019559
  C      0.752882   -0.361373   -0.002759
  O      1.406124   -1.410254   -0.016025
  C     -0.718327   -0.428350   -0.014887
  C     -1.561428    0.589498    0.749027
  C     -1.551625    0.629918   -0.732399
  H      1.186688    1.558049   -0.865562
  H      1.146959    1.555562    0.893303
  H      2.528446    0.816073    0.042756
  H     -1.102755   -1.442453   -0.043346
  H     -2.431559    0.181096    1.250739
  H     -1.033546    1.367384    1.288182
  H     -2.415372    0.250887   -1.267132
  H     -1.015673    1.435718   -1.220083

 Total Charge           Charge          ....    0
 Multiplicity           Mult            ....    1
 Number of Electrons    NEL             ....   46
 Basis Dimension        Dim             ....  234

ORBITAL ENERGIES
----------------

  NO   OCC          E(Eh)            E(eV)
   0   2.0000     -21.650977      -589.1530
   1   2.0000     -12.137372      -330.2747
   2   2.0000     -12.072125      -328.4992
   3   2.0000     -12.070810      -328.4634
   4   2.0000     -12.068613      -328.4037
   5   2.0000     -12.053472      -327.9917
   6   2.0000      -1.690920       -46.0123
   7   2.0000      -1.412078       -38.4246
   8   2.0000      -1.266327       -34.4585
   9   2.0000      -1.165166       -31.7058
  10   2.0000      -1.096304       -29.8320
  11   2.0000      -1.057443       -28.7745
  12   2.0000      -0.990313       -26.9478
  13   2.0000      -0.965356       -26.2687
  14   2.0000      -0.931893       -25.3581
  15   2.0000      -0.900881       -24.5142
  16   2.0000      -0.878961       -23.9177
  17   2.0000      -0.836112       -22.7518
  18   2.0000      -0.833801       -22.6889
  19   2.0000      -0.814080       -22.1523
  20   2.0000      -0.794039       -21.6069
  21   2.0000      -0.768579       -20.9141
  22   2.0000      -0.747876       -20.3507
  23   0.0000      -0.314566        -8.5598
  24   0.0000      -0.086546        -2.3550
  25   0.0000      -0.071136        -1.9357
  26   0.0000      -0.043360        -1.1799
  27   0.0000      -0.027620        -0.7516

MULLIKEN ATOMIC CHARGES
-----------------------
   0 C :   -0.355474
   1 C :    0.175980
   2 O :   -0.324563
   3 C :   -0.060438
   4 C :   -0.214405
   5 C :   -0.212344
   6 H :    0.123780
   7 H :    0.123074
   8 H :    0.143245
   9 H :    0.118854
  10 H :    0.122803
  11 H :    0.118389
  12 H :    0.122790
  13 H :    0.118311
Sum of atomic charges:   -0.0000000

LOEWDIN ATOMIC CHARGES
----------------------
   0 C :   -0.255040
   1 C :   -0.329643
   2 O :    0.091943
   3 C :   -0.178365
   4 C :   -0.201445
   5 C :   -0.201532
   6 H :    0.132042
   7 H :    0.131173
   8 H :    0.133741
   9 H :    0.154374
  10 H :    0.132455
  11 H :    0.128803
  12 H :    0.132430
  13 H :    0.129064

  Mayer bond orders larger than 0.100000
B(  0-C ,  1-C ) :   0.9568 B(  0-C ,  6-H ) :   0.9556 B(  0-C ,  7-H ) :   0.9580
B(  0-C ,  8-H ) :   0.9772 B(  1-C ,  2-O ) :   2.1100 B(  1-C ,  3-C ) :   1.0098
B(  3-C ,  4-C ) :   0.8945 B(  3-C ,  5-C ) :   0.8946 B(  3-C ,  9-H ) :   0.9683
B(  4-C ,  5-C ) :   0.9632 B(  4-C , 10-H ) :   0.9701 B(  4-C , 11-H ) :   0.9720
B(  5-C , 12-H ) :   0.9698 B(  5-C , 13-H ) :   0.9716

FINAL SINGLE POINT ENERGY      -270.556054026990

DIPOLE MOMENT
-------------

Method             : SCF
Type of density    : Electron Density
Multiplicity       :   1
Irrep              :   0
Energy             :  -270.5647165508896137 Eh
Relativity type    :
Basis              : AO
                                X                 Y                 Z
Electronic contribution:      2.056800580      -4.229019586      -0.057645925
Nuclear contribution   :     -2.900972350       5.346872895       0.069649226
                        -----------------------------------------
Total Dipole Moment    :     -0.844171769       1.117853308       0.012003301
                        -----------------------------------------
Magnitude (a.u.)       :      1.400844772
Magnitude (Debye)      :      3.560664439

Rotational constants in cm-1:             0.219428             0.090935             0.076637
Rotational constants in MHz :          6578.271537          2726.161819          2297.509379

                             ****ORCA TERMINATED NORMALLY****
TOTAL RUN TIME: 0 days 0 hours 1 minutes 44 seconds 912 msec
