                         Program Version 6.0.0  -   RELEASE  -
|  1> ! wb97x-v def2-tzvp def2/J RIJCOSX DEFGRID2 scfconv7 GCP(DFT/TZ) printgap
|  2> %output
|  3>     printlevel normal
|  4> end
|  5> %cpcm
|  6>     smd true
|  7>     smdsolvent "water"
|  8> end
|  9> * xyz 0 1
| 10> C 1.4490876506490944 0.969326425454416 0.019558904179760642
| 11> C 0.7528823443839351 -0.3613726290890081 -0.0027586809887316334
| 12> O 1.4061241797123363 -1.4102535169104709 -0.016025036959645824
| 13> C -0.7183271851607013 -0.42834988185985384 -0.014887119911507948
| 14> C -1.561427552517836 0.5894983025582191 0.7490267887228074
| 15> C -1.5516253056858342 0.6299178193136246 -0.7323987728878898
| 16> H 1.1866883535399397 1.5580494615618923 -0.8655624337570774
| 17> H 1.1469587498213318 1.555561631365016 0.8933026691483883
| 18> H 2.52844640596174 0.8160733491328637 0.04275556340737222
| 19> H -1.1027546945398863 -1.442453438486042 -0.043345809457275224
| 20> H -2.431559298375707 0.18109572252064793 1.2507392634110703
| 21> H -1.0335456547071251 1.3673836282590226 1.2881817786783543
| 22> H -2.415371569297564 0.25088663380220616 -1.2671317920303353
| 23> H -1.0156726721197424 1.4357181036290843 -1.2200833526883963
| 24> *
| 25>
| 26>                          ****END OF INPUT****

CARTESIAN COORDINATES (ANGSTROEM)
---------------------------------
  C      1.449088    0.969326    0.019559
  C      0.752882   -0.361373   -0.002759
  O      1.406124   -1.410254   -0.016025
  C     -0.718327   -0.428350   -0.014887
  C     -1.561428    0.589498    0.749027
  C     -1.551625    0.629918   -0.732399
  H      1.186688    1.558049   -0.865562
  H      1.146959    1.555562    0.893303
  H      2.528446    0.816073    0.042756
  H     -1.102755   -1.442453   -0.043346
  H     -2.431559    0.181096    1.250739
  H     -1.033546    1.367384    1.288182
  H     -2.415372    0.250887   -1.267132
  H     -1.015673    1.435718   -1.220083

 Total Charge           Charge          ....    0
 Multiplicity           Mult            ....    1
 Number of Electrons    NEL             ....   46
 Basis Dimension        Dim             ....  234

ORBITAL ENERGIES
----------------

  NO   OCC          E(Eh)            E(eV)
   0   2.0000     -21.663008      -589.4804
   1   2.0000     -12.145657      -330.5001
   2   2.0000     -12.059931      -328.1674
   3   2.0000     -12.055948      -328.0590
   4   2.0000     -12.054878      -328.0299
   5   2.0000     -12.039692      -327.6167
   6   2.0000      -1.707055       -46.4513
   7   2.0000      -1.399388       -38.0793
   8   2.0000      -1.259763       -34.2799
   9   2.0000      -1.160668       -31.5834
  10   2.0000      -1.079377       -29.3713
  11   2.0000      -1.068547       -29.0767
  12   2.0000      -0.981202       -26.6999
  13   2.0000      -0.965200       -26.2644
  14   2.0000      -0.920828       -25.0570
  15   2.0000      -0.915360       -24.9082
  16   2.0000      -0.871551       -23.7161
  17   2.0000      -0.825173       -22.4541
  18   2.0000      -0.824122       -22.4255
  19   2.0000      -0.795630       -21.6502
  20   2.0000      -0.791735       -21.5442
  21   2.0000      -0.755788       -20.5660
  22   2.0000      -0.737389       -20.0654
  23   0.0000      -0.312889        -8.5141
  24   0.0000      -0.074435        -2.0255
  25   0.0000      -0.062305        -1.6954
  26   0.0000      -0.027487        -0.7480
  27   0.0000      -0.013409        -0.3649

MULLIKEN ATOMIC CHARGES
-----------------------
   0 C :   -0.390538
   1 C :    0.265782
   2 O :   -0.474910
   3 C :   -0.103879
   4 C :   -0.261687
   5 C :   -0.260553
   6 H :    0.163103
   7 H :    0.162696
   8 H :    0.143330
   9 H :    0.137322
  10 H :    0.151631
  11 H :    0.158090
  12 H :    0.151688
  13 H :    0.157926
Sum of atomic charges:   -0.0000000

LOEWDIN ATOMIC CHARGES
----------------------
   0 C :   -0.248692
   1 C :   -0.313916
   2 O :    0.002851
   3 C :   -0.183527
   4 C :   -0.196197
   5 C :   -0.196222
   6 H :    0.146145
   7 H :    0.145386
   8 H :    0.132407
   9 H :    0.156581
  10 H :    0.139053
  11 H :    0.138420
  12 H :    0.139060
  13 H :    0.138652

  Mayer bond orders larger than 0.100000
B(  0-C ,  1-C ) :   0.9855 B(  0-C ,  6-H ) :   0.9427 B(  0-C ,  7-H ) :   0.9451
B(  0-C ,  8-H ) :   0.9705 B(  1-C ,  2-O ) :   1.9369 B(  1-C ,  3-C ) :   1.0206
B(  3-C ,  4-C ) :   0.8962 B(  3-C ,  5-C ) :   0.8968 B(  3-C ,  9-H ) :   0.9624
B(  4-C ,  5-C ) :   0.9735 B(  4-C , 10-H ) :   0.9631 B(  4-C , 11-H ) :   0.9635
B(  5-C , 12-H ) :   0.9628 B(  5-C , 13-H ) :   0.9634

FINAL SINGLE POINT ENERGY      -270.566863043600

DIPOLE MOMENT
-------------

Method             : SCF
Type of density    : Electron Density
Multiplicity       :   1
Irrep              :   0
Energy             :  -270.5755255674997670 Eh
Relativity type    :
Basis              : AO
                                X                 Y                 Z
Electronic contribution:      1.688551933      -3.662527848      -0.051329239
Nuclear contribution   :     -2.900972350       5.346872895       0.069649226
                        -----------------------------------------
Total Dipole Moment    :     -1.212420417       1.684345046       0.018319987
                        -----------------------------------------
Magnitude (a.u.)       :      2.075407701
Magnitude (Debye)      :      5.275267143

Rotational constants in cm-1:             0.219428             0.090935             0.076637
Rotational constants in MHz :          6578.271537          2726.161819          2297.509379

                             ****ORCA TERMINATED NORMALLY****
TOTAL RUN TIME: 0 days 0 hours 1 minutes 38 seconds 48 msec
