                         Program Version 6.0.0  -   RELEASE  -
|  1> ! wb97x-v def2-tzvp def2/J RIJCOSX DEFGRID2 scfconv7 GCP(DFT/TZ) printgap
|  2> %output
|  3>     printlevel normal
|  4> end
|  5> * xyz 0 1
|  6> C -2.448713499852107 1.0569180672116194 -0.45215857492891415
|  7> C -1.708908377524925 -0.2742058213363436 -0.2789272841719322
|  8> C -2.3276517764185356 -1.0535047309050647 0.887035620056028
|  9> C -0.19956717100684235 -0.10038142089030629 -0.14037379750709267
| 10> C 0.5830263199399299 -1.0455954378472736 0.5373234342626227
| 11> C 1.9654263908657306 -0.9057110854151048 0.6375571406113775
| 12> C 2.6069753071004365 0.18732520076333137 0.061765434330401735
| 13> C 1.8466045495810683 1.135863550027097 -0.6161508974747909
| 14> C 0.4642464181441345 0.9928047496889191 -0.7141304506822125
| 15> H -2.1669281865549217 1.5788431540501993 -1.3699810349619548
| 16> H -2.2533797494103966 1.7238704218233336 0.395548557122322
| 17> H -3.526702640859636 0.8751371877956323 -0.49928158587329413
| 18> H -1.8764129259512856 -0.8638041602587708 -1.1928728346801678
| 19> H -2.122889657534666 -0.5543077527752347 1.841217353285079
| 20> H -1.9578353789483054 -2.0798061534856678 0.9515574838405593
| 21> H -3.413033665908565 -1.1070641780638053 0.7585404581653803
| 22> H 0.11645988781016157 -1.9093971401922616 0.9973616374451983
| 23> H 2.5413286196777736 -1.6560398786237758 1.1713838887554604
| 24> H 3.6837781384265362 0.29909572361005776 0.14180387916653173
| 25> H 2.3287056814271767 1.995870097497088 -1.0716719804388366
| 26> H -0.09704993517370027 1.7503247727012092 -1.2493138713378105
| 27> *
| 28>
| 29>                          ****END OF INPUT****

CARTESIAN COORDINATES (ANGSTROEM)
---------------------------------
  C     -2.448713    1.056918   -0.452159
  C     -1.708908   -0.274206   -0.278927
  C     -2.327652   -1.053505    0.887036
  C     -0.199567   -0.100381   -0.140374
  C      0.583026   -1.045595    0.537323
  C      1.965426   -0.905711    0.637557
  C      2.606975    0.187325    0.061765
  C      1.846605    1.135864   -0.616151
  C      0.464246    0.992805   -0.714130
  H     -2.166928    1.578843   -1.369981
  H     -2.253380    1.723870    0.395549
  H     -3.526703    0.875137   -0.499282
  H     -1.876413   -0.863804   -1.192873
  H     -2.122890   -0.554308    1.841217
  H     -1.957835   -2.079806    0.951557
  H     -3.413034   -1.107064    0.758540
  H      0.116460   -1.909397    0.997362
  H      2.541329   -1.656040    1.171384
  H      3.683778    0.299096    0.141804
  H      2.328706    1.995870   -1.071672
  H     -0.097050    1.750325   -1.249314

 Total Charge           Charge          ....    0
 Multiplicity           Mult            ....    1
 Number of Electrons    NEL             ....   66
 Basis Dimension        Dim             ....  351

ORBITAL ENERGIES
----------------

  NO   OCC          E(Eh)            E(eV)
   0   2.0000     -12.058385      -328.1253
   1   2.0000     -12.056932      -328.0858
   2   2.0000     -12.048685      -327.8614
   3   2.0000     -12.048477      -327.8557
   4   2.0000     -12.045591      -327.7772
   5   2.0000     -12.044877      -327.7578
   6   2.0000     -12.044278      -327.7415
   7   2.0000     -12.036522      -327.5304
   8   2.0000     -12.036217      -327.5221
   9   2.0000      -1.381209       -37.5846
  10   2.0000      -1.315576       -35.7987
  11   2.0000      -1.267653       -34.4946
  12   2.0000      -1.251721       -34.0611
  13   2.0000      -1.179313       -32.0907
  14   2.0000      -1.117778       -30.4163
  15   2.0000      -1.099135       -29.9090
  16   2.0000      -1.049412       -28.5560
  17   2.0000      -0.959357       -26.1054
  18   2.0000      -0.947709       -25.7885
  19   2.0000      -0.912492       -24.8302
  20   2.0000      -0.888901       -24.1882
  21   2.0000      -0.883021       -24.0282
  22   2.0000      -0.869981       -23.6734
  23   2.0000      -0.837783       -22.7972
  24   2.0000      -0.824496       -22.4357
  25   2.0000      -0.810972       -22.0677
  26   2.0000      -0.805401       -21.9161
  27   2.0000      -0.793195       -21.5839
  28   2.0000      -0.781191       -21.2573
  29   2.0000      -0.773247       -21.0411
  30   2.0000      -0.751990       -20.4627
  31   2.0000      -0.633516       -17.2388
  32   2.0000      -0.629829       -17.1385
  33   0.0000      -0.235875        -6.4185
  34   0.0000      -0.232120        -6.3163
  35   0.0000      -0.068491        -1.8637
  36   0.0000      -0.053001        -1.4422
  37   0.0000      -0.032159        -0.8751

MULLIKEN ATOMIC CHARGES
-----------------------
   0 C :   -0.366378
   1 C :    0.036640
   2 C :   -0.364398
   3 C :    0.127647
   4 C :   -0.198839
   5 C :   -0.117451
   6 C :   -0.135918
   7 C :   -0.117720
   8 C :   -0.198572
   9 H :    0.113452
  10 H :    0.120851
  11 H :    0.112880
  12 H :    0.080533
  13 H :    0.120265
  14 H :    0.112966
  15 H :    0.112473
  16 H :    0.108901
  17 H :    0.114066
  18 H :    0.114731
  19 H :    0.114105
  20 H :    0.109765
Sum of atomic charges:    0.0000000

LOEWDIN ATOMIC CHARGES
----------------------
   0 C :   -0.276488
   1 C :   -0.258295
   2 C :   -0.276127
   3 C :   -0.114178
   4 C :   -0.113192
   5 C :   -0.141016
   6 C :   -0.147347
   7 C :   -0.140987
   8 C :   -0.113439
   9 H :    0.115157
  10 H :    0.122945
  11 H :    0.119300
  12 H :    0.157155
  13 H :    0.122922
  14 H :    0.115003
  15 H :    0.119252
  16 H :    0.143850
  17 H :    0.140827
  18 H :    0.139817
  19 H :    0.140820
  20 H :    0.144019

  Mayer bond orders larger than 0.100000
B(  0-C ,  1-C ) :   0.9857 B(  0-C ,  9-H ) :   0.9766 B(  0-C , 10-H ) :   0.9763
B(  0-C , 11-H ) :   0.9826 B(  1-C ,  2-C ) :   0.9865 B(  1-C ,  3-C ) :   0.9421
B(  1-C , 12-H ) :   0.9463 B(  2-C , 13-H ) :   0.9759 B(  2-C , 14-H ) :   0.9769
B(  2-C , 15-H ) :   0.9825 B(  3-C ,  4-C ) :   1.3600 B(  3-C ,  8-C ) :   1.3607
B(  4-C ,  5-C ) :   1.4625 B(  4-C , 16-H ) :   0.9688 B(  5-C ,  6-C ) :   1.4230
B(  5-C , 17-H ) :   0.9754 B(  6-C ,  7-C ) :   1.4240 B(  6-C , 18-H ) :   0.9736
B(  7-C ,  8-C ) :   1.4615 B(  7-C , 19-H ) :   0.9753 B(  8-C , 20-H ) :   0.9685

FINAL SINGLE POINT ENERGY      -350.198905239823

DIPOLE MOMENT
-------------

Method             : SCF
Type of density    : Electron Density
Multiplicity       :   1
Irrep              :   0
Energy             :  -350.2116594778235026 Eh
Relativity type    :
Basis              : AO
                                X                 Y                 Z
Electronic contribution:      8.077740798      -0.086235434      -0.863413073
Nuclear contribution   :     -8.256948102       0.051782777       0.825512036
                        -----------------------------------------
Total Dipole Moment    :     -0.179207305      -0.034452657      -0.037901037
                        -----------------------------------------
Magnitude (a.u.)       :      0.186383294
Magnitude (Debye)      :      0.473748684

Rotational constants in cm-1:             0.112126             0.039208             0.030002
Rotational constants in MHz :          3361.444605          1175.438190           899.429848

                             ****ORCA TERMINATED NORMALLY****
TOTAL RUN TIME: 0 days 0 hours 3 minutes 57 seconds 184 msec
