                         Program Version 6.0.0  -   RELEASE  -
|  1> ! wb97x-v def2-tzvp def2/J RIJCOSX DEFGRID2 scfconv7 GCP(DFT/TZ) printgap
|  2> %output
|  3>     printlevel normal
|  4> end
|  5> %cpcm
|  6>     smd true
|  7>     smdsolvent "water"
|  8> end
|  9> * xyz 0 1
| 10> C -2.448713499852107 1.0569180672116194 -0.45215857492891415
| 11> C -1.708908377524925 -0.2742058213363436 -0.2789272841719322
| 12> C -2.3276517764185356 -1.0535047309050647 0.887035620056028
| 13> C -0.19956717100684235 -0.10038142089030629 -0.14037379750709267
| 14> C 0.5830263199399299 -1.0455954378472736 0.5373234342626227
| 15> C 1.9654263908657306 -0.9057110854151048 0.6375571406113775
| 16> C 2.6069753071004365 0.18732520076333137 0.061765434330401735
| 17> C 1.8466045495810683 1.135863550027097 -0.6161508974747909
| 18> C 0.4642464181441345 0.9928047496889191 -0.7141304506822125
| 19> H -2.1669281865549217 1.5788431540501993 -1.3699810349619548
| 20> H -2.2533797494103966 1.7238704218233336 0.395548557122322
| 21> H -3.526702640859636 0.8751371877956323 -0.49928158587329413
| 22> H -1.8764129259512856 -0.8638041602587708 -1.1928728346801678
| 23> H -2.122889657534666 -0.5543077527752347 1.841217353285079
| 24> H -1.9578353789483054 -2.0798061534856678 0.9515574838405593
| 25> H -3.413033665908565 -1.1070641780638053 0.7585404581653803
| 26> H 0.11645988781016157 -1.9093971401922616 0.9973616374451983
| 27> H 2.5413286196777736 -1.6560398786237758 1.1713838887554604
| 28> H 3.6837781384265362 0.29909572361005776 0.14180387916653173
| 29> H 2.3287056814271767 1.995870097497088 -1.0716719804388366
| 30> H -0.09704993517370027 1.7503247727012092 -1.2493138713378105
| 31> *
| 32>
| 33>                          ****END OF INPUT****

CARTESIAN COORDINATES (ANGSTROEM)
---------------------------------
  C     -2.448713    1.056918   -0.452159
  C     -1.708908   -0.274206   -0.278927
  C     -2.327652   -1.053505    0.887036
  C     -0.199567   -0.100381   -0.140374
  C      0.583026   -1.045595    0.537323
  C      1.965426   -0.905711    0.637557
  C      2.606975    0.187325    0.061765
  C      1.846605    1.135864   -0.616151
  C      0.464246    0.992805   -0.714130
  H     -2.166928    1.578843   -1.369981
  H     -2.253380    1.723870    0.395549
  H     -3.526703    0.875137   -0.499282
  H     -1.876413   -0.863804   -1.192873
  H     -2.122890   -0.554308    1.841217
  H     -1.957835   -2.079806    0.951557
  H     -3.413034   -1.107064    0.758540
  H      0.116460   -1.909397    0.997362
  H      2.541329   -1.656040    1.171384
  H      3.683778    0.299096    0.141804
  H      2.328706    1.995870   -1.071672
  H     -0.097050    1.750325   -1.249314

 Total Charge           Charge          ....    0
 Multiplicity           Mult            ....    1
 Number of Electrons    NEL             ....   66
 Basis Dimension        Dim             ....  351

ORBITAL ENERGIES
----------------

  NO   OCC          E(Eh)            E(eV)
   0   2.0000     -12.056520      -328.0746
   1   2.0000     -12.049945      -327.8957
   2   2.0000     -12.047419      -327.8269
   3   2.0000     -12.047197      -327.8209
   4   2.0000     -12.044209      -327.7396
   5   2.0000     -12.043208      -327.7124
   6   2.0000     -12.042689      -327.6982
   7   2.0000     -12.025879      -327.2408
   8   2.0000     -12.025575      -327.2325
   9   2.0000      -1.381343       -37.5883
  10   2.0000      -1.310483       -35.6601
  11   2.0000      -1.267472       -34.4897
  12   2.0000      -1.248341       -33.9691
  13   2.0000      -1.169561       -31.8254
  14   2.0000      -1.114245       -30.3201
  15   2.0000      -1.097702       -29.8700
  16   2.0000      -1.043919       -28.4065
  17   2.0000      -0.956098       -26.0167
  18   2.0000      -0.946834       -25.7647
  19   2.0000      -0.907432       -24.6925
  20   2.0000      -0.884360       -24.0647
  21   2.0000      -0.873913       -23.7804
  22   2.0000      -0.867412       -23.6035
  23   2.0000      -0.828985       -22.5578
  24   2.0000      -0.820062       -22.3150
  25   2.0000      -0.802230       -21.8298
  26   2.0000      -0.799491       -21.7553
  27   2.0000      -0.786188       -21.3933
  28   2.0000      -0.771907       -21.0046
  29   2.0000      -0.769606       -20.9420
  30   2.0000      -0.747879       -20.3508
  31   2.0000      -0.635220       -17.2852
  32   2.0000      -0.630705       -17.1624
  33   0.0000      -0.236656        -6.4397
  34   0.0000      -0.233265        -6.3475
  35   0.0000      -0.067940        -1.8487
  36   0.0000      -0.046085        -1.2540
  37   0.0000      -0.025580        -0.6961

MULLIKEN ATOMIC CHARGES
-----------------------
   0 C :   -0.419479
   1 C :    0.073921
   2 C :   -0.417839
   3 C :    0.080489
   4 C :   -0.243110
   5 C :   -0.159615
   6 C :   -0.187391
   7 C :   -0.159823
   8 C :   -0.242529
   9 H :    0.135732
  10 H :    0.128219
  11 H :    0.133242
  12 H :    0.094609
  13 H :    0.127599
  14 H :    0.135463
  15 H :    0.132813
  16 H :    0.156494
  17 H :    0.157880
  18 H :    0.158511
  19 H :    0.157877
  20 H :    0.156936
Sum of atomic charges:    0.0000000

LOEWDIN ATOMIC CHARGES
----------------------
   0 C :   -0.281030
   1 C :   -0.256865
   2 C :   -0.280752
   3 C :   -0.121556
   4 C :   -0.121999
   5 C :   -0.152607
   6 C :   -0.160259
   7 C :   -0.152570
   8 C :   -0.122227
   9 H :    0.119889
  10 H :    0.123352
  11 H :    0.123004
  12 H :    0.161602
  13 H :    0.123273
  14 H :    0.119775
  15 H :    0.122989
  16 H :    0.153487
  17 H :    0.150048
  18 H :    0.148825
  19 H :    0.150028
  20 H :    0.153590

  Mayer bond orders larger than 0.100000
B(  0-C ,  1-C ) :   0.9768 B(  0-C ,  9-H ) :   0.9735 B(  0-C , 10-H ) :   0.9752
B(  0-C , 11-H ) :   0.9793 B(  1-C ,  2-C ) :   0.9771 B(  1-C ,  3-C ) :   0.9514
B(  1-C , 12-H ) :   0.9370 B(  2-C , 13-H ) :   0.9750 B(  2-C , 14-H ) :   0.9736
B(  2-C , 15-H ) :   0.9792 B(  3-C ,  4-C ) :   1.3424 B(  3-C ,  8-C ) :   1.3430
B(  4-C ,  5-C ) :   1.4404 B(  4-C , 16-H ) :   0.9725 B(  5-C ,  6-C ) :   1.4011
B(  5-C , 17-H ) :   0.9788 B(  6-C ,  7-C ) :   1.4021 B(  6-C , 18-H ) :   0.9765
B(  7-C ,  8-C ) :   1.4391 B(  7-C , 19-H ) :   0.9787 B(  8-C , 20-H ) :   0.9724

FINAL SINGLE POINT ENERGY      -350.200014538729

DIPOLE MOMENT
-------------

Method             : SCF
Type of density    : Electron Density
Multiplicity       :   1
Irrep              :   0
Energy             :  -350.2127687767287512 Eh
Relativity type    :
Basis              : AO
                                X                 Y                 Z
Electronic contribution:      7.988020179      -0.117930881      -0.905300094
Nuclear contribution   :     -8.256948102       0.051782777       0.825512036
                        -----------------------------------------
Total Dipole Moment    :     -0.268927923      -0.066148104      -0.079788058
                        -----------------------------------------
Magnitude (a.u.)       :      0.288208143
Magnitude (Debye)      :      0.732566882

Rotational constants in cm-1:             0.112126             0.039208             0.030002
Rotational constants in MHz :          3361.444605          1175.438190           899.429848

                             ****ORCA TERMINATED NORMALLY****
TOTAL RUN TIME: 0 days 0 hours 3 minutes 48 seconds 628 msec
