                         Program Version 6.0.0  -   RELEASE  -
|  1> ! wb97x-v def2-tzvp def2/J RIJCOSX DEFGRID2 scfconv7 GCP(DFT/TZ) printgap
|  2> %output
|  3>     printlevel normal
|  4> end
|  5> * xyz 0 1
|  6> C -2.5778425705337016 -0.6159762146270845 -0.36588249804382034
|  7> C -1.2083485285319395 -0.2882360197776371 0.17936893639678597
|  8> H -1.243741511864022 -0.2583890593632462 1.2808087032944575
|  9> C -0.6906789840310843 1.0518342606142361 -0.3464582823364638
| 10> H -0.6984175586594406 1.0308274535755377 -1.4479163189586761
| 11> C 0.7366459884141849 1.2776094987637239 0.13539665124458264
| 12> H 0.7200405279494801 1.3972120938787873 1.2303384931550576
| 13> C 1.6275269766453337 0.09310816995762412 -0.2097996473071979
| 14> H 1.7249773543930058 0.0056666271746154 -1.302252855596417
| 15> C 0.9918604025954546 -1.1885342314141663 0.31937544569467224
| 16> H 0.911539742350692 -1.1608157958410432 1.4185618606218466
| 17> O -0.31565534376278687 -1.3311625484100063 -0.247932915810628
| 18> O 1.7681075300798896 -2.27653054985326 -0.10689029318170781
| 19> O 2.9009775105611246 0.3286724979839205 0.39664388498756414
| 20> O 1.200583760120874 2.4851402717374893 -0.48065807290913715
| 21> O -1.553667401360823 2.084103817077889 0.1385881819137471
| 22> O -3.0450467628319218 -1.8128687250112487 0.27411432456529267
| 23> H -2.509857291763809 -0.7564135805327519 -1.4538380796312915
| 24> H -3.253522621735494 0.22201500793174211 -0.1596168308181075
| 25> H 1.565700235752738 -3.035042139169263 0.4576595785891464
| 26> H 3.519332121449531 -0.31965377310127074 0.035988238181870705
| 27> H 2.025264771147574 2.7374774643618243 -0.04558588744338786
| 28> H -1.155253905473764 2.9272530936671424 -0.11841131939258022
| 29> H -3.915170044397907 -2.012762284366551 -0.09287325164669563
| 30> *
| 31>
| 32>                          ****END OF INPUT****

CARTESIAN COORDINATES (ANGSTROEM)
---------------------------------
  C     -2.577843   -0.615976   -0.365882
  C     -1.208349   -0.288236    0.179369
  H     -1.243742   -0.258389    1.280809
  C     -0.690679    1.051834   -0.346458
  H     -0.698418    1.030827   -1.447916
  C      0.736646    1.277609    0.135397
  H      0.720041    1.397212    1.230338
  C      1.627527    0.093108   -0.209800
  H      1.724977    0.005667   -1.302253
  C      0.991860   -1.188534    0.319375
  H      0.911540   -1.160816    1.418562
  O     -0.315655   -1.331163   -0.247933
  O      1.768108   -2.276531   -0.106890
  O      2.900978    0.328672    0.396644
  O      1.200584    2.485140   -0.480658
  O     -1.553667    2.084104    0.138588
  O     -3.045047   -1.812869    0.274114
  H     -2.509857   -0.756414   -1.453838
  H     -3.253523    0.222015   -0.159617
  H      1.565700   -3.035042    0.457660
  H      3.519332   -0.319654    0.035988
  H      2.025265    2.737477   -0.045586
  H     -1.155254    2.927253   -0.118411
  H     -3.915170   -2.012762   -0.092873

 Total Charge           Charge          ....    0
 Multiplicity           Mult            ....    1
 Number of Electrons    NEL             ....   96
 Basis Dimension        Dim             ....  444

ORBITAL ENERGIES
----------------

  NO   OCC          E(Eh)            E(eV)
   0   2.0000     -21.695189      -590.3561
   1   2.0000     -21.686513      -590.1200
   2   2.0000     -21.685676      -590.0973
   3   2.0000     -21.683289      -590.0323
   4   2.0000     -21.678708      -589.9076
   5   2.0000     -21.670282      -589.6784
   6   2.0000     -12.155610      -330.7710
   7   2.0000     -12.109701      -329.5217
   8   2.0000     -12.107593      -329.4644
   9   2.0000     -12.106627      -329.4381
  10   2.0000     -12.106124      -329.4244
  11   2.0000     -12.093175      -329.0720
  12   2.0000      -1.721680       -46.8493
  13   2.0000      -1.693100       -46.0716
  14   2.0000      -1.686717       -45.8979
  15   2.0000      -1.680174       -45.7198
  16   2.0000      -1.677335       -45.6426
  17   2.0000      -1.669052       -45.4172
  18   2.0000      -1.338076       -36.4109
  19   2.0000      -1.323114       -36.0038
  20   2.0000      -1.236187       -33.6384
  21   2.0000      -1.199423       -32.6379
  22   2.0000      -1.162756       -31.6402
  23   2.0000      -1.116548       -30.3828
  24   2.0000      -1.087800       -29.6005
  25   2.0000      -1.065686       -28.9988
  26   2.0000      -1.048460       -28.5300
  27   2.0000      -1.042961       -28.3804
  28   2.0000      -1.037640       -28.2356
  29   2.0000      -1.019828       -27.7509
  30   2.0000      -0.999903       -27.2087
  31   2.0000      -0.986656       -26.8483
  32   2.0000      -0.970936       -26.4205
  33   2.0000      -0.969637       -26.3852
  34   2.0000      -0.960466       -26.1356
  35   2.0000      -0.943696       -25.6793
  36   2.0000      -0.935713       -25.4621
  37   2.0000      -0.928588       -25.2682
  38   2.0000      -0.924894       -25.1676
  39   2.0000      -0.912631       -24.8339
  40   2.0000      -0.899114       -24.4661
  41   2.0000      -0.881254       -23.9801
  42   2.0000      -0.842916       -22.9369
  43   2.0000      -0.837789       -22.7974
  44   2.0000      -0.816417       -22.2158
  45   2.0000      -0.804283       -21.8857
  46   2.0000      -0.792582       -21.5673
  47   2.0000      -0.770211       -20.9585
  48   0.0000      -0.236316        -6.4305
  49   0.0000      -0.194915        -5.3039
  50   0.0000      -0.175650        -4.7797
  51   0.0000      -0.150486        -4.0949
  52   0.0000      -0.122182        -3.3248

MULLIKEN ATOMIC CHARGES
-----------------------
   0 C :   -0.082969
   1 C :    0.083623
   2 H :    0.076572
   3 C :    0.090802
   4 H :    0.080358
   5 C :    0.042622
   6 H :    0.091651
   7 C :    0.068104
   8 H :    0.086820
   9 C :    0.071059
  10 H :    0.069131
  11 O :   -0.241372
  12 O :   -0.414639
  13 O :   -0.454478
  14 O :   -0.461056
  15 O :   -0.449710
  16 O :   -0.433776
  17 H :    0.084760
  18 H :    0.117579
  19 H :    0.318818
  20 H :    0.318320
  21 H :    0.320708
  22 H :    0.317033
  23 H :    0.300043
Sum of atomic charges:    0.0000000

LOEWDIN ATOMIC CHARGES
----------------------
   0 C :   -0.309534
   1 C :   -0.291826
   2 H :    0.145498
   3 C :   -0.299120
   4 H :    0.144221
   5 C :   -0.311677
   6 H :    0.145503
   7 C :   -0.314288
   8 H :    0.146040
   9 C :   -0.411640
  10 H :    0.123019
  11 O :    0.195650
  12 O :    0.011900
  13 O :   -0.017141
  14 O :   -0.018545
  15 O :   -0.013127
  16 O :   -0.050619
  17 H :    0.120508
  18 H :    0.125914
  19 H :    0.180498
  20 H :    0.176895
  21 H :    0.177372
  22 H :    0.176885
  23 H :    0.167614

  Mayer bond orders larger than 0.100000
B(  0-C ,  1-C ) :   0.9827 B(  0-C , 16-O ) :   1.1233 B(  0-C , 17-H ) :   0.9603
B(  0-C , 18-H ) :   0.9752 B(  1-C ,  2-H ) :   0.9564 B(  1-C ,  3-C ) :   0.9397
B(  1-C , 11-O ) :   1.0001 B(  3-C ,  4-H ) :   0.9527 B(  3-C ,  5-C ) :   0.9622
B(  3-C , 15-O ) :   1.0718 B(  5-C ,  6-H ) :   0.9721 B(  5-C ,  7-C ) :   0.9495
B(  5-C , 14-O ) :   1.0747 B(  7-C ,  8-H ) :   0.9651 B(  7-C ,  9-C ) :   0.9271
B(  7-C , 13-O ) :   1.1102 B(  9-C , 10-H ) :   0.9826 B(  9-C , 11-O ) :   1.0308
B(  9-C , 12-O ) :   1.2018 B( 12-O , 19-H ) :   0.8915 B( 13-O , 20-H ) :   0.8891
B( 14-O , 21-H ) :   0.8881 B( 15-O , 22-H ) :   0.8833 B( 16-O , 23-H ) :   0.9069

FINAL SINGLE POINT ENERGY      -687.248312876864

DIPOLE MOMENT
-------------

Method             : SCF
Type of density    : Electron Density
Multiplicity       :   1
Irrep              :   0
Energy             :  -687.2669722893635935 Eh
Relativity type    :
Basis              : AO
                                X                 Y                 Z
Electronic contribution:      2.293371425      -0.956432090      -0.004365416
Nuclear contribution   :     -2.120345591       0.949391262       0.071384736
                        -----------------------------------------
Total Dipole Moment    :      0.173025834      -0.007040828       0.067019320
                        -----------------------------------------
Magnitude (a.u.)       :      0.185685491
Magnitude (Debye)      :      0.471975010

Rotational constants in cm-1:             0.039042             0.025883             0.016304
Rotational constants in MHz :          1170.439438           775.943411           488.771975

                             ****ORCA TERMINATED NORMALLY****
TOTAL RUN TIME: 0 days 0 hours 4 minutes 35 seconds 397 msec
