                         Program Version 6.0.0  -   RELEASE  -
|  1> ! wb97x-v def2-tzvp def2/J RIJCOSX DEFGRID2 scfconv7 GCP(DFT/TZ) printgap
|  2> %output
|  3>     printlevel normal
|  4> end
|  5> %cpcm
|  6>     smd true
|  7>     smdsolvent "water"
|  8> end
|  9> * xyz 0 1
| 10> C -2.5778425705337016 -0.6159762146270845 -0.36588249804382034
| 11> C -1.2083485285319395 -0.2882360197776371 0.17936893639678597
| 12> H -1.243741511864022 -0.2583890593632462 1.2808087032944575
| 13> C -0.6906789840310843 1.0518342606142361 -0.3464582823364638
| 14> H -0.6984175586594406 1.0308274535755377 -1.4479163189586761
| 15> C 0.7366459884141849 1.2776094987637239 0.13539665124458264
| 16> H 0.7200405279494801 1.3972120938787873 1.2303384931550576
| 17> C 1.6275269766453337 0.09310816995762412 -0.2097996473071979
| 18> H 1.7249773543930058 0.0056666271746154 -1.302252855596417
| 19> C 0.9918604025954546 -1.1885342314141663 0.31937544569467224
| 20> H 0.911539742350692 -1.1608157958410432 1.4185618606218466
| 21> O -0.31565534376278687 -1.3311625484100063 -0.247932915810628
| 22> O 1.7681075300798896 -2.27653054985326 -0.10689029318170781
| 23> O 2.9009775105611246 0.3286724979839205 0.39664388498756414
| 24> O 1.200583760120874 2.4851402717374893 -0.48065807290913715
| 25> O -1.553667401360823 2.084103817077889 0.1385881819137471
| 26> O -3.0450467628319218 -1.8128687250112487 0.27411432456529267
| 27> H -2.509857291763809 -0.7564135805327519 -1.4538380796312915
| 28> H -3.253522621735494 0.22201500793174211 -0.1596168308181075
| 29> H 1.565700235752738 -3.035042139169263 0.4576595785891464
| 30> H 3.519332121449531 -0.31965377310127074 0.035988238181870705
| 31> H 2.025264771147574 2.7374774643618243 -0.04558588744338786
| 32> H -1.155253905473764 2.9272530936671424 -0.11841131939258022
| 33> H -3.915170044397907 -2.012762284366551 -0.09287325164669563
| 34> *
| 35>
| 36>                          ****END OF INPUT****

CARTESIAN COORDINATES (ANGSTROEM)
---------------------------------
  C     -2.577843   -0.615976   -0.365882
  C     -1.208349   -0.288236    0.179369
  H     -1.243742   -0.258389    1.280809
  C     -0.690679    1.051834   -0.346458
  H     -0.698418    1.030827   -1.447916
  C      0.736646    1.277609    0.135397
  H      0.720041    1.397212    1.230338
  C      1.627527    0.093108   -0.209800
  H      1.724977    0.005667   -1.302253
  C      0.991860   -1.188534    0.319375
  H      0.911540   -1.160816    1.418562
  O     -0.315655   -1.331163   -0.247933
  O      1.768108   -2.276531   -0.106890
  O      2.900978    0.328672    0.396644
  O      1.200584    2.485140   -0.480658
  O     -1.553667    2.084104    0.138588
  O     -3.045047   -1.812869    0.274114
  H     -2.509857   -0.756414   -1.453838
  H     -3.253523    0.222015   -0.159617
  H      1.565700   -3.035042    0.457660
  H      3.519332   -0.319654    0.035988
  H      2.025265    2.737477   -0.045586
  H     -1.155254    2.927253   -0.118411
  H     -3.915170   -2.012762   -0.092873

 Total Charge           Charge          ....    0
 Multiplicity           Mult            ....    1
 Number of Electrons    NEL             ....   96
 Basis Dimension        Dim             ....  444

ORBITAL ENERGIES
----------------

  NO   OCC          E(Eh)            E(eV)
   0   2.0000     -21.691806      -590.2641
   1   2.0000     -21.690271      -590.2223
   2   2.0000     -21.683644      -590.0419
   3   2.0000     -21.682393      -590.0079
   4   2.0000     -21.681647      -589.9876
   5   2.0000     -21.676329      -589.8429
   6   2.0000     -12.150724      -330.6380
   7   2.0000     -12.105254      -329.4007
   8   2.0000     -12.103984      -329.3662
   9   2.0000     -12.102770      -329.3331
  10   2.0000     -12.101161      -329.2893
  11   2.0000     -12.091079      -329.0150
  12   2.0000      -1.722598       -46.8743
  13   2.0000      -1.691097       -46.0171
  14   2.0000      -1.686655       -45.8962
  15   2.0000      -1.681048       -45.7436
  16   2.0000      -1.678820       -45.6830
  17   2.0000      -1.674846       -45.5749
  18   2.0000      -1.334967       -36.3263
  19   2.0000      -1.321641       -35.9637
  20   2.0000      -1.234438       -33.5908
  21   2.0000      -1.197882       -32.5960
  22   2.0000      -1.162297       -31.6277
  23   2.0000      -1.116651       -30.3856
  24   2.0000      -1.087051       -29.5802
  25   2.0000      -1.063196       -28.9310
  26   2.0000      -1.047154       -28.4945
  27   2.0000      -1.044999       -28.4359
  28   2.0000      -1.037713       -28.2376
  29   2.0000      -1.020642       -27.7731
  30   2.0000      -1.000933       -27.2368
  31   2.0000      -0.987795       -26.8793
  32   2.0000      -0.973027       -26.4774
  33   2.0000      -0.972493       -26.4629
  34   2.0000      -0.963494       -26.2180
  35   2.0000      -0.946695       -25.7609
  36   2.0000      -0.941212       -25.6117
  37   2.0000      -0.928470       -25.2650
  38   2.0000      -0.925759       -25.1912
  39   2.0000      -0.916384       -24.9361
  40   2.0000      -0.899820       -24.4853
  41   2.0000      -0.880183       -23.9510
  42   2.0000      -0.841627       -22.9018
  43   2.0000      -0.837756       -22.7965
  44   2.0000      -0.814532       -22.1646
  45   2.0000      -0.801456       -21.8087
  46   2.0000      -0.789402       -21.4807
  47   2.0000      -0.766564       -20.8593
  48   0.0000      -0.234267        -6.3747
  49   0.0000      -0.191741        -5.2175
  50   0.0000      -0.173303        -4.7158
  51   0.0000      -0.149395        -4.0653
  52   0.0000      -0.119486        -3.2514

MULLIKEN ATOMIC CHARGES
-----------------------
   0 C :   -0.076424
   1 C :    0.106619
   2 H :    0.103917
   3 C :    0.071128
   4 H :    0.105024
   5 C :    0.092287
   6 H :    0.109019
   7 C :    0.070455
   8 H :    0.103049
   9 C :    0.077484
  10 H :    0.107542
  11 O :   -0.325610
  12 O :   -0.489248
  13 O :   -0.525915
  14 O :   -0.533042
  15 O :   -0.527705
  16 O :   -0.542372
  17 H :    0.117593
  18 H :    0.123725
  19 H :    0.377378
  20 H :    0.364929
  21 H :    0.365125
  22 H :    0.359690
  23 H :    0.365352
Sum of atomic charges:    0.0000000

LOEWDIN ATOMIC CHARGES
----------------------
   0 C :   -0.305259
   1 C :   -0.294173
   2 H :    0.153588
   3 C :   -0.295088
   4 H :    0.152017
   5 C :   -0.305842
   6 H :    0.154232
   7 C :   -0.311258
   8 H :    0.151135
   9 C :   -0.404365
  10 H :    0.137829
  11 O :    0.162067
  12 O :   -0.012146
  13 O :   -0.039195
  14 O :   -0.042305
  15 O :   -0.040254
  16 O :   -0.089579
  17 H :    0.129121
  18 H :    0.129793
  19 H :    0.201459
  20 H :    0.193205
  21 H :    0.192559
  22 H :    0.191135
  23 H :    0.191324

  Mayer bond orders larger than 0.100000
B(  0-C ,  1-C ) :   0.9606 B(  0-C , 16-O ) :   1.0713 B(  0-C , 17-H ) :   0.9650
B(  0-C , 18-H ) :   0.9845 B(  1-C ,  2-H ) :   0.9494 B(  1-C ,  3-C ) :   0.9576
B(  1-C , 11-O ) :   0.9507 B(  3-C ,  4-H ) :   0.9524 B(  3-C ,  5-C ) :   0.9770
B(  3-C , 15-O ) :   1.0365 B(  5-C ,  6-H ) :   0.9559 B(  5-C ,  7-C ) :   0.9688
B(  5-C , 14-O ) :   1.0455 B(  7-C ,  8-H ) :   0.9555 B(  7-C ,  9-C ) :   0.9497
B(  7-C , 13-O ) :   1.0874 B(  9-C , 10-H ) :   0.9824 B(  9-C , 11-O ) :   1.0093
B(  9-C , 12-O ) :   1.1982 B( 12-O , 19-H ) :   0.8531 B( 13-O , 20-H ) :   0.8587
B( 14-O , 21-H ) :   0.8595 B( 15-O , 22-H ) :   0.8562 B( 16-O , 23-H ) :   0.8672

FINAL SINGLE POINT ENERGY      -687.287015280137

DIPOLE MOMENT
-------------

Method             : SCF
Type of density    : Electron Density
Multiplicity       :   1
Irrep              :   0
Energy             :  -687.3056746926370124 Eh
Relativity type    :
Basis              : AO
                                X                 Y                 Z
Electronic contribution:      2.347468988      -0.864786759       0.084386487
Nuclear contribution   :     -2.120345591       0.949391262       0.071384736
                        -----------------------------------------
Total Dipole Moment    :      0.227123397       0.084604503       0.155771223
                        -----------------------------------------
Magnitude (a.u.)       :      0.288110453
Magnitude (Debye)      :      0.732318574

Rotational constants in cm-1:             0.039042             0.025883             0.016304
Rotational constants in MHz :          1170.439438           775.943411           488.771975

                             ****ORCA TERMINATED NORMALLY****
TOTAL RUN TIME: 0 days 0 hours 5 minutes 11 seconds 100 msec
