                         Program Version 6.0.0  -   RELEASE  -
|  1> ! wb97x-v def2-tzvp def2/J RIJCOSX DEFGRID2 scfconv7 GCP(DFT/TZ) printgap
|  2> %output
|  3>     printlevel normal
|  4> end
|  5> * xyz 0 1
|  6> C -2.4842056611677634 -1.185645566827393 -0.0015029293388066573
|  7> C -1.6966033370969442 0.09170425285145763 -0.00018820201492099066
|  8> O -2.269909094752628 1.1820447614002143 0.0012309209094182628
|  9> C -0.20946551723518708 0.021884974534492636 -0.0001324839938588165
| 10> C 0.4696651754486561 -1.2037285351235272 0.000737022373912818
| 11> C 1.8597807277526208 -1.2344290564657476 0.0009503871489234377
| 12> C 2.5843064195384198 -0.045087303600032394 0.00016551709721122768
| 13> C 1.9163271208442236 1.1796630169352753 -0.0007741832083236703
| 14> C 0.5295140335049311 1.2134431307946973 -0.0008497335879880309
| 15> H -2.235061202787788 -1.7881930738613856 -0.8816055282806159
| 16> H -3.5503968561237773 -0.9579471412866003 -0.002955951514385018
| 17> H -2.23764404408947 -1.7879788846228886 0.8795159049950388
| 18> H -0.08139761398269492 -2.137246992488384 0.0013483764945900166
| 19> H 2.378640963445394 -2.1873986858706664 0.0017138620775036095
| 20> H 3.669380564112789 -0.07098661916554196 0.0002814826201289509
| 21> H 2.4810492103521646 2.1063654103079443 -0.0014496062567883107
| 22> H 0.005033053563841547 2.16267207833181 -0.0015927464998616114
| 23> *
| 24>
| 25>                          ****END OF INPUT****

CARTESIAN COORDINATES (ANGSTROEM)
---------------------------------
  C     -2.484206   -1.185646   -0.001503
  C     -1.696603    0.091704   -0.000188
  O     -2.269909    1.182045    0.001231
  C     -0.209466    0.021885   -0.000132
  C      0.469665   -1.203729    0.000737
  C      1.859781   -1.234429    0.000950
  C      2.584306   -0.045087    0.000166
  C      1.916327    1.179663   -0.000774
  C      0.529514    1.213443   -0.000850
  H     -2.235061   -1.788193   -0.881606
  H     -3.550397   -0.957947   -0.002956
  H     -2.237644   -1.787979    0.879516
  H     -0.081398   -2.137247    0.001348
  H      2.378641   -2.187399    0.001714
  H      3.669381   -0.070987    0.000281
  H      2.481049    2.106365   -0.001450
  H      0.005033    2.162672   -0.001593

 Total Charge           Charge          ....    0
 Multiplicity           Mult            ....    1
 Number of Electrons    NEL             ....   64
 Basis Dimension        Dim             ....  327

ORBITAL ENERGIES
----------------

  NO   OCC          E(Eh)            E(eV)
   0   2.0000     -21.659150      -589.3754
   1   2.0000     -12.142297      -330.4087
   2   2.0000     -12.070764      -328.4622
   3   2.0000     -12.068577      -328.4027
   4   2.0000     -12.067954      -328.3857
   5   2.0000     -12.064316      -328.2867
   6   2.0000     -12.063407      -328.2620
   7   2.0000     -12.061366      -328.2064
   8   2.0000     -12.053936      -328.0043
   9   2.0000      -1.700933       -46.2847
  10   2.0000      -1.398803       -38.0634
  11   2.0000      -1.309584       -35.6356
  12   2.0000      -1.287831       -35.0437
  13   2.0000      -1.253762       -34.1166
  14   2.0000      -1.150288       -31.3009
  15   2.0000      -1.118352       -30.4319
  16   2.0000      -1.081548       -29.4304
  17   2.0000      -1.016425       -27.6583
  18   2.0000      -0.976243       -26.5649
  19   2.0000      -0.959152       -26.0999
  20   2.0000      -0.945447       -25.7269
  21   2.0000      -0.912364       -24.8267
  22   2.0000      -0.907471       -24.6935
  23   2.0000      -0.888853       -24.1869
  24   2.0000      -0.848637       -23.0926
  25   2.0000      -0.837789       -22.7974
  26   2.0000      -0.832816       -22.6621
  27   2.0000      -0.819794       -22.3077
  28   2.0000      -0.804992       -21.9049
  29   2.0000      -0.784410       -21.3449
  30   2.0000      -0.660052       -17.9609
  31   2.0000      -0.651542       -17.7294
  32   0.0000      -0.342481        -9.3194
  33   0.0000      -0.246579        -6.7097
  34   0.0000      -0.214832        -5.8459
  35   0.0000      -0.069890        -1.9018
  36   0.0000      -0.069831        -1.9002

MULLIKEN ATOMIC CHARGES
-----------------------
   0 C :   -0.364413
   1 C :    0.214523
   2 O :   -0.324050
   3 C :    0.089679
   4 C :   -0.183885
   5 C :   -0.134817
   6 C :   -0.106712
   7 C :   -0.096170
   8 C :   -0.167167
   9 H :    0.134183
  10 H :    0.144539
  11 H :    0.134166
  12 H :    0.135372
  13 H :    0.122891
  14 H :    0.125098
  15 H :    0.125211
  16 H :    0.151551
Sum of atomic charges:    0.0000000

LOEWDIN ATOMIC CHARGES
----------------------
   0 C :   -0.257497
   1 C :   -0.294999
   2 O :    0.106108
   3 C :   -0.128380
   4 C :   -0.097090
   5 C :   -0.137659
   6 C :   -0.122219
   7 C :   -0.133006
   8 C :   -0.071663
   9 H :    0.134461
  10 H :    0.132691
  11 H :    0.134524
  12 H :    0.147844
  13 H :    0.143333
  14 H :    0.143685
  15 H :    0.144143
  16 H :    0.155724

  Mayer bond orders larger than 0.100000
B(  0-C ,  1-C ) :   1.0025 B(  0-C ,  9-H ) :   0.9570 B(  0-C , 10-H ) :   0.9789
B(  0-C , 11-H ) :   0.9567 B(  1-C ,  2-O ) :   2.1066 B(  1-C ,  3-C ) :   0.9413
B(  2-O ,  3-C ) :  -0.1224 B(  3-C ,  4-C ) :   1.3321 B(  3-C ,  8-C ) :   1.3937
B(  4-C ,  5-C ) :   1.4652 B(  4-C , 12-H ) :   0.9560 B(  5-C ,  6-C ) :   1.4333
B(  5-C , 13-H ) :   0.9714 B(  6-C ,  7-C ) :   1.4010 B(  6-C , 14-H ) :   0.9705
B(  7-C ,  8-C ) :   1.4384 B(  7-C , 15-H ) :   0.9760 B(  8-C , 16-H ) :   0.9495

FINAL SINGLE POINT ENERGY      -384.912446575940

DIPOLE MOMENT
-------------

Method             : SCF
Type of density    : Electron Density
Multiplicity       :   1
Irrep              :   0
Energy             :  -384.9215600516399149 Eh
Relativity type    :
Basis              : AO
                                X                 Y                 Z
Electronic contribution:      0.419326136       3.388926230       0.003036411
Nuclear contribution   :      0.383165185      -4.371013633      -0.004167227
                        -----------------------------------------
Total Dipole Moment    :      0.802491321      -0.982087403      -0.001130815
                        -----------------------------------------
Magnitude (a.u.)       :      1.268262302
Magnitude (Debye)      :      3.223666583

Rotational constants in cm-1:             0.123026             0.040779             0.030802
Rotational constants in MHz :          3688.237353          1222.535017           923.430841

                             ****ORCA TERMINATED NORMALLY****
TOTAL RUN TIME: 0 days 0 hours 3 minutes 27 seconds 834 msec
