                         Program Version 6.0.0  -   RELEASE  -
|  1> ! wb97x-v def2-tzvp def2/J RIJCOSX DEFGRID2 scfconv7 GCP(DFT/TZ) printgap
|  2> %output
|  3>     printlevel normal
|  4> end
|  5> %cpcm
|  6>     smd true
|  7>     smdsolvent "water"
|  8> end
|  9> * xyz 0 1
| 10> C -2.4842056611677634 -1.185645566827393 -0.0015029293388066573
| 11> C -1.6966033370969442 0.09170425285145763 -0.00018820201492099066
| 12> O -2.269909094752628 1.1820447614002143 0.0012309209094182628
| 13> C -0.20946551723518708 0.021884974534492636 -0.0001324839938588165
| 14> C 0.4696651754486561 -1.2037285351235272 0.000737022373912818
| 15> C 1.8597807277526208 -1.2344290564657476 0.0009503871489234377
| 16> C 2.5843064195384198 -0.045087303600032394 0.00016551709721122768
| 17> C 1.9163271208442236 1.1796630169352753 -0.0007741832083236703
| 18> C 0.5295140335049311 1.2134431307946973 -0.0008497335879880309
| 19> H -2.235061202787788 -1.7881930738613856 -0.8816055282806159
| 20> H -3.5503968561237773 -0.9579471412866003 -0.002955951514385018
| 21> H -2.23764404408947 -1.7879788846228886 0.8795159049950388
| 22> H -0.08139761398269492 -2.137246992488384 0.0013483764945900166
| 23> H 2.378640963445394 -2.1873986858706664 0.0017138620775036095
| 24> H 3.669380564112789 -0.07098661916554196 0.0002814826201289509
| 25> H 2.4810492103521646 2.1063654103079443 -0.0014496062567883107
| 26> H 0.005033053563841547 2.16267207833181 -0.0015927464998616114
| 27> *
| 28>
| 29>                          ****END OF INPUT****

CARTESIAN COORDINATES (ANGSTROEM)
---------------------------------
  C     -2.484206   -1.185646   -0.001503
  C     -1.696603    0.091704   -0.000188
  O     -2.269909    1.182045    0.001231
  C     -0.209466    0.021885   -0.000132
  C      0.469665   -1.203729    0.000737
  C      1.859781   -1.234429    0.000950
  C      2.584306   -0.045087    0.000166
  C      1.916327    1.179663   -0.000774
  C      0.529514    1.213443   -0.000850
  H     -2.235061   -1.788193   -0.881606
  H     -3.550397   -0.957947   -0.002956
  H     -2.237644   -1.787979    0.879516
  H     -0.081398   -2.137247    0.001348
  H      2.378641   -2.187399    0.001714
  H      3.669381   -0.070987    0.000281
  H      2.481049    2.106365   -0.001450
  H      0.005033    2.162672   -0.001593

 Total Charge           Charge          ....    0
 Multiplicity           Mult            ....    1
 Number of Electrons    NEL             ....   64
 Basis Dimension        Dim             ....  327

ORBITAL ENERGIES
----------------

  NO   OCC          E(Eh)            E(eV)
   0   2.0000     -21.669162      -589.6479
   1   2.0000     -12.150446      -330.6304
   2   2.0000     -12.064932      -328.3035
   3   2.0000     -12.061690      -328.2153
   4   2.0000     -12.059955      -328.1681
   5   2.0000     -12.059385      -328.1526
   6   2.0000     -12.054615      -328.0228
   7   2.0000     -12.053987      -328.0057
   8   2.0000     -12.041132      -327.6558
   9   2.0000      -1.714682       -46.6589
  10   2.0000      -1.393576       -37.9211
  11   2.0000      -1.304876       -35.5075
  12   2.0000      -1.281365       -34.8677
  13   2.0000      -1.246764       -33.9262
  14   2.0000      -1.146828       -31.2068
  15   2.0000      -1.111489       -30.2451
  16   2.0000      -1.087518       -29.5929
  17   2.0000      -1.017936       -27.6994
  18   2.0000      -0.973450       -26.4889
  19   2.0000      -0.951379       -25.8883
  20   2.0000      -0.944683       -25.7061
  21   2.0000      -0.920770       -25.0554
  22   2.0000      -0.902686       -24.5633
  23   2.0000      -0.880226       -23.9522
  24   2.0000      -0.842616       -22.9287
  25   2.0000      -0.826697       -22.4956
  26   2.0000      -0.823430       -22.4067
  27   2.0000      -0.812117       -22.0988
  28   2.0000      -0.804245       -21.8846
  29   2.0000      -0.780080       -21.2271
  30   2.0000      -0.655973       -17.8499
  31   2.0000      -0.645941       -17.5770
  32   0.0000      -0.340392        -9.2625
  33   0.0000      -0.240426        -6.5423
  34   0.0000      -0.210736        -5.7344
  35   0.0000      -0.064078        -1.7436
  36   0.0000      -0.063839        -1.7371

MULLIKEN ATOMIC CHARGES
-----------------------
   0 C :   -0.386711
   1 C :    0.289301
   2 O :   -0.453276
   3 C :    0.091033
   4 C :   -0.204515
   5 C :   -0.172438
   6 C :   -0.135958
   7 C :   -0.154092
   8 C :   -0.192322
   9 H :    0.166748
  10 H :    0.147217
  11 H :    0.166769
  12 H :    0.179342
  13 H :    0.166282
  14 H :    0.167868
  15 H :    0.165418
  16 H :    0.159336
Sum of atomic charges:   -0.0000000

LOEWDIN ATOMIC CHARGES
----------------------
   0 C :   -0.249913
   1 C :   -0.278396
   2 O :    0.030014
   3 C :   -0.136381
   4 C :   -0.087698
   5 C :   -0.138724
   6 C :   -0.120985
   7 C :   -0.138732
   8 C :   -0.085769
   9 H :    0.147321
  10 H :    0.132474
  11 H :    0.147396
  12 H :    0.161323
  13 H :    0.154064
  14 H :    0.154528
  15 H :    0.153800
  16 H :    0.155678

  Mayer bond orders larger than 0.100000
B(  0-C ,  1-C ) :   1.0345 B(  0-C ,  9-H ) :   0.9443 B(  0-C , 10-H ) :   0.9696
B(  0-C , 11-H ) :   0.9441 B(  1-C ,  2-O ) :   1.9694 B(  1-C ,  3-C ) :   0.9615
B(  2-O ,  3-C ) :  -0.1154 B(  3-C ,  4-C ) :   1.3225 B(  3-C ,  8-C ) :   1.3290
B(  4-C ,  5-C ) :   1.4365 B(  4-C , 12-H ) :   0.9617 B(  5-C ,  6-C ) :   1.4069
B(  5-C , 13-H ) :   0.9758 B(  6-C ,  7-C ) :   1.3856 B(  6-C , 14-H ) :   0.9707
B(  7-C ,  8-C ) :   1.4463 B(  7-C , 15-H ) :   0.9775 B(  8-C , 16-H ) :   0.9606

FINAL SINGLE POINT ENERGY      -384.921029004020

DIPOLE MOMENT
-------------

Method             : SCF
Type of density    : Electron Density
Multiplicity       :   1
Irrep              :   0
Energy             :  -384.9301424797195637 Eh
Relativity type    :
Basis              : AO
                                X                 Y                 Z
Electronic contribution:      0.809036778       2.815133988       0.002604170
Nuclear contribution   :      0.383165185      -4.371013633      -0.004167227
                        -----------------------------------------
Total Dipole Moment    :      1.192201964      -1.555879646      -0.001563056
                        -----------------------------------------
Magnitude (a.u.)       :      1.960129954
Magnitude (Debye)      :      4.982254397

Rotational constants in cm-1:             0.123026             0.040779             0.030802
Rotational constants in MHz :          3688.237353          1222.535017           923.430841

                             ****ORCA TERMINATED NORMALLY****
TOTAL RUN TIME: 0 days 0 hours 3 minutes 17 seconds 31 msec
