                         Program Version 6.0.0  -   RELEASE  -
|  1> ! pbe def2-sv(p) def2/J RI DEFGRID1 loosescf d4 GCP(DFT/SV(P)) printgap
|  2> %output
|  3>     printlevel normal
|  4> end
|  5> * xyz 0 1
|  6> C -4.2156156365 -0.2983528896 -0.1354358288
|  7> C -2.7327936422 -0.1162563887 -0.0343264408
|  8> C -2.0028072294 -0.7479071883 0.965504539
|  9> C -0.635754804 -0.5663555685 1.0706455364
| 10> C 0.030813949 0.2532946325 0.1680411659
| 11> C -0.6926605148 0.8995634811 -0.8268497085
| 12> C -2.0586592079 0.7103327384 -0.9262053817
| 13> C 1.4980805629 0.5110206525 0.3203001559
| 14> O 1.8957143938 1.485021323 0.9688781073
| 15> N 2.3327478345 -0.3532314499 -0.2692779712
| 16> C 3.7649676079 -0.1787679618 -0.1637512378
| 17> C 1.9124081387 -1.4923915872 -1.0510009042
| 18> H -4.7221173881 0.5112660043 0.3893991095
| 19> H -4.5365662131 -0.2776722637 -1.1736852075
| 20> H -4.5220795684 -1.2383080703 0.3152909202
| 21> H -2.5089727268 -1.3892370814 1.6716824459
| 22> H -0.0798485921 -1.0593448807 1.8546187384
| 23> H -0.1799983288 1.5493518877 -1.5209224285
| 24> H -2.6097326766 1.213806953 -1.7066250615
| 25> H 4.2003456505 -0.0585487039 -1.1562698024
| 26> H 4.2114628499 -1.0464033693 0.3232122157
| 27> H 3.9585944029 0.7123477929 0.4300241213
| 28> H 0.8283915852 -1.5490997268 -1.084705698
| 29> H 2.3078724413 -2.4072690269 -0.6065419878
| 30> H 2.2996468556 -1.40073298 -2.0673471103
| 31> *
| 32>
| 33>                          ****END OF INPUT****

CARTESIAN COORDINATES (ANGSTROEM)
---------------------------------
  C     -4.215616   -0.298353   -0.135436
  C     -2.732794   -0.116256   -0.034326
  C     -2.002807   -0.747907    0.965505
  C     -0.635755   -0.566356    1.070646
  C      0.030814    0.253295    0.168041
  C     -0.692661    0.899563   -0.826850
  C     -2.058659    0.710333   -0.926205
  C      1.498081    0.511021    0.320300
  O      1.895714    1.485021    0.968878
  N      2.332748   -0.353231   -0.269278
  C      3.764968   -0.178768   -0.163751
  C      1.912408   -1.492392   -1.051001
  H     -4.722117    0.511266    0.389399
  H     -4.536566   -0.277672   -1.173685
  H     -4.522080   -1.238308    0.315291
  H     -2.508973   -1.389237    1.671682
  H     -0.079849   -1.059345    1.854619
  H     -0.179998    1.549352   -1.520922
  H     -2.609733    1.213807   -1.706625
  H      4.200346   -0.058549   -1.156270
  H      4.211463   -1.046403    0.323212
  H      3.958594    0.712348    0.430024
  H      0.828392   -1.549100   -1.084706
  H      2.307872   -2.407269   -0.606542
  H      2.299647   -1.400733   -2.067347

 Total Charge           Charge          ....    0
 Multiplicity           Mult            ....    1
 Number of Electrons    NEL             ....   88
 Basis Dimension        Dim             ....  194

ORBITAL ENERGIES
----------------

  NO   OCC          E(Eh)            E(eV)
   0   2.0000     -18.704590      -508.9778
   1   2.0000     -14.027137      -381.6978
   2   2.0000      -9.974953      -271.4323
   3   2.0000      -9.923271      -270.0259
   4   2.0000      -9.914005      -269.7738
   5   2.0000      -9.903101      -269.4771
   6   2.0000      -9.902022      -269.4477
   7   2.0000      -9.895796      -269.2783
   8   2.0000      -9.895444      -269.2687
   9   2.0000      -9.892363      -269.1849
  10   2.0000      -9.892069      -269.1769
  11   2.0000      -9.886018      -269.0122
  12   2.0000      -0.926086       -25.2001
  13   2.0000      -0.847337       -23.0572
  14   2.0000      -0.781971       -21.2785
  15   2.0000      -0.707506       -19.2522
  16   2.0000      -0.672766       -18.3069
  17   2.0000      -0.658371       -17.9152
  18   2.0000      -0.643086       -17.4993
  19   2.0000      -0.611606       -16.6426
  20   2.0000      -0.549485       -14.9522
  21   2.0000      -0.533358       -14.5134
  22   2.0000      -0.496310       -13.5053
  23   2.0000      -0.474960       -12.9243
  24   2.0000      -0.438091       -11.9211
  25   2.0000      -0.428562       -11.6618
  26   2.0000      -0.418600       -11.3907
  27   2.0000      -0.410284       -11.1644
  28   2.0000      -0.391961       -10.6658
  29   2.0000      -0.380571       -10.3559
  30   2.0000      -0.376902       -10.2560
  31   2.0000      -0.363767        -9.8986
  32   2.0000      -0.360573        -9.8117
  33   2.0000      -0.349005        -9.4969
  34   2.0000      -0.348479        -9.4826
  35   2.0000      -0.335818        -9.1381
  36   2.0000      -0.319863        -8.7039
  37   2.0000      -0.317428        -8.6377
  38   2.0000      -0.307666        -8.3720
  39   2.0000      -0.296700        -8.0736
  40   2.0000      -0.232609        -6.3296
  41   2.0000      -0.225826        -6.1450
  42   2.0000      -0.202876        -5.5205
  43   2.0000      -0.186832        -5.0840
  44   0.0000      -0.038181        -1.0390
  45   0.0000      -0.035993        -0.9794
  46   0.0000      -0.000765        -0.0208
  47   0.0000       0.032284         0.8785
  48   0.0000       0.046647         1.2693

MULLIKEN ATOMIC CHARGES
-----------------------
   0 C :   -0.221818
   1 C :    0.055164
   2 C :   -0.110710
   3 C :   -0.069791
   4 C :   -0.031037
   5 C :   -0.067646
   6 C :   -0.108614
   7 C :    0.142184
   8 O :   -0.238786
   9 N :   -0.229557
  10 C :   -0.177062
  11 C :   -0.178096
  12 H :    0.123252
  13 H :    0.107603
  14 H :    0.104882
  15 H :    0.036898
  16 H :    0.045602
  17 H :    0.047067
  18 H :    0.036817
  19 H :    0.107122
  20 H :    0.107421
  21 H :    0.143676
  22 H :    0.162419
  23 H :    0.106249
  24 H :    0.106759
Sum of atomic charges:   -0.0000000

LOEWDIN ATOMIC CHARGES
----------------------
   0 C :   -0.322408
   1 C :   -0.048145
   2 C :   -0.121718
   3 C :   -0.111599
   4 C :   -0.066357
   5 C :   -0.108846
   6 C :   -0.120462
   7 C :    0.029867
   8 O :   -0.205580
   9 N :   -0.043852
  10 C :   -0.254242
  11 C :   -0.249716
  12 H :    0.136280
  13 H :    0.127479
  14 H :    0.125827
  15 H :    0.121910
  16 H :    0.125492
  17 H :    0.126377
  18 H :    0.121988
  19 H :    0.116194
  20 H :    0.116331
  21 H :    0.136992
  22 H :    0.137649
  23 H :    0.115238
  24 H :    0.115299

  Mayer bond orders larger than 0.100000
B(  0-C ,  1-C ) :   1.0999 B(  0-C , 12-H ) :   0.9312 B(  0-C , 13-H ) :   0.9415
B(  0-C , 14-H ) :   0.9432 B(  1-C ,  2-C ) :   1.3855 B(  1-C ,  6-C ) :   1.3780
B(  2-C ,  3-C ) :   1.3581 B(  2-C , 15-H ) :   0.9628 B(  3-C ,  4-C ) :   1.3870
B(  3-C , 16-H ) :   0.9660 B(  4-C ,  5-C ) :   1.3866 B(  4-C ,  7-C ) :   0.8909
B(  5-C ,  6-C ) :   1.3618 B(  5-C , 17-H ) :   0.9668 B(  6-C , 18-H ) :   0.9650
B(  7-C ,  8-O ) :   2.0301 B(  7-C ,  9-N ) :   1.2057 B(  8-O ,  9-N ) :   0.1048
B(  9-N , 10-C ) :   1.0001 B(  9-N , 11-C ) :   1.0170 B( 10-C , 19-H ) :   0.9522
B( 10-C , 20-H ) :   0.9522 B( 10-C , 21-H ) :   0.9273 B( 11-C , 22-H ) :   0.9289
B( 11-C , 23-H ) :   0.9473 B( 11-C , 24-H ) :   0.9468

Dispersion correction           -0.027353301
FINAL SINGLE POINT ENERGY      -517.738765241784

DIPOLE MOMENT
-------------

Method             : SCF
Type of density    : Electron Density
Multiplicity       :   1
Irrep              :   0
Energy             :  -517.8135683567916203 Eh
Relativity type    :
Basis              : AO
                                X                 Y                 Z
Electronic contribution:      1.023347770       4.829309295       3.236151481
Nuclear contribution   :     -1.228457873      -6.021591372      -4.051144350
                        -----------------------------------------
Total Dipole Moment    :     -0.205110103      -1.192282077      -0.814992870
                        -----------------------------------------
Magnitude (a.u.)       :      1.458704934
Magnitude (Debye)      :      3.707733283

Rotational constants in cm-1:             0.079573             0.016553             0.016070
Rotational constants in MHz :          2385.543574           496.248465           481.757493

                             ****ORCA TERMINATED NORMALLY****
TOTAL RUN TIME: 0 days 0 hours 0 minutes 13 seconds 139 msec
