                         Program Version 6.0.0  -   RELEASE  -
|  1> ! wb97x-v def2-tzvp def2/J RIJCOSX DEFGRID2 scfconv7 GCP(DFT/TZ) printgap
|  2> %output
|  3>     printlevel normal
|  4> end
|  5> * xyz 0 1
|  6> C 1.842019615125071 -1.4297472592384577 0.00018396961668494343
|  7> C 0.5275876510318793 -0.7092845994064507 4.7759555521906296e-05
|  8> C -0.6780123169518371 -1.4043987241900393 4.923432467625918e-05
|  9> C -1.8816998155085805 -0.7068789425950762 -7.273884397756215e-06
| 10> C -1.8338940627045899 0.6775572502339011 -4.8785828019213356e-05
| 11> N -0.6879454249725151 1.3761271352695568 -0.00011406221762308499
| 12> C 0.4724591425529268 0.6992925132733634 -8.437878709083784e-05
| 13> C 1.7371421714071913 1.501478515918946 -9.585371678984195e-05
| 14> H 2.440359927866973 -1.1661437017562777 -0.8794517663189115
| 15> H 2.440724442748257 -1.165119105609886 0.8792610194926631
| 16> H 1.690966733900754 -2.511825087127372 0.0008270182228027184
| 17> H -0.6714982910153973 -2.491010625657337 9.683413661631344e-05
| 18> H -2.833949223635916 -1.2264779186338306 -2.4795107449047993e-05
| 19> H -2.7524000711804173 1.2607526962683082 -5.5669553266356474e-05
| 20> H 1.516241438507446 2.5696624021203633 -0.001318722840806496
| 21> H 2.349018659985384 1.2685624590396167 0.8791988222438466
| 22> H 2.3502232003506283 1.2667232120111418 -0.8780431912062533
| 23> *
| 24>
| 25>                          ****END OF INPUT****

CARTESIAN COORDINATES (ANGSTROEM)
---------------------------------
  C      1.842020   -1.429747    0.000184
  C      0.527588   -0.709285    0.000048
  C     -0.678012   -1.404399    0.000049
  C     -1.881700   -0.706879   -0.000007
  C     -1.833894    0.677557   -0.000049
  N     -0.687945    1.376127   -0.000114
  C      0.472459    0.699293   -0.000084
  C      1.737142    1.501479   -0.000096
  H      2.440360   -1.166144   -0.879452
  H      2.440724   -1.165119    0.879261
  H      1.690967   -2.511825    0.000827
  H     -0.671498   -2.491011    0.000097
  H     -2.833949   -1.226478   -0.000025
  H     -2.752400    1.260753   -0.000056
  H      1.516241    2.569662   -0.001319
  H      2.349019    1.268562    0.879199
  H      2.350223    1.266723   -0.878043

 Total Charge           Charge          ....    0
 Multiplicity           Mult            ....    1
 Number of Electrons    NEL             ....   58
 Basis Dimension        Dim             ....  302

ORBITAL ENERGIES
----------------

  NO   OCC          E(Eh)            E(eV)
   0   2.0000     -16.518442      -449.4897
   1   2.0000     -12.088309      -328.9396
   2   2.0000     -12.077072      -328.6338
   3   2.0000     -12.064785      -328.2995
   4   2.0000     -12.062598      -328.2400
   5   2.0000     -12.052524      -327.9658
   6   2.0000     -12.051233      -327.9307
   7   2.0000     -12.040464      -327.6377
   8   2.0000      -1.512077       -41.1457
   9   2.0000      -1.349721       -36.7278
  10   2.0000      -1.316374       -35.8203
  11   2.0000      -1.231612       -33.5139
  12   2.0000      -1.196936       -32.5703
  13   2.0000      -1.120845       -30.4998
  14   2.0000      -1.115083       -30.3429
  15   2.0000      -0.998568       -27.1724
  16   2.0000      -0.959754       -26.1162
  17   2.0000      -0.912644       -24.8343
  18   2.0000      -0.876000       -23.8372
  19   2.0000      -0.869353       -23.6563
  20   2.0000      -0.863647       -23.5010
  21   2.0000      -0.844426       -22.9780
  22   2.0000      -0.831405       -22.6237
  23   2.0000      -0.824582       -22.4380
  24   2.0000      -0.816413       -22.2157
  25   2.0000      -0.801420       -21.8077
  26   2.0000      -0.756619       -20.5887
  27   2.0000      -0.690605       -18.7923
  28   2.0000      -0.637679       -17.3521
  29   0.0000      -0.285788        -7.7767
  30   0.0000      -0.244779        -6.6608
  31   0.0000      -0.095070        -2.5870
  32   0.0000      -0.050404        -1.3716
  33   0.0000      -0.043517        -1.1842

MULLIKEN ATOMIC CHARGES
-----------------------
   0 C :   -0.335283
   1 C :    0.045106
   2 C :   -0.173822
   3 C :   -0.104625
   4 C :   -0.054278
   5 N :   -0.228762
   6 C :    0.116190
   7 C :   -0.360816
   8 H :    0.123873
   9 H :    0.123815
  10 H :    0.117095
  11 H :    0.119758
  12 H :    0.122541
  13 H :    0.117835
  14 H :    0.138761
  15 H :    0.116346
  16 H :    0.116269
Sum of atomic charges:    0.0000000

LOEWDIN ATOMIC CHARGES
----------------------
   0 C :   -0.248291
   1 C :   -0.155678
   2 C :   -0.099142
   3 C :   -0.159293
   4 C :   -0.205873
   5 N :    0.142189
   6 C :   -0.209741
   7 C :   -0.251094
   8 H :    0.128073
   9 H :    0.128075
  10 H :    0.125088
  11 H :    0.145006
  12 H :    0.142507
  13 H :    0.133816
  14 H :    0.129756
  15 H :    0.127312
  16 H :    0.127290

  Mayer bond orders larger than 0.100000
B(  0-C ,  1-C ) :   0.9291 B(  0-C ,  8-H ) :   0.9756 B(  0-C ,  9-H ) :   0.9755
B(  0-C , 10-H ) :   0.9863 B(  1-C ,  2-C ) :   1.4603 B(  1-C ,  6-C ) :   1.3348
B(  2-C ,  3-C ) :   1.4369 B(  2-C , 11-H ) :   0.9608 B(  3-C ,  4-C ) :   1.4241
B(  3-C , 12-H ) :   0.9644 B(  4-C ,  5-N ) :   1.4869 B(  4-C , 13-H ) :   0.9877
B(  5-N ,  6-C ) :   1.5305 B(  6-C ,  7-C ) :   0.9446 B(  7-C , 14-H ) :   0.9879
B(  7-C , 15-H ) :   0.9745 B(  7-C , 16-H ) :   0.9745

FINAL SINGLE POINT ENERGY      -326.932111674898

DIPOLE MOMENT
-------------

Method             : SCF
Type of density    : Electron Density
Multiplicity       :   1
Irrep              :   0
Energy             :  -326.9420103668981028 Eh
Relativity type    :
Basis              : AO
                                X                 Y                 Z
Electronic contribution:     -5.887756920       1.287725319      -0.000408967
Nuclear contribution   :      6.187248674      -2.097659064       0.000503414
                        -----------------------------------------
Total Dipole Moment    :      0.299491754      -0.809933745       0.000094447
                        -----------------------------------------
Magnitude (a.u.)       :      0.863532276
Magnitude (Debye)      :      2.194924611

Rotational constants in cm-1:             0.107540             0.074681             0.044804
Rotational constants in MHz :          3223.962342          2238.870674          1343.178169

                             ****ORCA TERMINATED NORMALLY****
TOTAL RUN TIME: 0 days 0 hours 2 minutes 38 seconds 612 msec
