                         Program Version 6.0.0  -   RELEASE  -
|  1> ! wb97x-v def2-tzvp def2/J RIJCOSX DEFGRID2 scfconv7 GCP(DFT/TZ) printgap
|  2> %output
|  3>     printlevel normal
|  4> end
|  5> %cpcm
|  6>     smd true
|  7>     smdsolvent "water"
|  8> end
|  9> * xyz 0 1
| 10> C 1.842019615125071 -1.4297472592384577 0.00018396961668494343
| 11> C 0.5275876510318793 -0.7092845994064507 4.7759555521906296e-05
| 12> C -0.6780123169518371 -1.4043987241900393 4.923432467625918e-05
| 13> C -1.8816998155085805 -0.7068789425950762 -7.273884397756215e-06
| 14> C -1.8338940627045899 0.6775572502339011 -4.8785828019213356e-05
| 15> N -0.6879454249725151 1.3761271352695568 -0.00011406221762308499
| 16> C 0.4724591425529268 0.6992925132733634 -8.437878709083784e-05
| 17> C 1.7371421714071913 1.501478515918946 -9.585371678984195e-05
| 18> H 2.440359927866973 -1.1661437017562777 -0.8794517663189115
| 19> H 2.440724442748257 -1.165119105609886 0.8792610194926631
| 20> H 1.690966733900754 -2.511825087127372 0.0008270182228027184
| 21> H -0.6714982910153973 -2.491010625657337 9.683413661631344e-05
| 22> H -2.833949223635916 -1.2264779186338306 -2.4795107449047993e-05
| 23> H -2.7524000711804173 1.2607526962683082 -5.5669553266356474e-05
| 24> H 1.516241438507446 2.5696624021203633 -0.001318722840806496
| 25> H 2.349018659985384 1.2685624590396167 0.8791988222438466
| 26> H 2.3502232003506283 1.2667232120111418 -0.8780431912062533
| 27> *
| 28>
| 29>                          ****END OF INPUT****

CARTESIAN COORDINATES (ANGSTROEM)
---------------------------------
  C      1.842020   -1.429747    0.000184
  C      0.527588   -0.709285    0.000048
  C     -0.678012   -1.404399    0.000049
  C     -1.881700   -0.706879   -0.000007
  C     -1.833894    0.677557   -0.000049
  N     -0.687945    1.376127   -0.000114
  C      0.472459    0.699293   -0.000084
  C      1.737142    1.501479   -0.000096
  H      2.440360   -1.166144   -0.879452
  H      2.440724   -1.165119    0.879261
  H      1.690967   -2.511825    0.000827
  H     -0.671498   -2.491011    0.000097
  H     -2.833949   -1.226478   -0.000025
  H     -2.752400    1.260753   -0.000056
  H      1.516241    2.569662   -0.001319
  H      2.349019    1.268562    0.879199
  H      2.350223    1.266723   -0.878043

 Total Charge           Charge          ....    0
 Multiplicity           Mult            ....    1
 Number of Electrons    NEL             ....   58
 Basis Dimension        Dim             ....  302

ORBITAL ENERGIES
----------------

  NO   OCC          E(Eh)            E(eV)
   0   2.0000     -16.522998      -449.6136
   1   2.0000     -12.087634      -328.9212
   2   2.0000     -12.075995      -328.6045
   3   2.0000     -12.059835      -328.1648
   4   2.0000     -12.057763      -328.1084
   5   2.0000     -12.048079      -327.8449
   6   2.0000     -12.035639      -327.5064
   7   2.0000     -12.032966      -327.4337
   8   2.0000      -1.515772       -41.2462
   9   2.0000      -1.345711       -36.6187
  10   2.0000      -1.314056       -35.7573
  11   2.0000      -1.224271       -33.3141
  12   2.0000      -1.190782       -32.4028
  13   2.0000      -1.116283       -30.3756
  14   2.0000      -1.112027       -30.2598
  15   2.0000      -0.995506       -27.0891
  16   2.0000      -0.955366       -25.9968
  17   2.0000      -0.905048       -24.6276
  18   2.0000      -0.870279       -23.6815
  19   2.0000      -0.865064       -23.5396
  20   2.0000      -0.858546       -23.3622
  21   2.0000      -0.835649       -22.7392
  22   2.0000      -0.819563       -22.3015
  23   2.0000      -0.816914       -22.2293
  24   2.0000      -0.806673       -21.9507
  25   2.0000      -0.800223       -21.7752
  26   2.0000      -0.759388       -20.6640
  27   2.0000      -0.689380       -18.7590
  28   2.0000      -0.635387       -17.2898
  29   0.0000      -0.285589        -7.7713
  30   0.0000      -0.242899        -6.6096
  31   0.0000      -0.092283        -2.5112
  32   0.0000      -0.041063        -1.1174
  33   0.0000      -0.039422        -1.0727

MULLIKEN ATOMIC CHARGES
-----------------------
   0 C :   -0.380006
   1 C :    0.031214
   2 C :   -0.199703
   3 C :   -0.158012
   4 C :   -0.069982
   5 N :   -0.308255
   6 C :    0.132917
   7 C :   -0.399257
   8 H :    0.144915
   9 H :    0.144864
  10 H :    0.144321
  11 H :    0.167195
  12 H :    0.168018
  13 H :    0.156158
  14 H :    0.134344
  15 H :    0.145655
  16 H :    0.145613
Sum of atomic charges:    0.0000000

LOEWDIN ATOMIC CHARGES
----------------------
   0 C :   -0.247875
   1 C :   -0.154379
   2 C :   -0.094227
   3 C :   -0.162459
   4 C :   -0.220783
   5 N :    0.100110
   6 C :   -0.214270
   7 C :   -0.255079
   8 H :    0.134067
   9 H :    0.134065
  10 H :    0.131332
  11 H :    0.157513
  12 H :    0.153375
  13 H :    0.140932
  14 H :    0.126145
  15 H :    0.135774
  16 H :    0.135759

  Mayer bond orders larger than 0.100000
B(  0-C ,  1-C ) :   0.9360 B(  0-C ,  8-H ) :   0.9695 B(  0-C ,  9-H ) :   0.9695
B(  0-C , 10-H ) :   0.9803 B(  1-C ,  2-C ) :   1.4442 B(  1-C ,  6-C ) :   1.3376
B(  2-C ,  3-C ) :   1.4206 B(  2-C , 11-H ) :   0.9615 B(  3-C ,  4-C ) :   1.4439
B(  3-C , 12-H ) :   0.9613 B(  4-C ,  5-N ) :   1.4728 B(  4-C , 13-H ) :   0.9701
B(  5-N ,  6-C ) :   1.5088 B(  6-C ,  7-C ) :   0.9540 B(  7-C , 14-H ) :   0.9846
B(  7-C , 15-H ) :   0.9675 B(  7-C , 16-H ) :   0.9676

FINAL SINGLE POINT ENERGY      -326.938785219328

DIPOLE MOMENT
-------------

Method             : SCF
Type of density    : Electron Density
Multiplicity       :   1
Irrep              :   0
Energy             :  -326.9486839113276346 Eh
Relativity type    :
Basis              : AO
                                X                 Y                 Z
Electronic contribution:     -5.722146193       0.859238321      -0.000359599
Nuclear contribution   :      6.187248674      -2.097659064       0.000503414
                        -----------------------------------------
Total Dipole Moment    :      0.465102481      -1.238420743       0.000143815
                        -----------------------------------------
Magnitude (a.u.)       :      1.322878028
Magnitude (Debye)      :      3.362488725

Rotational constants in cm-1:             0.107540             0.074681             0.044804
Rotational constants in MHz :          3223.962342          2238.870674          1343.178169

                             ****ORCA TERMINATED NORMALLY****
TOTAL RUN TIME: 0 days 0 hours 2 minutes 48 seconds 861 msec
