                         Program Version 6.0.0  -   RELEASE  -
|  1> ! wb97x-v def2-tzvp def2/J RIJCOSX DEFGRID2 scfconv7 GCP(DFT/TZ) printgap
|  2> %output
|  3>     printlevel normal
|  4> end
|  5> * xyz 0 1
|  6> C -3.09183683074127 0.016570432803009266 -0.7021862136567856
|  7> O -2.3299659774805073 -0.19326482948575308 0.5019092580058456
|  8> C -0.9535087397043828 -0.09514724190592376 0.2876088421203229
|  9> C -0.20986455119405628 -1.2412009707267782 0.02427439678837403
| 10> C 1.1672710408547642 -1.1540350235129762 -0.1450717146849055
| 11> C 1.8220129512754455 0.08384335384837004 -0.058741551261755696
| 12> C 1.0560429908134883 1.2314156436817654 0.19789287609682543
| 13> C -0.3206361532302485 1.1417468181856067 0.3682406554028876
| 14> N 3.2105265134270877 0.16257005407089922 -0.15900435963596754
| 15> H -4.145505678476346 -0.07484815646650511 -0.42942831975931733
| 16> H -2.8397964921213603 -0.7401900146617596 -1.455896112709433
| 17> H -2.903915430445825 1.0168510984344818 -1.1121151262174735
| 18> H -0.711685220373995 -2.2017449124096062 -0.04483461985809369
| 19> H 1.7461633545895268 -2.0517469094946983 -0.34412095351464844
| 20> H 1.5485333388635658 2.1975903325298374 0.267465382089993
| 21> H -0.9078783019040538 2.033243335896155 0.567471816556357
| 22> H 3.550084858506225 1.0663014810562441 -0.45839510184951476
| 23> H 3.625825558009373 -0.5866917872529893 -0.6953382233416521
| 24> *
| 25>
| 26>                          ****END OF INPUT****

CARTESIAN COORDINATES (ANGSTROEM)
---------------------------------
  C     -3.091837    0.016570   -0.702186
  O     -2.329966   -0.193265    0.501909
  C     -0.953509   -0.095147    0.287609
  C     -0.209865   -1.241201    0.024274
  C      1.167271   -1.154035   -0.145072
  C      1.822013    0.083843   -0.058742
  C      1.056043    1.231416    0.197893
  C     -0.320636    1.141747    0.368241
  N      3.210527    0.162570   -0.159004
  H     -4.145506   -0.074848   -0.429428
  H     -2.839796   -0.740190   -1.455896
  H     -2.903915    1.016851   -1.112115
  H     -0.711685   -2.201745   -0.044835
  H      1.746163   -2.051747   -0.344121
  H      1.548533    2.197590    0.267465
  H     -0.907878    2.033243    0.567472
  H      3.550085    1.066301   -0.458395
  H      3.625826   -0.586692   -0.695338

 Total Charge           Charge          ....    0
 Multiplicity           Mult            ....    1
 Number of Electrons    NEL             ....   66
 Basis Dimension        Dim             ....  333

ORBITAL ENERGIES
----------------

  NO   OCC          E(Eh)            E(eV)
   0   2.0000     -21.678696      -589.9073
   1   2.0000     -16.530552      -449.8192
   2   2.0000     -12.089812      -328.9805
   3   2.0000     -12.089630      -328.9756
   4   2.0000     -12.089365      -328.9684
   5   2.0000     -12.049149      -327.8740
   6   2.0000     -12.048485      -327.8559
   7   2.0000     -12.046149      -327.7924
   8   2.0000     -12.045763      -327.7819
   9   2.0000      -1.686660       -45.8963
  10   2.0000      -1.489455       -40.5301
  11   2.0000      -1.371948       -37.3326
  12   2.0000      -1.274359       -34.6771
  13   2.0000      -1.272015       -34.6133
  14   2.0000      -1.204617       -32.7793
  15   2.0000      -1.121274       -30.5114
  16   2.0000      -1.107008       -30.1232
  17   2.0000      -1.029524       -28.0148
  18   2.0000      -1.010626       -27.5005
  19   2.0000      -1.006489       -27.3879
  20   2.0000      -0.962375       -26.1875
  21   2.0000      -0.958599       -26.0848
  22   2.0000      -0.912069       -24.8186
  23   2.0000      -0.898654       -24.4536
  24   2.0000      -0.883100       -24.0304
  25   2.0000      -0.873563       -23.7709
  26   2.0000      -0.822572       -22.3833
  27   2.0000      -0.819751       -22.3066
  28   2.0000      -0.812920       -22.1207
  29   2.0000      -0.791082       -21.5264
  30   2.0000      -0.748064       -20.3559
  31   2.0000      -0.640218       -17.4212
  32   2.0000      -0.621154       -16.9025
  33   0.0000      -0.240208        -6.5364
  34   0.0000      -0.237466        -6.4618
  35   0.0000      -0.168804        -4.5934
  36   0.0000      -0.107420        -2.9230
  37   0.0000      -0.070913        -1.9296

MULLIKEN ATOMIC CHARGES
-----------------------
   0 C :   -0.172760
   1 O :   -0.299568
   2 C :    0.199522
   3 C :   -0.166417
   4 C :   -0.243917
   5 C :    0.297982
   6 C :   -0.247298
   7 C :   -0.162731
   8 N :   -0.446276
   9 H :    0.122432
  10 H :    0.106557
  11 H :    0.106032
  12 H :    0.120755
  13 H :    0.107422
  14 H :    0.107660
  15 H :    0.122007
  16 H :    0.224276
  17 H :    0.224322
Sum of atomic charges:    0.0000000

LOEWDIN ATOMIC CHARGES
----------------------
   0 C :   -0.316269
   1 O :    0.171642
   2 C :   -0.259512
   3 C :   -0.116132
   4 C :   -0.132970
   5 C :   -0.243235
   6 C :   -0.133014
   7 C :   -0.116790
   8 N :   -0.058713
   9 H :    0.107583
  10 H :    0.100600
  11 H :    0.100315
  12 H :    0.148039
  13 H :    0.140169
  14 H :    0.140188
  15 H :    0.147887
  16 H :    0.160092
  17 H :    0.160122

  Mayer bond orders larger than 0.100000
B(  0-C ,  1-O ) :   0.9525 B(  0-C ,  9-H ) :   0.9784 B(  0-C , 10-H ) :   0.9731
B(  0-C , 11-H ) :   0.9737 B(  1-O ,  2-C ) :   0.9379 B(  2-C ,  3-C ) :   1.4434
B(  2-C ,  7-C ) :   1.4361 B(  3-C ,  4-C ) :   1.4466 B(  3-C , 12-H ) :   0.9705
B(  4-C ,  5-C ) :   1.3849 B(  4-C , 13-H ) :   0.9619 B(  5-C ,  6-C ) :   1.3823
B(  5-C ,  8-N ) :   1.0539 B(  6-C ,  7-C ) :   1.4504 B(  6-C , 14-H ) :   0.9618
B(  7-C , 15-H ) :   0.9684 B(  8-N , 16-H ) :   0.9304 B(  8-N , 17-H ) :   0.9304

FINAL SINGLE POINT ENERGY      -402.142736232341

DIPOLE MOMENT
-------------

Method             : SCF
Type of density    : Electron Density
Multiplicity       :   1
Irrep              :   0
Energy             :  -402.1530670447414764 Eh
Relativity type    :
Basis              : AO
                                X                 Y                 Z
Electronic contribution:      1.488518858      -0.449642407       2.610484633
Nuclear contribution   :     -1.009612315       0.640317805      -3.588604056
                        -----------------------------------------
Total Dipole Moment    :      0.478906543       0.190675398      -0.978119423
                        -----------------------------------------
Magnitude (a.u.)       :      1.105633840
Magnitude (Debye)      :      2.810297884

Rotational constants in cm-1:             0.155158             0.032868             0.028709
Rotational constants in MHz :          4651.514089           985.356424           860.683035

                             ****ORCA TERMINATED NORMALLY****
TOTAL RUN TIME: 0 days 0 hours 3 minutes 38 seconds 326 msec
