                         Program Version 6.0.0  -   RELEASE  -
|  1> ! wb97x-v def2-tzvp def2/J RIJCOSX DEFGRID2 scfconv7 GCP(DFT/TZ) printgap
|  2> %output
|  3>     printlevel normal
|  4> end
|  5> %cpcm
|  6>     smd true
|  7>     smdsolvent "water"
|  8> end
|  9> * xyz 0 1
| 10> C -3.09183683074127 0.016570432803009266 -0.7021862136567856
| 11> O -2.3299659774805073 -0.19326482948575308 0.5019092580058456
| 12> C -0.9535087397043828 -0.09514724190592376 0.2876088421203229
| 13> C -0.20986455119405628 -1.2412009707267782 0.02427439678837403
| 14> C 1.1672710408547642 -1.1540350235129762 -0.1450717146849055
| 15> C 1.8220129512754455 0.08384335384837004 -0.058741551261755696
| 16> C 1.0560429908134883 1.2314156436817654 0.19789287609682543
| 17> C -0.3206361532302485 1.1417468181856067 0.3682406554028876
| 18> N 3.2105265134270877 0.16257005407089922 -0.15900435963596754
| 19> H -4.145505678476346 -0.07484815646650511 -0.42942831975931733
| 20> H -2.8397964921213603 -0.7401900146617596 -1.455896112709433
| 21> H -2.903915430445825 1.0168510984344818 -1.1121151262174735
| 22> H -0.711685220373995 -2.2017449124096062 -0.04483461985809369
| 23> H 1.7461633545895268 -2.0517469094946983 -0.34412095351464844
| 24> H 1.5485333388635658 2.1975903325298374 0.267465382089993
| 25> H -0.9078783019040538 2.033243335896155 0.567471816556357
| 26> H 3.550084858506225 1.0663014810562441 -0.45839510184951476
| 27> H 3.625825558009373 -0.5866917872529893 -0.6953382233416521
| 28> *
| 29>
| 30>                          ****END OF INPUT****

CARTESIAN COORDINATES (ANGSTROEM)
---------------------------------
  C     -3.091837    0.016570   -0.702186
  O     -2.329966   -0.193265    0.501909
  C     -0.953509   -0.095147    0.287609
  C     -0.209865   -1.241201    0.024274
  C      1.167271   -1.154035   -0.145072
  C      1.822013    0.083843   -0.058742
  C      1.056043    1.231416    0.197893
  C     -0.320636    1.141747    0.368241
  N      3.210527    0.162570   -0.159004
  H     -4.145506   -0.074848   -0.429428
  H     -2.839796   -0.740190   -1.455896
  H     -2.903915    1.016851   -1.112115
  H     -0.711685   -2.201745   -0.044835
  H      1.746163   -2.051747   -0.344121
  H      1.548533    2.197590    0.267465
  H     -0.907878    2.033243    0.567472
  H      3.550085    1.066301   -0.458395
  H      3.625826   -0.586692   -0.695338

 Total Charge           Charge          ....    0
 Multiplicity           Mult            ....    1
 Number of Electrons    NEL             ....   66
 Basis Dimension        Dim             ....  333

ORBITAL ENERGIES
----------------

  NO   OCC          E(Eh)            E(eV)
   0   2.0000     -21.688272      -590.1679
   1   2.0000     -16.519820      -449.5272
   2   2.0000     -12.093154      -329.0714
   3   2.0000     -12.088755      -328.9518
   4   2.0000     -12.084209      -328.8280
   5   2.0000     -12.049868      -327.8936
   6   2.0000     -12.049333      -327.8790
   7   2.0000     -12.044549      -327.7488
   8   2.0000     -12.044158      -327.7382
   9   2.0000      -1.696311       -46.1590
  10   2.0000      -1.480975       -40.2994
  11   2.0000      -1.373672       -37.3795
  12   2.0000      -1.275203       -34.7000
  13   2.0000      -1.273332       -34.6491
  14   2.0000      -1.204907       -32.7872
  15   2.0000      -1.121122       -30.5073
  16   2.0000      -1.106383       -30.1062
  17   2.0000      -1.032036       -28.0831
  18   2.0000      -1.006799       -27.3964
  19   2.0000      -1.002273       -27.2732
  20   2.0000      -0.969512       -26.3818
  21   2.0000      -0.957292       -26.0492
  22   2.0000      -0.913100       -24.8467
  23   2.0000      -0.895694       -24.3731
  24   2.0000      -0.881823       -23.9956
  25   2.0000      -0.871728       -23.7209
  26   2.0000      -0.819127       -22.2896
  27   2.0000      -0.816169       -22.2091
  28   2.0000      -0.809897       -22.0384
  29   2.0000      -0.790445       -21.5091
  30   2.0000      -0.749431       -20.3931
  31   2.0000      -0.642607       -17.4862
  32   2.0000      -0.622708       -16.9447
  33   0.0000      -0.242849        -6.6083
  34   0.0000      -0.239193        -6.5088
  35   0.0000      -0.170873        -4.6497
  36   0.0000      -0.109000        -2.9660
  37   0.0000      -0.067225        -1.8293

MULLIKEN ATOMIC CHARGES
-----------------------
   0 C :   -0.199517
   1 O :   -0.370339
   2 C :    0.212001
   3 C :   -0.194540
   4 C :   -0.307945
   5 C :    0.261821
   6 C :   -0.309471
   7 C :   -0.188851
   8 N :   -0.497333
   9 H :    0.145477
  10 H :    0.131951
  11 H :    0.133279
  12 H :    0.158687
  13 H :    0.158324
  14 H :    0.158566
  15 H :    0.160671
  16 H :    0.273397
  17 H :    0.273823
Sum of atomic charges:    0.0000000

LOEWDIN ATOMIC CHARGES
----------------------
   0 C :   -0.314039
   1 O :    0.138800
   2 C :   -0.277772
   3 C :   -0.126844
   4 C :   -0.138125
   5 C :   -0.253155
   6 C :   -0.138112
   7 C :   -0.126396
   8 N :   -0.065509
   9 H :    0.113674
  10 H :    0.108411
  11 H :    0.108624
  12 H :    0.156625
  13 H :    0.153170
  14 H :    0.153173
  15 H :    0.157006
  16 H :    0.175145
  17 H :    0.175323

  Mayer bond orders larger than 0.100000
B(  0-C ,  1-O ) :   0.9144 B(  0-C ,  9-H ) :   0.9730 B(  0-C , 10-H ) :   0.9693
B(  0-C , 11-H ) :   0.9706 B(  1-O ,  2-C ) :   0.9103 B(  2-C ,  3-C ) :   1.4128
B(  2-C ,  7-C ) :   1.4081 B(  3-C ,  4-C ) :   1.4192 B(  3-C , 12-H ) :   0.9757
B(  4-C ,  5-C ) :   1.3641 B(  4-C , 13-H ) :   0.9726 B(  5-C ,  6-C ) :   1.3607
B(  5-C ,  8-N ) :   1.1064 B(  6-C ,  7-C ) :   1.4218 B(  6-C , 14-H ) :   0.9724
B(  7-C , 15-H ) :   0.9732 B(  8-N , 16-H ) :   0.9102 B(  8-N , 17-H ) :   0.9099

FINAL SINGLE POINT ENERGY      -402.153654591742

DIPOLE MOMENT
-------------

Method             : SCF
Type of density    : Electron Density
Multiplicity       :   1
Irrep              :   0
Energy             :  -402.1639854041416129 Eh
Relativity type    :
Basis              : AO
                                X                 Y                 Z
Electronic contribution:      1.729636233      -0.363664069       2.208401837
Nuclear contribution   :     -1.009612315       0.640317805      -3.588604056
                        -----------------------------------------
Total Dipole Moment    :      0.720023917       0.276653736      -1.380202219
                        -----------------------------------------
Magnitude (a.u.)       :      1.581116661
Magnitude (Debye)      :      4.018879168

Rotational constants in cm-1:             0.155158             0.032868             0.028709
Rotational constants in MHz :          4651.514089           985.356424           860.683035

                             ****ORCA TERMINATED NORMALLY****
TOTAL RUN TIME: 0 days 0 hours 3 minutes 44 seconds 312 msec
