                         Program Version 6.0.0  -   RELEASE  -
|  1> ! pbe def2-sv(p) def2/J RI DEFGRID1 loosescf d4 GCP(DFT/SV(P)) printgap
|  2> %output
|  3>     printlevel normal
|  4> end
|  5> * xyz 0 1
|  6> C 2.4731079687 1.2063804233 -0.0269518402
|  7> C 1.696866865 -0.0767448689 0.002017091
|  8> O 2.2499877582 -1.1643301466 0.0258651458
|  9> C 0.2165928999 0.0231865423 0.0005863478
| 10> C -0.4836088628 1.2304688775 -0.0058272603
| 11> C -1.8671668868 1.1966776971 -0.0068376415
| 12> C -2.5029644563 -0.036859411 -0.0007894537
| 13> N -1.8528023774 -1.1926017157 0.0055031072
| 14> C -0.5344941496 -1.1567940786 0.0060845849
| 15> H 2.2136758083 1.7768800672 -0.9151740979
| 16> H 3.5363316892 0.9826044617 -0.0352504017
| 17> H 2.2343458118 1.8011898585 0.8512750542
| 18> H 0.0336237204 2.1763419644 -0.0093863998
| 19> H -2.4436916587 2.1072047212 -0.011591228
| 20> H -3.5812589684 -0.1136550518 -0.0002008648
| 21> H -0.0247152169 -2.1115198792 0.0112453893
| 22> *
| 23>
| 24>                          ****END OF INPUT****

CARTESIAN COORDINATES (ANGSTROEM)
---------------------------------
  C      2.473108    1.206380   -0.026952
  C      1.696867   -0.076745    0.002017
  O      2.249988   -1.164330    0.025865
  C      0.216593    0.023187    0.000586
  C     -0.483609    1.230469   -0.005827
  C     -1.867167    1.196678   -0.006838
  C     -2.502964   -0.036859   -0.000789
  N     -1.852802   -1.192602    0.005503
  C     -0.534494   -1.156794    0.006085
  H      2.213676    1.776880   -0.915174
  H      3.536332    0.982604   -0.035250
  H      2.234346    1.801190    0.851275
  H      0.033624    2.176342   -0.009386
  H     -2.443692    2.107205   -0.011591
  H     -3.581259   -0.113655   -0.000201
  H     -0.024715   -2.111520    0.011245

 Total Charge           Charge          ....    0
 Multiplicity           Mult            ....    1
 Number of Electrons    NEL             ....   64
 Basis Dimension        Dim             ....  140

ORBITAL ENERGIES
----------------

  NO   OCC          E(Eh)            E(eV)
   0   2.0000     -18.748421      -510.1705
   1   2.0000     -13.994401      -380.8070
   2   2.0000      -9.985231      -271.7119
   3   2.0000      -9.939200      -270.4594
   4   2.0000      -9.934066      -270.3197
   5   2.0000      -9.929553      -270.1969
   6   2.0000      -9.918982      -269.9092
   7   2.0000      -9.917356      -269.8650
   8   2.0000      -9.896495      -269.2973
   9   2.0000      -0.944397       -25.6983
  10   2.0000      -0.872560       -23.7436
  11   2.0000      -0.749613       -20.3980
  12   2.0000      -0.707694       -19.2573
  13   2.0000      -0.676311       -18.4034
  14   2.0000      -0.594826       -16.1860
  15   2.0000      -0.576905       -15.6984
  16   2.0000      -0.511821       -13.9274
  17   2.0000      -0.476005       -12.9528
  18   2.0000      -0.452522       -12.3138
  19   2.0000      -0.421864       -11.4795
  20   2.0000      -0.415302       -11.3009
  21   2.0000      -0.405236       -11.0270
  22   2.0000      -0.379105       -10.3160
  23   2.0000      -0.375573       -10.2199
  24   2.0000      -0.369752       -10.0615
  25   2.0000      -0.357622        -9.7314
  26   2.0000      -0.333174        -9.0661
  27   2.0000      -0.330519        -8.9939
  28   2.0000      -0.278782        -7.5860
  29   2.0000      -0.252825        -6.8797
  30   2.0000      -0.222782        -6.0622
  31   2.0000      -0.202918        -5.5217
  32   0.0000      -0.101713        -2.7678
  33   0.0000      -0.066462        -1.8085
  34   0.0000      -0.013383        -0.3642
  35   0.0000       0.030839         0.8392
  36   0.0000       0.058388         1.5888

MULLIKEN ATOMIC CHARGES
-----------------------
   0 C :   -0.245278
   1 C :   -0.003321
   2 O :   -0.154731
   3 C :    0.023721
   4 C :   -0.066637
   5 C :   -0.057509
   6 C :   -0.046374
   7 N :   -0.045322
   8 C :   -0.078410
   9 H :    0.127940
  10 H :    0.122911
  11 H :    0.128278
  12 H :    0.064737
  13 H :    0.066334
  14 H :    0.078821
  15 H :    0.084841
Sum of atomic charges:   -0.0000000

LOEWDIN ATOMIC CHARGES
----------------------
   0 C :   -0.360962
   1 C :    0.047251
   2 O :   -0.123510
   3 C :   -0.096776
   4 C :   -0.085375
   5 C :   -0.138978
   6 C :   -0.063142
   7 N :   -0.067664
   8 C :   -0.041544
   9 H :    0.142403
  10 H :    0.139094
  11 H :    0.142949
  12 H :    0.129684
  13 H :    0.131508
  14 H :    0.118966
  15 H :    0.126097

  Mayer bond orders larger than 0.100000
B(  0-C ,  1-C ) :   1.1274 B(  0-C ,  9-H ) :   0.9160 B(  0-C , 10-H ) :   0.9283
B(  0-C , 11-H ) :   0.9147 B(  1-C ,  2-O ) :   2.1673 B(  1-C ,  3-C ) :   0.9239
B(  3-C ,  4-C ) :   1.3833 B(  3-C ,  8-C ) :   1.3406 B(  4-C ,  5-C ) :   1.4100
B(  4-C , 12-H ) :   0.9419 B(  5-C ,  6-C ) :   1.3758 B(  5-C , 13-H ) :   0.9456
B(  6-C ,  7-N ) :   1.5312 B(  6-C , 14-H ) :   0.9527 B(  7-N ,  8-C ) :   1.5512
B(  8-C , 15-H ) :   0.9421

Dispersion correction           -0.016441932
FINAL SINGLE POINT ENERGY      -400.084933976822

DIPOLE MOMENT
-------------

Method             : SCF
Type of density    : Electron Density
Multiplicity       :   1
Irrep              :   0
Energy             :  -400.1304490043830242 Eh
Relativity type    :
Basis              : AO
                                X                 Y                 Z
Electronic contribution:     -2.131280774      -4.638547487       0.080939175
Nuclear contribution   :      1.869783624       6.185984131      -0.101924556
                        -----------------------------------------
Total Dipole Moment    :     -0.261497150       1.547436644      -0.020985380
                        -----------------------------------------
Magnitude (a.u.)       :      1.569516267
Magnitude (Debye)      :      3.989393310

Rotational constants in cm-1:             0.126426             0.041702             0.031544
Rotational constants in MHz :          3790.160135          1250.187673           945.661538

                             ****ORCA TERMINATED NORMALLY****
TOTAL RUN TIME: 0 days 0 hours 0 minutes 8 seconds 922 msec
