                         Program Version 6.0.0  -   RELEASE  -
|  1> ! r2scan-3c def2/J RI DEFGRID2 scfconv6 printgap
|  2> %output
|  3>     printlevel normal
|  4> end
|  5> * xyz 0 1
|  6> C -1.8812246651 -0.5327470042 0.2984868902
|  7> C -0.9918436789 0.3625475982 -0.5424998325
|  8> S 0.6710989912 0.6033210488 0.1806052319
|  9> C 1.407644016 -1.0282102068 -0.1361121555
| 10> H -1.9569308807 -0.1426512078 1.3107084827
| 11> H -2.876428629 -0.5720421642 -0.1381001254
| 12> H -1.4851483172 -1.5443494379 0.3435653122
| 13> H -1.4025293666 1.3691501237 -0.6086162436
| 14> H -0.851028154 -0.0336973634 -1.5479061687
| 15> H 0.905814257 -1.7813683653 0.4626748294
| 16> H 2.4489269971 -0.9540946158 0.1571792107
| 17> H 1.3303675464 -1.253517287 -1.1953368885
| 18> *
| 19>
| 20>                          ****END OF INPUT****

CARTESIAN COORDINATES (ANGSTROEM)
---------------------------------
  C     -1.881225   -0.532747    0.298487
  C     -0.991844    0.362548   -0.542500
  S      0.671099    0.603321    0.180605
  C      1.407644   -1.028210   -0.136112
  H     -1.956931   -0.142651    1.310708
  H     -2.876429   -0.572042   -0.138100
  H     -1.485148   -1.544349    0.343565
  H     -1.402529    1.369150   -0.608616
  H     -0.851028   -0.033697   -1.547906
  H      0.905814   -1.781368    0.462675
  H      2.448927   -0.954095    0.157179
  H      1.330368   -1.253517   -1.195337

 Total Charge           Charge          ....    0
 Multiplicity           Mult            ....    1
 Number of Electrons    NEL             ....   42
 Basis Dimension        Dim             ....  124

ORBITAL ENERGIES
----------------

  NO   OCC          E(Eh)            E(eV)
   0   2.0000     -88.543124     -2409.3809
   1   2.0000     -10.060823      -273.7689
   2   2.0000     -10.053434      -273.5679
   3   2.0000     -10.026103      -272.8241
   4   2.0000      -7.837010      -213.2559
   5   2.0000      -5.784699      -157.4097
   6   2.0000      -5.780658      -157.2997
   7   2.0000      -5.773534      -157.1059
   8   2.0000      -0.773087       -21.0368
   9   2.0000      -0.707394       -19.2492
  10   2.0000      -0.622064       -16.9272
  11   2.0000      -0.543962       -14.8019
  12   2.0000      -0.435896       -11.8613
  13   2.0000      -0.415938       -11.3182
  14   2.0000      -0.397816       -10.8251
  15   2.0000      -0.377477       -10.2717
  16   2.0000      -0.362831        -9.8731
  17   2.0000      -0.338583        -9.2133
  18   2.0000      -0.315507        -8.5854
  19   2.0000      -0.275859        -7.5065
  20   2.0000      -0.189577        -5.1586
  21   0.0000       0.024665         0.6712
  22   0.0000       0.054846         1.4924
  23   0.0000       0.083829         2.2811
  24   0.0000       0.115714         3.1487
  25   0.0000       0.134707         3.6656

MULLIKEN ATOMIC CHARGES
-----------------------
   0 C :   -0.436811
   1 C :   -0.216712
   2 S :   -0.132891
   3 C :   -0.424045
   4 H :    0.158569
   5 H :    0.141692
   6 H :    0.140728
   7 H :    0.152321
   8 H :    0.147272
   9 H :    0.157260
  10 H :    0.157598
  11 H :    0.155020
Sum of atomic charges:    0.0000000

LOEWDIN ATOMIC CHARGES
----------------------
   0 C :   -0.429967
   1 C :   -0.365396
   2 S :    0.000703
   3 C :   -0.462547
   4 H :    0.157678
   5 H :    0.151407
   6 H :    0.149508
   7 H :    0.167380
   8 H :    0.157902
   9 H :    0.151592
  10 H :    0.167242
  11 H :    0.154497

  Mayer bond orders larger than 0.100000
B(  0-C ,  1-C ) :   0.8843 B(  0-C ,  4-H ) :   0.9749 B(  0-C ,  5-H ) :   0.9610
B(  0-C ,  6-H ) :   0.9802 B(  1-C ,  2-S ) :   0.9474 B(  1-C ,  7-H ) :   0.9457
B(  1-C ,  8-H ) :   0.9587 B(  2-S ,  3-C ) :   0.9893 B(  3-C ,  9-H ) :   0.9533
B(  3-C , 10-H ) :   0.9511 B(  3-C , 11-H ) :   0.9555

Dispersion correction           -0.002608303
FINAL SINGLE POINT ENERGY      -517.254199027342

DIPOLE MOMENT
-------------

Method             : SCF
Type of density    : Electron Density
Multiplicity       :   1
Irrep              :   0
Energy             :  -517.2613308817711868 Eh
Relativity type    :
Basis              : AO
                                X                 Y                 Z
Electronic contribution:      3.352072397       4.079931414       0.862238188
Nuclear contribution   :     -3.665702774      -4.625980116      -1.145791104
                        -----------------------------------------
Total Dipole Moment    :     -0.313630376      -0.546048702      -0.283552915
                        -----------------------------------------
Magnitude (a.u.)       :      0.690605136
Magnitude (Debye)      :      1.755378752

Rotational constants in cm-1:             0.324725             0.129111             0.106657
Rotational constants in MHz :          9735.008433          3870.663207          3197.494052

                             ****ORCA TERMINATED NORMALLY****
TOTAL RUN TIME: 0 days 0 hours 0 minutes 10 seconds 305 msec
