                         Program Version 6.0.0  -   RELEASE  -
|  1> ! r2scan-3c def2/J RI DEFGRID2 scfconv6 printgap
|  2> %output
|  3>     printlevel normal
|  4> end
|  5> %cpcm
|  6>     smd true
|  7>     smdsolvent "water"
|  8> end
|  9> * xyz 0 1
| 10> C -1.8812246651 -0.5327470042 0.2984868902
| 11> C -0.9918436789 0.3625475982 -0.5424998325
| 12> S 0.6710989912 0.6033210488 0.1806052319
| 13> C 1.407644016 -1.0282102068 -0.1361121555
| 14> H -1.9569308807 -0.1426512078 1.3107084827
| 15> H -2.876428629 -0.5720421642 -0.1381001254
| 16> H -1.4851483172 -1.5443494379 0.3435653122
| 17> H -1.4025293666 1.3691501237 -0.6086162436
| 18> H -0.851028154 -0.0336973634 -1.5479061687
| 19> H 0.905814257 -1.7813683653 0.4626748294
| 20> H 2.4489269971 -0.9540946158 0.1571792107
| 21> H 1.3303675464 -1.253517287 -1.1953368885
| 22> *
| 23>
| 24>                          ****END OF INPUT****

CARTESIAN COORDINATES (ANGSTROEM)
---------------------------------
  C     -1.881225   -0.532747    0.298487
  C     -0.991844    0.362548   -0.542500
  S      0.671099    0.603321    0.180605
  C      1.407644   -1.028210   -0.136112
  H     -1.956931   -0.142651    1.310708
  H     -2.876429   -0.572042   -0.138100
  H     -1.485148   -1.544349    0.343565
  H     -1.402529    1.369150   -0.608616
  H     -0.851028   -0.033697   -1.547906
  H      0.905814   -1.781368    0.462675
  H      2.448927   -0.954095    0.157179
  H      1.330368   -1.253517   -1.195337

 Total Charge           Charge          ....    0
 Multiplicity           Mult            ....    1
 Number of Electrons    NEL             ....   42
 Basis Dimension        Dim             ....  124

ORBITAL ENERGIES
----------------

  NO   OCC          E(Eh)            E(eV)
   0   2.0000     -88.541820     -2409.3454
   1   2.0000     -10.050565      -273.4898
   2   2.0000     -10.041863      -273.2530
   3   2.0000     -10.014290      -272.5027
   4   2.0000      -7.835746      -213.2215
   5   2.0000      -5.783183      -157.3684
   6   2.0000      -5.779279      -157.2622
   7   2.0000      -5.772716      -157.0836
   8   2.0000      -0.765355       -20.8264
   9   2.0000      -0.697455       -18.9787
  10   2.0000      -0.612545       -16.6682
  11   2.0000      -0.535385       -14.5686
  12   2.0000      -0.424282       -11.5453
  13   2.0000      -0.405930       -11.0459
  14   2.0000      -0.386576       -10.5193
  15   2.0000      -0.365401        -9.9431
  16   2.0000      -0.352652        -9.5962
  17   2.0000      -0.328774        -8.9464
  18   2.0000      -0.304682        -8.2908
  19   2.0000      -0.272471        -7.4143
  20   2.0000      -0.189788        -5.1644
  21   0.0000       0.027580         0.7505
  22   0.0000       0.059651         1.6232
  23   0.0000       0.095037         2.5861
  24   0.0000       0.123732         3.3669
  25   0.0000       0.146697         3.9918

MULLIKEN ATOMIC CHARGES
-----------------------
   0 C :   -0.480559
   1 C :   -0.208815
   2 S :   -0.203979
   3 C :   -0.447563
   4 H :    0.160376
   5 H :    0.157648
   6 H :    0.161268
   7 H :    0.167464
   8 H :    0.167546
   9 H :    0.177104
  10 H :    0.173679
  11 H :    0.175832
Sum of atomic charges:    0.0000000

LOEWDIN ATOMIC CHARGES
----------------------
   0 C :   -0.435516
   1 C :   -0.361668
   2 S :   -0.041692
   3 C :   -0.462397
   4 H :    0.156375
   5 H :    0.157322
   6 H :    0.155293
   7 H :    0.172154
   8 H :    0.165873
   9 H :    0.159479
  10 H :    0.172109
  11 H :    0.162669

  Mayer bond orders larger than 0.100000
B(  0-C ,  1-C ) :   0.8799 B(  0-C ,  4-H ) :   0.9758 B(  0-C ,  5-H ) :   0.9575
B(  0-C ,  6-H ) :   0.9762 B(  1-C ,  2-S ) :   0.9366 B(  1-C ,  7-H ) :   0.9406
B(  1-C ,  8-H ) :   0.9531 B(  2-S ,  3-C ) :   0.9897 B(  3-C ,  9-H ) :   0.9485
B(  3-C , 10-H ) :   0.9438 B(  3-C , 11-H ) :   0.9505

Dispersion correction           -0.002608303
FINAL SINGLE POINT ENERGY      -517.255873205514

DIPOLE MOMENT
-------------

Method             : SCF
Type of density    : Electron Density
Multiplicity       :   1
Irrep              :   0
Energy             :  -517.2630050599436800 Eh
Relativity type    :
Basis              : AO
                                X                 Y                 Z
Electronic contribution:      3.239572463       3.864332185       0.730620586
Nuclear contribution   :     -3.665702774      -4.625980116      -1.145791104
                        -----------------------------------------
Total Dipole Moment    :     -0.426130311      -0.761647931      -0.415170518
                        -----------------------------------------
Magnitude (a.u.)       :      0.966468401
Magnitude (Debye)      :      2.456567450

Rotational constants in cm-1:             0.324725             0.129111             0.106657
Rotational constants in MHz :          9735.008433          3870.663207          3197.494052

                             ****ORCA TERMINATED NORMALLY****
TOTAL RUN TIME: 0 days 0 hours 0 minutes 12 seconds 149 msec
