                         Program Version 6.0.0  -   RELEASE  -
|  1> ! pbe def2-sv(p) def2/J RI DEFGRID1 loosescf d4 GCP(DFT/SV(P)) printgap
|  2> %output
|  3>     printlevel normal
|  4> end
|  5> * xyz 0 1
|  6> C -3.0613518187 0.7396072419 -0.5006650416
|  7> C -1.9269248394 0.4377690361 0.480010164
|  8> H -2.3604059071 0.406087291 1.4878815092
|  9> C -0.8142213146 1.4913239989 0.4429687169
| 10> C 0.1772363867 1.1838633028 -0.6742223601
| 11> C 0.8960296555 -0.1666683629 -0.4598024941
| 12> H 0.9338899731 -0.6864234875 -1.4216112827
| 13> C 0.106537181 -1.0678978181 0.5117249465
| 14> C -1.3660082958 -0.9487783977 0.2499853642
| 15> O -2.0528363217 -1.8886834111 -0.1029384834
| 16> C 2.3227571082 0.0406734138 0.0076085935
| 17> C 2.6365567111 0.4754892961 1.2175920006
| 18> C 3.3685134414 -0.2407532704 -1.0273243966
| 19> H -2.6718414386 0.8650115225 -1.5079357732
| 20> H -3.7676821769 -0.0872286432 -0.5113724568
| 21> H -3.5830167267 1.6472841236 -0.2108659617
| 22> H -1.2586551129 2.4735999759 0.2791019234
| 23> H -0.2887026278 1.5240617919 1.3969812374
| 24> H -0.3628419888 1.1575125687 -1.6222865804
| 25> H 0.9175319345 1.9823514581 -0.7374328879
| 26> H 0.421170806 -2.1062153597 0.4010405166
| 27> H 0.2936728495 -0.7531066643 1.537851641
| 28> H 3.660435679 0.6371145843 1.5078555025
| 29> H 1.9000405573 0.6935879879 1.971130863
| 30> H 3.322230711 -1.2859712506 -1.3305023105
| 31> H 3.1917489728 0.3693756836 -1.9121081549
| 32> H 4.3641305117 -0.0299484499 -0.6475795337
| 33> *
| 34>
| 35>                          ****END OF INPUT****

CARTESIAN COORDINATES (ANGSTROEM)
---------------------------------
  C     -3.061352    0.739607   -0.500665
  C     -1.926925    0.437769    0.480010
  H     -2.360406    0.406087    1.487882
  C     -0.814221    1.491324    0.442969
  C      0.177236    1.183863   -0.674222
  C      0.896030   -0.166668   -0.459802
  H      0.933890   -0.686423   -1.421611
  C      0.106537   -1.067898    0.511725
  C     -1.366008   -0.948778    0.249985
  O     -2.052836   -1.888683   -0.102938
  C      2.322757    0.040673    0.007609
  C      2.636557    0.475489    1.217592
  C      3.368513   -0.240753   -1.027324
  H     -2.671841    0.865012   -1.507936
  H     -3.767682   -0.087229   -0.511372
  H     -3.583017    1.647284   -0.210866
  H     -1.258655    2.473600    0.279102
  H     -0.288703    1.524062    1.396981
  H     -0.362842    1.157513   -1.622287
  H      0.917532    1.982351   -0.737433
  H      0.421171   -2.106215    0.401041
  H      0.293673   -0.753107    1.537852
  H      3.660436    0.637115    1.507856
  H      1.900041    0.693588    1.971131
  H      3.322231   -1.285971   -1.330502
  H      3.191749    0.369376   -1.912108
  H      4.364131   -0.029948   -0.647580

 Total Charge           Charge          ....    0
 Multiplicity           Mult            ....    1
 Number of Electrons    NEL             ....   84
 Basis Dimension        Dim             ....  186

ORBITAL ENERGIES
----------------

  NO   OCC          E(Eh)            E(eV)
   0   2.0000     -18.738217      -509.8928
   1   2.0000      -9.968438      -271.2550
   2   2.0000      -9.909811      -269.6597
   3   2.0000      -9.905492      -269.5422
   4   2.0000      -9.902536      -269.4617
   5   2.0000      -9.893967      -269.2285
   6   2.0000      -9.893585      -269.2181
   7   2.0000      -9.892997      -269.2021
   8   2.0000      -9.887673      -269.0573
   9   2.0000      -9.878209      -268.7997
  10   2.0000      -9.878053      -268.7955
  11   2.0000      -0.933209       -25.3939
  12   2.0000      -0.773854       -21.0576
  13   2.0000      -0.730448       -19.8765
  14   2.0000      -0.684138       -18.6163
  15   2.0000      -0.658827       -17.9276
  16   2.0000      -0.619506       -16.8576
  17   2.0000      -0.611635       -16.6434
  18   2.0000      -0.551732       -15.0134
  19   2.0000      -0.538149       -14.6438
  20   2.0000      -0.471212       -12.8223
  21   2.0000      -0.456611       -12.4250
  22   2.0000      -0.448542       -12.2054
  23   2.0000      -0.427946       -11.6450
  24   2.0000      -0.416334       -11.3290
  25   2.0000      -0.402491       -10.9523
  26   2.0000      -0.389277       -10.5928
  27   2.0000      -0.378931       -10.3112
  28   2.0000      -0.363641        -9.8952
  29   2.0000      -0.360469        -9.8089
  30   2.0000      -0.354169        -9.6374
  31   2.0000      -0.349556        -9.5119
  32   2.0000      -0.333621        -9.0783
  33   2.0000      -0.328429        -8.9370
  34   2.0000      -0.327545        -8.9130
  35   2.0000      -0.314336        -8.5535
  36   2.0000      -0.306711        -8.3460
  37   2.0000      -0.289098        -7.8667
  38   2.0000      -0.277780        -7.5588
  39   2.0000      -0.276320        -7.5191
  40   2.0000      -0.223621        -6.0850
  41   2.0000      -0.190448        -5.1824
  42   0.0000      -0.052906        -1.4396
  43   0.0000      -0.017481        -0.4757
  44   0.0000       0.027580         0.7505
  45   0.0000       0.036838         1.0024
  46   0.0000       0.053327         1.4511

MULLIKEN ATOMIC CHARGES
-----------------------
   0 C :   -0.242491
   1 C :   -0.183790
   2 H :    0.101821
   3 C :   -0.103424
   4 C :   -0.108531
   5 C :   -0.173340
   6 H :    0.066574
   7 C :   -0.033152
   8 C :   -0.006616
   9 O :   -0.162558
  10 C :   -0.037580
  11 C :   -0.256698
  12 C :   -0.213138
  13 H :    0.100723
  14 H :    0.120902
  15 H :    0.098115
  16 H :    0.088106
  17 H :    0.078582
  18 H :    0.087080
  19 H :    0.095024
  20 H :    0.087627
  21 H :    0.091525
  22 H :    0.086553
  23 H :    0.095961
  24 H :    0.114686
  25 H :    0.110081
  26 H :    0.097958
Sum of atomic charges:    0.0000000

LOEWDIN ATOMIC CHARGES
----------------------
   0 C :   -0.326020
   1 C :   -0.175932
   2 H :    0.143713
   3 C :   -0.217341
   4 C :   -0.213406
   5 C :   -0.124558
   6 H :    0.122704
   7 C :   -0.227372
   8 C :    0.050487
   9 O :   -0.130003
  10 C :   -0.045842
  11 C :   -0.270959
  12 C :   -0.320411
  13 H :    0.118126
  14 H :    0.128366
  15 H :    0.119007
  16 H :    0.122653
  17 H :    0.116514
  18 H :    0.119044
  19 H :    0.125234
  20 H :    0.131650
  21 H :    0.136856
  22 H :    0.120527
  23 H :    0.114260
  24 H :    0.130739
  25 H :    0.128637
  26 H :    0.123329

  Mayer bond orders larger than 0.100000
B(  0-C ,  1-C ) :   1.1221 B(  0-C , 13-H ) :   0.9501 B(  0-C , 14-H ) :   0.9356
B(  0-C , 15-H ) :   0.9460 B(  1-C ,  2-H ) :   0.8571 B(  1-C ,  3-C ) :   1.0765
B(  1-C ,  8-C ) :   0.9215 B(  3-C ,  4-C ) :   1.1790 B(  3-C , 16-H ) :   0.9130
B(  3-C , 17-H ) :   0.8842 B(  4-C ,  5-C ) :   1.0647 B(  4-C , 18-H ) :   0.9023
B(  4-C , 19-H ) :   0.9113 B(  5-C ,  6-H ) :   0.8865 B(  5-C ,  7-C ) :   1.0889
B(  5-C , 10-C ) :   0.9924 B(  7-C ,  8-C ) :   1.0885 B(  7-C , 20-H ) :   0.8934
B(  7-C , 21-H ) :   0.8578 B(  8-C ,  9-O ) :   2.1896 B( 10-C , 11-C ) :   2.0359
B( 10-C , 12-C ) :   1.1317 B( 11-C , 22-H ) :   0.9011 B( 11-C , 23-H ) :   0.9035
B( 12-C , 24-H ) :   0.9281 B( 12-C , 25-H ) :   0.9284 B( 12-C , 26-H ) :   0.9403

Dispersion correction           -0.028740659
FINAL SINGLE POINT ENERGY      -464.822307533813

DIPOLE MOMENT
-------------

Method             : SCF
Type of density    : Electron Density
Multiplicity       :   1
Irrep              :   0
Energy             :  -464.9078687887855494 Eh
Relativity type    :
Basis              : AO
                                X                 Y                 Z
Electronic contribution:     -3.802445536      -5.550060601       1.325254806
Nuclear contribution   :      4.389923908       6.358180190      -1.239767209
                        -----------------------------------------
Total Dipole Moment    :      0.587478372       0.808119588       0.085487597
                        -----------------------------------------
Magnitude (a.u.)       :      1.002744352
Magnitude (Debye)      :      2.548773589

Rotational constants in cm-1:             0.070229             0.023110             0.020685
Rotational constants in MHz :          2105.426340           692.828311           620.132275

                             ****ORCA TERMINATED NORMALLY****
TOTAL RUN TIME: 0 days 0 hours 0 minutes 17 seconds 52 msec
