                         Program Version 6.0.0  -   RELEASE  -
|  1> ! r2scan-3c def2/J RI DEFGRID2 scfconv6 printgap
|  2> %output
|  3>     printlevel normal
|  4> end
|  5> * xyz 0 1
|  6> C -1.5924346772 -0.1455314597 -0.5048026664
|  7> C -0.6712664278 0.4920544567 0.5300897733
|  8> C 0.6883699668 -0.2178794108 0.634168558
|  9> N 1.5376776893 -0.1314420119 -0.5435753154
| 10> H -2.5566861972 0.356718513 -0.5131939299
| 11> H -1.1678508208 -0.0738375279 -1.5042702675
| 12> H -1.7526290166 -1.1963475315 -0.2728596302
| 13> H -1.1507629988 0.4580046844 1.509928075
| 14> H -0.506930882 1.5427347088 0.2759517755
| 15> H 1.2498310383 0.2112692061 1.4692869557
| 16> H 0.5281005978 -1.2785842612 0.8459628371
| 17> H 1.6865454567 0.8434811554 -0.7831340591
| 18> H 1.0740905602 -0.5698055065 -1.3321040497
| 19> *
| 20>
| 21>                          ****END OF INPUT****

CARTESIAN COORDINATES (ANGSTROEM)
---------------------------------
  C     -1.592435   -0.145531   -0.504803
  C     -0.671266    0.492054    0.530090
  C      0.688370   -0.217879    0.634169
  N      1.537678   -0.131442   -0.543575
  H     -2.556686    0.356719   -0.513194
  H     -1.167851   -0.073838   -1.504270
  H     -1.752629   -1.196348   -0.272860
  H     -1.150763    0.458005    1.509928
  H     -0.506931    1.542735    0.275952
  H      1.249831    0.211269    1.469287
  H      0.528101   -1.278584    0.845963
  H      1.686545    0.843481   -0.783134
  H      1.074091   -0.569806   -1.332104

 Total Charge           Charge          ....    0
 Multiplicity           Mult            ....    1
 Number of Electrons    NEL             ....   34
 Basis Dimension        Dim             ....  126

ORBITAL ENERGIES
----------------

  NO   OCC          E(Eh)            E(eV)
   0   2.0000     -14.133982      -384.6052
   1   2.0000     -10.047153      -273.3969
   2   2.0000     -10.024068      -272.7688
   3   2.0000     -10.019445      -272.6430
   4   2.0000      -0.846672       -23.0391
   5   2.0000      -0.730583       -19.8802
   6   2.0000      -0.632198       -17.2030
   7   2.0000      -0.549788       -14.9605
   8   2.0000      -0.463295       -12.6069
   9   2.0000      -0.422795       -11.5048
  10   2.0000      -0.405464       -11.0332
  11   2.0000      -0.381279       -10.3751
  12   2.0000      -0.350144        -9.5279
  13   2.0000      -0.324657        -8.8344
  14   2.0000      -0.307025        -8.3546
  15   2.0000      -0.302443        -8.2299
  16   2.0000      -0.203908        -5.5486
  17   0.0000       0.075141         2.0447
  18   0.0000       0.117464         3.1963
  19   0.0000       0.118365         3.2209
  20   0.0000       0.137950         3.7538
  21   0.0000       0.141664         3.8549

MULLIKEN ATOMIC CHARGES
-----------------------
   0 C :   -0.486592
   1 C :   -0.193993
   2 C :   -0.245870
   3 N :   -0.552790
   4 H :    0.148845
   5 H :    0.138478
   6 H :    0.144488
   7 H :    0.133278
   8 H :    0.130142
   9 H :    0.148979
  10 H :    0.146769
  11 H :    0.240877
  12 H :    0.247390
Sum of atomic charges:    0.0000000

LOEWDIN ATOMIC CHARGES
----------------------
   0 C :   -0.431153
   1 C :   -0.314283
   2 C :   -0.086866
   3 N :   -0.732627
   4 H :    0.152488
   5 H :    0.145867
   6 H :    0.151257
   7 H :    0.152965
   8 H :    0.150368
   9 H :    0.172327
  10 H :    0.171333
  11 H :    0.234008
  12 H :    0.234316

  Mayer bond orders larger than 0.100000
B(  0-C ,  1-C ) :   0.8950 B(  0-C ,  4-H ) :   0.9702 B(  0-C ,  5-H ) :   0.9837
B(  0-C ,  6-H ) :   0.9795 B(  1-C ,  2-C ) :   0.8945 B(  1-C ,  7-H ) :   0.9615
B(  1-C ,  8-H ) :   0.9719 B(  2-C ,  3-N ) :   0.9520 B(  2-C ,  9-H ) :   0.9860
B(  2-C , 10-H ) :   0.9979 B(  3-N , 11-H ) :   0.9185 B(  3-N , 12-H ) :   0.9224

Dispersion correction           -0.002479935
FINAL SINGLE POINT ENERGY      -174.424410225383

DIPOLE MOMENT
-------------

Method             : SCF
Type of density    : Electron Density
Multiplicity       :   1
Irrep              :   0
Energy             :  -174.4312147633052064 Eh
Relativity type    :
Basis              : AO
                                X                 Y                 Z
Electronic contribution:      1.971707890      -0.019151782       0.200932966
Nuclear contribution   :     -2.427296488       0.274754397      -0.288603735
                        -----------------------------------------
Total Dipole Moment    :     -0.455588598       0.255602615      -0.087670769
                        -----------------------------------------
Magnitude (a.u.)       :      0.529697868
Magnitude (Debye)      :      1.346384981

Rotational constants in cm-1:             0.465107             0.163507             0.140125
Rotational constants in MHz :         13943.543957          4901.807625          4200.849482

                             ****ORCA TERMINATED NORMALLY****
TOTAL RUN TIME: 0 days 0 hours 0 minutes 11 seconds 144 msec
