                         Program Version 6.0.0  -   RELEASE  -
|  1> ! pbe def2-sv(p) def2/J RI DEFGRID1 loosescf d4 GCP(DFT/SV(P)) printgap
|  2> %output
|  3>     printlevel normal
|  4> end
|  5> * xyz 0 1
|  6> C -1.0737097014 -1.8723668475 3.19215e-05
|  7> C 0.2533235054 -1.4882453955 8.32216e-05
|  8> C 0.5513981969 -0.1269598603 0.0001582868
|  9> C -0.4471517923 0.8393104951 0.0001754711
| 10> C -1.7801805003 0.4400480222 -3.89529e-05
| 11> C -2.0831026618 -0.9236944157 -0.0001411785
| 12> O -2.7251875144 1.3964495287 -6.54947e-05
| 13> N 1.9115595967 0.2895698678 0.0001294374
| 14> O 2.7838816912 -0.5662675052 -0.0001857065
| 15> O 2.1590858768 1.4857945151 -7.37412e-05
| 16> H -1.3269019881 -2.91986731 -0.000323582
| 17> H 1.0561531474 -2.2070492594 9.68514e-05
| 18> H -0.1948650214 1.8874966462 0.0001540198
| 19> H -3.1140281141 -1.2431143288 0.0002650738
| 20> H -3.6187666324 1.0164121096 -3.58331e-05
| 21> *
| 22>
| 23>                          ****END OF INPUT****

CARTESIAN COORDINATES (ANGSTROEM)
---------------------------------
  C     -1.073710   -1.872367    0.000032
  C      0.253324   -1.488245    0.000083
  C      0.551398   -0.126960    0.000158
  C     -0.447152    0.839310    0.000175
  C     -1.780181    0.440048   -0.000039
  C     -2.083103   -0.923694   -0.000141
  O     -2.725188    1.396450   -0.000065
  N      1.911560    0.289570    0.000129
  O      2.783882   -0.566268   -0.000186
  O      2.159086    1.485795   -0.000074
  H     -1.326902   -2.919867   -0.000324
  H      1.056153   -2.207049    0.000097
  H     -0.194865    1.887497    0.000154
  H     -3.114028   -1.243114    0.000265
  H     -3.618767    1.016412   -0.000036

 Total Charge           Charge          ....    0
 Multiplicity           Mult            ....    1
 Number of Electrons    NEL             ....   72
 Basis Dimension        Dim             ....  150

ORBITAL ENERGIES
----------------

  NO   OCC          E(Eh)            E(eV)
   0   2.0000     -18.808218      -511.7976
   1   2.0000     -18.771748      -510.8052
   2   2.0000     -18.771196      -510.7902
   3   2.0000     -14.206781      -386.5862
   4   2.0000      -9.981852      -271.6200
   5   2.0000      -9.955521      -270.9035
   6   2.0000      -9.924241      -270.0523
   7   2.0000      -9.923456      -270.0310
   8   2.0000      -9.917049      -269.8566
   9   2.0000      -9.916368      -269.8381
  10   2.0000      -1.126201       -30.6455
  11   2.0000      -0.993340       -27.0302
  12   2.0000      -0.953322       -25.9412
  13   2.0000      -0.811880       -22.0924
  14   2.0000      -0.739235       -20.1156
  15   2.0000      -0.697512       -18.9803
  16   2.0000      -0.641844       -17.4655
  17   2.0000      -0.579629       -15.7725
  18   2.0000      -0.565294       -15.3824
  19   2.0000      -0.499582       -13.5943
  20   2.0000      -0.487633       -13.2692
  21   2.0000      -0.474652       -12.9159
  22   2.0000      -0.460001       -12.5173
  23   2.0000      -0.457105       -12.4385
  24   2.0000      -0.428980       -11.6732
  25   2.0000      -0.409426       -11.1410
  26   2.0000      -0.392235       -10.6733
  27   2.0000      -0.364443        -9.9170
  28   2.0000      -0.358184        -9.7467
  29   2.0000      -0.325453        -8.8560
  30   2.0000      -0.325233        -8.8500
  31   2.0000      -0.266944        -7.2639
  32   2.0000      -0.260217        -7.0809
  33   2.0000      -0.255506        -6.9527
  34   2.0000      -0.227933        -6.2024
  35   2.0000      -0.223632        -6.0853
  36   0.0000      -0.116847        -3.1796
  37   0.0000      -0.052047        -1.4163
  38   0.0000      -0.025714        -0.6997
  39   0.0000       0.002430         0.0661
  40   0.0000       0.034771         0.9462

MULLIKEN ATOMIC CHARGES
-----------------------
   0 C :   -0.057814
   1 C :   -0.112627
   2 C :    0.224617
   3 C :   -0.203561
   4 C :    0.245876
   5 C :   -0.130511
   6 O :   -0.314612
   7 N :    0.199025
   8 O :   -0.216920
   9 O :   -0.213925
  10 H :    0.069344
  11 H :    0.071301
  12 H :    0.070676
  13 H :    0.043532
  14 H :    0.325597
Sum of atomic charges:    0.0000000

LOEWDIN ATOMIC CHARGES
----------------------
   0 C :   -0.106373
   1 C :   -0.128169
   2 C :   -0.034072
   3 C :   -0.127035
   4 C :    0.023834
   5 C :   -0.153798
   6 O :   -0.214373
   7 N :    0.256202
   8 O :   -0.188094
   9 O :   -0.186579
  10 H :    0.133206
  11 H :    0.142856
  12 H :    0.150891
  13 H :    0.126791
  14 H :    0.304713

  Mayer bond orders larger than 0.100000
B(  0-C ,  1-C ) :   1.3299 B(  0-C ,  5-C ) :   1.3667 B(  0-C , 10-H ) :   0.9597
B(  1-C ,  2-C ) :   1.3634 B(  1-C , 11-H ) :   0.9518 B(  2-C ,  3-C ) :   1.3393
B(  2-C ,  7-N ) :   0.8869 B(  3-C ,  4-C ) :   1.2806 B(  3-C , 12-H ) :   0.9616
B(  4-C ,  5-C ) :   1.3056 B(  4-C ,  6-O ) :   1.2138 B(  5-C , 13-H ) :   0.9583
B(  6-O , 14-H ) :   0.8361 B(  7-N ,  8-O ) :   1.5386 B(  7-N ,  9-O ) :   1.5423
B(  8-O ,  9-O ) :   0.3030

Dispersion correction           -0.016048166
FINAL SINGLE POINT ENERGY      -510.970301353340

DIPOLE MOMENT
-------------

Method             : SCF
Type of density    : Electron Density
Multiplicity       :   1
Irrep              :   0
Energy             :  -511.0205747275310273 Eh
Relativity type    :
Basis              : AO
                                X                 Y                 Z
Electronic contribution:      4.527921262       2.482965195       0.000105716
Nuclear contribution   :     -6.709984465      -3.215923605       0.000142751
                        -----------------------------------------
Total Dipole Moment    :     -2.182063203      -0.732958410       0.000248467
                        -----------------------------------------
Magnitude (a.u.)       :      2.301874870
Magnitude (Debye)      :      5.850900940

Rotational constants in cm-1:             0.092401             0.033358             0.024510
Rotational constants in MHz :          2770.123029          1000.041770           734.779221

                             ****ORCA TERMINATED NORMALLY****
TOTAL RUN TIME: 0 days 0 hours 0 minutes 8 seconds 80 msec
