                         Program Version 6.0.0  -   RELEASE  -
|  1> ! wb97x-v def2-tzvp def2/J RIJCOSX DEFGRID2 scfconv7 GCP(DFT/TZ) printgap
|  2> %output
|  3>     printlevel normal
|  4> end
|  5> * xyz 0 1
|  6> C -1.735492830526028 0.3503772429900748 -0.5867347375622414
|  7> C -0.8838902849901173 0.34323751155601245 0.682045100468932
|  8> C 0.5844521756675939 -0.07086559869263899 0.48229527327087757
|  9> C 0.7148478060076893 -1.5062496780887318 -0.031165875931376767
| 10> C 1.3387191262214657 0.8987696841933314 -0.42988735958794316
| 11> H -2.761943038087053 0.6551871477960738 -0.3575461486291011
| 12> H -1.7840397421573173 -0.6414449934119095 -1.0483334419094215
| 13> H -1.3456933959805755 1.0495089574296728 -1.3340365594782737
| 14> H -0.9042990924185992 1.3442963957931753 1.1328263907870777
| 15> H -1.3396661582580827 -0.3359701265165731 1.4146751891352574
| 16> H 1.0575003076862668 -0.029472030905376236 1.4736034314080262
| 17> H 0.33665605821732997 -1.5987425804308393 -1.0556800054269293
| 18> H 0.1563909678302192 -2.2085229750661073 0.5985168751253371
| 19> H 1.763866138522852 -1.8223482304015868 -0.03975589108444941
| 20> H 0.9681987278315747 0.8454284444321629 -1.4599168346970697
| 21> H 2.4076509693249966 0.6593703704809932 -0.45339100828338014
| 22> H 1.2325974732577782 1.9345789175024373 -0.08719464126503508
| 23> *
| 24>
| 25>                          ****END OF INPUT****

CARTESIAN COORDINATES (ANGSTROEM)
---------------------------------
  C     -1.735493    0.350377   -0.586735
  C     -0.883890    0.343238    0.682045
  C      0.584452   -0.070866    0.482295
  C      0.714848   -1.506250   -0.031166
  C      1.338719    0.898770   -0.429887
  H     -2.761943    0.655187   -0.357546
  H     -1.784040   -0.641445   -1.048333
  H     -1.345693    1.049509   -1.334037
  H     -0.904299    1.344296    1.132826
  H     -1.339666   -0.335970    1.414675
  H      1.057500   -0.029472    1.473603
  H      0.336656   -1.598743   -1.055680
  H      0.156391   -2.208523    0.598517
  H      1.763866   -1.822348   -0.039756
  H      0.968199    0.845428   -1.459917
  H      2.407651    0.659370   -0.453391
  H      1.232597    1.934579   -0.087195

 Total Charge           Charge          ....    0
 Multiplicity           Mult            ....    1
 Number of Electrons    NEL             ....   42
 Basis Dimension        Dim             ....  227

ORBITAL ENERGIES
----------------

  NO   OCC          E(Eh)            E(eV)
   0   2.0000     -12.045015      -327.7615
   1   2.0000     -12.036753      -327.5367
   2   2.0000     -12.030256      -327.3599
   3   2.0000     -12.029760      -327.3464
   4   2.0000     -12.029411      -327.3369
   5   2.0000      -1.313571       -35.7441
   6   2.0000      -1.229896       -33.4672
   7   2.0000      -1.171850       -31.8877
   8   2.0000      -1.114468       -30.3262
   9   2.0000      -1.013857       -27.5885
  10   2.0000      -0.893398       -24.3106
  11   2.0000      -0.876969       -23.8635
  12   2.0000      -0.866537       -23.5797
  13   2.0000      -0.827024       -22.5045
  14   2.0000      -0.815294       -22.1853
  15   2.0000      -0.805540       -21.9198
  16   2.0000      -0.801407       -21.8074
  17   2.0000      -0.778530       -21.1849
  18   2.0000      -0.753186       -20.4952
  19   2.0000      -0.752190       -20.4681
  20   2.0000      -0.745547       -20.2874
  21   0.0000      -0.027274        -0.7422
  22   0.0000      -0.012757        -0.3471
  23   0.0000      -0.009795        -0.2665
  24   0.0000      -0.002402        -0.0654
  25   0.0000       0.004764         0.1296

MULLIKEN ATOMIC CHARGES
-----------------------
   0 C :   -0.380654
   1 C :   -0.157503
   2 C :    0.036470
   3 C :   -0.376775
   4 C :   -0.376009
   5 H :    0.115098
   6 H :    0.111893
   7 H :    0.111709
   8 H :    0.093107
   9 H :    0.093217
  10 H :    0.066336
  11 H :    0.109750
  12 H :    0.110055
  13 H :    0.112017
  14 H :    0.109436
  15 H :    0.111883
  16 H :    0.109969
Sum of atomic charges:   -0.0000000

LOEWDIN ATOMIC CHARGES
----------------------
   0 C :   -0.307559
   1 C :   -0.271788
   2 C :   -0.315511
   3 C :   -0.284447
   4 C :   -0.284364
   5 H :    0.116564
   6 H :    0.115696
   7 H :    0.115633
   8 H :    0.132198
   9 H :    0.132235
  10 H :    0.145677
  11 H :    0.116830
  12 H :    0.118099
  13 H :    0.117935
  14 H :    0.116799
  15 H :    0.117920
  16 H :    0.118082

  Mayer bond orders larger than 0.100000
B(  0-C ,  1-C ) :   0.9651 B(  0-C ,  5-H ) :   0.9824 B(  0-C ,  6-H ) :   0.9821
B(  0-C ,  7-H ) :   0.9821 B(  1-C ,  2-C ) :   0.9677 B(  1-C ,  8-H ) :   0.9804
B(  1-C ,  9-H ) :   0.9804 B(  2-C ,  3-C ) :   0.9728 B(  2-C ,  4-C ) :   0.9732
B(  2-C , 10-H ) :   0.9696 B(  3-C , 11-H ) :   0.9785 B(  3-C , 12-H ) :   0.9806
B(  3-C , 13-H ) :   0.9824 B(  4-C , 14-H ) :   0.9786 B(  4-C , 15-H ) :   0.9825
B(  4-C , 16-H ) :   0.9806

FINAL SINGLE POINT ENERGY      -197.768503386371

DIPOLE MOMENT
-------------

Method             : SCF
Type of density    : Electron Density
Multiplicity       :   1
Irrep              :   0
Energy             :  -197.7807034180712549 Eh
Relativity type    :
Basis              : AO
                                X                 Y                 Z
Electronic contribution:      0.208921985       0.151878339       1.226953519
Nuclear contribution   :     -0.201085450      -0.144290758      -1.168182905
                        -----------------------------------------
Total Dipole Moment    :      0.007836535       0.007587581       0.058770614
                        -----------------------------------------
Magnitude (a.u.)       :      0.059774307
Magnitude (Debye)      :      0.151934214

Rotational constants in cm-1:             0.201674             0.125087             0.101648
Rotational constants in MHz :          6046.032714          3750.005472          3047.343161

                             ****ORCA TERMINATED NORMALLY****
TOTAL RUN TIME: 0 days 0 hours 1 minutes 27 seconds 971 msec
