                         Program Version 6.0.0  -   RELEASE  -
|  1> ! wb97x-v def2-tzvp def2/J RIJCOSX DEFGRID2 scfconv7 GCP(DFT/TZ) printgap
|  2> %output
|  3>     printlevel normal
|  4> end
|  5> %cpcm
|  6>     smd true
|  7>     smdsolvent "water"
|  8> end
|  9> * xyz 0 1
| 10> C -1.735492830526028 0.3503772429900748 -0.5867347375622414
| 11> C -0.8838902849901173 0.34323751155601245 0.682045100468932
| 12> C 0.5844521756675939 -0.07086559869263899 0.48229527327087757
| 13> C 0.7148478060076893 -1.5062496780887318 -0.031165875931376767
| 14> C 1.3387191262214657 0.8987696841933314 -0.42988735958794316
| 15> H -2.761943038087053 0.6551871477960738 -0.3575461486291011
| 16> H -1.7840397421573173 -0.6414449934119095 -1.0483334419094215
| 17> H -1.3456933959805755 1.0495089574296728 -1.3340365594782737
| 18> H -0.9042990924185992 1.3442963957931753 1.1328263907870777
| 19> H -1.3396661582580827 -0.3359701265165731 1.4146751891352574
| 20> H 1.0575003076862668 -0.029472030905376236 1.4736034314080262
| 21> H 0.33665605821732997 -1.5987425804308393 -1.0556800054269293
| 22> H 0.1563909678302192 -2.2085229750661073 0.5985168751253371
| 23> H 1.763866138522852 -1.8223482304015868 -0.03975589108444941
| 24> H 0.9681987278315747 0.8454284444321629 -1.4599168346970697
| 25> H 2.4076509693249966 0.6593703704809932 -0.45339100828338014
| 26> H 1.2325974732577782 1.9345789175024373 -0.08719464126503508
| 27> *
| 28>
| 29>                          ****END OF INPUT****

CARTESIAN COORDINATES (ANGSTROEM)
---------------------------------
  C     -1.735493    0.350377   -0.586735
  C     -0.883890    0.343238    0.682045
  C      0.584452   -0.070866    0.482295
  C      0.714848   -1.506250   -0.031166
  C      1.338719    0.898770   -0.429887
  H     -2.761943    0.655187   -0.357546
  H     -1.784040   -0.641445   -1.048333
  H     -1.345693    1.049509   -1.334037
  H     -0.904299    1.344296    1.132826
  H     -1.339666   -0.335970    1.414675
  H      1.057500   -0.029472    1.473603
  H      0.336656   -1.598743   -1.055680
  H      0.156391   -2.208523    0.598517
  H      1.763866   -1.822348   -0.039756
  H      0.968199    0.845428   -1.459917
  H      2.407651    0.659370   -0.453391
  H      1.232597    1.934579   -0.087195

 Total Charge           Charge          ....    0
 Multiplicity           Mult            ....    1
 Number of Electrons    NEL             ....   42
 Basis Dimension        Dim             ....  227

ORBITAL ENERGIES
----------------

  NO   OCC          E(Eh)            E(eV)
   0   2.0000     -12.037095      -327.5460
   1   2.0000     -12.028596      -327.3147
   2   2.0000     -12.022236      -327.1417
   3   2.0000     -12.021411      -327.1192
   4   2.0000     -12.021066      -327.1098
   5   2.0000      -1.305625       -35.5279
   6   2.0000      -1.222295       -33.2603
   7   2.0000      -1.164212       -31.6798
   8   2.0000      -1.106923       -30.1209
   9   2.0000      -1.006225       -27.3808
  10   2.0000      -0.885439       -24.0940
  11   2.0000      -0.869094       -23.6493
  12   2.0000      -0.858735       -23.3674
  13   2.0000      -0.819220       -22.2921
  14   2.0000      -0.807637       -21.9769
  15   2.0000      -0.797832       -21.7101
  16   2.0000      -0.793475       -21.5915
  17   2.0000      -0.770700       -20.9718
  18   2.0000      -0.745394       -20.2832
  19   2.0000      -0.744215       -20.2511
  20   2.0000      -0.737454       -20.0671
  21   0.0000      -0.018105        -0.4927
  22   0.0000      -0.005546        -0.1509
  23   0.0000      -0.002101        -0.0572
  24   0.0000       0.005385         0.1465
  25   0.0000       0.013948         0.3795

MULLIKEN ATOMIC CHARGES
-----------------------
   0 C :   -0.426950
   1 C :   -0.181191
   2 C :    0.046418
   3 C :   -0.429627
   4 C :   -0.429033
   5 H :    0.129528
   6 H :    0.125955
   7 H :    0.125880
   8 H :    0.104799
   9 H :    0.104882
  10 H :    0.075074
  11 H :    0.125284
  12 H :    0.124502
  13 H :    0.127509
  14 H :    0.125050
  15 H :    0.127458
  16 H :    0.124462
Sum of atomic charges:    0.0000000

LOEWDIN ATOMIC CHARGES
----------------------
   0 C :   -0.314294
   1 C :   -0.274562
   2 C :   -0.315411
   3 C :   -0.291230
   4 C :   -0.291187
   5 H :    0.117906
   6 H :    0.117853
   7 H :    0.117823
   8 H :    0.133931
   9 H :    0.133986
  10 H :    0.147363
  11 H :    0.119228
  12 H :    0.120064
  13 H :    0.119636
  14 H :    0.119207
  15 H :    0.119628
  16 H :    0.120058

  Mayer bond orders larger than 0.100000
B(  0-C ,  1-C ) :   0.9634 B(  0-C ,  5-H ) :   0.9799 B(  0-C ,  6-H ) :   0.9792
B(  0-C ,  7-H ) :   0.9791 B(  1-C ,  2-C ) :   0.9651 B(  1-C ,  8-H ) :   0.9796
B(  1-C ,  9-H ) :   0.9797 B(  2-C ,  3-C ) :   0.9660 B(  2-C ,  4-C ) :   0.9663
B(  2-C , 10-H ) :   0.9697 B(  3-C , 11-H ) :   0.9761 B(  3-C , 12-H ) :   0.9785
B(  3-C , 13-H ) :   0.9803 B(  4-C , 14-H ) :   0.9762 B(  4-C , 15-H ) :   0.9803
B(  4-C , 16-H ) :   0.9785

FINAL SINGLE POINT ENERGY      -197.765366261301

DIPOLE MOMENT
-------------

Method             : SCF
Type of density    : Electron Density
Multiplicity       :   1
Irrep              :   0
Energy             :  -197.7775662930006888 Eh
Relativity type    :
Basis              : AO
                                X                 Y                 Z
Electronic contribution:      0.210075898       0.153076345       1.237071101
Nuclear contribution   :     -0.201085450      -0.144290758      -1.168182905
                        -----------------------------------------
Total Dipole Moment    :      0.008990448       0.008785587       0.068888196
                        -----------------------------------------
Magnitude (a.u.)       :      0.070025697
Magnitude (Debye)      :      0.177991177

Rotational constants in cm-1:             0.201674             0.125087             0.101648
Rotational constants in MHz :          6046.032714          3750.005472          3047.343161

                             ****ORCA TERMINATED NORMALLY****
TOTAL RUN TIME: 0 days 0 hours 1 minutes 31 seconds 636 msec
