                         Program Version 6.0.0  -   RELEASE  -
|  1> ! r2scan-3c def2/J RI DEFGRID2 scfconv6 printgap
|  2> %output
|  3>     printlevel normal
|  4> end
|  5> * xyz 0 1
|  6> C 1.5396332269 1.4022439281 -1.3962887385
|  7> C 2.9098091547 1.510664395 -1.5401874436
|  8> C 3.7486329188 0.8154358218 -0.6827801915
|  9> C 3.2161709362 0.0215192677 0.3301403963
| 10> C 1.8345211855 -0.0804303708 0.4663448598
| 11> C 0.984725495 0.5988391563 -0.4057663385
| 12> C -0.483163211 0.4780768537 -0.2768484967
| 13> C -1.2427932223 1.5911031236 0.0601414071
| 14> C -2.6169718174 1.4898563041 0.2010712431
| 15> C -3.2580366893 0.2688271369 0.0002418401
| 16> C -2.5052970465 -0.8473504307 -0.3588270143
| 17> C -1.1238898479 -0.7411442963 -0.5007868628
| 18> Cl -0.2212932049 -2.1219475885 -0.9930983343
| 19> Cl -3.2889718511 -2.3558801725 -0.6274662394
| 20> Cl -4.9630420309 0.1321473258 0.1847981873
| 21> Cl -3.5429065845 2.8734201718 0.6317260096
| 22> Cl 1.1817652704 -1.02461294 1.7565609738
| 23> Cl 4.258123515 -0.8293618131 1.4134903013
| 24> Cl 5.4603752394 0.9339375197 -0.8577883442
| 25> H 0.8826981727 1.9330508872 -2.0652107787
| 26> H 3.3369326028 2.1276673981 -2.3127515553
| 27> H -0.7563575571 2.53800027 0.2274204769
| 28> *
| 29>
| 30>                          ****END OF INPUT****

CARTESIAN COORDINATES (ANGSTROEM)
---------------------------------
  C      1.539633    1.402244   -1.396289
  C      2.909809    1.510664   -1.540187
  C      3.748633    0.815436   -0.682780
  C      3.216171    0.021519    0.330140
  C      1.834521   -0.080430    0.466345
  C      0.984725    0.598839   -0.405766
  C     -0.483163    0.478077   -0.276848
  C     -1.242793    1.591103    0.060141
  C     -2.616972    1.489856    0.201071
  C     -3.258037    0.268827    0.000242
  C     -2.505297   -0.847350   -0.358827
  C     -1.123890   -0.741144   -0.500787
  Cl    -0.221293   -2.121948   -0.993098
  Cl    -3.288972   -2.355880   -0.627466
  Cl    -4.963042    0.132147    0.184798
  Cl    -3.542907    2.873420    0.631726
  Cl     1.181765   -1.024613    1.756561
  Cl     4.258124   -0.829362    1.413490
  Cl     5.460375    0.933938   -0.857788
  H      0.882698    1.933051   -2.065211
  H      3.336933    2.127667   -2.312752
  H     -0.756358    2.538000    0.227420

 Total Charge           Charge          ....    0
 Multiplicity           Mult            ....    1
 Number of Electrons    NEL             ....  194
 Basis Dimension        Dim             ....  432

ORBITAL ENERGIES
----------------

  NO   OCC          E(Eh)            E(eV)
   0   2.0000    -101.244712     -2755.0087
   1   2.0000    -101.244133     -2754.9929
   2   2.0000    -101.243780     -2754.9833
   3   2.0000    -101.241576     -2754.9233
   4   2.0000    -101.241322     -2754.9164
   5   2.0000    -101.240862     -2754.9039
   6   2.0000    -101.240590     -2754.8965
   7   2.0000     -10.140005      -275.9236
   8   2.0000     -10.139250      -275.9030
   9   2.0000     -10.135099      -275.7901
  10   2.0000     -10.135038      -275.7884
  11   2.0000     -10.135031      -275.7882
  12   2.0000     -10.134548      -275.7751
  13   2.0000     -10.133097      -275.7356
  14   2.0000     -10.095514      -274.7129
  15   2.0000     -10.091245      -274.5967
  16   2.0000     -10.081583      -274.3338
  17   2.0000     -10.076464      -274.1945
  18   2.0000     -10.075745      -274.1750
  19   2.0000      -9.400352      -255.7966
  20   2.0000      -9.399789      -255.7813
  21   2.0000      -9.399609      -255.7764
  22   2.0000      -9.397446      -255.7175
  23   2.0000      -9.397097      -255.7080
  24   2.0000      -9.396428      -255.6898
  25   2.0000      -9.396391      -255.6888
  26   2.0000      -7.147079      -194.4819
  27   2.0000      -7.146510      -194.4664
  28   2.0000      -7.146133      -194.4562
  29   2.0000      -7.144043      -194.3993
  30   2.0000      -7.143604      -194.3873
  31   2.0000      -7.143140      -194.3747
  32   2.0000      -7.142970      -194.3701
  33   2.0000      -7.136674      -194.1988
  34   2.0000      -7.136122      -194.1837
  35   2.0000      -7.135866      -194.1768
  36   2.0000      -7.135587      -194.1692
  37   2.0000      -7.135090      -194.1557
  38   2.0000      -7.135017      -194.1537
  39   2.0000      -7.133689      -194.1175
  40   2.0000      -7.133398      -194.1096
  41   2.0000      -7.132837      -194.0944
  42   2.0000      -7.132756      -194.0922
  43   2.0000      -7.132658      -194.0895
  44   2.0000      -7.132567      -194.0870
  45   2.0000      -7.131798      -194.0661
  46   2.0000      -7.131693      -194.0632
  47   2.0000      -0.930637       -25.3239
  48   2.0000      -0.917824       -24.9753
  49   2.0000      -0.883685       -24.0463
  50   2.0000      -0.870096       -23.6765
  51   2.0000      -0.858287       -23.3552
  52   2.0000      -0.840276       -22.8651
  53   2.0000      -0.828187       -22.5361
  54   2.0000      -0.821198       -22.3459
  55   2.0000      -0.809104       -22.0168
  56   2.0000      -0.755372       -20.5547
  57   2.0000      -0.727269       -19.7900
  58   2.0000      -0.718684       -19.5564
  59   2.0000      -0.702641       -19.1198
  60   2.0000      -0.628570       -17.1043
  61   2.0000      -0.610782       -16.6202
  62   2.0000      -0.601209       -16.3597
  63   2.0000      -0.580811       -15.8047
  64   2.0000      -0.523236       -14.2380
  65   2.0000      -0.515882       -14.0379
  66   2.0000      -0.499265       -13.5857
  67   2.0000      -0.493883       -13.4392
  68   2.0000      -0.470018       -12.7898
  69   2.0000      -0.456400       -12.4193
  70   2.0000      -0.442975       -12.0540
  71   2.0000      -0.440183       -11.9780
  72   2.0000      -0.437634       -11.9086
  73   2.0000      -0.434475       -11.8227
  74   2.0000      -0.425765       -11.5856
  75   2.0000      -0.411086       -11.1862
  76   2.0000      -0.395633       -10.7657
  77   2.0000      -0.385137       -10.4801
  78   2.0000      -0.379126       -10.3165
  79   2.0000      -0.375963       -10.2305
  80   2.0000      -0.361205        -9.8289
  81   2.0000      -0.353726        -9.6254
  82   2.0000      -0.337556        -9.1854
  83   2.0000      -0.327429        -8.9098
  84   2.0000      -0.324487        -8.8297
  85   2.0000      -0.321297        -8.7429
  86   2.0000      -0.317610        -8.6426
  87   2.0000      -0.315790        -8.5931
  88   2.0000      -0.308881        -8.4051
  89   2.0000      -0.306510        -8.3406
  90   2.0000      -0.301190        -8.1958
  91   2.0000      -0.285011        -7.7555
  92   2.0000      -0.283017        -7.7013
  93   2.0000      -0.258456        -7.0330
  94   2.0000      -0.250645        -6.8204
  95   2.0000      -0.246235        -6.7004
  96   2.0000      -0.239319        -6.5122
  97   0.0000      -0.088427        -2.4062
  98   0.0000      -0.078856        -2.1458
  99   0.0000      -0.069797        -1.8993
 100   0.0000      -0.061860        -1.6833
 101   0.0000      -0.059463        -1.6181

MULLIKEN ATOMIC CHARGES
-----------------------
   0 C :   -0.163400
   1 C :   -0.254035
   2 C :    0.168869
   3 C :   -0.006608
   4 C :    0.051267
   5 C :    0.122988
   6 C :    0.140251
   7 C :   -0.315970
   8 C :    0.121302
   9 C :    0.075912
  10 C :    0.025704
  11 C :    0.044556
  12 Cl:   -0.063234
  13 Cl:   -0.062880
  14 Cl:   -0.063321
  15 Cl:   -0.090400
  16 Cl:   -0.068462
  17 Cl:   -0.071729
  18 Cl:   -0.093482
  19 H :    0.162498
  20 H :    0.165615
  21 H :    0.174560
Sum of atomic charges:    0.0000000

LOEWDIN ATOMIC CHARGES
----------------------
   0 C :   -0.125073
   1 C :   -0.159088
   2 C :   -0.174503
   3 C :   -0.189985
   4 C :   -0.159491
   5 C :   -0.089949
   6 C :   -0.082731
   7 C :   -0.138701
   8 C :   -0.178819
   9 C :   -0.192325
  10 C :   -0.186718
  11 C :   -0.168261
  12 Cl:    0.199433
  13 Cl:    0.187491
  14 Cl:    0.186222
  15 Cl:    0.171502
  16 Cl:    0.195994
  17 Cl:    0.178219
  18 Cl:    0.166987
  19 H :    0.183572
  20 H :    0.184158
  21 H :    0.192065

  Mayer bond orders larger than 0.100000
B(  0-C ,  1-C ) :   1.3630 B(  0-C ,  5-C ) :   1.4030 B(  0-C , 19-H ) :   0.9373
B(  1-C ,  2-C ) :   1.3525 B(  1-C , 20-H ) :   0.9427 B(  2-C ,  3-C ) :   1.2260
B(  2-C , 18-Cl) :   1.0649 B(  3-C ,  4-C ) :   1.0947 B(  3-C , 17-Cl) :   1.2494
B(  4-C ,  5-C ) :   1.2901 B(  4-C , 16-Cl) :   1.2552 B(  5-C ,  6-C ) :   0.7823
B(  5-C , 11-C ) :  -0.1059 B(  6-C ,  7-C ) :   1.3839 B(  6-C , 11-C ) :   1.2650
B(  7-C ,  8-C ) :   1.3130 B(  7-C , 21-H ) :   0.9265 B(  8-C ,  9-C ) :   1.2244
B(  8-C , 15-Cl) :   1.0765 B(  9-C , 10-C ) :   1.1017 B(  9-C , 14-Cl) :   1.2438
B( 10-C , 11-C ) :   1.0839 B( 10-C , 13-Cl) :   1.2795 B( 11-C , 12-Cl) :   1.2713

Dispersion correction           -0.015820831
FINAL SINGLE POINT ENERGY     -3680.216936445978

DIPOLE MOMENT
-------------

Method             : SCF
Type of density    : Electron Density
Multiplicity       :   1
Irrep              :   0
Energy             : -3680.2144033094759834 Eh
Relativity type    :
Basis              : AO
                                X                 Y                 Z
Electronic contribution:     -4.628535446      -8.700397476       5.409036941
Nuclear contribution   :      4.747002948       9.401732628      -5.918294939
                        -----------------------------------------
Total Dipole Moment    :      0.118467502       0.701335152      -0.509257998
                        -----------------------------------------
Magnitude (a.u.)       :      0.874785261
Magnitude (Debye)      :      2.223527426

Rotational constants in cm-1:             0.013528             0.003655             0.003268
Rotational constants in MHz :           405.552007           109.575012            97.964037

                             ****ORCA TERMINATED NORMALLY****
TOTAL RUN TIME: 0 days 0 hours 1 minutes 20 seconds 918 msec
