                         Program Version 6.0.0  -   RELEASE  -
|  1> ! r2scan-3c def2/J RI DEFGRID2 scfconv6 printgap
|  2> %output
|  3>     printlevel normal
|  4> end
|  5> %cpcm
|  6>     smd true
|  7>     smdsolvent "water"
|  8> end
|  9> * xyz 0 1
| 10> C 1.5396332269 1.4022439281 -1.3962887385
| 11> C 2.9098091547 1.510664395 -1.5401874436
| 12> C 3.7486329188 0.8154358218 -0.6827801915
| 13> C 3.2161709362 0.0215192677 0.3301403963
| 14> C 1.8345211855 -0.0804303708 0.4663448598
| 15> C 0.984725495 0.5988391563 -0.4057663385
| 16> C -0.483163211 0.4780768537 -0.2768484967
| 17> C -1.2427932223 1.5911031236 0.0601414071
| 18> C -2.6169718174 1.4898563041 0.2010712431
| 19> C -3.2580366893 0.2688271369 0.0002418401
| 20> C -2.5052970465 -0.8473504307 -0.3588270143
| 21> C -1.1238898479 -0.7411442963 -0.5007868628
| 22> Cl -0.2212932049 -2.1219475885 -0.9930983343
| 23> Cl -3.2889718511 -2.3558801725 -0.6274662394
| 24> Cl -4.9630420309 0.1321473258 0.1847981873
| 25> Cl -3.5429065845 2.8734201718 0.6317260096
| 26> Cl 1.1817652704 -1.02461294 1.7565609738
| 27> Cl 4.258123515 -0.8293618131 1.4134903013
| 28> Cl 5.4603752394 0.9339375197 -0.8577883442
| 29> H 0.8826981727 1.9330508872 -2.0652107787
| 30> H 3.3369326028 2.1276673981 -2.3127515553
| 31> H -0.7563575571 2.53800027 0.2274204769
| 32> *
| 33>
| 34>                          ****END OF INPUT****

CARTESIAN COORDINATES (ANGSTROEM)
---------------------------------
  C      1.539633    1.402244   -1.396289
  C      2.909809    1.510664   -1.540187
  C      3.748633    0.815436   -0.682780
  C      3.216171    0.021519    0.330140
  C      1.834521   -0.080430    0.466345
  C      0.984725    0.598839   -0.405766
  C     -0.483163    0.478077   -0.276848
  C     -1.242793    1.591103    0.060141
  C     -2.616972    1.489856    0.201071
  C     -3.258037    0.268827    0.000242
  C     -2.505297   -0.847350   -0.358827
  C     -1.123890   -0.741144   -0.500787
  Cl    -0.221293   -2.121948   -0.993098
  Cl    -3.288972   -2.355880   -0.627466
  Cl    -4.963042    0.132147    0.184798
  Cl    -3.542907    2.873420    0.631726
  Cl     1.181765   -1.024613    1.756561
  Cl     4.258124   -0.829362    1.413490
  Cl     5.460375    0.933938   -0.857788
  H      0.882698    1.933051   -2.065211
  H      3.336933    2.127667   -2.312752
  H     -0.756358    2.538000    0.227420

 Total Charge           Charge          ....    0
 Multiplicity           Mult            ....    1
 Number of Electrons    NEL             ....  194
 Basis Dimension        Dim             ....  432

ORBITAL ENERGIES
----------------

  NO   OCC          E(Eh)            E(eV)
   0   2.0000    -101.243268     -2754.9694
   1   2.0000    -101.243038     -2754.9631
   2   2.0000    -101.239606     -2754.8697
   3   2.0000    -101.239372     -2754.8634
   4   2.0000    -101.239274     -2754.8607
   5   2.0000    -101.237644     -2754.8163
   6   2.0000    -101.237080     -2754.8010
   7   2.0000     -10.134828      -275.7827
   8   2.0000     -10.133944      -275.7586
   9   2.0000     -10.129168      -275.6287
  10   2.0000     -10.128293      -275.6049
  11   2.0000     -10.127959      -275.5958
  12   2.0000     -10.127149      -275.5737
  13   2.0000     -10.124540      -275.5027
  14   2.0000     -10.087072      -274.4832
  15   2.0000     -10.081245      -274.3246
  16   2.0000     -10.070407      -274.0297
  17   2.0000     -10.062109      -273.8039
  18   2.0000     -10.061397      -273.7845
  19   2.0000      -9.399020      -255.7603
  20   2.0000      -9.398809      -255.7546
  21   2.0000      -9.395529      -255.6653
  22   2.0000      -9.395260      -255.6580
  23   2.0000      -9.395104      -255.6538
  24   2.0000      -9.393599      -255.6128
  25   2.0000      -9.392997      -255.5964
  26   2.0000      -7.145638      -194.4427
  27   2.0000      -7.145424      -194.4369
  28   2.0000      -7.141971      -194.3429
  29   2.0000      -7.141759      -194.3371
  30   2.0000      -7.141672      -194.3348
  31   2.0000      -7.140060      -194.2909
  32   2.0000      -7.139385      -194.2725
  33   2.0000      -7.135352      -194.1628
  34   2.0000      -7.135142      -194.1571
  35   2.0000      -7.134332      -194.1351
  36   2.0000      -7.134120      -194.1293
  37   2.0000      -7.131826      -194.0668
  38   2.0000      -7.131528      -194.0587
  39   2.0000      -7.131446      -194.0565
  40   2.0000      -7.131034      -194.0453
  41   2.0000      -7.130699      -194.0362
  42   2.0000      -7.130466      -194.0298
  43   2.0000      -7.129885      -194.0140
  44   2.0000      -7.129340      -193.9992
  45   2.0000      -7.129073      -193.9919
  46   2.0000      -7.128517      -193.9768
  47   2.0000      -0.925304       -25.1788
  48   2.0000      -0.911900       -24.8141
  49   2.0000      -0.879655       -23.9366
  50   2.0000      -0.865332       -23.5469
  51   2.0000      -0.854082       -23.2408
  52   2.0000      -0.835447       -22.7337
  53   2.0000      -0.826146       -22.4806
  54   2.0000      -0.816039       -22.2056
  55   2.0000      -0.802469       -21.8363
  56   2.0000      -0.748397       -20.3649
  57   2.0000      -0.718205       -19.5433
  58   2.0000      -0.711525       -19.3616
  59   2.0000      -0.695821       -18.9342
  60   2.0000      -0.620821       -16.8934
  61   2.0000      -0.602093       -16.3838
  62   2.0000      -0.592844       -16.1321
  63   2.0000      -0.573281       -15.5998
  64   2.0000      -0.515411       -14.0250
  65   2.0000      -0.508455       -13.8358
  66   2.0000      -0.491892       -13.3850
  67   2.0000      -0.485225       -13.2036
  68   2.0000      -0.463877       -12.6227
  69   2.0000      -0.449969       -12.2443
  70   2.0000      -0.437836       -11.9141
  71   2.0000      -0.433770       -11.8035
  72   2.0000      -0.428827       -11.6690
  73   2.0000      -0.427723       -11.6389
  74   2.0000      -0.419092       -11.4041
  75   2.0000      -0.403987       -10.9931
  76   2.0000      -0.387514       -10.5448
  77   2.0000      -0.377525       -10.2730
  78   2.0000      -0.370170       -10.0728
  79   2.0000      -0.367688       -10.0053
  80   2.0000      -0.356838        -9.7101
  81   2.0000      -0.348875        -9.4934
  82   2.0000      -0.333444        -9.0735
  83   2.0000      -0.326112        -8.8740
  84   2.0000      -0.323306        -8.7976
  85   2.0000      -0.318916        -8.6781
  86   2.0000      -0.314734        -8.5644
  87   2.0000      -0.310559        -8.4507
  88   2.0000      -0.305388        -8.3100
  89   2.0000      -0.302292        -8.2258
  90   2.0000      -0.298523        -8.1232
  91   2.0000      -0.283529        -7.7152
  92   2.0000      -0.281735        -7.6664
  93   2.0000      -0.252797        -6.8790
  94   2.0000      -0.244147        -6.6436
  95   2.0000      -0.239910        -6.5283
  96   2.0000      -0.233480        -6.3533
  97   0.0000      -0.080561        -2.1922
  98   0.0000      -0.070638        -1.9221
  99   0.0000      -0.061501        -1.6735
 100   0.0000      -0.056252        -1.5307
 101   0.0000      -0.051894        -1.4121

MULLIKEN ATOMIC CHARGES
-----------------------
   0 C :   -0.173867
   1 C :   -0.266626
   2 C :    0.167907
   3 C :    0.000631
   4 C :    0.049306
   5 C :    0.127500
   6 C :    0.139221
   7 C :   -0.289948
   8 C :    0.107726
   9 C :    0.089762
  10 C :    0.032425
  11 C :    0.045082
  12 Cl:   -0.081338
  13 Cl:   -0.081776
  14 Cl:   -0.081815
  15 Cl:   -0.103294
  16 Cl:   -0.090084
  17 Cl:   -0.095240
  18 Cl:   -0.111925
  19 H :    0.202258
  20 H :    0.202731
  21 H :    0.211364
Sum of atomic charges:    0.0000000

LOEWDIN ATOMIC CHARGES
----------------------
   0 C :   -0.109216
   1 C :   -0.149629
   2 C :   -0.177401
   3 C :   -0.193717
   4 C :   -0.162881
   5 C :   -0.086025
   6 C :   -0.075710
   7 C :   -0.120706
   8 C :   -0.177711
   9 C :   -0.191456
  10 C :   -0.187124
  11 C :   -0.167685
  12 Cl:    0.187885
  13 Cl:    0.174595
  14 Cl:    0.173870
  15 Cl:    0.162917
  16 Cl:    0.181069
  17 Cl:    0.161057
  18 Cl:    0.153742
  19 H :    0.199190
  20 H :    0.197858
  21 H :    0.207078

  Mayer bond orders larger than 0.100000
B(  0-C ,  1-C ) :   1.3752 B(  0-C ,  5-C ) :   1.4132 B(  0-C , 19-H ) :   0.9344
B(  1-C ,  2-C ) :   1.3262 B(  1-C , 20-H ) :   0.9404 B(  2-C ,  3-C ) :   1.2166
B(  2-C , 18-Cl) :   1.0535 B(  3-C ,  4-C ) :   1.0990 B(  3-C , 17-Cl) :   1.2217
B(  4-C ,  5-C ) :   1.2699 B(  4-C , 16-Cl) :   1.2289 B(  5-C ,  6-C ) :   0.7616
B(  5-C , 11-C ) :  -0.1056 B(  6-C ,  7-C ) :   1.4320 B(  6-C , 11-C ) :   1.2492
B(  7-C ,  8-C ) :   1.3095 B(  7-C , 21-H ) :   0.9118 B(  8-C ,  9-C ) :   1.2153
B(  8-C , 15-Cl) :   1.0809 B(  9-C , 10-C ) :   1.1095 B(  9-C , 14-Cl) :   1.2215
B( 10-C , 11-C ) :   1.0879 B( 10-C , 13-Cl) :   1.2573 B( 11-C , 12-Cl) :   1.2470

Dispersion correction           -0.015820831
FINAL SINGLE POINT ENERGY     -3680.218057444113

DIPOLE MOMENT
-------------

Method             : SCF
Type of density    : Electron Density
Multiplicity       :   1
Irrep              :   0
Energy             : -3680.2155243076108491 Eh
Relativity type    :
Basis              : AO
                                X                 Y                 Z
Electronic contribution:     -4.590221740      -8.104825499       5.059285457
Nuclear contribution   :      4.747002948       9.401732628      -5.918294939
                        -----------------------------------------
Total Dipole Moment    :      0.156781208       1.296907128      -0.859009482
                        -----------------------------------------
Magnitude (a.u.)       :      1.563472333
Magnitude (Debye)      :      3.974030850

Rotational constants in cm-1:             0.013528             0.003655             0.003268
Rotational constants in MHz :           405.552007           109.575012            97.964037

                             ****ORCA TERMINATED NORMALLY****
TOTAL RUN TIME: 0 days 0 hours 1 minutes 42 seconds 949 msec
