                         Program Version 6.0.0  -   RELEASE  -
|  1> ! pbe def2-sv(p) def2/J RI DEFGRID1 loosescf d4 GCP(DFT/SV(P)) printgap
|  2> %output
|  3>     printlevel normal
|  4> end
|  5> * xyz 0 1
|  6> C -2.540310141 -0.6814959287 -0.3916443616
|  7> C -1.1679158573 -0.3327155151 0.2002989424
|  8> H -1.2303622109 -0.3184030956 1.3015743477
|  9> C -0.70869798 1.0608007868 -0.2900712952
| 10> H -0.7162029219 1.0742842142 -1.385135412
| 11> C 0.7240110159 1.3227431621 0.193990304
| 12> H 0.7192254373 1.3882910694 1.2983472545
| 13> C 1.6359855439 0.1546352431 -0.2234092727
| 14> H 1.6663966326 0.108601041 -1.3178763692
| 15> C 1.0460211818 -1.1623022084 0.3201154651
| 16> H 1.015203868 -1.1164675983 1.4245133862
| 17> O -0.2534727009 -1.3378712916 -0.194846709
| 18> O 1.8040201555 -2.2693267448 0.0093840384
| 19> O 2.9591482089 0.3788110182 0.189706127
| 20> O 1.1837022124 2.5374714445 -0.3414192381
| 21> O -1.60954196 2.0586203629 0.1040705763
| 22> O -3.1959622716 -1.7257809612 0.2768391546
| 23> H -2.3912270724 -1.0290589892 -1.415231749
| 24> H -3.1480044256 0.2307534246 -0.4027448093
| 25> H 1.7023469145 -2.4845132647 -0.9307636478
| 26> H 3.0777579257 0.1095788157 1.1120186683
| 27> H 2.1536243517 2.5419616951 -0.2999844098
| 28> H -1.4516255251 2.3094681971 1.0261882097
| 29> H -3.4447277398 -1.4403124483 1.167647554
| 30> *
| 31>
| 32>                          ****END OF INPUT****

CARTESIAN COORDINATES (ANGSTROEM)
---------------------------------
  C     -2.540310   -0.681496   -0.391644
  C     -1.167916   -0.332716    0.200299
  H     -1.230362   -0.318403    1.301574
  C     -0.708698    1.060801   -0.290071
  H     -0.716203    1.074284   -1.385135
  C      0.724011    1.322743    0.193990
  H      0.719225    1.388291    1.298347
  C      1.635986    0.154635   -0.223409
  H      1.666397    0.108601   -1.317876
  C      1.046021   -1.162302    0.320115
  H      1.015204   -1.116468    1.424513
  O     -0.253473   -1.337871   -0.194847
  O      1.804020   -2.269327    0.009384
  O      2.959148    0.378811    0.189706
  O      1.183702    2.537471   -0.341419
  O     -1.609542    2.058620    0.104071
  O     -3.195962   -1.725781    0.276839
  H     -2.391227   -1.029059   -1.415232
  H     -3.148004    0.230753   -0.402745
  H      1.702347   -2.484513   -0.930764
  H      3.077758    0.109579    1.112019
  H      2.153624    2.541962   -0.299984
  H     -1.451626    2.309468    1.026188
  H     -3.444728   -1.440312    1.167648

 Total Charge           Charge          ....    0
 Multiplicity           Mult            ....    1
 Number of Electrons    NEL             ....   96
 Basis Dimension        Dim             ....  192

ORBITAL ENERGIES
----------------

  NO   OCC          E(Eh)            E(eV)
   0   2.0000     -18.777277      -510.9557
   1   2.0000     -18.770504      -510.7714
   2   2.0000     -18.766367      -510.6588
   3   2.0000     -18.759448      -510.4705
   4   2.0000     -18.750649      -510.2311
   5   2.0000     -18.746141      -510.1084
   6   2.0000      -9.996871      -272.0287
   7   2.0000      -9.950177      -270.7581
   8   2.0000      -9.949591      -270.7421
   9   2.0000      -9.948788      -270.7203
  10   2.0000      -9.948714      -270.7183
  11   2.0000      -9.930317      -270.2177
  12   2.0000      -0.991149       -26.9705
  13   2.0000      -0.952237       -25.9117
  14   2.0000      -0.943924       -25.6855
  15   2.0000      -0.926935       -25.2232
  16   2.0000      -0.919836       -25.0300
  17   2.0000      -0.916528       -24.9400
  18   2.0000      -0.708536       -19.2802
  19   2.0000      -0.695803       -18.9338
  20   2.0000      -0.619404       -16.8548
  21   2.0000      -0.592849       -16.1322
  22   2.0000      -0.566424       -15.4132
  23   2.0000      -0.558468       -15.1967
  24   2.0000      -0.508919       -13.8484
  25   2.0000      -0.490632       -13.3508
  26   2.0000      -0.474890       -12.9224
  27   2.0000      -0.461738       -12.5645
  28   2.0000      -0.459825       -12.5125
  29   2.0000      -0.438887       -11.9427
  30   2.0000      -0.431625       -11.7451
  31   2.0000      -0.396943       -10.8014
  32   2.0000      -0.387649       -10.5485
  33   2.0000      -0.378878       -10.3098
  34   2.0000      -0.361035        -9.8243
  35   2.0000      -0.351650        -9.5689
  36   2.0000      -0.331552        -9.0220
  37   2.0000      -0.320658        -8.7256
  38   2.0000      -0.311045        -8.4640
  39   2.0000      -0.300469        -8.1762
  40   2.0000      -0.285745        -7.7755
  41   2.0000      -0.274835        -7.4786
  42   2.0000      -0.264766        -7.2046
  43   2.0000      -0.250773        -6.8239
  44   2.0000      -0.237681        -6.4676
  45   2.0000      -0.228875        -6.2280
  46   2.0000      -0.213721        -5.8156
  47   2.0000      -0.202504        -5.5104
  48   0.0000       0.008646         0.2353
  49   0.0000       0.013678         0.3722
  50   0.0000       0.027278         0.7423
  51   0.0000       0.032758         0.8914
  52   0.0000       0.044206         1.2029

MULLIKEN ATOMIC CHARGES
-----------------------
   0 C :    0.088768
   1 C :    0.000859
   2 H :    0.021621
   3 C :    0.056940
   4 H :    0.070484
   5 C :    0.066624
   6 H :    0.016991
   7 C :    0.018696
   8 H :    0.061749
   9 C :    0.174179
  10 H :    0.037969
  11 O :   -0.293233
  12 O :   -0.367156
  13 O :   -0.407968
  14 O :   -0.402346
  15 O :   -0.401563
  16 O :   -0.428966
  17 H :    0.086215
  18 H :    0.089814
  19 H :    0.308399
  20 H :    0.303914
  21 H :    0.303689
  22 H :    0.301348
  23 H :    0.292972
Sum of atomic charges:   -0.0000000

LOEWDIN ATOMIC CHARGES
----------------------
   0 C :   -0.129438
   1 C :   -0.076987
   2 H :    0.089759
   3 C :   -0.070164
   4 H :    0.123075
   5 C :   -0.085100
   6 H :    0.085034
   7 C :   -0.104066
   8 H :    0.117722
   9 C :   -0.006420
  10 H :    0.089302
  11 O :   -0.146339
  12 O :   -0.285640
  13 O :   -0.307480
  14 O :   -0.320252
  15 O :   -0.300738
  16 O :   -0.330989
  17 H :    0.120291
  18 H :    0.105728
  19 H :    0.293254
  20 H :    0.288652
  21 H :    0.283142
  22 H :    0.286457
  23 H :    0.281195

  Mayer bond orders larger than 0.100000
B(  0-C ,  1-C ) :   1.0301 B(  0-C , 16-O ) :   1.0891 B(  0-C , 17-H ) :   0.9054
B(  0-C , 18-H ) :   0.9152 B(  1-C ,  2-H ) :   0.8678 B(  1-C ,  3-C ) :   0.9558
B(  1-C , 11-O ) :   0.9876 B(  3-C ,  4-H ) :   0.8706 B(  3-C ,  5-C ) :   1.0087
B(  3-C , 15-O ) :   1.0356 B(  5-C ,  6-H ) :   0.8589 B(  5-C ,  7-C ) :   0.9910
B(  5-C , 14-O ) :   1.1232 B(  7-C ,  8-H ) :   0.8594 B(  7-C ,  9-C ) :   0.9709
B(  7-C , 13-O ) :   1.0452 B(  9-C , 10-H ) :   0.8748 B(  9-C , 11-O ) :   1.0180
B(  9-C , 12-O ) :   1.1652 B( 12-O , 19-H ) :   0.8412 B( 13-O , 20-H ) :   0.8432
B( 14-O , 21-H ) :   0.8301 B( 15-O , 22-H ) :   0.8462 B( 16-O , 23-H ) :   0.8545

Dispersion correction           -0.023561211
FINAL SINGLE POINT ENERGY      -685.690781138440

DIPOLE MOMENT
-------------

Method             : SCF
Type of density    : Electron Density
Multiplicity       :   1
Irrep              :   0
Energy             :  -685.8197761680527265 Eh
Relativity type    :
Basis              : AO
                                X                 Y                 Z
Electronic contribution:      2.260816355      -1.007474378      -0.515919776
Nuclear contribution   :     -1.907838530       1.283912768       1.481599172
                        -----------------------------------------
Total Dipole Moment    :      0.352977824       0.276438390       0.965679396
                        -----------------------------------------
Magnitude (a.u.)       :      1.064682217
Magnitude (Debye)      :      2.706207130

Rotational constants in cm-1:             0.039709             0.025239             0.016187
Rotational constants in MHz :          1190.436663           756.639373           485.263462

                             ****ORCA TERMINATED NORMALLY****
TOTAL RUN TIME: 0 days 0 hours 0 minutes 11 seconds 681 msec
