                         Program Version 6.0.0  -   RELEASE  -
|  1> ! wb97x-v def2-tzvp def2/J RIJCOSX DEFGRID2 scfconv7 GCP(DFT/TZ) printgap
|  2> %output
|  3>     printlevel normal
|  4> end
|  5> * xyz 0 1
|  6> C -2.4110127589092842 0.043947677301449974 0.04865012027224665
|  7> C -0.9508648251509977 0.4866025288110253 -0.011625825386066126
|  8> C -0.0013756733997949983 -0.6774979242389012 -0.1425326634677258
|  9> C 1.3322932449776914 -0.6191962114960201 -0.07172086282238606
| 10> C 2.145602730923542 0.6155924790540663 0.14619092945181655
| 11> H -3.080466396947201 0.9040145926340658 0.1458395072315257
| 12> H -2.585833040943911 -0.6174341862586734 0.9041781823046882
| 13> H -2.6930197239194964 -0.5011959716204211 -0.8586452989029973
| 14> H -0.8141586178050617 1.1735422849092056 -0.8582053527555267
| 15> H -0.7066496756678146 1.070392950363902 0.8849954851297324
| 16> H -0.46191139439934664 -1.6506095909462035 -0.3162451163034295
| 17> H 1.8936628128060715 -1.5458451762453507 -0.1875772643473889
| 18> H 2.8251381000552778 0.7854632934998942 -0.6984807183470546
| 19> H 2.781114726843768 0.5139161188547863 1.0346131114488057
| 20> H 1.526451248165793 1.507590775915633 0.2676158975740508
| 21> *
| 22>
| 23>                          ****END OF INPUT****

CARTESIAN COORDINATES (ANGSTROEM)
---------------------------------
  C     -2.411013    0.043948    0.048650
  C     -0.950865    0.486603   -0.011626
  C     -0.001376   -0.677498   -0.142533
  C      1.332293   -0.619196   -0.071721
  C      2.145603    0.615592    0.146191
  H     -3.080466    0.904015    0.145840
  H     -2.585833   -0.617434    0.904178
  H     -2.693020   -0.501196   -0.858645
  H     -0.814159    1.173542   -0.858205
  H     -0.706650    1.070393    0.884995
  H     -0.461911   -1.650610   -0.316245
  H      1.893663   -1.545845   -0.187577
  H      2.825138    0.785463   -0.698481
  H      2.781115    0.513916    1.034613
  H      1.526451    1.507591    0.267616

 Total Charge           Charge          ....    0
 Multiplicity           Mult            ....    1
 Number of Electrons    NEL             ....   40
 Basis Dimension        Dim             ....  215

ORBITAL ENERGIES
----------------

  NO   OCC          E(Eh)            E(eV)
   0   2.0000     -12.044179      -327.7388
   1   2.0000     -12.041272      -327.6597
   2   2.0000     -12.038483      -327.5838
   3   2.0000     -12.037421      -327.5549
   4   2.0000     -12.034756      -327.4824
   5   2.0000      -1.318749       -35.8850
   6   2.0000      -1.256875       -34.2013
   7   2.0000      -1.182006       -32.1640
   8   2.0000      -1.102115       -29.9901
   9   2.0000      -0.990997       -26.9664
  10   2.0000      -0.913111       -24.8470
  11   2.0000      -0.882761       -24.0212
  12   2.0000      -0.866384       -23.5755
  13   2.0000      -0.826449       -22.4888
  14   2.0000      -0.820861       -22.3368
  15   2.0000      -0.810803       -22.0631
  16   2.0000      -0.795764       -21.6538
  17   2.0000      -0.773156       -21.0387
  18   2.0000      -0.762684       -20.7537
  19   2.0000      -0.633890       -17.2490
  20   0.0000      -0.190012        -5.1705
  21   0.0000      -0.036673        -0.9979
  22   0.0000      -0.008855        -0.2410
  23   0.0000       0.003564         0.0970
  24   0.0000       0.010134         0.2757

MULLIKEN ATOMIC CHARGES
-----------------------
   0 C :   -0.355182
   1 C :   -0.127201
   2 C :   -0.190023
   3 C :   -0.118800
   4 C :   -0.313931
   5 H :    0.114212
   6 H :    0.111351
   7 H :    0.109853
   8 H :    0.103640
   9 H :    0.102123
  10 H :    0.109288
  11 H :    0.108308
  12 H :    0.117072
  13 H :    0.116153
  14 H :    0.113137
Sum of atomic charges:    0.0000000

LOEWDIN ATOMIC CHARGES
----------------------
   0 C :   -0.306591
   1 C :   -0.281104
   2 C :   -0.187457
   3 C :   -0.207708
   4 C :   -0.289898
   5 H :    0.115537
   6 H :    0.117283
   7 H :    0.116818
   8 H :    0.138189
   9 H :    0.136949
  10 H :    0.140436
  11 H :    0.136566
  12 H :    0.125167
  13 H :    0.124337
  14 H :    0.121477

  Mayer bond orders larger than 0.100000
B(  0-C ,  1-C ) :   0.9873 B(  0-C ,  5-H ) :   0.9850 B(  0-C ,  6-H ) :   0.9811
B(  0-C ,  7-H ) :   0.9818 B(  1-C ,  2-C ) :   0.9411 B(  1-C ,  8-H ) :   0.9679
B(  1-C ,  9-H ) :   0.9731 B(  2-C ,  3-C ) :   1.9516 B(  2-C , 10-H ) :   0.9676
B(  3-C ,  4-C ) :   0.9534 B(  3-C , 11-H ) :   0.9658 B(  4-C , 12-H ) :   0.9723
B(  4-C , 13-H ) :   0.9735 B(  4-C , 14-H ) :   0.9867

FINAL SINGLE POINT ENERGY      -196.535418727541

DIPOLE MOMENT
-------------

Method             : SCF
Type of density    : Electron Density
Multiplicity       :   1
Irrep              :   0
Energy             :  -196.5450351171410261 Eh
Relativity type    :
Basis              : AO
                                X                 Y                 Z
Electronic contribution:      1.264365550      -1.429638749      -0.295156401
Nuclear contribution   :     -1.241124618       1.559231294       0.305401422
                        -----------------------------------------
Total Dipole Moment    :      0.023240932       0.129592546       0.010245021
                        -----------------------------------------
Magnitude (a.u.)       :      0.132058053
Magnitude (Debye)      :      0.335664894

Rotational constants in cm-1:             0.477087             0.080657             0.071858
Rotational constants in MHz :         14302.702032          2418.022099          2154.258855

                             ****ORCA TERMINATED NORMALLY****
TOTAL RUN TIME: 0 days 0 hours 1 minutes 4 seconds 928 msec
