                         Program Version 6.0.0  -   RELEASE  -
|  1> ! wb97x-v def2-tzvp def2/J RIJCOSX DEFGRID2 scfconv7 GCP(DFT/TZ) printgap
|  2> %output
|  3>     printlevel normal
|  4> end
|  5> %cpcm
|  6>     smd true
|  7>     smdsolvent "water"
|  8> end
|  9> * xyz 0 1
| 10> C -2.4110127589092842 0.043947677301449974 0.04865012027224665
| 11> C -0.9508648251509977 0.4866025288110253 -0.011625825386066126
| 12> C -0.0013756733997949983 -0.6774979242389012 -0.1425326634677258
| 13> C 1.3322932449776914 -0.6191962114960201 -0.07172086282238606
| 14> C 2.145602730923542 0.6155924790540663 0.14619092945181655
| 15> H -3.080466396947201 0.9040145926340658 0.1458395072315257
| 16> H -2.585833040943911 -0.6174341862586734 0.9041781823046882
| 17> H -2.6930197239194964 -0.5011959716204211 -0.8586452989029973
| 18> H -0.8141586178050617 1.1735422849092056 -0.8582053527555267
| 19> H -0.7066496756678146 1.070392950363902 0.8849954851297324
| 20> H -0.46191139439934664 -1.6506095909462035 -0.3162451163034295
| 21> H 1.8936628128060715 -1.5458451762453507 -0.1875772643473889
| 22> H 2.8251381000552778 0.7854632934998942 -0.6984807183470546
| 23> H 2.781114726843768 0.5139161188547863 1.0346131114488057
| 24> H 1.526451248165793 1.507590775915633 0.2676158975740508
| 25> *
| 26>
| 27>                          ****END OF INPUT****

CARTESIAN COORDINATES (ANGSTROEM)
---------------------------------
  C     -2.411013    0.043948    0.048650
  C     -0.950865    0.486603   -0.011626
  C     -0.001376   -0.677498   -0.142533
  C      1.332293   -0.619196   -0.071721
  C      2.145603    0.615592    0.146191
  H     -3.080466    0.904015    0.145840
  H     -2.585833   -0.617434    0.904178
  H     -2.693020   -0.501196   -0.858645
  H     -0.814159    1.173542   -0.858205
  H     -0.706650    1.070393    0.884995
  H     -0.461911   -1.650610   -0.316245
  H      1.893663   -1.545845   -0.187577
  H      2.825138    0.785463   -0.698481
  H      2.781115    0.513916    1.034613
  H      1.526451    1.507591    0.267616

 Total Charge           Charge          ....    0
 Multiplicity           Mult            ....    1
 Number of Electrons    NEL             ....   40
 Basis Dimension        Dim             ....  215

ORBITAL ENERGIES
----------------

  NO   OCC          E(Eh)            E(eV)
   0   2.0000     -12.038686      -327.5893
   1   2.0000     -12.037001      -327.5434
   2   2.0000     -12.034960      -327.4879
   3   2.0000     -12.030566      -327.3684
   4   2.0000     -12.026472      -327.2569
   5   2.0000      -1.315467       -35.7957
   6   2.0000      -1.250728       -34.0341
   7   2.0000      -1.176659       -32.0185
   8   2.0000      -1.095934       -29.8219
   9   2.0000      -0.985917       -26.8282
  10   2.0000      -0.908969       -24.7343
  11   2.0000      -0.877610       -23.8810
  12   2.0000      -0.859208       -23.3803
  13   2.0000      -0.819757       -22.3067
  14   2.0000      -0.813695       -22.1418
  15   2.0000      -0.804279       -21.8855
  16   2.0000      -0.789044       -21.4710
  17   2.0000      -0.765687       -20.8354
  18   2.0000      -0.756814       -20.5940
  19   2.0000      -0.632788       -17.2190
  20   0.0000      -0.188615        -5.1325
  21   0.0000      -0.030351        -0.8259
  22   0.0000      -0.002008        -0.0546
  23   0.0000       0.012347         0.3360
  24   0.0000       0.017802         0.4844

MULLIKEN ATOMIC CHARGES
-----------------------
   0 C :   -0.394556
   1 C :   -0.129860
   2 C :   -0.259315
   3 C :   -0.166313
   4 C :   -0.354953
   5 H :    0.130973
   6 H :    0.122789
   7 H :    0.123237
   8 H :    0.117282
   9 H :    0.118929
  10 H :    0.143225
  11 H :    0.144084
  12 H :    0.135558
  13 H :    0.134379
  14 H :    0.134542
Sum of atomic charges:    0.0000000

LOEWDIN ATOMIC CHARGES
----------------------
   0 C :   -0.311992
   1 C :   -0.282218
   2 C :   -0.201203
   3 C :   -0.220755
   4 C :   -0.294671
   5 H :    0.118326
   6 H :    0.118948
   7 H :    0.119112
   8 H :    0.141821
   9 H :    0.141248
  10 H :    0.145504
  11 H :    0.142105
  12 H :    0.129461
  13 H :    0.128634
  14 H :    0.125682

  Mayer bond orders larger than 0.100000
B(  0-C ,  1-C ) :   0.9817 B(  0-C ,  5-H ) :   0.9824 B(  0-C ,  6-H ) :   0.9784
B(  0-C ,  7-H ) :   0.9786 B(  1-C ,  2-C ) :   0.9385 B(  1-C ,  8-H ) :   0.9641
B(  1-C ,  9-H ) :   0.9716 B(  2-C ,  3-C ) :   1.9274 B(  2-C , 10-H ) :   0.9685
B(  3-C ,  4-C ) :   0.9525 B(  3-C , 11-H ) :   0.9666 B(  4-C , 12-H ) :   0.9670
B(  4-C , 13-H ) :   0.9681 B(  4-C , 14-H ) :   0.9848

FINAL SINGLE POINT ENERGY      -196.533965802373

DIPOLE MOMENT
-------------

Method             : SCF
Type of density    : Electron Density
Multiplicity       :   1
Irrep              :   0
Energy             :  -196.5435821919725754 Eh
Relativity type    :
Basis              : AO
                                X                 Y                 Z
Electronic contribution:      1.279645123      -1.366880719      -0.290939609
Nuclear contribution   :     -1.241124618       1.559231294       0.305401422
                        -----------------------------------------
Total Dipole Moment    :      0.038520505       0.192350576       0.014461813
                        -----------------------------------------
Magnitude (a.u.)       :      0.196702103
Magnitude (Debye)      :      0.499977012

Rotational constants in cm-1:             0.477087             0.080657             0.071858
Rotational constants in MHz :         14302.702032          2418.022099          2154.258855

                             ****ORCA TERMINATED NORMALLY****
TOTAL RUN TIME: 0 days 0 hours 1 minutes 3 seconds 9 msec
