                         Program Version 6.0.0  -   RELEASE  -
|  1> ! pbe def2-sv(p) def2/J RI DEFGRID1 loosescf d4 GCP(DFT/SV(P)) printgap
|  2> %output
|  3>     printlevel normal
|  4> end
|  5> * xyz 0 1
|  6> C -2.4090251713 -1.1391648853 -0.2899940862
|  7> C -1.0649159434 -0.6141705628 0.2416464688
|  8> H -1.0963343925 -0.6038467434 1.3431187738
|  9> C -0.7653014347 0.8101461328 -0.2751838531
| 10> H -0.7831719088 0.7843217848 -1.3724126281
| 11> C 0.6318220228 1.2268344438 0.2010646445
| 12> H 0.6435961108 1.2837972858 1.2974767654
| 13> C 1.6711231812 0.175454083 -0.2286674435
| 14> H 1.7271232909 0.1453753582 -1.3299177567
| 15> C 1.2316816457 -1.2159429199 0.2728529465
| 16> H 1.2518885673 -1.2138976772 1.3745705822
| 17> O -0.0667296152 -1.5101239614 -0.2041656288
| 18> O 2.0698710934 -2.2316976693 -0.1201667343
| 19> O 2.9322787021 0.4634818635 0.3136867473
| 20> O 1.0047163869 2.5112180549 -0.2323487314
| 21> O -1.7571976547 1.7336008873 0.0945153728
| 22> O -3.5088173929 -0.4793147305 0.2733287852
| 23> H -2.4995640341 -2.1930091954 -0.0196680252
| 24> H -2.4126829665 -1.0584648041 -1.3843191887
| 25> H 2.0083705994 -2.3582538408 -1.0806370611
| 26> H 3.0989494306 1.4154595658 0.2130490644
| 27> H 0.82606673 2.6114541588 -1.1788682263
| 28> H -1.6350087152 2.0034179035 1.0163284141
| 29> H -3.4334302243 0.4695981533 0.072281278
| 30> *
| 31>
| 32>                          ****END OF INPUT****

CARTESIAN COORDINATES (ANGSTROEM)
---------------------------------
  C     -2.409025   -1.139165   -0.289994
  C     -1.064916   -0.614171    0.241646
  H     -1.096334   -0.603847    1.343119
  C     -0.765301    0.810146   -0.275184
  H     -0.783172    0.784322   -1.372413
  C      0.631822    1.226834    0.201065
  H      0.643596    1.283797    1.297477
  C      1.671123    0.175454   -0.228667
  H      1.727123    0.145375   -1.329918
  C      1.231682   -1.215943    0.272853
  H      1.251889   -1.213898    1.374571
  O     -0.066730   -1.510124   -0.204166
  O      2.069871   -2.231698   -0.120167
  O      2.932279    0.463482    0.313687
  O      1.004716    2.511218   -0.232349
  O     -1.757198    1.733601    0.094515
  O     -3.508817   -0.479315    0.273329
  H     -2.499564   -2.193009   -0.019668
  H     -2.412683   -1.058465   -1.384319
  H      2.008371   -2.358254   -1.080637
  H      3.098949    1.415460    0.213049
  H      0.826067    2.611454   -1.178868
  H     -1.635009    2.003418    1.016328
  H     -3.433430    0.469598    0.072281

 Total Charge           Charge          ....    0
 Multiplicity           Mult            ....    1
 Number of Electrons    NEL             ....   96
 Basis Dimension        Dim             ....  192

ORBITAL ENERGIES
----------------

  NO   OCC          E(Eh)            E(eV)
   0   2.0000     -18.782088      -511.0866
   1   2.0000     -18.778876      -510.9992
   2   2.0000     -18.774979      -510.8932
   3   2.0000     -18.760110      -510.4885
   4   2.0000     -18.754919      -510.3473
   5   2.0000     -18.740492      -509.9547
   6   2.0000      -9.991474      -271.8818
   7   2.0000      -9.961382      -271.0630
   8   2.0000      -9.959921      -271.0232
   9   2.0000      -9.950372      -270.7634
  10   2.0000      -9.948706      -270.7180
  11   2.0000      -9.931691      -270.2550
  12   2.0000      -0.988859       -26.9082
  13   2.0000      -0.966738       -26.3063
  14   2.0000      -0.950281       -25.8585
  15   2.0000      -0.927905       -25.2496
  16   2.0000      -0.921226       -25.0678
  17   2.0000      -0.914294       -24.8792
  18   2.0000      -0.715281       -19.4638
  19   2.0000      -0.695314       -18.9205
  20   2.0000      -0.619582       -16.8597
  21   2.0000      -0.600004       -16.3269
  22   2.0000      -0.570285       -15.5182
  23   2.0000      -0.556558       -15.1447
  24   2.0000      -0.512698       -13.9512
  25   2.0000      -0.489435       -13.3182
  26   2.0000      -0.481554       -13.1038
  27   2.0000      -0.462607       -12.5882
  28   2.0000      -0.459998       -12.5172
  29   2.0000      -0.436762       -11.8849
  30   2.0000      -0.428570       -11.6620
  31   2.0000      -0.422004       -11.4833
  32   2.0000      -0.397483       -10.8160
  33   2.0000      -0.372074       -10.1247
  34   2.0000      -0.364529        -9.9193
  35   2.0000      -0.361490        -9.8366
  36   2.0000      -0.334111        -9.0916
  37   2.0000      -0.315966        -8.5979
  38   2.0000      -0.314303        -8.5526
  39   2.0000      -0.300605        -8.1799
  40   2.0000      -0.292089        -7.9482
  41   2.0000      -0.290098        -7.8940
  42   2.0000      -0.267256        -7.2724
  43   2.0000      -0.254845        -6.9347
  44   2.0000      -0.234014        -6.3678
  45   2.0000      -0.224887        -6.1195
  46   2.0000      -0.221828        -6.0363
  47   2.0000      -0.208078        -5.6621
  48   0.0000       0.002747         0.0747
  49   0.0000       0.004563         0.1242
  50   0.0000       0.035951         0.9783
  51   0.0000       0.037942         1.0325
  52   0.0000       0.044532         1.2118

MULLIKEN ATOMIC CHARGES
-----------------------
   0 C :    0.105715
   1 C :   -0.018741
   2 H :    0.051376
   3 C :    0.041054
   4 H :    0.053568
   5 C :    0.033582
   6 H :    0.058522
   7 C :    0.045844
   8 H :    0.024352
   9 C :    0.207917
  10 H :    0.056354
  11 O :   -0.303874
  12 O :   -0.364595
  13 O :   -0.402345
  14 O :   -0.408065
  15 O :   -0.411337
  16 O :   -0.448164
  17 H :    0.096585
  18 H :    0.062478
  19 H :    0.302329
  20 H :    0.303494
  21 H :    0.305845
  22 H :    0.312909
  23 H :    0.295196
Sum of atomic charges:   -0.0000000

LOEWDIN ATOMIC CHARGES
----------------------
   0 C :   -0.118855
   1 C :   -0.077681
   2 H :    0.101588
   3 C :   -0.085403
   4 H :    0.111729
   5 C :   -0.092700
   6 H :    0.114003
   7 C :   -0.096943
   8 H :    0.091224
   9 C :    0.007503
  10 H :    0.102203
  11 O :   -0.152400
  12 O :   -0.277101
  13 O :   -0.314463
  14 O :   -0.310623
  15 O :   -0.299694
  16 O :   -0.342164
  17 H :    0.118640
  18 H :    0.096190
  19 H :    0.288508
  20 H :    0.283413
  21 H :    0.289929
  22 H :    0.293533
  23 H :    0.269564

  Mayer bond orders larger than 0.100000
B(  0-C ,  1-C ) :   1.0270 B(  0-C , 16-O ) :   1.0907 B(  0-C , 17-H ) :   0.9219
B(  0-C , 18-H ) :   0.9086 B(  1-C ,  2-H ) :   0.8749 B(  1-C ,  3-C ) :   0.9834
B(  1-C , 11-O ) :   0.9834 B(  3-C ,  4-H ) :   0.8631 B(  3-C ,  5-C ) :   1.0140
B(  3-C , 15-O ) :   1.0277 B(  5-C ,  6-H ) :   0.8632 B(  5-C ,  7-C ) :   1.0010
B(  5-C , 14-O ) :   1.0535 B(  7-C ,  8-H ) :   0.8558 B(  7-C ,  9-C ) :   0.9697
B(  7-C , 13-O ) :   1.0980 B(  9-C , 10-H ) :   0.8789 B(  9-C , 11-O ) :   0.9993
B(  9-C , 12-O ) :   1.1665 B( 12-O , 19-H ) :   0.8423 B( 13-O , 20-H ) :   0.8311
B( 14-O , 21-H ) :   0.8456 B( 15-O , 22-H ) :   0.8379 B( 16-O , 23-H ) :   0.8186

Dispersion correction           -0.023885004
FINAL SINGLE POINT ENERGY      -685.697706265881

DIPOLE MOMENT
-------------

Method             : SCF
Type of density    : Electron Density
Multiplicity       :   1
Irrep              :   0
Energy             :  -685.8281781594872655 Eh
Relativity type    :
Basis              : AO
                                X                 Y                 Z
Electronic contribution:      2.299309674      -0.200387574       0.305451049
Nuclear contribution   :     -2.151742485       1.213658785      -0.982288999
                        -----------------------------------------
Total Dipole Moment    :      0.147567189       1.013271211      -0.676837950
                        -----------------------------------------
Magnitude (a.u.)       :      1.227438077
Magnitude (Debye)      :      3.119899650

Rotational constants in cm-1:             0.043297             0.024515             0.016382
Rotational constants in MHz :          1297.999209           734.954137           491.122923

                             ****ORCA TERMINATED NORMALLY****
TOTAL RUN TIME: 0 days 0 hours 0 minutes 11 seconds 851 msec
