                         Program Version 6.0.0  -   RELEASE  -
|  1> ! wb97x-v def2-tzvp def2/J RIJCOSX DEFGRID2 scfconv7 GCP(DFT/TZ) printgap
|  2> %output
|  3>     printlevel normal
|  4> end
|  5> * xyz 0 1
|  6> C -2.6241507994033424 0.0037315266996118825 -0.4031880064396364
|  7> O -1.336329924171155 0.5801618569870836 -0.05103508509470107
|  8> C -0.4737667127968643 -0.24909327987760557 0.5451466426050582
|  9> O -0.7093084831046133 -1.4090483637243136 0.8240668065399842
| 10> C 0.8453949083402044 0.43002376015510346 0.8182973378947812
| 11> Cl 1.8766917580730265 0.2458324820248283 -0.6762079187302673
| 12> H -3.1322161198110194 -0.34919886338149503 0.4964453848833694
| 13> H -2.4815944354371857 -0.8186317267169216 -1.1073059226339552
| 14> H -3.1829322978798023 0.8145749776877719 -0.866722108993466
| 15> H 1.3618987687371176 -0.06977464276498543 1.6360023404215212
| 16> H 0.7288882617484396 1.4967690254023434 1.0071272057899547
| 17> *
| 18>
| 19>                          ****END OF INPUT****

CARTESIAN COORDINATES (ANGSTROEM)
---------------------------------
  C     -2.624151    0.003732   -0.403188
  O     -1.336330    0.580162   -0.051035
  C     -0.473767   -0.249093    0.545147
  O     -0.709308   -1.409048    0.824067
  C      0.845395    0.430024    0.818297
  Cl     1.876692    0.245832   -0.676208
  H     -3.132216   -0.349199    0.496445
  H     -2.481594   -0.818632   -1.107306
  H     -3.182932    0.814575   -0.866722
  H      1.361899   -0.069775    1.636002
  H      0.728888    1.496769    1.007127

 Total Charge           Charge          ....    0
 Multiplicity           Mult            ....    1
 Number of Electrons    NEL             ....   56
 Basis Dimension        Dim             ....  222

ORBITAL ENERGIES
----------------

  NO   OCC          E(Eh)            E(eV)
   0   2.0000    -107.145434     -2915.5755
   1   2.0000     -21.736266      -591.4739
   2   2.0000     -21.672768      -589.7460
   3   2.0000     -12.196006      -331.8702
   4   2.0000     -12.130839      -330.0969
   5   2.0000     -12.114297      -329.6468
   6   2.0000     -11.298246      -307.4409
   7   2.0000      -9.089718      -247.3438
   8   2.0000      -9.086917      -247.2676
   9   2.0000      -9.086891      -247.2669
  10   2.0000      -1.777126       -48.3580
  11   2.0000      -1.710626       -46.5485
  12   2.0000      -1.411333       -38.4043
  13   2.0000      -1.310569       -35.6624
  14   2.0000      -1.224463       -33.3193
  15   2.0000      -1.134441       -30.8697
  16   2.0000      -1.078525       -29.3482
  17   2.0000      -1.028693       -27.9921
  18   2.0000      -1.012909       -27.5627
  19   2.0000      -0.962153       -26.1815
  20   2.0000      -0.920771       -25.0555
  21   2.0000      -0.903627       -24.5889
  22   2.0000      -0.884241       -24.0614
  23   2.0000      -0.877610       -23.8810
  24   2.0000      -0.853699       -23.2303
  25   2.0000      -0.837692       -22.7948
  26   2.0000      -0.785781       -21.3822
  27   2.0000      -0.779553       -21.2127
  28   0.0000      -0.360359        -9.8059
  29   0.0000      -0.235938        -6.4202
  30   0.0000      -0.195142        -5.3101
  31   0.0000      -0.118543        -3.2257
  32   0.0000      -0.037001        -1.0069

MULLIKEN ATOMIC CHARGES
-----------------------
   0 C :   -0.185761
   1 O :   -0.234254
   2 C :    0.307806
   3 O :   -0.336588
   4 C :   -0.118431
   5 Cl:   -0.130337
   6 H :    0.134292
   7 H :    0.137884
   8 H :    0.134117
   9 H :    0.150102
  10 H :    0.141170
Sum of atomic charges:    0.0000000

LOEWDIN ATOMIC CHARGES
----------------------
   0 C :   -0.276006
   1 O :    0.236112
   2 C :   -0.523014
   3 O :    0.101607
   4 C :   -0.406694
   5 Cl:    0.263803
   6 H :    0.112729
   7 H :    0.114383
   8 H :    0.111916
   9 H :    0.134509
  10 H :    0.130655

  Mayer bond orders larger than 0.100000
B(  0-C ,  1-O ) :   0.8952 B(  0-C ,  6-H ) :   0.9764 B(  0-C ,  7-H ) :   0.9766
B(  0-C ,  8-H ) :   0.9706 B(  1-O ,  2-C ) :   1.2177 B(  2-C ,  3-O ) :   2.0468
B(  2-C ,  4-C ) :   0.9562 B(  4-C ,  5-Cl) :   1.0460 B(  4-C ,  9-H ) :   0.9679
B(  4-C , 10-H ) :   0.9633

FINAL SINGLE POINT ENERGY      -727.942945851407

DIPOLE MOMENT
-------------

Method             : SCF
Type of density    : Electron Density
Multiplicity       :   1
Irrep              :   0
Energy             :  -727.9502782014066042 Eh
Relativity type    :
Basis              : AO
                                X                 Y                 Z
Electronic contribution:      8.200567999       0.023553254      -1.767457619
Nuclear contribution   :     -8.840269196       0.703912459       1.978208306
                        -----------------------------------------
Total Dipole Moment    :     -0.639701197       0.727465713       0.210750687
                        -----------------------------------------
Magnitude (a.u.)       :      0.991382790
Magnitude (Debye)      :      2.519894794

Rotational constants in cm-1:             0.196659             0.053271             0.047970
Rotational constants in MHz :          5895.684841          1597.010411          1438.111149

                             ****ORCA TERMINATED NORMALLY****
TOTAL RUN TIME: 0 days 0 hours 1 minutes 15 seconds 991 msec
