                         Program Version 6.0.0  -   RELEASE  -
|  1> ! wb97x-v def2-tzvp def2/J RIJCOSX DEFGRID2 scfconv7 GCP(DFT/TZ) printgap
|  2> %output
|  3>     printlevel normal
|  4> end
|  5> %cpcm
|  6>     smd true
|  7>     smdsolvent "water"
|  8> end
|  9> * xyz 0 1
| 10> C -2.6241507994033424 0.0037315266996118825 -0.4031880064396364
| 11> O -1.336329924171155 0.5801618569870836 -0.05103508509470107
| 12> C -0.4737667127968643 -0.24909327987760557 0.5451466426050582
| 13> O -0.7093084831046133 -1.4090483637243136 0.8240668065399842
| 14> C 0.8453949083402044 0.43002376015510346 0.8182973378947812
| 15> Cl 1.8766917580730265 0.2458324820248283 -0.6762079187302673
| 16> H -3.1322161198110194 -0.34919886338149503 0.4964453848833694
| 17> H -2.4815944354371857 -0.8186317267169216 -1.1073059226339552
| 18> H -3.1829322978798023 0.8145749776877719 -0.866722108993466
| 19> H 1.3618987687371176 -0.06977464276498543 1.6360023404215212
| 20> H 0.7288882617484396 1.4967690254023434 1.0071272057899547
| 21> *
| 22>
| 23>                          ****END OF INPUT****

CARTESIAN COORDINATES (ANGSTROEM)
---------------------------------
  C     -2.624151    0.003732   -0.403188
  O     -1.336330    0.580162   -0.051035
  C     -0.473767   -0.249093    0.545147
  O     -0.709308   -1.409048    0.824067
  C      0.845395    0.430024    0.818297
  Cl     1.876692    0.245832   -0.676208
  H     -3.132216   -0.349199    0.496445
  H     -2.481594   -0.818632   -1.107306
  H     -3.182932    0.814575   -0.866722
  H      1.361899   -0.069775    1.636002
  H      0.728888    1.496769    1.007127

 Total Charge           Charge          ....    0
 Multiplicity           Mult            ....    1
 Number of Electrons    NEL             ....   56
 Basis Dimension        Dim             ....  222

ORBITAL ENERGIES
----------------

  NO   OCC          E(Eh)            E(eV)
   0   2.0000    -107.146154     -2915.5951
   1   2.0000     -21.734666      -591.4303
   2   2.0000     -21.680408      -589.9539
   3   2.0000     -12.200496      -331.9924
   4   2.0000     -12.120477      -329.8150
   5   2.0000     -12.096521      -329.1631
   6   2.0000     -11.299086      -307.4638
   7   2.0000      -9.090519      -247.3656
   8   2.0000      -9.087839      -247.2927
   9   2.0000      -9.087819      -247.2921
  10   2.0000      -1.777978       -48.3812
  11   2.0000      -1.716368       -46.7047
  12   2.0000      -1.410659       -38.3860
  13   2.0000      -1.304780       -35.5049
  14   2.0000      -1.216366       -33.0990
  15   2.0000      -1.134327       -30.8666
  16   2.0000      -1.083067       -29.4718
  17   2.0000      -1.022520       -27.8242
  18   2.0000      -1.009580       -27.4721
  19   2.0000      -0.960996       -26.1500
  20   2.0000      -0.927039       -25.2260
  21   2.0000      -0.894422       -24.3385
  22   2.0000      -0.883742       -24.0479
  23   2.0000      -0.881462       -23.9858
  24   2.0000      -0.837230       -22.7822
  25   2.0000      -0.822366       -22.3777
  26   2.0000      -0.786921       -21.4132
  27   2.0000      -0.779320       -21.2064
  28   0.0000      -0.359426        -9.7805
  29   0.0000      -0.232008        -6.3133
  30   0.0000      -0.182386        -4.9630
  31   0.0000      -0.115454        -3.1417
  32   0.0000      -0.030618        -0.8332

MULLIKEN ATOMIC CHARGES
-----------------------
   0 C :   -0.223352
   1 O :   -0.252204
   2 C :    0.384430
   3 O :   -0.444906
   4 C :   -0.140001
   5 Cl:   -0.166382
   6 H :    0.155724
   7 H :    0.155953
   8 H :    0.161308
   9 H :    0.184715
  10 H :    0.184716
Sum of atomic charges:    0.0000000

LOEWDIN ATOMIC CHARGES
----------------------
   0 C :   -0.271562
   1 O :    0.235218
   2 C :   -0.504545
   3 O :    0.044208
   4 C :   -0.392220
   5 Cl:    0.240529
   6 H :    0.118308
   7 H :    0.118651
   8 H :    0.121210
   9 H :    0.145300
  10 H :    0.144903

  Mayer bond orders larger than 0.100000
B(  0-C ,  1-O ) :   0.8686 B(  0-C ,  6-H ) :   0.9711 B(  0-C ,  7-H ) :   0.9709
B(  0-C ,  8-H ) :   0.9654 B(  1-O ,  2-C ) :   1.2401 B(  2-C ,  3-O ) :   1.9367
B(  2-C ,  4-C ) :   0.9627 B(  4-C ,  5-Cl) :   1.0055 B(  4-C ,  9-H ) :   0.9579
B(  4-C , 10-H ) :   0.9548

FINAL SINGLE POINT ENERGY      -727.950667165977

DIPOLE MOMENT
-------------

Method             : SCF
Type of density    : Electron Density
Multiplicity       :   1
Irrep              :   0
Energy             :  -727.9579995159772352 Eh
Relativity type    :
Basis              : AO
                                X                 Y                 Z
Electronic contribution:      8.053603338       0.338651956      -1.652255571
Nuclear contribution   :     -8.840269196       0.703912459       1.978208306
                        -----------------------------------------
Total Dipole Moment    :     -0.786665858       1.042564414       0.325952735
                        -----------------------------------------
Magnitude (a.u.)       :      1.346116234
Magnitude (Debye)      :      3.421555552

Rotational constants in cm-1:             0.196659             0.053271             0.047970
Rotational constants in MHz :          5895.684841          1597.010411          1438.111149

                             ****ORCA TERMINATED NORMALLY****
TOTAL RUN TIME: 0 days 0 hours 1 minutes 17 seconds 788 msec
