                         Program Version 6.0.0  -   RELEASE  -
|  1> ! pbe def2-sv(p) def2/J RI DEFGRID1 loosescf d4 GCP(DFT/SV(P)) printgap
|  2> %output
|  3>     printlevel normal
|  4> end
|  5> * xyz 0 1
|  6> C -2.4376461927 -0.688952567 0.0306748239
|  7> C -1.0062984099 -0.2441613702 0.356066801
|  8> H -0.9344581536 0.0065839808 1.4237541135
|  9> C -0.5534328209 0.9621488693 -0.4759365263
| 10> H -0.5872970143 0.6701668069 -1.5371753612
| 11> C 0.9025005947 1.3273585347 -0.1111278285
| 12> H 0.859419457 2.1449863198 0.6197583937
| 13> C 1.6534895999 0.1577381238 0.549763317
| 14> H 2.7209963547 0.2939381554 0.3249635611
| 15> C 1.1971099999 -1.154796404 -0.1033657294
| 16> H 1.6834079769 -2.0255380155 0.3579719648
| 17> O -0.1829359624 -1.3789046742 0.0779025564
| 18> O 1.5527226647 -1.1930462291 -1.450932758
| 19> O 1.4149802667 0.1897339679 1.9313330639
| 20> O 1.6354980017 1.6926660893 -1.2574865581
| 21> O -1.3251638369 2.1161028864 -0.2526720583
| 22> O -2.8251224967 -1.7973473241 0.8002144719
| 23> H -2.500474361 -0.9284735908 -1.0401159275
| 24> H -3.1432108878 0.1054020345 0.278362499
| 25> H 1.5751628099 -0.2948187056 -1.8265983071
| 26> H 1.994144178 -0.4398111263 2.3846861442
| 27> H 1.317011884 2.5440770796 -1.5909436734
| 28> H -2.2123729218 2.0090400246 -0.6212043965
| 29> H -2.146952208 -2.4816962915 0.7012551621
| 30> *
| 31>
| 32>                          ****END OF INPUT****

CARTESIAN COORDINATES (ANGSTROEM)
---------------------------------
  C     -2.437646   -0.688953    0.030675
  C     -1.006298   -0.244161    0.356067
  H     -0.934458    0.006584    1.423754
  C     -0.553433    0.962149   -0.475937
  H     -0.587297    0.670167   -1.537175
  C      0.902501    1.327359   -0.111128
  H      0.859419    2.144986    0.619758
  C      1.653490    0.157738    0.549763
  H      2.720996    0.293938    0.324964
  C      1.197110   -1.154796   -0.103366
  H      1.683408   -2.025538    0.357972
  O     -0.182936   -1.378905    0.077903
  O      1.552723   -1.193046   -1.450933
  O      1.414980    0.189734    1.931333
  O      1.635498    1.692666   -1.257487
  O     -1.325164    2.116103   -0.252672
  O     -2.825122   -1.797347    0.800214
  H     -2.500474   -0.928474   -1.040116
  H     -3.143211    0.105402    0.278362
  H      1.575163   -0.294819   -1.826598
  H      1.994144   -0.439811    2.384686
  H      1.317012    2.544077   -1.590944
  H     -2.212373    2.009040   -0.621204
  H     -2.146952   -2.481696    0.701255

 Total Charge           Charge          ....    0
 Multiplicity           Mult            ....    1
 Number of Electrons    NEL             ....   96
 Basis Dimension        Dim             ....  192

ORBITAL ENERGIES
----------------

  NO   OCC          E(Eh)            E(eV)
   0   2.0000     -18.777605      -510.9646
   1   2.0000     -18.768192      -510.7085
   2   2.0000     -18.766703      -510.6680
   3   2.0000     -18.764230      -510.6007
   4   2.0000     -18.747924      -510.1569
   5   2.0000     -18.737388      -509.8702
   6   2.0000      -9.982939      -271.6496
   7   2.0000      -9.955353      -270.8989
   8   2.0000      -9.953356      -270.8446
   9   2.0000      -9.949567      -270.7415
  10   2.0000      -9.935672      -270.3634
  11   2.0000      -9.931401      -270.2472
  12   2.0000      -0.977123       -26.5889
  13   2.0000      -0.953477       -25.9454
  14   2.0000      -0.942094       -25.6357
  15   2.0000      -0.938551       -25.5393
  16   2.0000      -0.918808       -25.0020
  17   2.0000      -0.899855       -24.4863
  18   2.0000      -0.712574       -19.3901
  19   2.0000      -0.689545       -18.7635
  20   2.0000      -0.621613       -16.9150
  21   2.0000      -0.595823       -16.2132
  22   2.0000      -0.562512       -15.3067
  23   2.0000      -0.525711       -14.3053
  24   2.0000      -0.513456       -13.9718
  25   2.0000      -0.492281       -13.3957
  26   2.0000      -0.484091       -13.1728
  27   2.0000      -0.463532       -12.6133
  28   2.0000      -0.444291       -12.0898
  29   2.0000      -0.441280       -12.0079
  30   2.0000      -0.425640       -11.5823
  31   2.0000      -0.391536       -10.6542
  32   2.0000      -0.382988       -10.4216
  33   2.0000      -0.378181       -10.2908
  34   2.0000      -0.369572       -10.0566
  35   2.0000      -0.351715        -9.5707
  36   2.0000      -0.328572        -8.9409
  37   2.0000      -0.322937        -8.7876
  38   2.0000      -0.315316        -8.5802
  39   2.0000      -0.290458        -7.9038
  40   2.0000      -0.282041        -7.6747
  41   2.0000      -0.272111        -7.4045
  42   2.0000      -0.252281        -6.8649
  43   2.0000      -0.250719        -6.8224
  44   2.0000      -0.237814        -6.4712
  45   2.0000      -0.225094        -6.1251
  46   2.0000      -0.212036        -5.7698
  47   2.0000      -0.206524        -5.6198
  48   0.0000       0.004211         0.1146
  49   0.0000       0.012283         0.3342
  50   0.0000       0.024255         0.6600
  51   0.0000       0.050879         1.3845
  52   0.0000       0.059526         1.6198

MULLIKEN ATOMIC CHARGES
-----------------------
   0 C :    0.078915
   1 C :    0.035688
   2 H :    0.074409
   3 C :    0.030329
   4 H :    0.041110
   5 C :    0.042403
   6 H :    0.087378
   7 C :   -0.006747
   8 H :    0.088153
   9 C :    0.199360
  10 H :    0.052013
  11 O :   -0.326281
  12 O :   -0.401025
  13 O :   -0.403635
  14 O :   -0.417161
  15 O :   -0.413534
  16 O :   -0.436811
  17 H :    0.063823
  18 H :    0.067512
  19 H :    0.304734
  20 H :    0.310847
  21 H :    0.316482
  22 H :    0.309462
  23 H :    0.302575
Sum of atomic charges:    0.0000000

LOEWDIN ATOMIC CHARGES
----------------------
   0 C :   -0.128944
   1 C :   -0.082440
   2 H :    0.114712
   3 C :   -0.083443
   4 H :    0.099692
   5 C :   -0.062132
   6 H :    0.123754
   7 C :   -0.090248
   8 H :    0.114916
   9 C :   -0.005620
  10 H :    0.098458
  11 O :   -0.155218
  12 O :   -0.312462
  13 O :   -0.305365
  14 O :   -0.311440
  15 O :   -0.315646
  16 O :   -0.336143
  17 H :    0.095981
  18 H :    0.107032
  19 H :    0.272229
  20 H :    0.294036
  21 H :    0.297397
  22 H :    0.288235
  23 H :    0.282658

  Mayer bond orders larger than 0.100000
B(  0-C ,  1-C ) :   1.0422 B(  0-C , 16-O ) :   1.0911 B(  0-C , 17-H ) :   0.9039
B(  0-C , 18-H ) :   0.9118 B(  1-C ,  2-H ) :   0.8522 B(  1-C ,  3-C ) :   1.0601
B(  1-C , 11-O ) :   0.9624 B(  3-C ,  4-H ) :   0.8474 B(  3-C ,  5-C ) :   1.0265
B(  3-C , 15-O ) :   1.0752 B(  5-C ,  6-H ) :   0.8563 B(  5-C ,  7-C ) :   1.0165
B(  5-C , 14-O ) :   1.0435 B(  7-C ,  8-H ) :   0.8900 B(  7-C ,  9-C ) :   1.0146
B(  7-C , 13-O ) :   1.0460 B(  9-C , 10-H ) :   0.9012 B(  9-C , 11-O ) :   1.0457
B(  9-C , 12-O ) :   1.1419 B( 12-O , 19-H ) :   0.8087 B( 13-O , 20-H ) :   0.8444
B( 14-O , 21-H ) :   0.8408 B( 15-O , 22-H ) :   0.8403 B( 16-O , 23-H ) :   0.8397

Dispersion correction           -0.024699873
FINAL SINGLE POINT ENERGY      -685.691440766198

DIPOLE MOMENT
-------------

Method             : SCF
Type of density    : Electron Density
Multiplicity       :   1
Irrep              :   0
Energy             :  -685.8227443655912339 Eh
Relativity type    :
Basis              : AO
                                X                 Y                 Z
Electronic contribution:      1.742155355      -0.685804271       0.269423648
Nuclear contribution   :     -1.285630519       1.499197259      -0.495053955
                        -----------------------------------------
Total Dipole Moment    :      0.456524836       0.813392989      -0.225630307
                        -----------------------------------------
Magnitude (a.u.)       :      0.959652081
Magnitude (Debye)      :      2.439241739

Rotational constants in cm-1:             0.040396             0.025954             0.021507
Rotational constants in MHz :          1211.049387           778.086731           644.773869

                             ****ORCA TERMINATED NORMALLY****
TOTAL RUN TIME: 0 days 0 hours 0 minutes 12 seconds 45 msec
