                         Program Version 6.0.0  -   RELEASE  -
|  1> ! wb97x-v def2-tzvp def2/J RIJCOSX DEFGRID2 scfconv7 GCP(DFT/TZ) printgap
|  2> %output
|  3>     printlevel normal
|  4> end
|  5> * xyz 0 1
|  6> C -0.00025302305672688887 0.00013138047252209646 -0.00015759908619977762
|  7> Cl -0.5627387864627539 -0.002659374345937279 -1.6968298896552183
|  8> Cl -0.7018777103465036 1.4021068693694891 0.859055335223103
|  9> Cl 1.783613153518874 0.1113351557493431 0.03585595789932477
| 10> Cl -0.5187141522878814 -1.5109930631526698 0.802065546305887
| 11> *
| 12>
| 13>                          ****END OF INPUT****

CARTESIAN COORDINATES (ANGSTROEM)
---------------------------------
  C     -0.000253    0.000131   -0.000158
  Cl    -0.562739   -0.002659   -1.696830
  Cl    -0.701878    1.402107    0.859055
  Cl     1.783613    0.111335    0.035856
  Cl    -0.518714   -1.510993    0.802066

 Total Charge           Charge          ....    0
 Multiplicity           Mult            ....    1
 Number of Electrons    NEL             ....   74
 Basis Dimension        Dim             ....  179

ORBITAL ENERGIES
----------------

  NO   OCC          E(Eh)            E(eV)
   0   2.0000    -107.179616     -2916.5056
   1   2.0000    -107.179595     -2916.5051
   2   2.0000    -107.179564     -2916.5042
   3   2.0000    -107.179542     -2916.5036
   4   2.0000     -12.303823      -334.8041
   5   2.0000     -11.333172      -308.3913
   6   2.0000     -11.333145      -308.3905
   7   2.0000     -11.333119      -308.3898
   8   2.0000     -11.332722      -308.3790
   9   2.0000      -9.125539      -248.3186
  10   2.0000      -9.125512      -248.3178
  11   2.0000      -9.125489      -248.3172
  12   2.0000      -9.122459      -248.2347
  13   2.0000      -9.122238      -248.2287
  14   2.0000      -9.122227      -248.2284
  15   2.0000      -9.122211      -248.2280
  16   2.0000      -9.121005      -248.1952
  17   2.0000      -9.121003      -248.1951
  18   2.0000      -9.120429      -248.1795
  19   2.0000      -9.120416      -248.1791
  20   2.0000      -9.120407      -248.1789
  21   2.0000      -1.518451       -41.3191
  22   2.0000      -1.420517       -38.6542
  23   2.0000      -1.420456       -38.6526
  24   2.0000      -1.420431       -38.6519
  25   2.0000      -1.159391       -31.5486
  26   2.0000      -0.980192       -26.6724
  27   2.0000      -0.980133       -26.6708
  28   2.0000      -0.980108       -26.6701
  29   2.0000      -0.845240       -23.0001
  30   2.0000      -0.845226       -22.9998
  31   2.0000      -0.825696       -22.4683
  32   2.0000      -0.825673       -22.4677
  33   2.0000      -0.825657       -22.4673
  34   2.0000      -0.810989       -22.0681
  35   2.0000      -0.810968       -22.0676
  36   2.0000      -0.810951       -22.0671
  37   0.0000      -0.403023       -10.9668
  38   0.0000      -0.306824        -8.3491
  39   0.0000      -0.306809        -8.3487
  40   0.0000      -0.306721        -8.3463
  41   0.0000       0.061034         1.6608

MULLIKEN ATOMIC CHARGES
-----------------------
   0 C :    0.067858
   1 Cl:   -0.016850
   2 Cl:   -0.016987
   3 Cl:   -0.017019
   4 Cl:   -0.017002
Sum of atomic charges:    0.0000000

LOEWDIN ATOMIC CHARGES
----------------------
   0 C :   -1.350614
   1 Cl:    0.337877
   2 Cl:    0.337596
   3 Cl:    0.337558
   4 Cl:    0.337583

  Mayer bond orders larger than 0.100000
B(  0-C ,  1-Cl) :   1.1593 B(  0-C ,  2-Cl) :   1.1592 B(  0-C ,  3-Cl) :   1.1592
B(  0-C ,  4-Cl) :   1.1593

FINAL SINGLE POINT ENERGY     -1878.662870439179

DIPOLE MOMENT
-------------

Method             : SCF
Type of density    : Electron Density
Multiplicity       :   1
Irrep              :   0
Energy             : -1878.6657117196791660 Eh
Relativity type    :
Basis              : AO
                                X                 Y                 Z
Electronic contribution:     -0.000150192      -0.000002641      -0.000339130
Nuclear contribution   :     -0.000135679       0.000077129      -0.000081469
                        -----------------------------------------
Total Dipole Moment    :     -0.000285871       0.000074487      -0.000420599
                        -----------------------------------------
Magnitude (a.u.)       :      0.000513978
Magnitude (Debye)      :      0.001306429

Rotational constants in cm-1:             0.055808             0.055794             0.055788
Rotational constants in MHz :          1673.086685          1672.653117          1672.474782

                             ****ORCA TERMINATED NORMALLY****
TOTAL RUN TIME: 0 days 0 hours 0 minutes 39 seconds 538 msec
