                         Program Version 6.0.0  -   RELEASE  -
|  1> ! wb97x-v def2-tzvp def2/J RIJCOSX DEFGRID2 scfconv7 GCP(DFT/TZ) printgap
|  2> %output
|  3>     printlevel normal
|  4> end
|  5> %cpcm
|  6>     smd true
|  7>     smdsolvent "water"
|  8> end
|  9> * xyz 0 1
| 10> C -0.00025302305672688887 0.00013138047252209646 -0.00015759908619977762
| 11> Cl -0.5627387864627539 -0.002659374345937279 -1.6968298896552183
| 12> Cl -0.7018777103465036 1.4021068693694891 0.859055335223103
| 13> Cl 1.783613153518874 0.1113351557493431 0.03585595789932477
| 14> Cl -0.5187141522878814 -1.5109930631526698 0.802065546305887
| 15> *
| 16>
| 17>                          ****END OF INPUT****

CARTESIAN COORDINATES (ANGSTROEM)
---------------------------------
  C     -0.000253    0.000131   -0.000158
  Cl    -0.562739   -0.002659   -1.696830
  Cl    -0.701878    1.402107    0.859055
  Cl     1.783613    0.111335    0.035856
  Cl    -0.518714   -1.510993    0.802066

 Total Charge           Charge          ....    0
 Multiplicity           Mult            ....    1
 Number of Electrons    NEL             ....   74
 Basis Dimension        Dim             ....  179

ORBITAL ENERGIES
----------------

  NO   OCC          E(Eh)            E(eV)
   0   2.0000    -107.180531     -2916.5305
   1   2.0000    -107.180509     -2916.5299
   2   2.0000    -107.180488     -2916.5293
   3   2.0000    -107.180463     -2916.5287
   4   2.0000     -12.303958      -334.8077
   5   2.0000     -11.334053      -308.4153
   6   2.0000     -11.334029      -308.4146
   7   2.0000     -11.334007      -308.4140
   8   2.0000     -11.333609      -308.4032
   9   2.0000      -9.126419      -248.3425
  10   2.0000      -9.126395      -248.3418
  11   2.0000      -9.126375      -248.3413
  12   2.0000      -9.123340      -248.2587
  13   2.0000      -9.123117      -248.2526
  14   2.0000      -9.123108      -248.2524
  15   2.0000      -9.123093      -248.2520
  16   2.0000      -9.121883      -248.2191
  17   2.0000      -9.121881      -248.2190
  18   2.0000      -9.121308      -248.2034
  19   2.0000      -9.121296      -248.2031
  20   2.0000      -9.121289      -248.2029
  21   2.0000      -1.519228       -41.3403
  22   2.0000      -1.421325       -38.6762
  23   2.0000      -1.421267       -38.6747
  24   2.0000      -1.421245       -38.6741
  25   2.0000      -1.159983       -31.5647
  26   2.0000      -0.980771       -26.6881
  27   2.0000      -0.980714       -26.6866
  28   2.0000      -0.980691       -26.6860
  29   2.0000      -0.846193       -23.0261
  30   2.0000      -0.846180       -23.0257
  31   2.0000      -0.826554       -22.4917
  32   2.0000      -0.826529       -22.4910
  33   2.0000      -0.826512       -22.4905
  34   2.0000      -0.811905       -22.0930
  35   2.0000      -0.811884       -22.0925
  36   2.0000      -0.811870       -22.0921
  37   0.0000      -0.403312       -10.9747
  38   0.0000      -0.307230        -8.3602
  39   0.0000      -0.307214        -8.3597
  40   0.0000      -0.307125        -8.3573
  41   0.0000       0.059912         1.6303

MULLIKEN ATOMIC CHARGES
-----------------------
   0 C :    0.064915
   1 Cl:   -0.016093
   2 Cl:   -0.016259
   3 Cl:   -0.016295
   4 Cl:   -0.016268
Sum of atomic charges:   -0.0000000

LOEWDIN ATOMIC CHARGES
----------------------
   0 C :   -1.352527
   1 Cl:    0.338369
   2 Cl:    0.338080
   3 Cl:    0.338026
   4 Cl:    0.338052

  Mayer bond orders larger than 0.100000
B(  0-C ,  1-Cl) :   1.1591 B(  0-C ,  2-Cl) :   1.1589 B(  0-C ,  3-Cl) :   1.1590
B(  0-C ,  4-Cl) :   1.1590

FINAL SINGLE POINT ENERGY     -1878.661235933524

DIPOLE MOMENT
-------------

Method             : SCF
Type of density    : Electron Density
Multiplicity       :   1
Irrep              :   0
Energy             : -1878.6640772140237914 Eh
Relativity type    :
Basis              : AO
                                X                 Y                 Z
Electronic contribution:     -0.000291921       0.000270167      -0.000410429
Nuclear contribution   :     -0.000135679       0.000077129      -0.000081469
                        -----------------------------------------
Total Dipole Moment    :     -0.000427599       0.000347296      -0.000491898
                        -----------------------------------------
Magnitude (a.u.)       :      0.000738525
Magnitude (Debye)      :      0.001877181

Rotational constants in cm-1:             0.055808             0.055794             0.055788
Rotational constants in MHz :          1673.086685          1672.653117          1672.474782

                             ****ORCA TERMINATED NORMALLY****
TOTAL RUN TIME: 0 days 0 hours 0 minutes 41 seconds 933 msec
