                         Program Version 6.0.0  -   RELEASE  -
|  1> ! pbe def2-sv(p) def2/J RI DEFGRID1 loosescf d4 GCP(DFT/SV(P)) printgap
|  2> %output
|  3>     printlevel normal
|  4> end
|  5> * xyz 0 1
|  6> C 2.05731445 0.0256187596 -0.3562269326
|  7> C 0.76404349 0.1032113352 0.449301467
|  8> H 1.0086148864 0.1827116621 1.5172933466
|  9> C -0.1499997884 1.25982377 0.003876622
| 10> C -1.542556737 0.6305856121 -0.0010028997
| 11> C -1.2120003333 -0.8148403944 -0.3646592618
| 12> O 0.0031988144 -1.1047664895 0.3064335181
| 13> H 2.6323848022 0.936102726 -0.2156174409
| 14> H 2.6464878866 -0.8253298571 -0.0256365289
| 15> H 1.8330555524 -0.0986751139 -1.4128921559
| 16> H -0.0749154513 2.1128501461 0.6729514379
| 17> H 0.1238702604 1.5758929643 -1.0030283634
| 18> H -1.983972888 0.6696614664 0.9948945986
| 19> H -2.2184900392 1.0935356029 -0.7143629633
| 20> H -1.9523569329 -1.5402360503 -0.025510561
| 21> H -1.0740462847 -0.9219145412 -1.4502297673
| 22> *
| 23>
| 24>                          ****END OF INPUT****

CARTESIAN COORDINATES (ANGSTROEM)
---------------------------------
  C      2.057314    0.025619   -0.356227
  C      0.764043    0.103211    0.449301
  H      1.008615    0.182712    1.517293
  C     -0.150000    1.259824    0.003877
  C     -1.542557    0.630586   -0.001003
  C     -1.212000   -0.814840   -0.364659
  O      0.003199   -1.104766    0.306434
  H      2.632385    0.936103   -0.215617
  H      2.646488   -0.825330   -0.025637
  H      1.833056   -0.098675   -1.412892
  H     -0.074915    2.112850    0.672951
  H      0.123870    1.575893   -1.003028
  H     -1.983973    0.669661    0.994895
  H     -2.218490    1.093536   -0.714363
  H     -1.952357   -1.540236   -0.025511
  H     -1.074046   -0.921915   -1.450230

 Total Charge           Charge          ....    0
 Multiplicity           Mult            ....    1
 Number of Electrons    NEL             ....   48
 Basis Dimension        Dim             ....  104

ORBITAL ENERGIES
----------------

  NO   OCC          E(Eh)            E(eV)
   0   2.0000     -18.740263      -509.9485
   1   2.0000      -9.932918      -270.2885
   2   2.0000      -9.924668      -270.0639
   3   2.0000      -9.888704      -269.0853
   4   2.0000      -9.888182      -269.0711
   5   2.0000      -9.871671      -268.6218
   6   2.0000      -0.929296       -25.2874
   7   2.0000      -0.706314       -19.2198
   8   2.0000      -0.685787       -18.6612
   9   2.0000      -0.601560       -16.3693
  10   2.0000      -0.533354       -14.5133
  11   2.0000      -0.500397       -13.6165
  12   2.0000      -0.454369       -12.3640
  13   2.0000      -0.432557       -11.7705
  14   2.0000      -0.385207       -10.4820
  15   2.0000      -0.380493       -10.3538
  16   2.0000      -0.365943        -9.9578
  17   2.0000      -0.346692        -9.4340
  18   2.0000      -0.325950        -8.8696
  19   2.0000      -0.310429        -8.4472
  20   2.0000      -0.293348        -7.9824
  21   2.0000      -0.288426        -7.8485
  22   2.0000      -0.262043        -7.1306
  23   2.0000      -0.193031        -5.2526
  24   0.0000       0.032298         0.8789
  25   0.0000       0.055535         1.5112
  26   0.0000       0.066868         1.8196
  27   0.0000       0.087720         2.3870
  28   0.0000       0.101367         2.7583

MULLIKEN ATOMIC CHARGES
-----------------------
   0 C :   -0.228462
   1 C :    0.017066
   2 H :    0.066663
   3 C :   -0.172576
   4 C :   -0.193017
   5 C :    0.033069
   6 O :   -0.348187
   7 H :    0.096092
   8 H :    0.109062
   9 H :    0.092525
  10 H :    0.097033
  11 H :    0.082089
  12 H :    0.094289
  13 H :    0.094201
  14 H :    0.091311
  15 H :    0.068842
Sum of atomic charges:   -0.0000000

LOEWDIN ATOMIC CHARGES
----------------------
   0 C :   -0.345523
   1 C :   -0.043129
   2 H :    0.104025
   3 C :   -0.235748
   4 C :   -0.243903
   5 C :   -0.108583
   6 O :   -0.182566
   7 H :    0.121122
   8 H :    0.123788
   9 H :    0.118036
  10 H :    0.125145
  11 H :    0.118977
  12 H :    0.122138
  13 H :    0.122566
  14 H :    0.110320
  15 H :    0.093334

  Mayer bond orders larger than 0.100000
B(  0-C ,  1-C ) :   1.1289 B(  0-C ,  7-H ) :   0.9398 B(  0-C ,  8-H ) :   0.9457
B(  0-C ,  9-H ) :   0.9401 B(  1-C ,  2-H ) :   0.9118 B(  1-C ,  3-C ) :   1.0821
B(  1-C ,  6-O ) :   1.0142 B(  3-C ,  4-C ) :   1.1447 B(  3-C , 10-H ) :   0.9197
B(  3-C , 11-H ) :   0.9197 B(  4-C ,  5-C ) :   1.1285 B(  4-C , 12-H ) :   0.9154
B(  4-C , 13-H ) :   0.9225 B(  5-C ,  6-O ) :   1.0217 B(  5-C , 14-H ) :   0.9337
B(  5-C , 15-H ) :   0.9183

Dispersion correction           -0.012064873
FINAL SINGLE POINT ENERGY      -271.126781338653

DIPOLE MOMENT
-------------

Method             : SCF
Type of density    : Electron Density
Multiplicity       :   1
Irrep              :   0
Energy             :  -271.1876235549000285 Eh
Relativity type    :
Basis              : AO
                                X                 Y                 Z
Electronic contribution:     -1.066355116      -2.423989379       1.417689723
Nuclear contribution   :      0.882522330       2.971272875      -1.554815087
                        -----------------------------------------
Total Dipole Moment    :     -0.183832785       0.547283496      -0.137125364
                        -----------------------------------------
Magnitude (a.u.)       :      0.593394543
Magnitude (Debye)      :      1.508289062

Rotational constants in cm-1:             0.206763             0.109975             0.083556
Rotational constants in MHz :          6198.596449          3296.952735          2504.934809

                             ****ORCA TERMINATED NORMALLY****
TOTAL RUN TIME: 0 days 0 hours 0 minutes 6 seconds 563 msec
