                         Program Version 6.0.0  -   RELEASE  -
|  1> ! r2scan-3c def2/J RI DEFGRID2 scfconv6 printgap
|  2> %output
|  3>     printlevel normal
|  4> end
|  5> * xyz 0 1
|  6> C -2.4825021595 0.2587718035 -0.0044930908
|  7> O -1.0510817382 0.3199529689 0.0023256196
|  8> C -0.3633625209 -0.7991729968 0.0077878872
|  9> O -0.8411420081 -1.9132572445 0.0070871067
| 10> C 1.1353438841 -0.5842466855 0.0192461514
| 11> Cl 1.5854093361 1.1379162526 -0.0133370104
| 12> H -2.8278399603 0.7343109593 -0.9203803809
| 13> H -2.8344711741 0.8106283033 0.8645109763
| 14> H -2.8095933602 -0.7802195813 0.0369581632
| 15> H 1.5736012944 -1.0687004096 -0.8539412599
| 16> H 1.5524028775 -1.0281461399 0.923951543
| 17> *
| 18>
| 19>                          ****END OF INPUT****

CARTESIAN COORDINATES (ANGSTROEM)
---------------------------------
  C     -2.482502    0.258772   -0.004493
  O     -1.051082    0.319953    0.002326
  C     -0.363363   -0.799173    0.007788
  O     -0.841142   -1.913257    0.007087
  C      1.135344   -0.584247    0.019246
  Cl     1.585409    1.137916   -0.013337
  H     -2.827840    0.734311   -0.920380
  H     -2.834471    0.810628    0.864511
  H     -2.809593   -0.780220    0.036958
  H      1.573601   -1.068700   -0.853941
  H      1.552403   -1.028146    0.923952

 Total Charge           Charge          ....    0
 Multiplicity           Mult            ....    1
 Number of Electrons    NEL             ....   56
 Basis Dimension        Dim             ....  157

ORBITAL ENERGIES
----------------

  NO   OCC          E(Eh)            E(eV)
   0   2.0000    -101.211066     -2754.0931
   1   2.0000     -19.016845      -517.4747
   2   2.0000     -18.947296      -515.5821
   3   2.0000     -10.176379      -276.9134
   4   2.0000     -10.114213      -275.2217
   5   2.0000     -10.097314      -274.7619
   6   2.0000      -9.367099      -254.8917
   7   2.0000      -7.113777      -193.5757
   8   2.0000      -7.102941      -193.2809
   9   2.0000      -7.102832      -193.2779
  10   2.0000      -1.093765       -29.7629
  11   2.0000      -0.996952       -27.1284
  12   2.0000      -0.834106       -22.6972
  13   2.0000      -0.726510       -19.7693
  14   2.0000      -0.669551       -18.2194
  15   2.0000      -0.552531       -15.0351
  16   2.0000      -0.490435       -13.3454
  17   2.0000      -0.480301       -13.0697
  18   2.0000      -0.455543       -12.3960
  19   2.0000      -0.437974       -11.9179
  20   2.0000      -0.401001       -10.9118
  21   2.0000      -0.399294       -10.8653
  22   2.0000      -0.369819       -10.0633
  23   2.0000      -0.332519        -9.0483
  24   2.0000      -0.291775        -7.9396
  25   2.0000      -0.290698        -7.9103
  26   2.0000      -0.273196        -7.4340
  27   2.0000      -0.250278        -6.8104
  28   0.0000      -0.031389        -0.8541
  29   0.0000      -0.000832        -0.0227
  30   0.0000       0.052584         1.4309
  31   0.0000       0.091551         2.4912
  32   0.0000       0.110381         3.0036

MULLIKEN ATOMIC CHARGES
-----------------------
   0 C :   -0.289648
   1 O :   -0.181974
   2 C :    0.381038
   3 O :   -0.428383
   4 C :   -0.199511
   5 Cl:   -0.154868
   6 H :    0.154626
   7 H :    0.154437
   8 H :    0.189359
   9 H :    0.187457
  10 H :    0.187467
Sum of atomic charges:    0.0000000

LOEWDIN ATOMIC CHARGES
----------------------
   0 C :   -0.035338
   1 O :   -0.613489
   2 C :    0.337168
   3 O :   -0.429093
   4 C :   -0.254949
   5 Cl:    0.077105
   6 H :    0.177605
   7 H :    0.177906
   8 H :    0.193293
   9 H :    0.184834
  10 H :    0.184958

  Mayer bond orders larger than 0.100000
B(  0-C ,  1-O ) :   0.8323 B(  0-C ,  6-H ) :   0.9612 B(  0-C ,  7-H ) :   0.9623
B(  0-C ,  8-H ) :   0.9679 B(  1-O ,  2-C ) :   1.1246 B(  2-C ,  3-O ) :   1.8140
B(  2-C ,  4-C ) :   1.0091 B(  4-C ,  5-Cl) :   1.0239 B(  4-C ,  9-H ) :   0.9366
B(  4-C , 10-H ) :   0.9343

Dispersion correction           -0.002603903
FINAL SINGLE POINT ENERGY      -727.901433684672

DIPOLE MOMENT
-------------

Method             : SCF
Type of density    : Electron Density
Multiplicity       :   1
Irrep              :   0
Energy             :  -727.9096239261243682 Eh
Relativity type    :
Basis              : AO
                                X                 Y                 Z
Electronic contribution:      6.769937067       2.981096598      -0.053419715
Nuclear contribution   :     -7.171333494      -2.800664123       0.065980023
                        -----------------------------------------
Total Dipole Moment    :     -0.401396427       0.180432475       0.012560309
                        -----------------------------------------
Magnitude (a.u.)       :      0.440264388
Magnitude (Debye)      :      1.119063140

Rotational constants in cm-1:             0.176489             0.062007             0.046701
Rotational constants in MHz :          5291.021584          1858.918777          1400.068727

                             ****ORCA TERMINATED NORMALLY****
TOTAL RUN TIME: 0 days 0 hours 0 minutes 15 seconds 365 msec
