                         Program Version 6.0.0  -   RELEASE  -
|  1> ! r2scan-3c def2/J RI DEFGRID2 scfconv6 printgap
|  2> %output
|  3>     printlevel normal
|  4> end
|  5> %cpcm
|  6>     smd true
|  7>     smdsolvent "water"
|  8> end
|  9> * xyz 0 1
| 10> C -2.4825021595 0.2587718035 -0.0044930908
| 11> O -1.0510817382 0.3199529689 0.0023256196
| 12> C -0.3633625209 -0.7991729968 0.0077878872
| 13> O -0.8411420081 -1.9132572445 0.0070871067
| 14> C 1.1353438841 -0.5842466855 0.0192461514
| 15> Cl 1.5854093361 1.1379162526 -0.0133370104
| 16> H -2.8278399603 0.7343109593 -0.9203803809
| 17> H -2.8344711741 0.8106283033 0.8645109763
| 18> H -2.8095933602 -0.7802195813 0.0369581632
| 19> H 1.5736012944 -1.0687004096 -0.8539412599
| 20> H 1.5524028775 -1.0281461399 0.923951543
| 21> *
| 22>
| 23>                          ****END OF INPUT****

CARTESIAN COORDINATES (ANGSTROEM)
---------------------------------
  C     -2.482502    0.258772   -0.004493
  O     -1.051082    0.319953    0.002326
  C     -0.363363   -0.799173    0.007788
  O     -0.841142   -1.913257    0.007087
  C      1.135344   -0.584247    0.019246
  Cl     1.585409    1.137916   -0.013337
  H     -2.827840    0.734311   -0.920380
  H     -2.834471    0.810628    0.864511
  H     -2.809593   -0.780220    0.036958
  H      1.573601   -1.068700   -0.853941
  H      1.552403   -1.028146    0.923952

 Total Charge           Charge          ....    0
 Multiplicity           Mult            ....    1
 Number of Electrons    NEL             ....   56
 Basis Dimension        Dim             ....  157

ORBITAL ENERGIES
----------------

  NO   OCC          E(Eh)            E(eV)
   0   2.0000    -101.211804     -2754.1132
   1   2.0000     -19.014425      -517.4088
   2   2.0000     -18.952908      -515.7349
   3   2.0000     -10.178594      -276.9736
   4   2.0000     -10.103020      -274.9171
   5   2.0000     -10.079610      -274.2801
   6   2.0000      -9.367952      -254.9149
   7   2.0000      -7.114367      -193.5918
   8   2.0000      -7.103899      -193.3069
   9   2.0000      -7.103837      -193.3052
  10   2.0000      -1.092181       -29.7198
  11   2.0000      -1.000931       -27.2367
  12   2.0000      -0.830950       -22.6113
  13   2.0000      -0.718300       -19.5459
  14   2.0000      -0.660177       -17.9643
  15   2.0000      -0.542223       -14.7546
  16   2.0000      -0.484585       -13.1862
  17   2.0000      -0.472408       -12.8549
  18   2.0000      -0.462835       -12.5944
  19   2.0000      -0.423245       -11.5171
  20   2.0000      -0.399500       -10.8709
  21   2.0000      -0.388153       -10.5622
  22   2.0000      -0.364247        -9.9117
  23   2.0000      -0.327648        -8.9157
  24   2.0000      -0.294477        -8.0131
  25   2.0000      -0.289355        -7.8737
  26   2.0000      -0.273562        -7.4440
  27   2.0000      -0.255872        -6.9626
  28   0.0000      -0.029866        -0.8127
  29   0.0000       0.002051         0.0558
  30   0.0000       0.065017         1.7692
  31   0.0000       0.107075         2.9137
  32   0.0000       0.128459         3.4956

MULLIKEN ATOMIC CHARGES
-----------------------
   0 C :   -0.304676
   1 O :   -0.199215
   2 C :    0.425046
   3 O :   -0.500987
   4 C :   -0.222347
   5 Cl:   -0.193530
   6 H :    0.180125
   7 H :    0.179719
   8 H :    0.186984
   9 H :    0.224026
  10 H :    0.224856
Sum of atomic charges:    0.0000000

LOEWDIN ATOMIC CHARGES
----------------------
   0 C :   -0.029747
   1 O :   -0.617246
   2 C :    0.349769
   3 O :   -0.481051
   4 C :   -0.247490
   5 Cl:    0.055941
   6 H :    0.187951
   7 H :    0.188338
   8 H :    0.193286
   9 H :    0.199909
  10 H :    0.200340

  Mayer bond orders larger than 0.100000
B(  0-C ,  1-O ) :   0.8215 B(  0-C ,  6-H ) :   0.9521 B(  0-C ,  7-H ) :   0.9531
B(  0-C ,  8-H ) :   0.9636 B(  1-O ,  2-C ) :   1.1519 B(  2-C ,  3-O ) :   1.7647
B(  2-C ,  4-C ) :   1.0117 B(  4-C ,  5-Cl) :   0.9853 B(  4-C ,  9-H ) :   0.9232
B(  4-C , 10-H ) :   0.9207

Dispersion correction           -0.002603903
FINAL SINGLE POINT ENERGY      -727.908314964569

DIPOLE MOMENT
-------------

Method             : SCF
Type of density    : Electron Density
Multiplicity       :   1
Irrep              :   0
Energy             :  -727.9165052060211565 Eh
Relativity type    :
Basis              : AO
                                X                 Y                 Z
Electronic contribution:      6.758523631       3.056183833      -0.048056943
Nuclear contribution   :     -7.171333494      -2.800664123       0.065980023
                        -----------------------------------------
Total Dipole Moment    :     -0.412809863       0.255519710       0.017923080
                        -----------------------------------------
Magnitude (a.u.)       :      0.485822542
Magnitude (Debye)      :      1.234862765

Rotational constants in cm-1:             0.176489             0.062007             0.046701
Rotational constants in MHz :          5291.021584          1858.918777          1400.068727

                             ****ORCA TERMINATED NORMALLY****
TOTAL RUN TIME: 0 days 0 hours 0 minutes 17 seconds 550 msec
