                         Program Version 6.0.0  -   RELEASE  -
|  1> ! r2scan-3c def2/J RI DEFGRID2 scfconv6 printgap
|  2> %output
|  3>     printlevel normal
|  4> end
|  5> * xyz 0 1
|  6> C -1.5556241641 -0.1248425618 0.5450453994
|  7> C -0.6720228419 0.4778509863 -0.5394791296
|  8> C 0.6691472698 -0.2468181043 -0.6488136896
|  9> N 1.4319393183 -0.1081757016 0.5852772598
| 10> H -1.8063612254 -1.1539134022 0.2996412289
| 11> H -1.0285564897 -0.1170286301 1.4944300123
| 12> H -2.4769768115 0.4430711083 0.6457805006
| 13> H -0.4875559588 1.531253978 -0.3158508638
| 14> H -1.1782728213 0.4237005932 -1.505188535
| 15> H 0.4926004359 -1.3146979062 -0.8068423586
| 16> H 1.2105991711 0.1387127299 -1.5314543503
| 17> H 1.6263213989 0.8734255023 0.75488961
| 18> H 2.3207231657 -0.5866518005 0.4963827139
| 19> *
| 20>
| 21>                          ****END OF INPUT****

CARTESIAN COORDINATES (ANGSTROEM)
---------------------------------
  C     -1.555624   -0.124843    0.545045
  C     -0.672023    0.477851   -0.539479
  C      0.669147   -0.246818   -0.648814
  N      1.431939   -0.108176    0.585277
  H     -1.806361   -1.153913    0.299641
  H     -1.028556   -0.117029    1.494430
  H     -2.476977    0.443071    0.645781
  H     -0.487556    1.531254   -0.315851
  H     -1.178273    0.423701   -1.505189
  H      0.492600   -1.314698   -0.806842
  H      1.210599    0.138713   -1.531454
  H      1.626321    0.873426    0.754890
  H      2.320723   -0.586652    0.496383

 Total Charge           Charge          ....    0
 Multiplicity           Mult            ....    1
 Number of Electrons    NEL             ....   34
 Basis Dimension        Dim             ....  126

ORBITAL ENERGIES
----------------

  NO   OCC          E(Eh)            E(eV)
   0   2.0000     -14.134080      -384.6079
   1   2.0000     -10.047340      -273.4020
   2   2.0000     -10.022020      -272.7130
   3   2.0000     -10.005750      -272.2703
   4   2.0000      -0.846201       -23.0263
   5   2.0000      -0.727344       -19.7920
   6   2.0000      -0.624756       -17.0005
   7   2.0000      -0.543633       -14.7930
   8   2.0000      -0.457766       -12.4565
   9   2.0000      -0.422543       -11.4980
  10   2.0000      -0.409982       -11.1562
  11   2.0000      -0.371119       -10.0987
  12   2.0000      -0.347407        -9.4534
  13   2.0000      -0.314052        -8.5458
  14   2.0000      -0.300232        -8.1697
  15   2.0000      -0.297172        -8.0865
  16   2.0000      -0.203460        -5.5364
  17   0.0000       0.079194         2.1550
  18   0.0000       0.116876         3.1803
  19   0.0000       0.127880         3.4798
  20   0.0000       0.132799         3.6136
  21   0.0000       0.148964         4.0535

MULLIKEN ATOMIC CHARGES
-----------------------
   0 C :   -0.485589
   1 C :   -0.213573
   2 C :   -0.173081
   3 N :   -0.574857
   4 H :    0.135988
   5 H :    0.172600
   6 H :    0.140906
   7 H :    0.125227
   8 H :    0.135534
   9 H :    0.137916
  10 H :    0.122268
  11 H :    0.238491
  12 H :    0.238169
Sum of atomic charges:   -0.0000000

LOEWDIN ATOMIC CHARGES
----------------------
   0 C :   -0.425324
   1 C :   -0.295381
   2 C :   -0.077930
   3 N :   -0.751130
   4 H :    0.149749
   5 H :    0.162627
   6 H :    0.147418
   7 H :    0.150208
   8 H :    0.153145
   9 H :    0.169400
  10 H :    0.147035
  11 H :    0.234452
  12 H :    0.235731

  Mayer bond orders larger than 0.100000
B(  0-C ,  1-C ) :   0.9129 B(  0-C ,  4-H ) :   0.9774 B(  0-C ,  5-H ) :   0.9770
B(  0-C ,  6-H ) :   0.9747 B(  1-C ,  2-C ) :   0.9535 B(  1-C ,  7-H ) :   0.9724
B(  1-C ,  8-H ) :   0.9660 B(  2-C ,  3-N ) :   0.8940 B(  2-C ,  9-H ) :   0.9869
B(  2-C , 10-H ) :   0.9556 B(  3-N , 11-H ) :   0.9207 B(  3-N , 12-H ) :   0.9177

Dispersion correction           -0.002457644
FINAL SINGLE POINT ENERGY      -174.423997496995

DIPOLE MOMENT
-------------

Method             : SCF
Type of density    : Electron Density
Multiplicity       :   1
Irrep              :   0
Energy             :  -174.4307549568521836 Eh
Relativity type    :
Basis              : AO
                                X                 Y                 Z
Electronic contribution:      1.541805461      -0.030047576       0.106320966
Nuclear contribution   :     -1.237515095       0.222568942      -0.436039158
                        -----------------------------------------
Total Dipole Moment    :      0.304290366       0.192521366      -0.329718192
                        -----------------------------------------
Magnitude (a.u.)       :      0.488232720
Magnitude (Debye)      :      1.240988952

Rotational constants in cm-1:             0.465477             0.167227             0.143390
Rotational constants in MHz :         13954.657581          5013.347602          4298.726593

                             ****ORCA TERMINATED NORMALLY****
TOTAL RUN TIME: 0 days 0 hours 0 minutes 10 seconds 986 msec
