                         Program Version 6.0.0  -   RELEASE  -
|  1> ! r2scan-3c def2/J RI DEFGRID2 scfconv6 printgap
|  2> %output
|  3>     printlevel normal
|  4> end
|  5> %cpcm
|  6>     smd true
|  7>     smdsolvent "water"
|  8> end
|  9> * xyz 0 1
| 10> C -1.5556241641 -0.1248425618 0.5450453994
| 11> C -0.6720228419 0.4778509863 -0.5394791296
| 12> C 0.6691472698 -0.2468181043 -0.6488136896
| 13> N 1.4319393183 -0.1081757016 0.5852772598
| 14> H -1.8063612254 -1.1539134022 0.2996412289
| 15> H -1.0285564897 -0.1170286301 1.4944300123
| 16> H -2.4769768115 0.4430711083 0.6457805006
| 17> H -0.4875559588 1.531253978 -0.3158508638
| 18> H -1.1782728213 0.4237005932 -1.505188535
| 19> H 0.4926004359 -1.3146979062 -0.8068423586
| 20> H 1.2105991711 0.1387127299 -1.5314543503
| 21> H 1.6263213989 0.8734255023 0.75488961
| 22> H 2.3207231657 -0.5866518005 0.4963827139
| 23> *
| 24>
| 25>                          ****END OF INPUT****

CARTESIAN COORDINATES (ANGSTROEM)
---------------------------------
  C     -1.555624   -0.124843    0.545045
  C     -0.672023    0.477851   -0.539479
  C      0.669147   -0.246818   -0.648814
  N      1.431939   -0.108176    0.585277
  H     -1.806361   -1.153913    0.299641
  H     -1.028556   -0.117029    1.494430
  H     -2.476977    0.443071    0.645781
  H     -0.487556    1.531254   -0.315851
  H     -1.178273    0.423701   -1.505189
  H      0.492600   -1.314698   -0.806842
  H      1.210599    0.138713   -1.531454
  H      1.626321    0.873426    0.754890
  H      2.320723   -0.586652    0.496383

 Total Charge           Charge          ....    0
 Multiplicity           Mult            ....    1
 Number of Electrons    NEL             ....   34
 Basis Dimension        Dim             ....  126

ORBITAL ENERGIES
----------------

  NO   OCC          E(Eh)            E(eV)
   0   2.0000     -14.126336      -384.3972
   1   2.0000     -10.040592      -273.2184
   2   2.0000     -10.015600      -272.5383
   3   2.0000     -10.004502      -272.2363
   4   2.0000      -0.839126       -22.8338
   5   2.0000      -0.722872       -19.6704
   6   2.0000      -0.620687       -16.8897
   7   2.0000      -0.538088       -14.6421
   8   2.0000      -0.450127       -12.2486
   9   2.0000      -0.416675       -11.3383
  10   2.0000      -0.404526       -11.0077
  11   2.0000      -0.368006       -10.0139
  12   2.0000      -0.342503        -9.3200
  13   2.0000      -0.310719        -8.4551
  14   2.0000      -0.295887        -8.0515
  15   2.0000      -0.291421        -7.9300
  16   2.0000      -0.202080        -5.4989
  17   0.0000       0.090789         2.4705
  18   0.0000       0.124278         3.3818
  19   0.0000       0.133177         3.6239
  20   0.0000       0.139014         3.7828
  21   0.0000       0.155119         4.2210

MULLIKEN ATOMIC CHARGES
-----------------------
   0 C :   -0.531903
   1 C :   -0.215342
   2 C :   -0.193365
   3 N :   -0.659202
   4 H :    0.151998
   5 H :    0.162654
   6 H :    0.154134
   7 H :    0.142558
   8 H :    0.146537
   9 H :    0.150780
  10 H :    0.131391
  11 H :    0.280356
  12 H :    0.279405
Sum of atomic charges:    0.0000000

LOEWDIN ATOMIC CHARGES
----------------------
   0 C :   -0.435679
   1 C :   -0.298038
   2 C :   -0.079220
   3 N :   -0.770752
   4 H :    0.152646
   5 H :    0.156030
   6 H :    0.151330
   7 H :    0.155437
   8 H :    0.156623
   9 H :    0.171667
  10 H :    0.151509
  11 H :    0.243801
  12 H :    0.244647

  Mayer bond orders larger than 0.100000
B(  0-C ,  1-C ) :   0.8950 B(  0-C ,  4-H ) :   0.9765 B(  0-C ,  5-H ) :   0.9814
B(  0-C ,  6-H ) :   0.9709 B(  1-C ,  2-C ) :   0.9382 B(  1-C ,  7-H ) :   0.9709
B(  1-C ,  8-H ) :   0.9641 B(  2-C ,  3-N ) :   0.9051 B(  2-C ,  9-H ) :   0.9882
B(  2-C , 10-H ) :   0.9606 B(  3-N , 11-H ) :   0.9045 B(  3-N , 12-H ) :   0.9013

Dispersion correction           -0.002457644
FINAL SINGLE POINT ENERGY      -174.428094693900

DIPOLE MOMENT
-------------

Method             : SCF
Type of density    : Electron Density
Multiplicity       :   1
Irrep              :   0
Energy             :  -174.4348521537568217 Eh
Relativity type    :
Basis              : AO
                                X                 Y                 Z
Electronic contribution:      1.631162163       0.063317256      -0.054943042
Nuclear contribution   :     -1.237515095       0.222568942      -0.436039158
                        -----------------------------------------
Total Dipole Moment    :      0.393647068       0.285886198      -0.490982199
                        -----------------------------------------
Magnitude (a.u.)       :      0.691196392
Magnitude (Debye)      :      1.756881606

Rotational constants in cm-1:             0.465477             0.167227             0.143390
Rotational constants in MHz :         13954.657581          5013.347602          4298.726593

                             ****ORCA TERMINATED NORMALLY****
TOTAL RUN TIME: 0 days 0 hours 0 minutes 14 seconds 646 msec
