                         Program Version 6.0.0  -   RELEASE  -
|  1> ! pbe def2-sv(p) def2/J RI DEFGRID1 loosescf d4 GCP(DFT/SV(P)) printgap
|  2> %output
|  3>     printlevel normal
|  4> end
|  5> * xyz 0 1
|  6> C -1.7361938019 -0.3981206475 -0.9812784135
|  7> C -0.6732226358 0.3887617421 -0.2127826287
|  8> C -1.2145856193 0.7464740262 1.1709873958
|  9> C 0.6731421418 -0.3886278835 -0.2127361477
| 10> C 1.7363208347 0.3979525647 -0.9813325382
| 11> C 1.2145523617 -0.7464035635 1.1710137144
| 12> H -1.9430722413 -1.3425047392 -0.4818293181
| 13> H -2.6633019382 0.1680095476 -1.0396352353
| 14> H -1.4010567625 -0.6089740407 -1.9944436389
| 15> H -0.5109595499 1.3327578923 -0.7449696153
| 16> H -1.4603826562 -0.1456743577 1.7406394338
| 17> H -0.4989873848 1.3374750646 1.735019019
| 18> H -2.1230087471 1.3351763483 1.060048859
| 19> H 0.5107808058 -1.3326244496 -0.7448951814
| 20> H 1.9438204526 1.3420161212 -0.4815875099
| 21> H 2.6631305108 -0.1685973965 -1.0403955398
| 22> H 1.4007831689 0.6093678863 -1.9942356383
| 23> H 0.4985335604 -1.3368478861 1.735376854
| 24> H 1.4609466096 0.145792203 1.7404837472
| 25> H 2.1226159016 -1.3358040407 1.0601319002
| 26> *
| 27>
| 28>                          ****END OF INPUT****

CARTESIAN COORDINATES (ANGSTROEM)
---------------------------------
  C     -1.736194   -0.398121   -0.981278
  C     -0.673223    0.388762   -0.212783
  C     -1.214586    0.746474    1.170987
  C      0.673142   -0.388628   -0.212736
  C      1.736321    0.397953   -0.981333
  C      1.214552   -0.746404    1.171014
  H     -1.943072   -1.342505   -0.481829
  H     -2.663302    0.168010   -1.039635
  H     -1.401057   -0.608974   -1.994444
  H     -0.510960    1.332758   -0.744970
  H     -1.460383   -0.145674    1.740639
  H     -0.498987    1.337475    1.735019
  H     -2.123009    1.335176    1.060049
  H      0.510781   -1.332624   -0.744895
  H      1.943820    1.342016   -0.481588
  H      2.663131   -0.168597   -1.040396
  H      1.400783    0.609368   -1.994236
  H      0.498534   -1.336848    1.735377
  H      1.460947    0.145792    1.740484
  H      2.122616   -1.335804    1.060132

 Total Charge           Charge          ....    0
 Multiplicity           Mult            ....    1
 Number of Electrons    NEL             ....   50
 Basis Dimension        Dim             ....  112

ORBITAL ENERGIES
----------------

  NO   OCC          E(Eh)            E(eV)
   0   2.0000      -9.888313      -269.0747
   1   2.0000      -9.888226      -269.0723
   2   2.0000      -9.868501      -268.5356
   3   2.0000      -9.868497      -268.5354
   4   2.0000      -9.867982      -268.5215
   5   2.0000      -9.867911      -268.5195
   6   2.0000      -0.736393       -20.0383
   7   2.0000      -0.670676       -18.2500
   8   2.0000      -0.613655       -16.6984
   9   2.0000      -0.599403       -16.3106
  10   2.0000      -0.536632       -14.6025
  11   2.0000      -0.480625       -13.0785
  12   2.0000      -0.409933       -11.1548
  13   2.0000      -0.406292       -11.0558
  14   2.0000      -0.393408       -10.7052
  15   2.0000      -0.353772        -9.6266
  16   2.0000      -0.352561        -9.5937
  17   2.0000      -0.342516        -9.3203
  18   2.0000      -0.338584        -9.2133
  19   2.0000      -0.324636        -8.8338
  20   2.0000      -0.301596        -8.2069
  21   2.0000      -0.300145        -8.1674
  22   2.0000      -0.270395        -7.3578
  23   2.0000      -0.266589        -7.2543
  24   2.0000      -0.263426        -7.1682
  25   0.0000       0.031412         0.8548
  26   0.0000       0.064665         1.7596
  27   0.0000       0.069823         1.9000
  28   0.0000       0.070297         1.9129
  29   0.0000       0.091878         2.5001

MULLIKEN ATOMIC CHARGES
-----------------------
   0 C :   -0.263609
   1 C :   -0.152117
   2 C :   -0.226096
   3 C :   -0.152072
   4 C :   -0.263577
   5 C :   -0.226229
   6 H :    0.097009
   7 H :    0.094274
   8 H :    0.101176
   9 H :    0.067077
  10 H :    0.090053
  11 H :    0.095527
  12 H :    0.096708
  13 H :    0.067077
  14 H :    0.096994
  15 H :    0.094286
  16 H :    0.101165
  17 H :    0.095552
  18 H :    0.090066
  19 H :    0.096736
Sum of atomic charges:    0.0000000

LOEWDIN ATOMIC CHARGES
----------------------
   0 C :   -0.328599
   1 C :   -0.149462
   2 C :   -0.329495
   3 C :   -0.149462
   4 C :   -0.328605
   5 C :   -0.329473
   6 H :    0.115034
   7 H :    0.114401
   8 H :    0.115343
   9 H :    0.113804
  10 H :    0.115571
  11 H :    0.115943
  12 H :    0.117466
  13 H :    0.113805
  14 H :    0.115032
  15 H :    0.114408
  16 H :    0.115338
  17 H :    0.115927
  18 H :    0.115562
  19 H :    0.117465

  Mayer bond orders larger than 0.100000
B(  0-C ,  1-C ) :   1.1098 B(  0-C ,  6-H ) :   0.9501 B(  0-C ,  7-H ) :   0.9500
B(  0-C ,  8-H ) :   0.9492 B(  1-C ,  2-C ) :   1.1680 B(  1-C ,  3-C ) :   0.9945
B(  1-C ,  9-H ) :   0.9061 B(  2-C , 10-H ) :   0.9376 B(  2-C , 11-H ) :   0.9406
B(  2-C , 12-H ) :   0.9459 B(  3-C ,  4-C ) :   1.1098 B(  3-C ,  5-C ) :   1.1679
B(  3-C , 13-H ) :   0.9061 B(  4-C , 14-H ) :   0.9501 B(  4-C , 15-H ) :   0.9501
B(  4-C , 16-H ) :   0.9492 B(  5-C , 17-H ) :   0.9406 B(  5-C , 18-H ) :   0.9376
B(  5-C , 19-H ) :   0.9459

Dispersion correction           -0.015481150
FINAL SINGLE POINT ENERGY      -236.443393370216

DIPOLE MOMENT
-------------

Method             : SCF
Type of density    : Electron Density
Multiplicity       :   1
Irrep              :   0
Energy             :  -236.5107991249411725 Eh
Relativity type    :
Basis              : AO
                                X                 Y                 Z
Electronic contribution:      0.000096927       0.000410165      -0.525888983
Nuclear contribution   :     -0.000148483      -0.000405143       0.515714831
                        -----------------------------------------
Total Dipole Moment    :     -0.000051556       0.000005023      -0.010174152
                        -----------------------------------------
Magnitude (a.u.)       :      0.010174284
Magnitude (Debye)      :      0.025860974

Rotational constants in cm-1:             0.142828             0.086404             0.069130
Rotational constants in MHz :          4281.884917          2590.316172          2072.479353

                             ****ORCA TERMINATED NORMALLY****
TOTAL RUN TIME: 0 days 0 hours 0 minutes 7 seconds 522 msec
