                         Program Version 6.0.0  -   RELEASE  -
|  1> ! r2scan-3c def2/J RI DEFGRID2 scfconv6 printgap
|  2> %output
|  3>     printlevel normal
|  4> end
|  5> * xyz 0 1
|  6> C -2.071246354 0.065052857 -0.0012516061
|  7> C -0.7087920218 0.6934459259 0.001491996
|  8> C 0.4467662666 0.0399271793 0.0039959867
|  9> C 1.7633479033 0.7599975305 -0.0018271467
| 10> C 0.5574147686 -1.4561584254 -0.0002472518
| 11> H -2.2336269184 -0.5164965922 0.9061809563
| 12> H -2.8403783631 0.8302031189 -0.0557777785
| 13> H -2.1912017505 -0.6026504334 -0.853329607
| 14> H -0.6929842154 1.7755354899 0.0023643166
| 15> H 2.3288764875 0.5187593388 0.8978406596
| 16> H 2.3578854259 0.4479465158 -0.8596433138
| 17> H 1.6234263535 1.8368945472 -0.0462922761
| 18> H -0.4007103496 -1.9315855956 0.1810443935
| 19> H 0.9371134897 -1.7970316158 -0.9633517253
| 20> H 1.2606637088 -1.7801768742 0.7652020002
| 21> *
| 22>
| 23>                          ****END OF INPUT****

CARTESIAN COORDINATES (ANGSTROEM)
---------------------------------
  C     -2.071246    0.065053   -0.001252
  C     -0.708792    0.693446    0.001492
  C      0.446766    0.039927    0.003996
  C      1.763348    0.759998   -0.001827
  C      0.557415   -1.456158   -0.000247
  H     -2.233627   -0.516497    0.906181
  H     -2.840378    0.830203   -0.055778
  H     -2.191202   -0.602650   -0.853330
  H     -0.692984    1.775535    0.002364
  H      2.328876    0.518759    0.897841
  H      2.357885    0.447947   -0.859643
  H      1.623426    1.836895   -0.046292
  H     -0.400710   -1.931586    0.181044
  H      0.937113   -1.797032   -0.963352
  H      1.260664   -1.780177    0.765202

 Total Charge           Charge          ....    0
 Multiplicity           Mult            ....    1
 Number of Electrons    NEL             ....   40
 Basis Dimension        Dim             ....  145

ORBITAL ENERGIES
----------------

  NO   OCC          E(Eh)            E(eV)
   0   2.0000     -10.029626      -272.9200
   1   2.0000     -10.020690      -272.6768
   2   2.0000     -10.018552      -272.6186
   3   2.0000     -10.018268      -272.6109
   4   2.0000     -10.013862      -272.4910
   5   2.0000      -0.778308       -21.1788
   6   2.0000      -0.698452       -19.0058
   7   2.0000      -0.657400       -17.8888
   8   2.0000      -0.600800       -16.3486
   9   2.0000      -0.477786       -13.0012
  10   2.0000      -0.428353       -11.6561
  11   2.0000      -0.404440       -11.0054
  12   2.0000      -0.400358       -10.8943
  13   2.0000      -0.372167       -10.1272
  14   2.0000      -0.354007        -9.6330
  15   2.0000      -0.352699        -9.5974
  16   2.0000      -0.333816        -9.0836
  17   2.0000      -0.320191        -8.7128
  18   2.0000      -0.294428        -8.0118
  19   2.0000      -0.206529        -5.6200
  20   0.0000       0.002779         0.0756
  21   0.0000       0.090370         2.4591
  22   0.0000       0.116343         3.1659
  23   0.0000       0.124355         3.3839
  24   0.0000       0.139437         3.7943

MULLIKEN ATOMIC CHARGES
-----------------------
   0 C :   -0.513675
   1 C :   -0.165576
   2 C :    0.131244
   3 C :   -0.473084
   4 C :   -0.502389
   5 H :    0.161305
   6 H :    0.145678
   7 H :    0.160703
   8 H :    0.152077
   9 H :    0.150894
  10 H :    0.143741
  11 H :    0.147616
  12 H :    0.152389
  13 H :    0.163227
  14 H :    0.145852
Sum of atomic charges:   -0.0000000

LOEWDIN ATOMIC CHARGES
----------------------
   0 C :   -0.420481
   1 C :   -0.231694
   2 C :   -0.144958
   3 C :   -0.395841
   4 C :   -0.397935
   5 H :    0.159627
   6 H :    0.155264
   7 H :    0.159344
   8 H :    0.160424
   9 H :    0.157294
  10 H :    0.157246
  11 H :    0.157608
  12 H :    0.160184
  13 H :    0.163689
  14 H :    0.160228

  Mayer bond orders larger than 0.100000
B(  0-C ,  1-C ) :   0.8890 B(  0-C ,  5-H ) :   0.9826 B(  0-C ,  6-H ) :   0.9735
B(  0-C ,  7-H ) :   0.9832 B(  1-C ,  2-C ) :   1.9019 B(  1-C ,  8-H ) :   0.9568
B(  2-C ,  3-C ) :   0.8560 B(  2-C ,  4-C ) :   0.8755 B(  3-C ,  9-H ) :   0.9743
B(  3-C , 10-H ) :   0.9711 B(  3-C , 11-H ) :   0.9962 B(  4-C , 12-H ) :   0.9813
B(  4-C , 13-H ) :   0.9795 B(  4-C , 14-H ) :   0.9759

Dispersion correction           -0.003360532
FINAL SINGLE POINT ENERGY      -196.464637109888

DIPOLE MOMENT
-------------

Method             : SCF
Type of density    : Electron Density
Multiplicity       :   1
Irrep              :   0
Energy             :  -196.4679044185023145 Eh
Relativity type    :
Basis              : AO
                                X                 Y                 Z
Electronic contribution:     -0.089119639       1.024106197       0.016576332
Nuclear contribution   :      0.139847466      -1.143257706      -0.024169524
                        -----------------------------------------
Total Dipole Moment    :      0.050727828      -0.119151509      -0.007593192
                        -----------------------------------------
Magnitude (a.u.)       :      0.129722978
Magnitude (Debye)      :      0.329729607

Rotational constants in cm-1:             0.273986             0.119912             0.087461
Rotational constants in MHz :          8213.896790          3594.861993          2622.021468

                             ****ORCA TERMINATED NORMALLY****
TOTAL RUN TIME: 0 days 0 hours 0 minutes 8 seconds 112 msec
