                         Program Version 6.0.0  -   RELEASE  -
|  1> ! r2scan-3c def2/J RI DEFGRID2 scfconv6 printgap
|  2> %output
|  3>     printlevel normal
|  4> end
|  5> %cpcm
|  6>     smd true
|  7>     smdsolvent "water"
|  8> end
|  9> * xyz 0 1
| 10> C -2.071246354 0.065052857 -0.0012516061
| 11> C -0.7087920218 0.6934459259 0.001491996
| 12> C 0.4467662666 0.0399271793 0.0039959867
| 13> C 1.7633479033 0.7599975305 -0.0018271467
| 14> C 0.5574147686 -1.4561584254 -0.0002472518
| 15> H -2.2336269184 -0.5164965922 0.9061809563
| 16> H -2.8403783631 0.8302031189 -0.0557777785
| 17> H -2.1912017505 -0.6026504334 -0.853329607
| 18> H -0.6929842154 1.7755354899 0.0023643166
| 19> H 2.3288764875 0.5187593388 0.8978406596
| 20> H 2.3578854259 0.4479465158 -0.8596433138
| 21> H 1.6234263535 1.8368945472 -0.0462922761
| 22> H -0.4007103496 -1.9315855956 0.1810443935
| 23> H 0.9371134897 -1.7970316158 -0.9633517253
| 24> H 1.2606637088 -1.7801768742 0.7652020002
| 25> *
| 26>
| 27>                          ****END OF INPUT****

CARTESIAN COORDINATES (ANGSTROEM)
---------------------------------
  C     -2.071246    0.065053   -0.001252
  C     -0.708792    0.693446    0.001492
  C      0.446766    0.039927    0.003996
  C      1.763348    0.759998   -0.001827
  C      0.557415   -1.456158   -0.000247
  H     -2.233627   -0.516497    0.906181
  H     -2.840378    0.830203   -0.055778
  H     -2.191202   -0.602650   -0.853330
  H     -0.692984    1.775535    0.002364
  H      2.328876    0.518759    0.897841
  H      2.357885    0.447947   -0.859643
  H      1.623426    1.836895   -0.046292
  H     -0.400710   -1.931586    0.181044
  H      0.937113   -1.797032   -0.963352
  H      1.260664   -1.780177    0.765202

 Total Charge           Charge          ....    0
 Multiplicity           Mult            ....    1
 Number of Electrons    NEL             ....   40
 Basis Dimension        Dim             ....  145

ORBITAL ENERGIES
----------------

  NO   OCC          E(Eh)            E(eV)
   0   2.0000     -10.028560      -272.8910
   1   2.0000     -10.013020      -272.4681
   2   2.0000     -10.012480      -272.4534
   3   2.0000     -10.012262      -272.4475
   4   2.0000     -10.011456      -272.4256
   5   2.0000      -0.775646       -21.1064
   6   2.0000      -0.693898       -18.8819
   7   2.0000      -0.651622       -17.7315
   8   2.0000      -0.597039       -16.2463
   9   2.0000      -0.473584       -12.8869
  10   2.0000      -0.423114       -11.5135
  11   2.0000      -0.399506       -10.8711
  12   2.0000      -0.395783       -10.7698
  13   2.0000      -0.366970        -9.9858
  14   2.0000      -0.347290        -9.4502
  15   2.0000      -0.345862        -9.4114
  16   2.0000      -0.327835        -8.9209
  17   2.0000      -0.315439        -8.5835
  18   2.0000      -0.289936        -7.8896
  19   2.0000      -0.206708        -5.6248
  20   0.0000       0.003573         0.0972
  21   0.0000       0.096180         2.6172
  22   0.0000       0.122596         3.3360
  23   0.0000       0.130417         3.5488
  24   0.0000       0.143612         3.9079

MULLIKEN ATOMIC CHARGES
-----------------------
   0 C :   -0.526868
   1 C :   -0.231765
   2 C :    0.116924
   3 C :   -0.506949
   4 C :   -0.533132
   5 H :    0.173231
   6 H :    0.161450
   7 H :    0.171710
   8 H :    0.175391
   9 H :    0.167753
  10 H :    0.161159
  11 H :    0.162087
  12 H :    0.165843
  13 H :    0.179632
  14 H :    0.163533
Sum of atomic charges:   -0.0000000

LOEWDIN ATOMIC CHARGES
----------------------
   0 C :   -0.427594
   1 C :   -0.252170
   2 C :   -0.149897
   3 C :   -0.404716
   4 C :   -0.404722
   5 H :    0.164028
   6 H :    0.159245
   7 H :    0.163311
   8 H :    0.165982
   9 H :    0.163091
  10 H :    0.163006
  11 H :    0.160703
  12 H :    0.163852
  13 H :    0.169720
  14 H :    0.166160

  Mayer bond orders larger than 0.100000
B(  0-C ,  1-C ) :   0.8859 B(  0-C ,  5-H ) :   0.9766 B(  0-C ,  6-H ) :   0.9710
B(  0-C ,  7-H ) :   0.9779 B(  1-C ,  2-C ) :   1.8770 B(  1-C ,  8-H ) :   0.9610
B(  2-C ,  3-C ) :   0.8547 B(  2-C ,  4-C ) :   0.8713 B(  3-C ,  9-H ) :   0.9680
B(  3-C , 10-H ) :   0.9661 B(  3-C , 11-H ) :   0.9925 B(  4-C , 12-H ) :   0.9784
B(  4-C , 13-H ) :   0.9727 B(  4-C , 14-H ) :   0.9714

Dispersion correction           -0.003360532
FINAL SINGLE POINT ENERGY      -196.463147393469

DIPOLE MOMENT
-------------

Method             : SCF
Type of density    : Electron Density
Multiplicity       :   1
Irrep              :   0
Energy             :  -196.4664147020831422 Eh
Relativity type    :
Basis              : AO
                                X                 Y                 Z
Electronic contribution:     -0.039729165       0.953392636       0.014530275
Nuclear contribution   :      0.139847466      -1.143257706      -0.024169524
                        -----------------------------------------
Total Dipole Moment    :      0.100118301      -0.189865070      -0.009639249
                        -----------------------------------------
Magnitude (a.u.)       :      0.214861197
Magnitude (Debye)      :      0.546133762

Rotational constants in cm-1:             0.273986             0.119912             0.087461
Rotational constants in MHz :          8213.896790          3594.861993          2622.021468

                             ****ORCA TERMINATED NORMALLY****
TOTAL RUN TIME: 0 days 0 hours 0 minutes 9 seconds 762 msec
