                         Program Version 6.0.0  -   RELEASE  -
|  1> ! wb97x-v def2-tzvp def2/J RIJCOSX DEFGRID2 scfconv7 GCP(DFT/TZ) printgap
|  2> %output
|  3>     printlevel normal
|  4> end
|  5> * xyz 0 1
|  6> C 1.6975718057031326 0.3983490006963176 0.6456792203090487
|  7> C 0.8935788175740569 0.3806624140732944 -0.652230304129526
|  8> C -0.570291117342755 -0.03421706983342598 -0.4965904543027667
|  9> H -1.051138883396534 0.04231928759415603 -1.4836324811283759
| 10> C -1.3476589549395968 0.8097347533515316 0.4946094861697241
| 11> O -0.6767227529742211 -1.4079242926324853 -0.04126885255159181
| 12> H 1.349736978463354 1.1805581891409356 1.327437616628384
| 13> H 2.7546763675768107 0.5897690886944726 0.4372365308253389
| 14> H 1.6308101064948972 -0.5610301480610025 1.1690461318499354
| 15> H 1.362423010323157 -0.30670745130713095 -1.3689079410212819
| 16> H 0.9129157004469585 1.373821948040278 -1.1181821795721243
| 17> H -2.401629499720774 0.5161710065815237 0.5044854915345589
| 18> H -0.9491649517664237 0.6937636035490251 1.5071997230125194
| 19> H -1.2879371014617984 1.8665634512286085 0.2179957202705315
| 20> H -0.19417645348991538 -1.9558643807587464 -0.674103534347204
| 21> *
| 22>
| 23>                          ****END OF INPUT****

CARTESIAN COORDINATES (ANGSTROEM)
---------------------------------
  C      1.697572    0.398349    0.645679
  C      0.893579    0.380662   -0.652230
  C     -0.570291   -0.034217   -0.496590
  H     -1.051139    0.042319   -1.483632
  C     -1.347659    0.809735    0.494609
  O     -0.676723   -1.407924   -0.041269
  H      1.349737    1.180558    1.327438
  H      2.754676    0.589769    0.437237
  H      1.630810   -0.561030    1.169046
  H      1.362423   -0.306707   -1.368908
  H      0.912916    1.373822   -1.118182
  H     -2.401629    0.516171    0.504485
  H     -0.949165    0.693764    1.507200
  H     -1.287937    1.866563    0.217996
  H     -0.194176   -1.955864   -0.674104

 Total Charge           Charge          ....    0
 Multiplicity           Mult            ....    1
 Number of Electrons    NEL             ....   42
 Basis Dimension        Dim             ....  215

ORBITAL ENERGIES
----------------

  NO   OCC          E(Eh)            E(eV)
   0   2.0000     -21.665008      -589.5348
   1   2.0000     -12.095367      -329.1317
   2   2.0000     -12.045002      -327.7612
   3   2.0000     -12.032739      -327.4275
   4   2.0000     -12.031984      -327.4069
   5   2.0000      -1.662662       -45.2433
   6   2.0000      -1.304930       -35.5089
   7   2.0000      -1.230006       -33.4702
   8   2.0000      -1.136423       -30.9236
   9   2.0000      -1.085410       -29.5355
  10   2.0000      -1.003565       -27.3084
  11   2.0000      -0.942172       -25.6378
  12   2.0000      -0.929098       -25.2821
  13   2.0000      -0.867174       -23.5970
  14   2.0000      -0.850271       -23.1370
  15   2.0000      -0.839612       -22.8470
  16   2.0000      -0.814605       -22.1665
  17   2.0000      -0.812855       -22.1189
  18   2.0000      -0.780069       -21.2267
  19   2.0000      -0.765554       -20.8318
  20   2.0000      -0.760096       -20.6833
  21   0.0000      -0.141616        -3.8536
  22   0.0000      -0.051618        -1.4046
  23   0.0000      -0.019445        -0.5291
  24   0.0000      -0.010652        -0.2899
  25   0.0000      -0.003384        -0.0921

MULLIKEN ATOMIC CHARGES
-----------------------
   0 C :   -0.354796
   1 C :   -0.211010
   2 C :    0.134147
   3 H :    0.069610
   4 C :   -0.357512
   5 O :   -0.449813
   6 H :    0.114326
   7 H :    0.114227
   8 H :    0.118231
   9 H :    0.091383
  10 H :    0.092215
  11 H :    0.120735
  12 H :    0.122481
  13 H :    0.103564
  14 H :    0.292210
Sum of atomic charges:   -0.0000000

LOEWDIN ATOMIC CHARGES
----------------------
   0 C :   -0.307426
   1 C :   -0.283351
   2 C :   -0.366551
   3 H :    0.129381
   4 C :   -0.281497
   5 O :   -0.041340
   6 H :    0.116346
   7 H :    0.116191
   8 H :    0.120291
   9 H :    0.129827
  10 H :    0.136191
  11 H :    0.122288
  12 H :    0.122771
  13 H :    0.122055
  14 H :    0.164825

  Mayer bond orders larger than 0.100000
B(  0-C ,  1-C ) :   0.9727 B(  0-C ,  6-H ) :   0.9811 B(  0-C ,  7-H ) :   0.9815
B(  0-C ,  8-H ) :   0.9737 B(  1-C ,  2-C ) :   0.9857 B(  1-C ,  9-H ) :   0.9799
B(  1-C , 10-H ) :   0.9683 B(  2-C ,  3-H ) :   0.9742 B(  2-C ,  4-C ) :   0.9604
B(  2-C ,  5-O ) :   1.0157 B(  4-C , 11-H ) :   0.9781 B(  4-C , 12-H ) :   0.9832
B(  4-C , 13-H ) :   0.9727 B(  5-O , 14-H ) :   0.9070

FINAL SINGLE POINT ENERGY      -233.680351354668

DIPOLE MOMENT
-------------

Method             : SCF
Type of density    : Electron Density
Multiplicity       :   1
Irrep              :   0
Energy             :  -233.6909966851676188 Eh
Relativity type    :
Basis              : AO
                                X                 Y                 Z
Electronic contribution:     -1.729002484      -3.012792395      -1.029383058
Nuclear contribution   :      2.060789243       3.254975051       0.516331232
                        -----------------------------------------
Total Dipole Moment    :      0.331786759       0.242182656      -0.513051826
                        -----------------------------------------
Magnitude (a.u.)       :      0.657234409
Magnitude (Debye)      :      1.670557106

Rotational constants in cm-1:             0.213021             0.128835             0.105454
Rotational constants in MHz :          6386.216459          3862.362816          3161.423599

                             ****ORCA TERMINATED NORMALLY****
TOTAL RUN TIME: 0 days 0 hours 1 minutes 2 seconds 454 msec
