                         Program Version 6.0.0  -   RELEASE  -
|  1> ! wb97x-v def2-tzvp def2/J RIJCOSX DEFGRID2 scfconv7 GCP(DFT/TZ) printgap
|  2> %output
|  3>     printlevel normal
|  4> end
|  5> %cpcm
|  6>     smd true
|  7>     smdsolvent "water"
|  8> end
|  9> * xyz 0 1
| 10> C 1.6975718057031326 0.3983490006963176 0.6456792203090487
| 11> C 0.8935788175740569 0.3806624140732944 -0.652230304129526
| 12> C -0.570291117342755 -0.03421706983342598 -0.4965904543027667
| 13> H -1.051138883396534 0.04231928759415603 -1.4836324811283759
| 14> C -1.3476589549395968 0.8097347533515316 0.4946094861697241
| 15> O -0.6767227529742211 -1.4079242926324853 -0.04126885255159181
| 16> H 1.349736978463354 1.1805581891409356 1.327437616628384
| 17> H 2.7546763675768107 0.5897690886944726 0.4372365308253389
| 18> H 1.6308101064948972 -0.5610301480610025 1.1690461318499354
| 19> H 1.362423010323157 -0.30670745130713095 -1.3689079410212819
| 20> H 0.9129157004469585 1.373821948040278 -1.1181821795721243
| 21> H -2.401629499720774 0.5161710065815237 0.5044854915345589
| 22> H -0.9491649517664237 0.6937636035490251 1.5071997230125194
| 23> H -1.2879371014617984 1.8665634512286085 0.2179957202705315
| 24> H -0.19417645348991538 -1.9558643807587464 -0.674103534347204
| 25> *
| 26>
| 27>                          ****END OF INPUT****

CARTESIAN COORDINATES (ANGSTROEM)
---------------------------------
  C      1.697572    0.398349    0.645679
  C      0.893579    0.380662   -0.652230
  C     -0.570291   -0.034217   -0.496590
  H     -1.051139    0.042319   -1.483632
  C     -1.347659    0.809735    0.494609
  O     -0.676723   -1.407924   -0.041269
  H      1.349737    1.180558    1.327438
  H      2.754676    0.589769    0.437237
  H      1.630810   -0.561030    1.169046
  H      1.362423   -0.306707   -1.368908
  H      0.912916    1.373822   -1.118182
  H     -2.401629    0.516171    0.504485
  H     -0.949165    0.693764    1.507200
  H     -1.287937    1.866563    0.217996
  H     -0.194176   -1.955864   -0.674104

 Total Charge           Charge          ....    0
 Multiplicity           Mult            ....    1
 Number of Electrons    NEL             ....   42
 Basis Dimension        Dim             ....  215

ORBITAL ENERGIES
----------------

  NO   OCC          E(Eh)            E(eV)
   0   2.0000     -21.668353      -589.6259
   1   2.0000     -12.089394      -328.9691
   2   2.0000     -12.033180      -327.4395
   3   2.0000     -12.025788      -327.2383
   4   2.0000     -12.024652      -327.2074
   5   2.0000      -1.666375       -45.3444
   6   2.0000      -1.297768       -35.3141
   7   2.0000      -1.223336       -33.2887
   8   2.0000      -1.130133       -30.7525
   9   2.0000      -1.083222       -29.4760
  10   2.0000      -1.003854       -27.3163
  11   2.0000      -0.944032       -25.6884
  12   2.0000      -0.928096       -25.2548
  13   2.0000      -0.860618       -23.4186
  14   2.0000      -0.846500       -23.0344
  15   2.0000      -0.832496       -22.6534
  16   2.0000      -0.808207       -21.9924
  17   2.0000      -0.806589       -21.9484
  18   2.0000      -0.772490       -21.0205
  19   2.0000      -0.755343       -20.5539
  20   2.0000      -0.753798       -20.5119
  21   0.0000      -0.137198        -3.7333
  22   0.0000      -0.030901        -0.8409
  23   0.0000      -0.010337        -0.2813
  24   0.0000      -0.002448        -0.0666
  25   0.0000       0.010379         0.2824

MULLIKEN ATOMIC CHARGES
-----------------------
   0 C :   -0.409085
   1 C :   -0.207232
   2 C :    0.136564
   3 H :    0.092189
   4 C :   -0.399749
   5 O :   -0.564659
   6 H :    0.130707
   7 H :    0.132497
   8 H :    0.114524
   9 H :    0.115974
  10 H :    0.109928
  11 H :    0.132009
  12 H :    0.131668
  13 H :    0.129800
  14 H :    0.354863
Sum of atomic charges:    0.0000000

LOEWDIN ATOMIC CHARGES
----------------------
   0 C :   -0.314971
   1 C :   -0.279824
   2 C :   -0.362548
   3 H :    0.136667
   4 C :   -0.290379
   5 O :   -0.083584
   6 H :    0.118808
   7 H :    0.119547
   8 H :    0.116526
   9 H :    0.137660
  10 H :    0.141379
  11 H :    0.121722
  12 H :    0.122721
  13 H :    0.129385
  14 H :    0.186891

  Mayer bond orders larger than 0.100000
B(  0-C ,  1-C ) :   0.9643 B(  0-C ,  6-H ) :   0.9782 B(  0-C ,  7-H ) :   0.9788
B(  0-C ,  8-H ) :   0.9752 B(  1-C ,  2-C ) :   0.9874 B(  1-C ,  9-H ) :   0.9767
B(  1-C , 10-H ) :   0.9645 B(  2-C ,  3-H ) :   0.9786 B(  2-C ,  4-C ) :   0.9658
B(  2-C ,  5-O ) :   0.9757 B(  4-C , 11-H ) :   0.9758 B(  4-C , 12-H ) :   0.9742
B(  4-C , 13-H ) :   0.9708 B(  5-O , 14-H ) :   0.8710

FINAL SINGLE POINT ENERGY      -233.687472319331

DIPOLE MOMENT
-------------

Method             : SCF
Type of density    : Electron Density
Multiplicity       :   1
Irrep              :   0
Energy             :  -233.6981176498312607 Eh
Relativity type    :
Basis              : AO
                                X                 Y                 Z
Electronic contribution:     -1.593089056      -2.882787098      -1.292710945
Nuclear contribution   :      2.060789243       3.254975051       0.516331232
                        -----------------------------------------
Total Dipole Moment    :      0.467700187       0.372187953      -0.776379713
                        -----------------------------------------
Magnitude (a.u.)       :      0.979812633
Magnitude (Debye)      :      2.490485792

Rotational constants in cm-1:             0.213021             0.128835             0.105454
Rotational constants in MHz :          6386.216459          3862.362816          3161.423599

                             ****ORCA TERMINATED NORMALLY****
TOTAL RUN TIME: 0 days 0 hours 1 minutes 10 seconds 570 msec
