                         Program Version 6.0.0  -   RELEASE  -
|  1> ! pbe def2-sv(p) def2/J RI DEFGRID1 loosescf d4 GCP(DFT/SV(P)) printgap
|  2> %output
|  3>     printlevel normal
|  4> end
|  5> * xyz 0 1
|  6> C -2.853745563 0.60122414 -0.4325065832
|  7> C -1.6195556526 0.5825763783 0.4811934259
|  8> H -1.9605678934 0.8011195566 1.4998365945
|  9> C -0.5751614404 1.6208673264 0.0579913476
| 10> C 0.1701571426 1.2168565793 -1.207470355
| 11> C 0.8615269499 -0.143625179 -1.038707065
| 12> H 1.2890051121 -0.4229788709 -2.0080414038
| 13> C -0.1878259704 -1.2007190195 -0.6754121608
| 14> C -1.0684531871 -0.8258419959 0.4830362945
| 15> O -1.3928756667 -1.6319862758 1.3368854627
| 16> C 2.0137654242 -0.048705202 -0.0569021056
| 17> C 3.1455220337 0.5312650053 -0.4297191472
| 18> C 1.8504497175 -0.6160818656 1.3190897656
| 19> H -3.5618606948 -0.1632649003 -0.1196289812
| 20> H -3.3392800549 1.5712173579 -0.366181906
| 21> H -2.5808067519 0.4177659387 -1.4671743543
| 22> H -1.0770908817 2.5772250082 -0.0992164574
| 23> H 0.1453275679 1.7570035779 0.8666316669
| 24> H -0.5227839996 1.1642537571 -2.0480019878
| 25> H 0.9189775374 1.9749518607 -1.4391844279
| 26> H -0.8574779067 -1.3232149973 -1.5313050074
| 27> H 0.2715456052 -2.170260389 -0.4776242933
| 28> H 3.9798720489 0.6359914492 0.2420596338
| 29> H 3.2849640653 0.9233744338 -1.4231077469
| 30> H 0.9370525238 -0.2611303464 1.7928245077
| 31> H 1.7912555069 -1.7034074479 1.2800410766
| 32> H 2.6966097729 -0.3434726227 1.944572937
| 33> *
| 34>
| 35>                          ****END OF INPUT****

CARTESIAN COORDINATES (ANGSTROEM)
---------------------------------
  C     -2.853746    0.601224   -0.432507
  C     -1.619556    0.582576    0.481193
  H     -1.960568    0.801120    1.499837
  C     -0.575161    1.620867    0.057991
  C      0.170157    1.216857   -1.207470
  C      0.861527   -0.143625   -1.038707
  H      1.289005   -0.422979   -2.008041
  C     -0.187826   -1.200719   -0.675412
  C     -1.068453   -0.825842    0.483036
  O     -1.392876   -1.631986    1.336885
  C      2.013765   -0.048705   -0.056902
  C      3.145522    0.531265   -0.429719
  C      1.850450   -0.616082    1.319090
  H     -3.561861   -0.163265   -0.119629
  H     -3.339280    1.571217   -0.366182
  H     -2.580807    0.417766   -1.467174
  H     -1.077091    2.577225   -0.099216
  H      0.145328    1.757004    0.866632
  H     -0.522784    1.164254   -2.048002
  H      0.918978    1.974952   -1.439184
  H     -0.857478   -1.323215   -1.531305
  H      0.271546   -2.170260   -0.477624
  H      3.979872    0.635991    0.242060
  H      3.284964    0.923374   -1.423108
  H      0.937053   -0.261130    1.792825
  H      1.791256   -1.703407    1.280041
  H      2.696610   -0.343473    1.944573

 Total Charge           Charge          ....    0
 Multiplicity           Mult            ....    1
 Number of Electrons    NEL             ....   84
 Basis Dimension        Dim             ....  186

ORBITAL ENERGIES
----------------

  NO   OCC          E(Eh)            E(eV)
   0   2.0000     -18.736642      -509.8499
   1   2.0000      -9.970180      -271.3024
   2   2.0000      -9.908114      -269.6135
   3   2.0000      -9.902804      -269.4690
   4   2.0000      -9.901790      -269.4414
   5   2.0000      -9.895309      -269.2650
   6   2.0000      -9.893520      -269.2164
   7   2.0000      -9.893318      -269.2109
   8   2.0000      -9.890642      -269.1381
   9   2.0000      -9.882956      -268.9289
  10   2.0000      -9.874736      -268.7052
  11   2.0000      -0.932002       -25.3611
  12   2.0000      -0.774475       -21.0745
  13   2.0000      -0.727976       -19.8092
  14   2.0000      -0.683972       -18.6118
  15   2.0000      -0.665768       -18.1165
  16   2.0000      -0.623449       -16.9649
  17   2.0000      -0.600850       -16.3500
  18   2.0000      -0.557532       -15.1712
  19   2.0000      -0.536744       -14.6056
  20   2.0000      -0.484751       -13.1907
  21   2.0000      -0.450016       -12.2456
  22   2.0000      -0.439198       -11.9512
  23   2.0000      -0.422003       -11.4833
  24   2.0000      -0.416876       -11.3438
  25   2.0000      -0.400268       -10.8918
  26   2.0000      -0.394265       -10.7285
  27   2.0000      -0.377137       -10.2624
  28   2.0000      -0.369854       -10.0642
  29   2.0000      -0.361479        -9.8363
  30   2.0000      -0.356053        -9.6887
  31   2.0000      -0.353647        -9.6232
  32   2.0000      -0.347189        -9.4475
  33   2.0000      -0.328364        -8.9352
  34   2.0000      -0.323385        -8.7998
  35   2.0000      -0.306132        -8.3303
  36   2.0000      -0.304072        -8.2742
  37   2.0000      -0.292396        -7.9565
  38   2.0000      -0.282527        -7.6879
  39   2.0000      -0.274477        -7.4689
  40   2.0000      -0.218635        -5.9493
  41   2.0000      -0.189299        -5.1511
  42   0.0000      -0.053984        -1.4690
  43   0.0000      -0.019483        -0.5302
  44   0.0000       0.023683         0.6444
  45   0.0000       0.044643         1.2148
  46   0.0000       0.058540         1.5929

MULLIKEN ATOMIC CHARGES
-----------------------
   0 C :   -0.269219
   1 C :   -0.118358
   2 H :    0.072407
   3 C :   -0.127536
   4 C :   -0.124065
   5 C :   -0.134773
   6 H :    0.075010
   7 C :   -0.073052
   8 C :   -0.030412
   9 O :   -0.164704
  10 C :   -0.069427
  11 C :   -0.240583
  12 C :   -0.211270
  13 H :    0.119106
  14 H :    0.111192
  15 H :    0.108034
  16 H :    0.082698
  17 H :    0.100903
  18 H :    0.083956
  19 H :    0.089967
  20 H :    0.106283
  21 H :    0.093045
  22 H :    0.085301
  23 H :    0.085004
  24 H :    0.132036
  25 H :    0.119474
  26 H :    0.098981
Sum of atomic charges:    0.0000000

LOEWDIN ATOMIC CHARGES
----------------------
   0 C :   -0.320136
   1 C :   -0.168854
   2 H :    0.128050
   3 C :   -0.216444
   4 C :   -0.210658
   5 C :   -0.129236
   6 H :    0.128233
   7 C :   -0.234862
   8 C :    0.048717
   9 O :   -0.134655
  10 C :   -0.051565
  11 C :   -0.264377
  12 C :   -0.323879
  13 H :    0.128019
  14 H :    0.125099
  15 H :    0.116212
  16 H :    0.119638
  17 H :    0.122725
  18 H :    0.113809
  19 H :    0.122900
  20 H :    0.144312
  21 H :    0.130715
  22 H :    0.118367
  23 H :    0.115765
  24 H :    0.129172
  25 H :    0.136005
  26 H :    0.126928

  Mayer bond orders larger than 0.100000
B(  0-C ,  1-C ) :   1.0893 B(  0-C , 13-H ) :   0.9444 B(  0-C , 14-H ) :   0.9440
B(  0-C , 15-H ) :   0.9430 B(  1-C ,  2-H ) :   0.8705 B(  1-C ,  3-C ) :   1.0544
B(  1-C ,  8-C ) :   0.9665 B(  3-C ,  4-C ) :   1.1177 B(  3-C , 16-H ) :   0.9090
B(  3-C , 17-H ) :   0.9108 B(  4-C ,  5-C ) :   1.0650 B(  4-C , 18-H ) :   0.9125
B(  4-C , 19-H ) :   0.9087 B(  5-C ,  6-H ) :   0.8747 B(  5-C ,  7-C ) :   1.0600
B(  5-C , 10-C ) :   0.9971 B(  7-C ,  8-C ) :   1.0140 B(  7-C , 20-H ) :   0.8779
B(  7-C , 21-H ) :   0.8897 B(  8-C ,  9-O ) :   2.1772 B( 10-C , 11-C ) :   2.0291
B( 10-C , 12-C ) :   1.1554 B( 11-C , 22-H ) :   0.9074 B( 11-C , 23-H ) :   0.9095
B( 12-C , 24-H ) :   0.9059 B( 12-C , 25-H ) :   0.9126 B( 12-C , 26-H ) :   0.9300

Dispersion correction           -0.030408404
FINAL SINGLE POINT ENERGY      -464.824072638511

DIPOLE MOMENT
-------------

Method             : SCF
Type of density    : Electron Density
Multiplicity       :   1
Irrep              :   0
Energy             :  -464.9093032250854094 Eh
Relativity type    :
Basis              : AO
                                X                 Y                 Z
Electronic contribution:     -1.194854249      -4.421254205       2.431930718
Nuclear contribution   :      1.306608558       5.074897465      -3.126317277
                        -----------------------------------------
Total Dipole Moment    :      0.111754309       0.653643259      -0.694386559
                        -----------------------------------------
Magnitude (a.u.)       :      0.960162085
Magnitude (Debye)      :      2.440538067

Rotational constants in cm-1:             0.058874             0.030366             0.024667
Rotational constants in MHz :          1764.991995           910.363379           739.489963

                             ****ORCA TERMINATED NORMALLY****
TOTAL RUN TIME: 0 days 0 hours 0 minutes 17 seconds 729 msec
