                         Program Version 6.0.0  -   RELEASE  -
|  1> ! wb97x-v def2-tzvp def2/J RIJCOSX DEFGRID2 scfconv7 GCP(DFT/TZ) printgap
|  2> %output
|  3>     printlevel normal
|  4> end
|  5> * xyz 0 1
|  6> C -2.497307435388915 0.06987008362363172 0.011712420903969735
|  7> C -1.2314343613433427 -0.77187100009884 0.0064278148807818195
|  8> C 0.02581895765850692 0.04977657604158956 -0.014497843785168857
|  9> O 0.0812551223071857 1.2620751477362027 -0.132254255530838
| 10> O 1.1238569769641338 -0.7270945611571918 0.10554134929020478
| 11> C 2.3966623964501634 -0.031653229707721935 0.07551238847696425
| 12> H -2.5479298487892503 0.7009665192767274 0.9035399337764747
| 13> H -2.5455231974709975 0.717529047158696 -0.8678467147056166
| 14> H -3.376005140623729 -0.5801156493108898 0.004352613018390298
| 15> H -1.1959964166353148 -1.4299140145173497 -0.8711231717790244
| 16> H -1.1836153363981925 -1.4341978277949106 0.8781230202144666
| 17> H 2.4486867231227234 0.6987305235883223 0.8866168831402443
| 18> H 2.532228435612491 0.46621932318100945 -0.8880318440084083
| 19> H 3.1519528352725383 -0.8051277938294258 0.21204045835414478
| 20> *
| 21>
| 22>                          ****END OF INPUT****

CARTESIAN COORDINATES (ANGSTROEM)
---------------------------------
  C     -2.497307    0.069870    0.011712
  C     -1.231434   -0.771871    0.006428
  C      0.025819    0.049777   -0.014498
  O      0.081255    1.262075   -0.132254
  O      1.123857   -0.727095    0.105541
  C      2.396662   -0.031653    0.075512
  H     -2.547930    0.700967    0.903540
  H     -2.545523    0.717529   -0.867847
  H     -3.376005   -0.580116    0.004353
  H     -1.195996   -1.429914   -0.871123
  H     -1.183615   -1.434198    0.878123
  H      2.448687    0.698731    0.886617
  H      2.532228    0.466219   -0.888032
  H      3.151953   -0.805128    0.212040

 Total Charge           Charge          ....    0
 Multiplicity           Mult            ....    1
 Number of Electrons    NEL             ....   48
 Basis Dimension        Dim             ....  234

ORBITAL ENERGIES
----------------

  NO   OCC          E(Eh)            E(eV)
   0   2.0000     -21.718003      -590.9769
   1   2.0000     -21.656224      -589.2958
   2   2.0000     -12.175766      -331.3194
   3   2.0000     -12.102953      -329.3381
   4   2.0000     -12.063049      -328.2523
   5   2.0000     -12.040556      -327.6402
   6   2.0000      -1.756262       -47.7903
   7   2.0000      -1.691076       -46.0165
   8   2.0000      -1.316700       -35.8292
   9   2.0000      -1.257492       -34.2181
  10   2.0000      -1.148831       -31.2613
  11   2.0000      -1.106839       -30.1186
  12   2.0000      -1.061811       -28.8933
  13   2.0000      -1.002795       -27.2874
  14   2.0000      -0.995508       -27.0891
  15   2.0000      -0.943182       -25.6653
  16   2.0000      -0.907065       -24.6825
  17   2.0000      -0.867844       -23.6152
  18   2.0000      -0.860298       -23.4099
  19   2.0000      -0.845074       -22.9956
  20   2.0000      -0.837819       -22.7982
  21   2.0000      -0.824417       -22.4335
  22   2.0000      -0.797968       -21.7138
  23   2.0000      -0.781471       -21.2649
  24   0.0000      -0.301652        -8.2084
  25   0.0000      -0.182853        -4.9757
  26   0.0000      -0.104223        -2.8360
  27   0.0000      -0.033986        -0.9248
  28   0.0000      -0.002904        -0.0790

MULLIKEN ATOMIC CHARGES
-----------------------
   0 C :   -0.319204
   1 C :   -0.173663
   2 C :    0.306862
   3 O :   -0.355662
   4 O :   -0.247332
   5 C :   -0.186642
   6 H :    0.115014
   7 H :    0.120049
   8 H :    0.114124
   9 H :    0.118410
  10 H :    0.120445
  11 H :    0.130671
  12 H :    0.128736
  13 H :    0.128191
Sum of atomic charges:   -0.0000000

LOEWDIN ATOMIC CHARGES
----------------------
   0 C :   -0.293507
   1 C :   -0.254149
   2 C :   -0.463857
   3 O :    0.087093
   4 O :    0.217709
   5 C :   -0.289609
   6 H :    0.122755
   7 H :    0.123943
   8 H :    0.117631
   9 H :    0.151592
  10 H :    0.149346
  11 H :    0.111047
  12 H :    0.110568
  13 H :    0.109437

  Mayer bond orders larger than 0.100000
B(  0-C ,  1-C ) :   1.0001 B(  0-C ,  6-H ) :   0.9751 B(  0-C ,  7-H ) :   0.9733
B(  0-C ,  8-H ) :   0.9786 B(  1-C ,  2-C ) :   0.9945 B(  1-C ,  9-H ) :   0.9489
B(  1-C , 10-H ) :   0.9589 B(  2-C ,  3-O ) :   2.0338 B(  2-C ,  4-O ) :   1.2007
B(  4-O ,  5-C ) :   0.9078 B(  5-C , 11-H ) :   0.9780 B(  5-C , 12-H ) :   0.9788
B(  5-C , 13-H ) :   0.9720

FINAL SINGLE POINT ENERGY      -307.721367003252

DIPOLE MOMENT
-------------

Method             : SCF
Type of density    : Electron Density
Multiplicity       :   1
Irrep              :   0
Energy             :  -307.7308135208515409 Eh
Relativity type    :
Basis              : AO
                                X                 Y                 Z
Electronic contribution:      2.788175262       0.741168899      -0.109761769
Nuclear contribution   :     -2.603417919      -1.440907540       0.174375420
                        -----------------------------------------
Total Dipole Moment    :      0.184757343      -0.699738641       0.064613651
                        -----------------------------------------
Magnitude (a.u.)       :      0.726597802
Magnitude (Debye)      :      1.846864839

Rotational constants in cm-1:             0.316641             0.071041             0.060030
Rotational constants in MHz :          9492.658794          2129.767107          1799.650348

                             ****ORCA TERMINATED NORMALLY****
TOTAL RUN TIME: 0 days 0 hours 1 minutes 26 seconds 103 msec
