                         Program Version 6.0.0  -   RELEASE  -
|  1> ! wb97x-v def2-tzvp def2/J RIJCOSX DEFGRID2 scfconv7 GCP(DFT/TZ) printgap
|  2> %output
|  3>     printlevel normal
|  4> end
|  5> %cpcm
|  6>     smd true
|  7>     smdsolvent "water"
|  8> end
|  9> * xyz 0 1
| 10> C -2.497307435388915 0.06987008362363172 0.011712420903969735
| 11> C -1.2314343613433427 -0.77187100009884 0.0064278148807818195
| 12> C 0.02581895765850692 0.04977657604158956 -0.014497843785168857
| 13> O 0.0812551223071857 1.2620751477362027 -0.132254255530838
| 14> O 1.1238569769641338 -0.7270945611571918 0.10554134929020478
| 15> C 2.3966623964501634 -0.031653229707721935 0.07551238847696425
| 16> H -2.5479298487892503 0.7009665192767274 0.9035399337764747
| 17> H -2.5455231974709975 0.717529047158696 -0.8678467147056166
| 18> H -3.376005140623729 -0.5801156493108898 0.004352613018390298
| 19> H -1.1959964166353148 -1.4299140145173497 -0.8711231717790244
| 20> H -1.1836153363981925 -1.4341978277949106 0.8781230202144666
| 21> H 2.4486867231227234 0.6987305235883223 0.8866168831402443
| 22> H 2.532228435612491 0.46621932318100945 -0.8880318440084083
| 23> H 3.1519528352725383 -0.8051277938294258 0.21204045835414478
| 24> *
| 25>
| 26>                          ****END OF INPUT****

CARTESIAN COORDINATES (ANGSTROEM)
---------------------------------
  C     -2.497307    0.069870    0.011712
  C     -1.231434   -0.771871    0.006428
  C      0.025819    0.049777   -0.014498
  O      0.081255    1.262075   -0.132254
  O      1.123857   -0.727095    0.105541
  C      2.396662   -0.031653    0.075512
  H     -2.547930    0.700967    0.903540
  H     -2.545523    0.717529   -0.867847
  H     -3.376005   -0.580116    0.004353
  H     -1.195996   -1.429914   -0.871123
  H     -1.183615   -1.434198    0.878123
  H      2.448687    0.698731    0.886617
  H      2.532228    0.466219   -0.888032
  H      3.151953   -0.805128    0.212040

 Total Charge           Charge          ....    0
 Multiplicity           Mult            ....    1
 Number of Electrons    NEL             ....   48
 Basis Dimension        Dim             ....  234

ORBITAL ENERGIES
----------------

  NO   OCC          E(Eh)            E(eV)
   0   2.0000     -21.721938      -591.0840
   1   2.0000     -21.669233      -589.6498
   2   2.0000     -12.184891      -331.5677
   3   2.0000     -12.092091      -329.0425
   4   2.0000     -12.053982      -328.0055
   5   2.0000     -12.032863      -327.4309
   6   2.0000      -1.763154       -47.9779
   7   2.0000      -1.702186       -46.3188
   8   2.0000      -1.313291       -35.7365
   9   2.0000      -1.252398       -34.0795
  10   2.0000      -1.146456       -31.1967
  11   2.0000      -1.109916       -30.2024
  12   2.0000      -1.072268       -29.1779
  13   2.0000      -1.001046       -27.2398
  14   2.0000      -0.998128       -27.1605
  15   2.0000      -0.947625       -25.7862
  16   2.0000      -0.917508       -24.9667
  17   2.0000      -0.866897       -23.5895
  18   2.0000      -0.864159       -23.5150
  19   2.0000      -0.837239       -22.7824
  20   2.0000      -0.828883       -22.5551
  21   2.0000      -0.816382       -22.2149
  22   2.0000      -0.791878       -21.5481
  23   2.0000      -0.773213       -21.0402
  24   0.0000      -0.305128        -8.3030
  25   0.0000      -0.176793        -4.8108
  26   0.0000      -0.106297        -2.8925
  27   0.0000      -0.029881        -0.8131
  28   0.0000       0.007661         0.2085

MULLIKEN ATOMIC CHARGES
-----------------------
   0 C :   -0.387432
   1 C :   -0.179427
   2 C :    0.395583
   3 O :   -0.473795
   4 O :   -0.275245
   5 C :   -0.227147
   6 H :    0.129604
   7 H :    0.127716
   8 H :    0.138193
   9 H :    0.149098
  10 H :    0.147079
  11 H :    0.149275
  12 H :    0.149892
  13 H :    0.156605
Sum of atomic charges:   -0.0000000

LOEWDIN ATOMIC CHARGES
----------------------
   0 C :   -0.300351
   1 C :   -0.247480
   2 C :   -0.443358
   3 O :    0.024753
   4 O :    0.212679
   5 C :   -0.286873
   6 H :    0.123059
   7 H :    0.122470
   8 H :    0.124702
   9 H :    0.161938
  10 H :    0.158633
  11 H :    0.115322
  12 H :    0.115483
  13 H :    0.119022

  Mayer bond orders larger than 0.100000
B(  0-C ,  1-C ) :   0.9860 B(  0-C ,  6-H ) :   0.9746 B(  0-C ,  7-H ) :   0.9726
B(  0-C ,  8-H ) :   0.9750 B(  1-C ,  2-C ) :   1.0080 B(  1-C ,  9-H ) :   0.9381
B(  1-C , 10-H ) :   0.9494 B(  2-C ,  3-O ) :   1.9066 B(  2-C ,  4-O ) :   1.2134
B(  4-O ,  5-C ) :   0.8819 B(  5-C , 11-H ) :   0.9731 B(  5-C , 12-H ) :   0.9735
B(  5-C , 13-H ) :   0.9671

FINAL SINGLE POINT ENERGY      -307.727122469060

DIPOLE MOMENT
-------------

Method             : SCF
Type of density    : Electron Density
Multiplicity       :   1
Irrep              :   0
Energy             :  -307.7365689866597904 Eh
Relativity type    :
Basis              : AO
                                X                 Y                 Z
Electronic contribution:      2.838275778       0.389574154      -0.080978821
Nuclear contribution   :     -2.603417919      -1.440907540       0.174375420
                        -----------------------------------------
Total Dipole Moment    :      0.234857859      -1.051333386       0.093396599
                        -----------------------------------------
Magnitude (a.u.)       :      1.081287670
Magnitude (Debye)      :      2.748414838

Rotational constants in cm-1:             0.316641             0.071041             0.060030
Rotational constants in MHz :          9492.658794          2129.767107          1799.650348

                             ****ORCA TERMINATED NORMALLY****
TOTAL RUN TIME: 0 days 0 hours 1 minutes 28 seconds 71 msec
