                         Program Version 6.0.0  -   RELEASE  -
|  1> ! pbe def2-sv(p) def2/J RI DEFGRID1 loosescf d4 GCP(DFT/SV(P)) printgap
|  2> %output
|  3>     printlevel normal
|  4> end
|  5> * xyz 0 1
|  6> C 2.3976939571 -0.6535274647 -0.1634535011
|  7> C 1.0972576501 -0.1192546091 0.4217541784
|  8> H 1.1447282619 -0.1732771557 1.5216887888
|  9> C 0.7619598295 1.3104992799 -0.0187956778
| 10> C -0.7622544097 1.3105647601 0.0186413762
| 11> C -1.0983452301 -0.1189931518 -0.4222928471
| 12> H -1.1496190709 -0.1720942527 -1.5220455739
| 13> O 0.0003620251 -0.9325800491 -0.0028266286
| 14> C -2.3967262138 -0.6541593815 0.1668453409
| 15> H 2.351652614 -0.6344866429 -1.2494215996
| 16> H 3.2296691178 -0.0423420059 0.1737386734
| 17> H 2.5516978968 -1.6796811017 0.1580202556
| 18> H 1.2074949195 2.0535949768 0.6371696376
| 19> H 1.116877742 1.4724849413 -1.0375023847
| 20> H -1.1170391938 1.4725021031 1.0373919413
| 21> H -1.2076564201 2.0539395015 -0.637071048
| 22> H -3.2298945091 -0.0426108571 -0.1665433651
| 23> H -2.3468594143 -0.6365559861 1.2526507165
| 24> H -2.5518601807 -1.6798656031 -0.1553681935
| 25> *
| 26>
| 27>                          ****END OF INPUT****

CARTESIAN COORDINATES (ANGSTROEM)
---------------------------------
  C      2.397694   -0.653527   -0.163454
  C      1.097258   -0.119255    0.421754
  H      1.144728   -0.173277    1.521689
  C      0.761960    1.310499   -0.018796
  C     -0.762254    1.310565    0.018641
  C     -1.098345   -0.118993   -0.422293
  H     -1.149619   -0.172094   -1.522046
  O      0.000362   -0.932580   -0.002827
  C     -2.396726   -0.654159    0.166845
  H      2.351653   -0.634487   -1.249422
  H      3.229669   -0.042342    0.173739
  H      2.551698   -1.679681    0.158020
  H      1.207495    2.053595    0.637170
  H      1.116878    1.472485   -1.037502
  H     -1.117039    1.472502    1.037392
  H     -1.207656    2.053940   -0.637071
  H     -3.229895   -0.042611   -0.166543
  H     -2.346859   -0.636556    1.252651
  H     -2.551860   -1.679866   -0.155368

 Total Charge           Charge          ....    0
 Multiplicity           Mult            ....    1
 Number of Electrons    NEL             ....   56
 Basis Dimension        Dim             ....  122

ORBITAL ENERGIES
----------------

  NO   OCC          E(Eh)            E(eV)
   0   2.0000     -18.737658      -509.8776
   1   2.0000      -9.932844      -270.2864
   2   2.0000      -9.932834      -270.2862
   3   2.0000      -9.887025      -269.0396
   4   2.0000      -9.886986      -269.0386
   5   2.0000      -9.871177      -268.6084
   6   2.0000      -9.871152      -268.6077
   7   2.0000      -0.927051       -25.2263
   8   2.0000      -0.706643       -19.2287
   9   2.0000      -0.701537       -19.0898
  10   2.0000      -0.636904       -17.3310
  11   2.0000      -0.570930       -15.5358
  12   2.0000      -0.530935       -14.4475
  13   2.0000      -0.489562       -13.3216
  14   2.0000      -0.453762       -12.3475
  15   2.0000      -0.430313       -11.7094
  16   2.0000      -0.384813       -10.4713
  17   2.0000      -0.380741       -10.3605
  18   2.0000      -0.373394       -10.1606
  19   2.0000      -0.357011        -9.7148
  20   2.0000      -0.339223        -9.2307
  21   2.0000      -0.327070        -8.9000
  22   2.0000      -0.319742        -8.7006
  23   2.0000      -0.298124        -8.1124
  24   2.0000      -0.289987        -7.8909
  25   2.0000      -0.285728        -7.7751
  26   2.0000      -0.260212        -7.0807
  27   2.0000      -0.191433        -5.2092
  28   0.0000       0.034153         0.9293
  29   0.0000       0.053617         1.4590
  30   0.0000       0.057707         1.5703
  31   0.0000       0.081824         2.2265
  32   0.0000       0.094549         2.5728

MULLIKEN ATOMIC CHARGES
-----------------------
   0 C :   -0.216313
   1 C :    0.007753
   2 H :    0.060405
   3 C :   -0.148040
   4 C :   -0.148216
   5 C :    0.008062
   6 H :    0.060489
   7 O :   -0.343528
   8 C :   -0.216480
   9 H :    0.092519
  10 H :    0.094675
  11 H :    0.109307
  12 H :    0.093245
  13 H :    0.078203
  14 H :    0.078187
  15 H :    0.093290
  16 H :    0.094661
  17 H :    0.092491
  18 H :    0.109289
Sum of atomic charges:    0.0000000

LOEWDIN ATOMIC CHARGES
----------------------
   0 C :   -0.342346
   1 C :   -0.041952
   2 H :    0.098431
   3 C :   -0.233553
   4 C :   -0.233568
   5 C :   -0.041938
   6 H :    0.098525
   7 O :   -0.177523
   8 C :   -0.342423
   9 H :    0.118948
  10 H :    0.121690
  11 H :    0.124587
  12 H :    0.123570
  13 H :    0.119406
  14 H :    0.119392
  15 H :    0.123589
  16 H :    0.121672
  17 H :    0.118927
  18 H :    0.124568

  Mayer bond orders larger than 0.100000
B(  0-C ,  1-C ) :   1.1313 B(  0-C ,  9-H ) :   0.9388 B(  0-C , 10-H ) :   0.9410
B(  0-C , 11-H ) :   0.9458 B(  1-C ,  2-H ) :   0.9068 B(  1-C ,  3-C ) :   1.0940
B(  1-C ,  7-O ) :   1.0095 B(  3-C ,  4-C ) :   1.1517 B(  3-C , 12-H ) :   0.9177
B(  3-C , 13-H ) :   0.9072 B(  4-C ,  5-C ) :   1.0939 B(  4-C , 14-H ) :   0.9073
B(  4-C , 15-H ) :   0.9177 B(  5-C ,  6-H ) :   0.9069 B(  5-C ,  7-O ) :   1.0096
B(  5-C ,  8-C ) :   1.1313 B(  8-C , 16-H ) :   0.9409 B(  8-C , 17-H ) :   0.9389
B(  8-C , 18-H ) :   0.9458

Dispersion correction           -0.015212520
FINAL SINGLE POINT ENERGY      -310.347195578077

DIPOLE MOMENT
-------------

Method             : SCF
Type of density    : Electron Density
Multiplicity       :   1
Irrep              :   0
Energy             :  -310.4176063503963405 Eh
Relativity type    :
Basis              : AO
                                X                 Y                 Z
Electronic contribution:      0.000423744      -1.291704617      -0.010486029
Nuclear contribution   :     -0.000752889       1.854622975       0.011880130
                        -----------------------------------------
Total Dipole Moment    :     -0.000329146       0.562918358       0.001394100
                        -----------------------------------------
Magnitude (a.u.)       :      0.562920180
Magnitude (Debye)      :      1.430829389

Rotational constants in cm-1:             0.166765             0.067376             0.052752
Rotational constants in MHz :          4999.484640          2019.884090          1581.469889

                             ****ORCA TERMINATED NORMALLY****
TOTAL RUN TIME: 0 days 0 hours 0 minutes 8 seconds 437 msec
