                         Program Version 6.0.0  -   RELEASE  -
|  1> ! pbe def2-sv(p) def2/J RI DEFGRID1 loosescf d4 GCP(DFT/SV(P)) printgap
|  2> %output
|  3>     printlevel normal
|  4> end
|  5> * xyz 0 1
|  6> C -3.44169145 -1.1708880643 0.0001749072
|  7> C -2.0501472057 -0.6168009402 4.75896e-05
|  8> C -1.866748315 0.7801989176 7.47002e-05
|  9> C -0.6258354581 1.3589811107 -4.19658e-05
| 10> C 0.5275794748 0.526567086 7.6374e-06
| 11> C 1.8418710487 1.0395570274 0.0002104774
| 12> C 2.9263098648 0.2058204733 0.0002135602
| 13> C 2.7527902959 -1.1854182501 -4.38466e-05
| 14> C 1.4934671425 -1.7157348167 -0.0001953055
| 15> C 0.3548131057 -0.8832014092 -0.0001096884
| 16> C -0.9469539389 -1.4258451258 -0.000131048
| 17> C -0.4894618983 2.8521111939 -0.0002338731
| 18> H -3.983066914 -0.8279737295 0.880598273
| 19> H -3.9838627545 -0.8264713227 -0.8791645034
| 20> H -3.4273212565 -2.2574183736 -0.0007308697
| 21> H -2.7465797001 1.4089914984 0.0001565066
| 22> H 1.9936597405 2.1074698641 0.0004255136
| 23> H 3.9258035382 0.6154807569 0.0004641635
| 24> H 3.6189195817 -1.8307822242 1.16852e-05
| 25> H 1.3486236055 -2.7869045506 -0.0002905
| 26> H -1.0564752879 -2.5014873936 -0.0002968889
| 27> H 0.0532289838 3.187469615 0.8822199016
| 28> H 0.0546368139 3.1870796082 -0.8819614264
| 29> H -1.4699028107 3.3208700444 -0.0011118219
| 30> *
| 31>
| 32>                          ****END OF INPUT****

CARTESIAN COORDINATES (ANGSTROEM)
---------------------------------
  C     -3.441691   -1.170888    0.000175
  C     -2.050147   -0.616801    0.000048
  C     -1.866748    0.780199    0.000075
  C     -0.625835    1.358981   -0.000042
  C      0.527579    0.526567    0.000008
  C      1.841871    1.039557    0.000210
  C      2.926310    0.205820    0.000214
  C      2.752790   -1.185418   -0.000044
  C      1.493467   -1.715735   -0.000195
  C      0.354813   -0.883201   -0.000110
  C     -0.946954   -1.425845   -0.000131
  C     -0.489462    2.852111   -0.000234
  H     -3.983067   -0.827974    0.880598
  H     -3.983863   -0.826471   -0.879165
  H     -3.427321   -2.257418   -0.000731
  H     -2.746580    1.408991    0.000157
  H      1.993660    2.107470    0.000426
  H      3.925804    0.615481    0.000464
  H      3.618920   -1.830782    0.000012
  H      1.348624   -2.786905   -0.000291
  H     -1.056475   -2.501487   -0.000297
  H      0.053229    3.187470    0.882220
  H      0.054637    3.187080   -0.881961
  H     -1.469903    3.320870   -0.001112

 Total Charge           Charge          ....    0
 Multiplicity           Mult            ....    1
 Number of Electrons    NEL             ....   84
 Basis Dimension        Dim             ....  192

ORBITAL ENERGIES
----------------

  NO   OCC          E(Eh)            E(eV)
   0   2.0000      -9.901493      -269.4333
   1   2.0000      -9.899186      -269.3705
   2   2.0000      -9.898721      -269.3579
   3   2.0000      -9.897840      -269.3339
   4   2.0000      -9.889137      -269.0971
   5   2.0000      -9.888708      -269.0854
   6   2.0000      -9.887512      -269.0529
   7   2.0000      -9.887341      -269.0482
   8   2.0000      -9.885079      -268.9867
   9   2.0000      -9.884281      -268.9650
  10   2.0000      -9.883404      -268.9411
  11   2.0000      -9.882900      -268.9274
  12   2.0000      -0.793242       -21.5852
  13   2.0000      -0.746893       -20.3240
  14   2.0000      -0.712342       -19.3838
  15   2.0000      -0.679615       -18.4933
  16   2.0000      -0.657333       -17.8869
  17   2.0000      -0.622468       -16.9382
  18   2.0000      -0.606325       -16.4989
  19   2.0000      -0.552748       -15.0410
  20   2.0000      -0.532413       -14.4877
  21   2.0000      -0.512842       -13.9551
  22   2.0000      -0.462391       -12.5823
  23   2.0000      -0.447911       -12.1883
  24   2.0000      -0.431222       -11.7342
  25   2.0000      -0.399901       -10.8819
  26   2.0000      -0.385897       -10.5008
  27   2.0000      -0.383726       -10.4417
  28   2.0000      -0.372837       -10.1454
  29   2.0000      -0.370365       -10.0781
  30   2.0000      -0.366371        -9.9695
  31   2.0000      -0.349569        -9.5123
  32   2.0000      -0.341426        -9.2907
  33   2.0000      -0.338255        -9.2044
  34   2.0000      -0.332934        -9.0596
  35   2.0000      -0.315249        -8.5784
  36   2.0000      -0.289122        -7.8674
  37   2.0000      -0.282890        -7.6978
  38   2.0000      -0.282012        -7.6739
  39   2.0000      -0.248307        -6.7568
  40   2.0000      -0.216648        -5.8953
  41   2.0000      -0.189863        -5.1664
  42   0.0000      -0.063201        -1.7198
  43   0.0000      -0.036415        -0.9909
  44   0.0000       0.001931         0.0525
  45   0.0000       0.044639         1.2147
  46   0.0000       0.053722         1.4618

MULLIKEN ATOMIC CHARGES
-----------------------
   0 C :   -0.220821
   1 C :    0.097663
   2 C :   -0.222711
   3 C :   -0.000722
   4 C :    0.115943
   5 C :   -0.163004
   6 C :   -0.033040
   7 C :   -0.037759
   8 C :   -0.133355
   9 C :    0.160315
  10 C :   -0.226258
  11 C :   -0.209370
  12 H :    0.113930
  13 H :    0.113901
  14 H :    0.100855
  15 H :    0.018645
  16 H :    0.035253
  17 H :    0.047777
  18 H :    0.049743
  19 H :    0.037263
  20 H :    0.020449
  21 H :    0.116612
  22 H :    0.116611
  23 H :    0.102078
Sum of atomic charges:    0.0000000

LOEWDIN ATOMIC CHARGES
----------------------
   0 C :   -0.321485
   1 C :   -0.048393
   2 C :   -0.125468
   3 C :   -0.034340
   4 C :   -0.027427
   5 C :   -0.117799
   6 C :   -0.125679
   7 C :   -0.126082
   8 C :   -0.111891
   9 C :   -0.021280
  10 C :   -0.123103
  11 C :   -0.323207
  12 H :    0.131718
  13 H :    0.131699
  14 H :    0.124124
  15 H :    0.118272
  16 H :    0.123057
  17 H :    0.122739
  18 H :    0.123194
  19 H :    0.122482
  20 H :    0.119697
  21 H :    0.132019
  22 H :    0.132007
  23 H :    0.125147

  Mayer bond orders larger than 0.100000
B(  0-C ,  1-C ) :   1.0933 B(  0-C , 12-H ) :   0.9341 B(  0-C , 13-H ) :   0.9341
B(  0-C , 14-H ) :   0.9456 B(  1-C ,  2-C ) :   1.2264 B(  1-C , 10-C ) :   1.4602
B(  2-C ,  3-C ) :   1.4872 B(  2-C , 15-H ) :   0.9575 B(  3-C ,  4-C ) :   1.2436
B(  3-C , 11-C ) :   1.1429 B(  4-C ,  5-C ) :   1.2723 B(  4-C ,  9-C ) :   1.2495
B(  5-C ,  6-C ) :   1.4538 B(  5-C , 16-H ) :   0.9465 B(  6-C ,  7-C ) :   1.2653
B(  6-C , 17-H ) :   0.9597 B(  7-C ,  8-C ) :   1.4505 B(  7-C , 18-H ) :   0.9626
B(  8-C ,  9-C ) :   1.2409 B(  8-C , 19-H ) :   0.9643 B(  9-C , 10-C ) :   1.2097
B( 10-C , 20-H ) :   0.9642 B( 11-C , 21-H ) :   0.9183 B( 11-C , 22-H ) :   0.9183
B( 11-C , 23-H ) :   0.9378

Dispersion correction           -0.029203594
FINAL SINGLE POINT ENERGY      -463.487649140574

DIPOLE MOMENT
-------------

Method             : SCF
Type of density    : Electron Density
Multiplicity       :   1
Irrep              :   0
Energy             :  -463.5475270139107806 Eh
Relativity type    :
Basis              : AO
                                X                 Y                 Z
Electronic contribution:      5.142113583      -2.500204685      -0.000147912
Nuclear contribution   :     -5.321611416       2.623424884       0.000300245
                        -----------------------------------------
Total Dipole Moment    :     -0.179497834       0.123220199       0.000152333
                        -----------------------------------------
Magnitude (a.u.)       :      0.217721641
Magnitude (Debye)      :      0.553404432

Rotational constants in cm-1:             0.053230             0.027560             0.018282
Rotational constants in MHz :          1595.801333           826.219562           548.067697

                             ****ORCA TERMINATED NORMALLY****
TOTAL RUN TIME: 0 days 0 hours 0 minutes 14 seconds 139 msec
