                         Program Version 6.0.0  -   RELEASE  -
|  1> ! wb97x-v def2-tzvp def2/J RIJCOSX DEFGRID2 scfconv7 GCP(DFT/TZ) printgap
|  2> %output
|  3>     printlevel normal
|  4> end
|  5> * xyz 0 1
|  6> C -2.5842056824467927 -0.6209478850811954 -0.29466789126405435
|  7> C -1.2028893227549222 -0.27216786090016826 0.22180407684742773
|  8> H -1.2131770326149105 -0.23901486382736137 1.3234474164724153
|  9> C -0.6962890126682402 1.0620426642785747 -0.32347471084704627
| 10> H -0.7205425235122922 1.033177749984698 -1.4246405318127986
| 11> C 0.7379645497938804 1.2843552611940825 0.13589362999757654
| 12> H 0.7367288188972753 1.4041100041234753 1.2324027334356724
| 13> C 1.6239831286786834 0.09185390626521432 -0.22037646586454715
| 14> H 1.7058366353291379 0.006160832035726552 -1.3118364414577084
| 15> C 0.9982030749160884 -1.196166356492585 0.3195423807762538
| 16> H 0.9490599910815349 -1.1772629933302508 1.419305770344738
| 17> O -0.3244761202341613 -1.3224822214716168 -0.21892902143157816
| 18> O 1.7189807506758008 -2.3456842623492014 -0.031621136847120083
| 19> O 2.95446401301529 0.27769110492180193 0.2662859918242633
| 20> O 1.2026665528183007 2.487668910780156 -0.48622231756704093
| 21> O -1.5580322924794823 2.093414392812602 0.16792414986761617
| 22> O -3.0811364605573566 -1.8325709757140005 0.2850877110867686
| 23> H -2.552886564304675 -0.6962614134225572 -1.3914732430115841
| 24> H -3.2858966838539865 0.1693549958647603 -0.018908842820677518
| 25> H 1.9231829242980714 -2.3009411239553956 -0.9776533654724612
| 26> H 2.9056736385835915 0.3738785826521755 1.2285237795776502
| 27> H 2.0630707010490092 2.700717826348099 -0.10024931516161002
| 28> H -1.1772188187267327 2.9371011861384266 -0.11212236444497334
| 29> H -2.474694000376036 -2.54011800444935 0.029204347648889822
| 30> *
| 31>
| 32>                          ****END OF INPUT****

CARTESIAN COORDINATES (ANGSTROEM)
---------------------------------
  C     -2.584206   -0.620948   -0.294668
  C     -1.202889   -0.272168    0.221804
  H     -1.213177   -0.239015    1.323447
  C     -0.696289    1.062043   -0.323475
  H     -0.720543    1.033178   -1.424641
  C      0.737965    1.284355    0.135894
  H      0.736729    1.404110    1.232403
  C      1.623983    0.091854   -0.220376
  H      1.705837    0.006161   -1.311836
  C      0.998203   -1.196166    0.319542
  H      0.949060   -1.177263    1.419306
  O     -0.324476   -1.322482   -0.218929
  O      1.718981   -2.345684   -0.031621
  O      2.954464    0.277691    0.266286
  O      1.202667    2.487669   -0.486222
  O     -1.558032    2.093414    0.167924
  O     -3.081136   -1.832571    0.285088
  H     -2.552887   -0.696261   -1.391473
  H     -3.285897    0.169355   -0.018909
  H      1.923183   -2.300941   -0.977653
  H      2.905674    0.373879    1.228524
  H      2.063071    2.700718   -0.100249
  H     -1.177219    2.937101   -0.112122
  H     -2.474694   -2.540118    0.029204

 Total Charge           Charge          ....    0
 Multiplicity           Mult            ....    1
 Number of Electrons    NEL             ....   96
 Basis Dimension        Dim             ....  444

ORBITAL ENERGIES
----------------

  NO   OCC          E(Eh)            E(eV)
   0   2.0000     -21.701278      -590.5218
   1   2.0000     -21.698143      -590.4365
   2   2.0000     -21.697823      -590.4278
   3   2.0000     -21.696111      -590.3812
   4   2.0000     -21.687131      -590.1368
   5   2.0000     -21.668960      -589.6424
   6   2.0000     -12.167170      -331.0855
   7   2.0000     -12.123332      -329.8926
   8   2.0000     -12.121545      -329.8440
   9   2.0000     -12.116952      -329.7190
  10   2.0000     -12.113110      -329.6145
  11   2.0000     -12.094645      -329.1120
  12   2.0000      -1.729289       -47.0564
  13   2.0000      -1.706201       -46.4281
  14   2.0000      -1.698867       -46.2285
  15   2.0000      -1.689066       -45.9618
  16   2.0000      -1.685501       -45.8648
  17   2.0000      -1.668667       -45.4067
  18   2.0000      -1.347648       -36.6714
  19   2.0000      -1.329009       -36.1642
  20   2.0000      -1.240141       -33.7459
  21   2.0000      -1.210407       -32.9368
  22   2.0000      -1.176882       -32.0246
  23   2.0000      -1.135966       -30.9112
  24   2.0000      -1.105128       -30.0721
  25   2.0000      -1.069196       -29.0943
  26   2.0000      -1.057870       -28.7861
  27   2.0000      -1.049737       -28.5648
  28   2.0000      -1.042274       -28.3617
  29   2.0000      -1.011813       -27.5328
  30   2.0000      -1.009574       -27.4719
  31   2.0000      -0.991100       -26.9692
  32   2.0000      -0.983633       -26.7660
  33   2.0000      -0.982315       -26.7301
  34   2.0000      -0.960726       -26.1427
  35   2.0000      -0.951728       -25.8978
  36   2.0000      -0.945319       -25.7234
  37   2.0000      -0.937919       -25.5221
  38   2.0000      -0.929756       -25.3000
  39   2.0000      -0.918820       -25.0024
  40   2.0000      -0.907400       -24.6916
  41   2.0000      -0.900280       -24.4979
  42   2.0000      -0.851208       -23.1626
  43   2.0000      -0.835896       -22.7459
  44   2.0000      -0.828530       -22.5454
  45   2.0000      -0.818805       -22.2808
  46   2.0000      -0.804826       -21.9004
  47   2.0000      -0.778797       -21.1921
  48   0.0000      -0.250602        -6.8192
  49   0.0000      -0.205085        -5.5806
  50   0.0000      -0.190697        -5.1891
  51   0.0000      -0.158777        -4.3205
  52   0.0000      -0.128761        -3.5038

MULLIKEN ATOMIC CHARGES
-----------------------
   0 C :   -0.011333
   1 C :    0.033291
   2 H :    0.078337
   3 C :    0.100912
   4 H :    0.080809
   5 C :   -0.009826
   6 H :    0.087387
   7 C :    0.009837
   8 H :    0.093408
   9 C :    0.097127
  10 H :    0.081569
  11 O :   -0.268332
  12 O :   -0.386340
  13 O :   -0.414409
  14 O :   -0.443150
  15 O :   -0.443985
  16 O :   -0.450957
  17 H :    0.087012
  18 H :    0.123408
  19 H :    0.308693
  20 H :    0.301456
  21 H :    0.316604
  22 H :    0.318323
  23 H :    0.310159
Sum of atomic charges:   -0.0000000

LOEWDIN ATOMIC CHARGES
----------------------
   0 C :   -0.306134
   1 C :   -0.299678
   2 H :    0.144805
   3 C :   -0.300515
   4 H :    0.144939
   5 C :   -0.323488
   6 H :    0.140476
   7 C :   -0.323592
   8 H :    0.150906
   9 C :   -0.409900
  10 H :    0.130867
  11 O :    0.180669
  12 O :    0.019025
  13 O :   -0.008489
  14 O :   -0.015872
  15 O :   -0.009149
  16 O :   -0.049343
  17 H :    0.120621
  18 H :    0.137111
  19 H :    0.179730
  20 H :    0.172925
  21 H :    0.175567
  22 H :    0.177734
  23 H :    0.170789

  Mayer bond orders larger than 0.100000
B(  0-C ,  1-C ) :   0.9868 B(  0-C , 16-O ) :   1.0225 B(  0-C , 17-H ) :   0.9681
B(  0-C , 18-H ) :   0.9646 B(  1-C ,  2-H ) :   0.9555 B(  1-C ,  3-C ) :   0.9388
B(  1-C , 11-O ) :   0.9640 B(  3-C ,  4-H ) :   0.9532 B(  3-C ,  5-C ) :   0.9484
B(  3-C , 15-O ) :   1.0822 B(  5-C ,  6-H ) :   0.9669 B(  5-C ,  7-C ) :   0.9983
B(  5-C , 14-O ) :   1.0768 B(  7-C ,  8-H ) :   0.9240 B(  7-C ,  9-C ) :   0.9788
B(  7-C , 13-O ) :   1.0154 B(  9-C , 10-H ) :   0.9687 B(  9-C , 11-O ) :   1.0229
B(  9-C , 12-O ) :   1.1700 B( 12-O , 19-H ) :   0.8871 B( 13-O , 20-H ) :   0.8923
B( 14-O , 21-H ) :   0.8865 B( 15-O , 22-H ) :   0.8843 B( 16-O , 23-H ) :   0.8924

FINAL SINGLE POINT ENERGY      -687.246573568189

DIPOLE MOMENT
-------------

Method             : SCF
Type of density    : Electron Density
Multiplicity       :   1
Irrep              :   0
Energy             :  -687.2653476894890900 Eh
Relativity type    :
Basis              : AO
                                X                 Y                 Z
Electronic contribution:      1.986061353      -1.090300028      -0.072260387
Nuclear contribution   :     -1.054153228       1.834921166       0.048389237
                        -----------------------------------------
Total Dipole Moment    :      0.931908125       0.744621138      -0.023871150
                        -----------------------------------------
Magnitude (a.u.)       :      1.193098162
Magnitude (Debye)      :      3.032614522

Rotational constants in cm-1:             0.038647             0.026017             0.016301
Rotational constants in MHz :          1158.616418           779.965073           488.680212

                             ****ORCA TERMINATED NORMALLY****
TOTAL RUN TIME: 0 days 0 hours 4 minutes 46 seconds 856 msec
