                         Program Version 6.0.0  -   RELEASE  -
|  1> ! wb97x-v def2-tzvp def2/J RIJCOSX DEFGRID2 scfconv7 GCP(DFT/TZ) printgap
|  2> %output
|  3>     printlevel normal
|  4> end
|  5> %cpcm
|  6>     smd true
|  7>     smdsolvent "water"
|  8> end
|  9> * xyz 0 1
| 10> C -2.5842056824467927 -0.6209478850811954 -0.29466789126405435
| 11> C -1.2028893227549222 -0.27216786090016826 0.22180407684742773
| 12> H -1.2131770326149105 -0.23901486382736137 1.3234474164724153
| 13> C -0.6962890126682402 1.0620426642785747 -0.32347471084704627
| 14> H -0.7205425235122922 1.033177749984698 -1.4246405318127986
| 15> C 0.7379645497938804 1.2843552611940825 0.13589362999757654
| 16> H 0.7367288188972753 1.4041100041234753 1.2324027334356724
| 17> C 1.6239831286786834 0.09185390626521432 -0.22037646586454715
| 18> H 1.7058366353291379 0.006160832035726552 -1.3118364414577084
| 19> C 0.9982030749160884 -1.196166356492585 0.3195423807762538
| 20> H 0.9490599910815349 -1.1772629933302508 1.419305770344738
| 21> O -0.3244761202341613 -1.3224822214716168 -0.21892902143157816
| 22> O 1.7189807506758008 -2.3456842623492014 -0.031621136847120083
| 23> O 2.95446401301529 0.27769110492180193 0.2662859918242633
| 24> O 1.2026665528183007 2.487668910780156 -0.48622231756704093
| 25> O -1.5580322924794823 2.093414392812602 0.16792414986761617
| 26> O -3.0811364605573566 -1.8325709757140005 0.2850877110867686
| 27> H -2.552886564304675 -0.6962614134225572 -1.3914732430115841
| 28> H -3.2858966838539865 0.1693549958647603 -0.018908842820677518
| 29> H 1.9231829242980714 -2.3009411239553956 -0.9776533654724612
| 30> H 2.9056736385835915 0.3738785826521755 1.2285237795776502
| 31> H 2.0630707010490092 2.700717826348099 -0.10024931516161002
| 32> H -1.1772188187267327 2.9371011861384266 -0.11212236444497334
| 33> H -2.474694000376036 -2.54011800444935 0.029204347648889822
| 34> *
| 35>
| 36>                          ****END OF INPUT****

CARTESIAN COORDINATES (ANGSTROEM)
---------------------------------
  C     -2.584206   -0.620948   -0.294668
  C     -1.202889   -0.272168    0.221804
  H     -1.213177   -0.239015    1.323447
  C     -0.696289    1.062043   -0.323475
  H     -0.720543    1.033178   -1.424641
  C      0.737965    1.284355    0.135894
  H      0.736729    1.404110    1.232403
  C      1.623983    0.091854   -0.220376
  H      1.705837    0.006161   -1.311836
  C      0.998203   -1.196166    0.319542
  H      0.949060   -1.177263    1.419306
  O     -0.324476   -1.322482   -0.218929
  O      1.718981   -2.345684   -0.031621
  O      2.954464    0.277691    0.266286
  O      1.202667    2.487669   -0.486222
  O     -1.558032    2.093414    0.167924
  O     -3.081136   -1.832571    0.285088
  H     -2.552887   -0.696261   -1.391473
  H     -3.285897    0.169355   -0.018909
  H      1.923183   -2.300941   -0.977653
  H      2.905674    0.373879    1.228524
  H      2.063071    2.700718   -0.100249
  H     -1.177219    2.937101   -0.112122
  H     -2.474694   -2.540118    0.029204

 Total Charge           Charge          ....    0
 Multiplicity           Mult            ....    1
 Number of Electrons    NEL             ....   96
 Basis Dimension        Dim             ....  444

ORBITAL ENERGIES
----------------

  NO   OCC          E(Eh)            E(eV)
   0   2.0000     -21.692074      -590.2713
   1   2.0000     -21.691461      -590.2547
   2   2.0000     -21.685015      -590.0793
   3   2.0000     -21.682524      -590.0115
   4   2.0000     -21.682076      -589.9993
   5   2.0000     -21.677232      -589.8675
   6   2.0000     -12.152698      -330.6917
   7   2.0000     -12.104580      -329.3824
   8   2.0000     -12.103829      -329.3619
   9   2.0000     -12.103347      -329.3488
  10   2.0000     -12.102135      -329.3158
  11   2.0000     -12.091111      -329.0158
  12   2.0000      -1.723292       -46.8932
  13   2.0000      -1.691433       -46.0262
  14   2.0000      -1.687318       -45.9142
  15   2.0000      -1.681800       -45.7641
  16   2.0000      -1.679089       -45.6903
  17   2.0000      -1.675660       -45.5970
  18   2.0000      -1.333564       -36.2881
  19   2.0000      -1.317656       -35.8552
  20   2.0000      -1.231845       -33.5202
  21   2.0000      -1.199152       -32.6306
  22   2.0000      -1.168803       -31.8048
  23   2.0000      -1.128678       -30.7129
  24   2.0000      -1.093402       -29.7530
  25   2.0000      -1.056827       -28.7577
  26   2.0000      -1.050217       -28.5779
  27   2.0000      -1.041666       -28.3452
  28   2.0000      -1.038891       -28.2697
  29   2.0000      -1.005593       -27.3636
  30   2.0000      -1.000926       -27.2366
  31   2.0000      -0.985539       -26.8179
  32   2.0000      -0.974345       -26.5133
  33   2.0000      -0.973721       -26.4963
  34   2.0000      -0.959368       -26.1057
  35   2.0000      -0.948571       -25.8119
  36   2.0000      -0.943044       -25.6615
  37   2.0000      -0.928598       -25.2684
  38   2.0000      -0.923401       -25.1270
  39   2.0000      -0.913699       -24.8630
  40   2.0000      -0.899040       -24.4641
  41   2.0000      -0.894370       -24.3370
  42   2.0000      -0.842032       -22.9129
  43   2.0000      -0.830830       -22.6080
  44   2.0000      -0.817799       -22.2534
  45   2.0000      -0.805435       -21.9170
  46   2.0000      -0.792585       -21.5673
  47   2.0000      -0.766680       -20.8624
  48   0.0000      -0.237626        -6.4661
  49   0.0000      -0.192542        -5.2393
  50   0.0000      -0.176902        -4.8137
  51   0.0000      -0.150949        -4.1075
  52   0.0000      -0.119095        -3.2408

MULLIKEN ATOMIC CHARGES
-----------------------
   0 C :   -0.012888
   1 C :    0.057300
   2 H :    0.100370
   3 C :    0.080939
   4 H :    0.103359
   5 C :    0.033055
   6 H :    0.118105
   7 C :    0.048937
   8 H :    0.125061
   9 C :    0.104178
  10 H :    0.131018
  11 O :   -0.330816
  12 O :   -0.494379
  13 O :   -0.523618
  14 O :   -0.528041
  15 O :   -0.527625
  16 O :   -0.549334
  17 H :    0.118812
  18 H :    0.129959
  19 H :    0.369347
  20 H :    0.363867
  21 H :    0.363728
  22 H :    0.361129
  23 H :    0.357538
Sum of atomic charges:   -0.0000000

LOEWDIN ATOMIC CHARGES
----------------------
   0 C :   -0.307157
   1 C :   -0.296660
   2 H :    0.152842
   3 C :   -0.296161
   4 H :    0.152101
   5 C :   -0.309755
   6 H :    0.154980
   7 C :   -0.315430
   8 H :    0.158895
   9 C :   -0.403506
  10 H :    0.145005
  11 O :    0.161919
  12 O :   -0.019265
  13 O :   -0.042229
  14 O :   -0.043304
  15 O :   -0.039694
  16 O :   -0.088072
  17 H :    0.129494
  18 H :    0.136900
  19 H :    0.200633
  20 H :    0.198083
  21 H :    0.192423
  22 H :    0.191567
  23 H :    0.186388

  Mayer bond orders larger than 0.100000
B(  0-C ,  1-C ) :   0.9706 B(  0-C , 16-O ) :   0.9822 B(  0-C , 17-H ) :   0.9703
B(  0-C , 18-H ) :   0.9660 B(  1-C ,  2-H ) :   0.9470 B(  1-C ,  3-C ) :   0.9706
B(  1-C , 11-O ) :   0.9488 B(  3-C ,  4-H ) :   0.9486 B(  3-C ,  5-C ) :   0.9757
B(  3-C , 15-O ) :   1.0407 B(  5-C ,  6-H ) :   0.9619 B(  5-C ,  7-C ) :   1.0037
B(  5-C , 14-O ) :   1.0381 B(  7-C ,  8-H ) :   0.9275 B(  7-C ,  9-C ) :   0.9800
B(  7-C , 13-O ) :   0.9850 B(  9-C , 10-H ) :   0.9763 B(  9-C , 11-O ) :   0.9970
B(  9-C , 12-O ) :   1.1170 B( 12-O , 19-H ) :   0.8501 B( 13-O , 20-H ) :   0.8586
B( 14-O , 21-H ) :   0.8588 B( 15-O , 22-H ) :   0.8573 B( 16-O , 23-H ) :   0.8634

FINAL SINGLE POINT ENERGY      -687.287568194538

DIPOLE MOMENT
-------------

Method             : SCF
Type of density    : Electron Density
Multiplicity       :   1
Irrep              :   0
Energy             :  -687.3063423158382648 Eh
Relativity type    :
Basis              : AO
                                X                 Y                 Z
Electronic contribution:      2.304420474      -0.836116395       0.013596991
Nuclear contribution   :     -1.054153228       1.834921166       0.048389237
                        -----------------------------------------
Total Dipole Moment    :      1.250267246       0.998804770       0.061986228
                        -----------------------------------------
Magnitude (a.u.)       :      1.601443552
Magnitude (Debye)      :      4.070546017

Rotational constants in cm-1:             0.038647             0.026017             0.016301
Rotational constants in MHz :          1158.616418           779.965073           488.680212

                             ****ORCA TERMINATED NORMALLY****
TOTAL RUN TIME: 0 days 0 hours 5 minutes 23 seconds 102 msec
