                         Program Version 6.0.0  -   RELEASE  -
|  1> ! pbe def2-sv(p) def2/J RI DEFGRID1 loosescf d4 GCP(DFT/SV(P)) printgap
|  2> %output
|  3>     printlevel normal
|  4> end
|  5> * xyz 0 1
|  6> C -2.0376705845 -1.4315243267 -0.0865270475
|  7> C -1.012682178 -0.5291096172 0.6187710499
|  8> H -1.446379047 -0.1918812978 1.5688303519
|  9> C -0.6945248356 0.7246725842 -0.211499756
| 10> H -0.6644919635 0.4816500626 -1.2863134
| 11> C 0.6803210345 1.2529135817 0.2148971578
| 12> H 0.668324868 1.4007021039 1.3060429841
| 13> C 1.7615518461 0.2190758321 -0.1309333158
| 14> H 2.0087311802 0.33558123 -1.1980586893
| 15> C 1.2445819105 -1.2180680578 0.1030250915
| 16> H 2.0230339662 -1.7809754398 0.6304372932
| 17> O 0.1517173344 -1.2595165017 0.9864256431
| 18> O 1.0028408845 -1.9072951107 -1.083166537
| 19> O 2.9167206413 0.3904377154 0.6470337097
| 20> O 1.003835882 2.453218997 -0.4403275926
| 21> O -1.6337591421 1.7461878617 0.0096906508
| 22> O -3.1694244202 -0.6434713733 -0.38265688
| 23> H -2.2848534505 -2.2586608163 0.5876171716
| 24> H -1.5990686742 -1.8476399606 -1.0016506335
| 25> H 0.5723596183 -1.3397892232 -1.7402966352
| 26> H 3.2481954538 1.2929794815 0.5215621424
| 27> H 0.2458419165 3.0526738412 -0.3602311042
| 28> H -2.5189898403 1.3902232095 -0.1702679052
| 29> H -3.8731221095 -1.2067901628 -0.7333784187
| 30> *
| 31>
| 32>                          ****END OF INPUT****

CARTESIAN COORDINATES (ANGSTROEM)
---------------------------------
  C     -2.037671   -1.431524   -0.086527
  C     -1.012682   -0.529110    0.618771
  H     -1.446379   -0.191881    1.568830
  C     -0.694525    0.724673   -0.211500
  H     -0.664492    0.481650   -1.286313
  C      0.680321    1.252914    0.214897
  H      0.668325    1.400702    1.306043
  C      1.761552    0.219076   -0.130933
  H      2.008731    0.335581   -1.198059
  C      1.244582   -1.218068    0.103025
  H      2.023034   -1.780975    0.630437
  O      0.151717   -1.259517    0.986426
  O      1.002841   -1.907295   -1.083167
  O      2.916721    0.390438    0.647034
  O      1.003836    2.453219   -0.440328
  O     -1.633759    1.746188    0.009691
  O     -3.169424   -0.643471   -0.382657
  H     -2.284853   -2.258661    0.587617
  H     -1.599069   -1.847640   -1.001651
  H      0.572360   -1.339789   -1.740297
  H      3.248195    1.292979    0.521562
  H      0.245842    3.052674   -0.360231
  H     -2.518990    1.390223   -0.170268
  H     -3.873122   -1.206790   -0.733378

 Total Charge           Charge          ....    0
 Multiplicity           Mult            ....    1
 Number of Electrons    NEL             ....   96
 Basis Dimension        Dim             ....  192

ORBITAL ENERGIES
----------------

  NO   OCC          E(Eh)            E(eV)
   0   2.0000     -18.779370      -511.0126
   1   2.0000     -18.764541      -510.6091
   2   2.0000     -18.761327      -510.5217
   3   2.0000     -18.755961      -510.3756
   4   2.0000     -18.749979      -510.2129
   5   2.0000     -18.748890      -510.1832
   6   2.0000      -9.981645      -271.6144
   7   2.0000      -9.947879      -270.6955
   8   2.0000      -9.947328      -270.6806
   9   2.0000      -9.943633      -270.5800
  10   2.0000      -9.941137      -270.5121
  11   2.0000      -9.939074      -270.4559
  12   2.0000      -0.977906       -26.6102
  13   2.0000      -0.951959       -25.9041
  14   2.0000      -0.942833       -25.6558
  15   2.0000      -0.928579       -25.2679
  16   2.0000      -0.913988       -24.8709
  17   2.0000      -0.911382       -24.8000
  18   2.0000      -0.707548       -19.2534
  19   2.0000      -0.692846       -18.8533
  20   2.0000      -0.625994       -17.0342
  21   2.0000      -0.586107       -15.9488
  22   2.0000      -0.561858       -15.2889
  23   2.0000      -0.526018       -14.3137
  24   2.0000      -0.506419       -13.7804
  25   2.0000      -0.498466       -13.5640
  26   2.0000      -0.477586       -12.9958
  27   2.0000      -0.463989       -12.6258
  28   2.0000      -0.446343       -12.1456
  29   2.0000      -0.427058       -11.6208
  30   2.0000      -0.413812       -11.2604
  31   2.0000      -0.402735       -10.9590
  32   2.0000      -0.394370       -10.7313
  33   2.0000      -0.385729       -10.4962
  34   2.0000      -0.368475       -10.0267
  35   2.0000      -0.346612        -9.4318
  36   2.0000      -0.335735        -9.1358
  37   2.0000      -0.310936        -8.4610
  38   2.0000      -0.307073        -8.3559
  39   2.0000      -0.299786        -8.1576
  40   2.0000      -0.284057        -7.7296
  41   2.0000      -0.272280        -7.4091
  42   2.0000      -0.251528        -6.8444
  43   2.0000      -0.245995        -6.6939
  44   2.0000      -0.230933        -6.2840
  45   2.0000      -0.222481        -6.0540
  46   2.0000      -0.217986        -5.9317
  47   2.0000      -0.209658        -5.7051
  48   0.0000       0.000317         0.0086
  49   0.0000       0.007704         0.2096
  50   0.0000       0.037085         1.0091
  51   0.0000       0.052194         1.4203
  52   0.0000       0.055886         1.5207

MULLIKEN ATOMIC CHARGES
-----------------------
   0 C :    0.062046
   1 C :    0.039004
   2 H :    0.079535
   3 C :   -0.026973
   4 H :    0.034407
   5 C :    0.087909
   6 H :    0.060182
   7 C :    0.036473
   8 H :    0.060320
   9 C :    0.208798
  10 H :    0.084642
  11 O :   -0.303590
  12 O :   -0.400606
  13 O :   -0.415147
  14 O :   -0.427519
  15 O :   -0.430751
  16 O :   -0.450778
  17 H :    0.091062
  18 H :    0.061097
  19 H :    0.301515
  20 H :    0.308876
  21 H :    0.310408
  22 H :    0.313320
  23 H :    0.315770
Sum of atomic charges:   -0.0000000

LOEWDIN ATOMIC CHARGES
----------------------
   0 C :   -0.131775
   1 C :   -0.068916
   2 H :    0.121149
   3 C :   -0.083351
   4 H :    0.090441
   5 C :   -0.073412
   6 H :    0.110108
   7 C :   -0.078125
   8 H :    0.102757
   9 C :    0.003547
  10 H :    0.121243
  11 O :   -0.137318
  12 O :   -0.300578
  13 O :   -0.314575
  14 O :   -0.325971
  15 O :   -0.324363
  16 O :   -0.341205
  17 H :    0.107113
  18 H :    0.094171
  19 H :    0.271850
  20 H :    0.290852
  21 H :    0.288012
  22 H :    0.282537
  23 H :    0.295811

  Mayer bond orders larger than 0.100000
B(  0-C ,  1-C ) :   1.0739 B(  0-C , 16-O ) :   1.0441 B(  0-C , 17-H ) :   0.9173
B(  0-C , 18-H ) :   0.9025 B(  1-C ,  2-H ) :   0.8789 B(  1-C ,  3-C ) :   0.9705
B(  1-C , 11-O ) :   0.9983 B(  3-C ,  4-H ) :   0.8812 B(  3-C ,  5-C ) :   1.0327
B(  3-C , 15-O ) :   1.0785 B(  5-C ,  6-H ) :   0.8541 B(  5-C ,  7-C ) :   1.0325
B(  5-C , 14-O ) :   1.0888 B(  7-C ,  8-H ) :   0.8899 B(  7-C ,  9-C ) :   0.9942
B(  7-C , 13-O ) :   1.0858 B(  9-C , 10-H ) :   0.8924 B(  9-C , 11-O ) :   1.0641
B(  9-C , 12-O ) :   1.0864 B( 12-O , 19-H ) :   0.8290 B( 13-O , 20-H ) :   0.8428
B( 14-O , 21-H ) :   0.8315 B( 15-O , 22-H ) :   0.8148 B( 16-O , 23-H ) :   0.8425

Dispersion correction           -0.024617134
FINAL SINGLE POINT ENERGY      -685.693163148222

DIPOLE MOMENT
-------------

Method             : SCF
Type of density    : Electron Density
Multiplicity       :   1
Irrep              :   0
Energy             :  -685.8241566587698799 Eh
Relativity type    :
Basis              : AO
                                X                 Y                 Z
Electronic contribution:      2.066509772       0.737637277       1.085650108
Nuclear contribution   :     -3.392539537      -0.618832998      -1.763628336
                        -----------------------------------------
Total Dipole Moment    :     -1.326029765       0.118804279      -0.677978228
                        -----------------------------------------
Magnitude (a.u.)       :      1.494029408
Magnitude (Debye)      :      3.797520960

Rotational constants in cm-1:             0.043133             0.026677             0.018851
Rotational constants in MHz :          1293.102683           799.752446           565.139712

                             ****ORCA TERMINATED NORMALLY****
TOTAL RUN TIME: 0 days 0 hours 0 minutes 11 seconds 856 msec
