                         Program Version 6.0.0  -   RELEASE  -
|  1> ! pbe def2-sv(p) def2/J RI DEFGRID1 loosescf d4 GCP(DFT/SV(P)) printgap
|  2> %output
|  3>     printlevel normal
|  4> end
|  5> * xyz 0 1
|  6> C -2.5625961746 -0.9702632627 0.0004793273
|  7> C -1.2349012257 -0.2829102961 -0.0007129851
|  8> C -1.1512981376 1.1091146512 -0.0004373221
|  9> C 0.0969575736 1.6999712205 0.0001273324
| 10> N 1.234843149 1.0195194438 0.0004157969
| 11> C 1.1715041768 -0.3073334248 0.0001047971
| 12> C -0.042841434 -0.9905880407 -0.0004247259
| 13> C 2.469884787 -1.0519913317 8.07644e-05
| 14> H -3.1208621329 -0.6999742783 0.895154286
| 15> H -3.1468080189 -0.6566180391 -0.8626729939
| 16> H -2.4419520017 -2.0495279357 -0.0269827532
| 17> H -2.0445637449 1.7140894587 -0.0008445491
| 18> H 0.2051489327 2.7771019385 0.000401056
| 19> H -0.0463236 -2.0705165174 -0.000677609
| 20> H 3.2951509975 -0.3472948667 0.008610141
| 21> H 2.5338806509 -1.693718554 0.876425646
| 22> H 2.5411020826 -1.6797255276 -0.8858628584
| 23> *
| 24>
| 25>                          ****END OF INPUT****

CARTESIAN COORDINATES (ANGSTROEM)
---------------------------------
  C     -2.562596   -0.970263    0.000479
  C     -1.234901   -0.282910   -0.000713
  C     -1.151298    1.109115   -0.000437
  C      0.096958    1.699971    0.000127
  N      1.234843    1.019519    0.000416
  C      1.171504   -0.307333    0.000105
  C     -0.042841   -0.990588   -0.000425
  C      2.469885   -1.051991    0.000081
  H     -3.120862   -0.699974    0.895154
  H     -3.146808   -0.656618   -0.862673
  H     -2.441952   -2.049528   -0.026983
  H     -2.044564    1.714089   -0.000845
  H      0.205149    2.777102    0.000401
  H     -0.046324   -2.070517   -0.000678
  H      3.295151   -0.347295    0.008610
  H      2.533881   -1.693719    0.876426
  H      2.541102   -1.679726   -0.885863

 Total Charge           Charge          ....    0
 Multiplicity           Mult            ....    1
 Number of Electrons    NEL             ....   58
 Basis Dimension        Dim             ....  130

ORBITAL ENERGIES
----------------

  NO   OCC          E(Eh)            E(eV)
   0   2.0000     -13.973253      -380.2315
   1   2.0000      -9.927089      -270.1298
   2   2.0000      -9.915563      -269.8162
   3   2.0000      -9.912800      -269.7410
   4   2.0000      -9.892084      -269.1773
   5   2.0000      -9.891596      -269.1640
   6   2.0000      -9.890760      -269.1413
   7   2.0000      -9.876050      -268.7410
   8   2.0000      -0.852595       -23.2003
   9   2.0000      -0.739238       -20.1157
  10   2.0000      -0.700903       -19.0725
  11   2.0000      -0.640696       -17.4342
  12   2.0000      -0.622862       -16.9489
  13   2.0000      -0.558077       -15.1860
  14   2.0000      -0.517173       -14.0730
  15   2.0000      -0.449621       -12.2348
  16   2.0000      -0.443615       -12.0714
  17   2.0000      -0.402879       -10.9629
  18   2.0000      -0.393897       -10.7185
  19   2.0000      -0.378034       -10.2868
  20   2.0000      -0.366982        -9.9861
  21   2.0000      -0.360706        -9.8153
  22   2.0000      -0.347340        -9.4516
  23   2.0000      -0.329922        -8.9776
  24   2.0000      -0.325735        -8.8637
  25   2.0000      -0.306423        -8.3382
  26   2.0000      -0.245197        -6.6721
  27   2.0000      -0.226258        -6.1568
  28   2.0000      -0.198899        -5.4123
  29   0.0000      -0.045347        -1.2340
  30   0.0000      -0.039803        -1.0831
  31   0.0000       0.045317         1.2331
  32   0.0000       0.063786         1.7357
  33   0.0000       0.073074         1.9884

MULLIKEN ATOMIC CHARGES
-----------------------
   0 C :   -0.216297
   1 C :    0.059920
   2 C :   -0.120139
   3 C :   -0.049372
   4 N :   -0.063657
   5 C :   -0.080225
   6 C :   -0.143745
   7 C :   -0.203531
   8 H :    0.121305
   9 H :    0.120266
  10 H :    0.104923
  11 H :    0.043564
  12 H :    0.063549
  13 H :    0.032104
  14 H :    0.107863
  15 H :    0.111562
  16 H :    0.111912
Sum of atomic charges:   -0.0000000

LOEWDIN ATOMIC CHARGES
----------------------
   0 C :   -0.322427
   1 C :   -0.026232
   2 C :   -0.150120
   3 C :   -0.078413
   4 N :   -0.085253
   5 C :   -0.013915
   6 C :   -0.142920
   7 C :   -0.335415
   8 H :    0.137010
   9 H :    0.136348
  10 H :    0.125850
  11 H :    0.123979
  12 H :    0.112788
  13 H :    0.122113
  14 H :    0.131541
  15 H :    0.132407
  16 H :    0.132658

  Mayer bond orders larger than 0.100000
B(  0-C ,  1-C ) :   1.1073 B(  0-C ,  8-H ) :   0.9321 B(  0-C ,  9-H ) :   0.9328
B(  0-C , 10-H ) :   0.9439 B(  1-C ,  2-C ) :   1.3880 B(  1-C ,  6-C ) :   1.4281
B(  2-C ,  3-C ) :   1.3940 B(  2-C , 11-H ) :   0.9496 B(  3-C ,  4-N ) :   1.5194
B(  3-C , 12-H ) :   0.9514 B(  4-N ,  5-C ) :   1.5810 B(  5-C ,  6-C ) :   1.3447
B(  5-C ,  7-C ) :   1.0961 B(  6-C , 13-H ) :   0.9426 B(  7-C , 14-H ) :   0.9363
B(  7-C , 15-H ) :   0.9365 B(  7-C , 16-H ) :   0.9362

Dispersion correction           -0.016215372
FINAL SINGLE POINT ENERGY      -326.185419476374

DIPOLE MOMENT
-------------

Method             : SCF
Type of density    : Electron Density
Multiplicity       :   1
Irrep              :   0
Energy             :  -326.2338653647617548 Eh
Relativity type    :
Basis              : AO
                                X                 Y                 Z
Electronic contribution:      1.351192718       3.895789615      -0.001809643
Nuclear contribution   :     -2.080867148      -4.409604010       0.003333121
                        -----------------------------------------
Total Dipole Moment    :     -0.729674430      -0.513814394       0.001523477
                        -----------------------------------------
Magnitude (a.u.)       :      0.892430572
Magnitude (Debye)      :      2.268378244

Rotational constants in cm-1:             0.127974             0.059890             0.041424
Rotational constants in MHz :          3836.559974          1795.445044          1241.847000

                             ****ORCA TERMINATED NORMALLY****
TOTAL RUN TIME: 0 days 0 hours 0 minutes 7 seconds 539 msec
