                         Program Version 6.0.0  -   RELEASE  -
|  1> ! wb97x-v def2-tzvp def2/J RIJCOSX DEFGRID2 scfconv7 GCP(DFT/TZ) printgap
|  2> %output
|  3>     printlevel normal
|  4> end
|  5> * xyz 0 1
|  6> C -2.242632207569507 0.2694588090120118 6.1538821516703e-05
|  7> C -1.7781209401197362 -1.0440666226509818 6.94809830330253e-05
|  8> C -0.41057403466650366 -1.290130823117462 4.6552645404469334e-05
|  9> C 0.49323147535238987 -0.2208038013690316 -8.200403836955805e-06
| 10> C 0.020756608901735453 1.0993832306341118 -3.7227040152686895e-05
| 11> C -1.3440686111853521 1.3399052364255712 6.558549640095234e-06
| 12> C 1.9276039438519688 -0.5163796802722759 -3.1492362982271786e-05
| 13> O 2.8150609011431835 0.32997173757877196 -6.616468232385153e-05
| 14> H -3.31050158785352 0.46374105002179944 8.091100081127188e-05
| 15> H -2.481171864487527 -1.8703075297276268 0.00012317416015699494
| 16> H -0.032338181732045786 -2.308753041201755 5.6198522759095966e-05
| 17> H 0.7299518320292616 1.9208483914100787 -7.481499070440568e-05
| 18> H -1.717208344684579 2.358751728338749 -1.914162933067162e-05
| 19> H 2.1842077069376113 -1.5940767912270075 -3.4080720799897334e-05
| 20> *
| 21>
| 22>                          ****END OF INPUT****

CARTESIAN COORDINATES (ANGSTROEM)
---------------------------------
  C     -2.242632    0.269459    0.000062
  C     -1.778121   -1.044067    0.000069
  C     -0.410574   -1.290131    0.000047
  C      0.493231   -0.220804   -0.000008
  C      0.020757    1.099383   -0.000037
  C     -1.344069    1.339905    0.000007
  C      1.927604   -0.516380   -0.000031
  O      2.815061    0.329972   -0.000066
  H     -3.310502    0.463741    0.000081
  H     -2.481172   -1.870308    0.000123
  H     -0.032338   -2.308753    0.000056
  H      0.729952    1.920848   -0.000075
  H     -1.717208    2.358752   -0.000019
  H      2.184208   -1.594077   -0.000034

 Total Charge           Charge          ....    0
 Multiplicity           Mult            ....    1
 Number of Electrons    NEL             ....   56
 Basis Dimension        Dim             ....  284

ORBITAL ENERGIES
----------------

  NO   OCC          E(Eh)            E(eV)
   0   2.0000     -21.670790      -589.6922
   1   2.0000     -12.140888      -330.3703
   2   2.0000     -12.076896      -328.6290
   3   2.0000     -12.075017      -328.5779
   4   2.0000     -12.072249      -328.5026
   5   2.0000     -12.070372      -328.4515
   6   2.0000     -12.069849      -328.4373
   7   2.0000     -12.067979      -328.3864
   8   2.0000      -1.709732       -46.5242
   9   2.0000      -1.405302       -38.2402
  10   2.0000      -1.310471       -35.6597
  11   2.0000      -1.294527       -35.2259
  12   2.0000      -1.183727       -32.2108
  13   2.0000      -1.126671       -30.6583
  14   2.0000      -1.100164       -29.9370
  15   2.0000      -1.022738       -27.8301
  16   2.0000      -0.999960       -27.2103
  17   2.0000      -0.964521       -26.2460
  18   2.0000      -0.957360       -26.0511
  19   2.0000      -0.916269       -24.9329
  20   2.0000      -0.901176       -24.5223
  21   2.0000      -0.895097       -24.3568
  22   2.0000      -0.852478       -23.1971
  23   2.0000      -0.825794       -22.4710
  24   2.0000      -0.799513       -21.7559
  25   2.0000      -0.790629       -21.5141
  26   2.0000      -0.666753       -18.1433
  27   2.0000      -0.657843       -17.9008
  28   0.0000      -0.351435        -9.5630
  29   0.0000      -0.252003        -6.8573
  30   0.0000      -0.215861        -5.8739
  31   0.0000      -0.074606        -2.0301
  32   0.0000      -0.058443        -1.5903

MULLIKEN ATOMIC CHARGES
-----------------------
   0 C :   -0.116134
   1 C :   -0.111169
   2 C :   -0.180321
   3 C :    0.160731
   4 C :   -0.196199
   5 C :   -0.077450
   6 C :    0.087755
   7 O :   -0.304382
   8 H :    0.127772
   9 H :    0.126371
  10 H :    0.128374
  11 H :    0.150454
  12 H :    0.128680
  13 H :    0.075517
Sum of atomic charges:    0.0000000

LOEWDIN ATOMIC CHARGES
----------------------
   0 C :   -0.116539
   1 C :   -0.135086
   2 C :   -0.091287
   3 C :   -0.163510
   4 C :   -0.069580
   5 C :   -0.130250
   6 C :   -0.238811
   7 O :    0.090635
   8 H :    0.144772
   9 H :    0.144274
  10 H :    0.147805
  11 H :    0.155224
  12 H :    0.144934
  13 H :    0.117420

  Mayer bond orders larger than 0.100000
B(  0-C ,  1-C ) :   1.4348 B(  0-C ,  5-C ) :   1.3942 B(  0-C ,  8-H ) :   0.9684
B(  1-C ,  2-C ) :   1.4355 B(  1-C ,  9-H ) :   0.9707 B(  2-C ,  3-C ) :   1.3639
B(  2-C , 10-H ) :   0.9597 B(  3-C ,  4-C ) :   1.3601 B(  3-C ,  6-C ) :   0.9038
B(  3-C ,  7-O ) :  -0.1267 B(  3-C , 13-H ) :  -0.1002 B(  4-C ,  5-C ) :   1.4445
B(  4-C , 11-H ) :   0.9534 B(  5-C , 12-H ) :   0.9729 B(  6-C ,  7-O ) :   2.1214
B(  6-C , 13-H ) :   1.0184

FINAL SINGLE POINT ENERGY      -345.587982579336

DIPOLE MOMENT
-------------

Method             : SCF
Type of density    : Electron Density
Multiplicity       :   1
Irrep              :   0
Energy             :  -345.5947087503362809 Eh
Relativity type    :
Basis              : AO
                                X                 Y                 Z
Electronic contribution:      3.025299685       0.462583304      -0.000068301
Nuclear contribution   :     -4.317010034      -0.955165966       0.000103816
                        -----------------------------------------
Total Dipole Moment    :     -1.291710349      -0.492582662       0.000035516
                        -----------------------------------------
Magnitude (a.u.)       :      1.382444685
Magnitude (Debye)      :      3.513895135

Rotational constants in cm-1:             0.174574             0.052349             0.040272
Rotational constants in MHz :          5233.601437          1569.373677          1207.335936

                             ****ORCA TERMINATED NORMALLY****
TOTAL RUN TIME: 0 days 0 hours 2 minutes 7 seconds 94 msec
