                         Program Version 6.0.0  -   RELEASE  -
|  1> ! wb97x-v def2-tzvp def2/J RIJCOSX DEFGRID2 scfconv7 GCP(DFT/TZ) printgap
|  2> %output
|  3>     printlevel normal
|  4> end
|  5> %cpcm
|  6>     smd true
|  7>     smdsolvent "water"
|  8> end
|  9> * xyz 0 1
| 10> C -2.242632207569507 0.2694588090120118 6.1538821516703e-05
| 11> C -1.7781209401197362 -1.0440666226509818 6.94809830330253e-05
| 12> C -0.41057403466650366 -1.290130823117462 4.6552645404469334e-05
| 13> C 0.49323147535238987 -0.2208038013690316 -8.200403836955805e-06
| 14> C 0.020756608901735453 1.0993832306341118 -3.7227040152686895e-05
| 15> C -1.3440686111853521 1.3399052364255712 6.558549640095234e-06
| 16> C 1.9276039438519688 -0.5163796802722759 -3.1492362982271786e-05
| 17> O 2.8150609011431835 0.32997173757877196 -6.616468232385153e-05
| 18> H -3.31050158785352 0.46374105002179944 8.091100081127188e-05
| 19> H -2.481171864487527 -1.8703075297276268 0.00012317416015699494
| 20> H -0.032338181732045786 -2.308753041201755 5.6198522759095966e-05
| 21> H 0.7299518320292616 1.9208483914100787 -7.481499070440568e-05
| 22> H -1.717208344684579 2.358751728338749 -1.914162933067162e-05
| 23> H 2.1842077069376113 -1.5940767912270075 -3.4080720799897334e-05
| 24> *
| 25>
| 26>                          ****END OF INPUT****

CARTESIAN COORDINATES (ANGSTROEM)
---------------------------------
  C     -2.242632    0.269459    0.000062
  C     -1.778121   -1.044067    0.000069
  C     -0.410574   -1.290131    0.000047
  C      0.493231   -0.220804   -0.000008
  C      0.020757    1.099383   -0.000037
  C     -1.344069    1.339905    0.000007
  C      1.927604   -0.516380   -0.000031
  O      2.815061    0.329972   -0.000066
  H     -3.310502    0.463741    0.000081
  H     -2.481172   -1.870308    0.000123
  H     -0.032338   -2.308753    0.000056
  H      0.729952    1.920848   -0.000075
  H     -1.717208    2.358752   -0.000019
  H      2.184208   -1.594077   -0.000034

 Total Charge           Charge          ....    0
 Multiplicity           Mult            ....    1
 Number of Electrons    NEL             ....   56
 Basis Dimension        Dim             ....  284

ORBITAL ENERGIES
----------------

  NO   OCC          E(Eh)            E(eV)
   0   2.0000     -21.678355      -589.8980
   1   2.0000     -12.145442      -330.4943
   2   2.0000     -12.066259      -328.3396
   3   2.0000     -12.064786      -328.2995
   4   2.0000     -12.063339      -328.2601
   5   2.0000     -12.062932      -328.2491
   6   2.0000     -12.057067      -328.0895
   7   2.0000     -12.056485      -328.0736
   8   2.0000      -1.721329       -46.8398
   9   2.0000      -1.396855       -38.0104
  10   2.0000      -1.302611       -35.4458
  11   2.0000      -1.284634       -34.9567
  12   2.0000      -1.180901       -32.1339
  13   2.0000      -1.116585       -30.3838
  14   2.0000      -1.100527       -29.9469
  15   2.0000      -1.022625       -27.8271
  16   2.0000      -1.001174       -27.2433
  17   2.0000      -0.953747       -25.9528
  18   2.0000      -0.951281       -25.8857
  19   2.0000      -0.917063       -24.9546
  20   2.0000      -0.903961       -24.5980
  21   2.0000      -0.882848       -24.0235
  22   2.0000      -0.842432       -22.9237
  23   2.0000      -0.814372       -22.1602
  24   2.0000      -0.800488       -21.7824
  25   2.0000      -0.783349       -21.3160
  26   2.0000      -0.659705       -17.9515
  27   2.0000      -0.648723       -17.6527
  28   0.0000      -0.347076        -9.4444
  29   0.0000      -0.242301        -6.5933
  30   0.0000      -0.208981        -5.6867
  31   0.0000      -0.065635        -1.7860
  32   0.0000      -0.049730        -1.3532

MULLIKEN ATOMIC CHARGES
-----------------------
   0 C :   -0.141376
   1 C :   -0.144245
   2 C :   -0.202010
   3 C :    0.144335
   4 C :   -0.224068
   5 C :   -0.131026
   6 C :    0.154205
   7 O :   -0.430846
   8 H :    0.169371
   9 H :    0.168127
  10 H :    0.173470
  11 H :    0.163380
  12 H :    0.168430
  13 H :    0.132254
Sum of atomic charges:    0.0000000

LOEWDIN ATOMIC CHARGES
----------------------
   0 C :   -0.113254
   1 C :   -0.136081
   2 C :   -0.082865
   3 C :   -0.172183
   4 C :   -0.079972
   5 C :   -0.134455
   6 C :   -0.215307
   7 O :    0.013518
   8 H :    0.155704
   9 H :    0.154725
  10 H :    0.161465
  11 H :    0.157115
  12 H :    0.154686
  13 H :    0.136904

  Mayer bond orders larger than 0.100000
B(  0-C ,  1-C ) :   1.4084 B(  0-C ,  5-C ) :   1.3765 B(  0-C ,  8-H ) :   0.9689
B(  1-C ,  2-C ) :   1.4112 B(  1-C ,  9-H ) :   0.9732 B(  2-C ,  3-C ) :   1.3507
B(  2-C , 10-H ) :   0.9659 B(  3-C ,  4-C ) :   1.2939 B(  3-C ,  6-C ) :   0.9513
B(  3-C ,  7-O ) :  -0.1187 B(  4-C ,  5-C ) :   1.4529 B(  4-C , 11-H ) :   0.9649
B(  5-C , 12-H ) :   0.9736 B(  6-C ,  7-O ) :   1.9975 B(  6-C , 13-H ) :   0.9975

FINAL SINGLE POINT ENERGY      -345.595537638206

DIPOLE MOMENT
-------------

Method             : SCF
Type of density    : Electron Density
Multiplicity       :   1
Irrep              :   0
Energy             :  -345.6022638092062493 Eh
Relativity type    :
Basis              : AO
                                X                 Y                 Z
Electronic contribution:      2.503720215       0.124156714      -0.000050819
Nuclear contribution   :     -4.317010034      -0.955165966       0.000103816
                        -----------------------------------------
Total Dipole Moment    :     -1.813289819      -0.831009252       0.000052997
                        -----------------------------------------
Magnitude (a.u.)       :      1.994641909
Magnitude (Debye)      :      5.069976815

Rotational constants in cm-1:             0.174574             0.052349             0.040272
Rotational constants in MHz :          5233.601437          1569.373677          1207.335936

                             ****ORCA TERMINATED NORMALLY****
TOTAL RUN TIME: 0 days 0 hours 2 minutes 3 seconds 97 msec
