                         Program Version 6.0.0  -   RELEASE  -
|  1> ! pbe def2-sv(p) def2/J RI DEFGRID1 loosescf d4 GCP(DFT/SV(P)) printgap
|  2> %output
|  3>     printlevel normal
|  4> end
|  5> * xyz 0 1
|  6> C -1.9071933719 -1.2905445906 -0.3486846517
|  7> C -1.2455392784 -0.4363641674 0.7468823391
|  8> H -1.9259051001 -0.4153274375 1.6038649057
|  9> C -0.9886686133 1.0212498396 0.282483099
| 10> H -1.4011857985 1.1453285301 -0.7244079468
| 11> C 0.5228640035 1.2815550948 0.2313150515
| 12> H 0.9169511505 1.3787522361 1.2510197158
| 13> C 1.2162413098 0.0869460108 -0.4427194416
| 14> H 0.7462438319 -0.0986561235 -1.4203479729
| 15> C 1.0255749376 -1.1576895468 0.4457184838
| 16> H 1.8927936291 -1.2337069688 1.1218648422
| 17> O -0.0728883301 -1.0316650516 1.2968141855
| 18> O 0.8929355509 -2.3339355267 -0.3036300329
| 19> O 2.5947897893 0.3169220123 -0.6015171858
| 20> O 0.8612671786 2.4825291242 -0.4144413747
| 21> O -1.6702560862 1.9629445342 1.0691388068
| 22> O -1.3986034772 -0.9671352631 -1.6252697835
| 23> H -2.9866239659 -1.094392162 -0.3211760147
| 24> H -1.7169425323 -2.3415835339 -0.1075847975
| 25> H 1.7091289042 -2.492756402 -0.7985981523
| 26> H 2.7198726722 1.263744978 -0.7827157034
| 27> H 0.3446386471 2.5741346717 -1.2286506001
| 28> H -1.2973178571 1.98277629 1.9622258925
| 29> H -1.7592620488 -1.5917071109 -2.269815722
| 30> *
| 31>
| 32>                          ****END OF INPUT****

CARTESIAN COORDINATES (ANGSTROEM)
---------------------------------
  C     -1.907193   -1.290545   -0.348685
  C     -1.245539   -0.436364    0.746882
  H     -1.925905   -0.415327    1.603865
  C     -0.988669    1.021250    0.282483
  H     -1.401186    1.145329   -0.724408
  C      0.522864    1.281555    0.231315
  H      0.916951    1.378752    1.251020
  C      1.216241    0.086946   -0.442719
  H      0.746244   -0.098656   -1.420348
  C      1.025575   -1.157690    0.445718
  H      1.892794   -1.233707    1.121865
  O     -0.072888   -1.031665    1.296814
  O      0.892936   -2.333936   -0.303630
  O      2.594790    0.316922   -0.601517
  O      0.861267    2.482529   -0.414441
  O     -1.670256    1.962945    1.069139
  O     -1.398603   -0.967135   -1.625270
  H     -2.986624   -1.094392   -0.321176
  H     -1.716943   -2.341584   -0.107585
  H      1.709129   -2.492756   -0.798598
  H      2.719873    1.263745   -0.782716
  H      0.344639    2.574135   -1.228651
  H     -1.297318    1.982776    1.962226
  H     -1.759262   -1.591707   -2.269816

 Total Charge           Charge          ....    0
 Multiplicity           Mult            ....    1
 Number of Electrons    NEL             ....   96
 Basis Dimension        Dim             ....  192

ORBITAL ENERGIES
----------------

  NO   OCC          E(Eh)            E(eV)
   0   2.0000     -18.764026      -510.5951
   1   2.0000     -18.761164      -510.5172
   2   2.0000     -18.760141      -510.4894
   3   2.0000     -18.748690      -510.1778
   4   2.0000     -18.746903      -510.1292
   5   2.0000     -18.741204      -509.9741
   6   2.0000      -9.977676      -271.5064
   7   2.0000      -9.945380      -270.6275
   8   2.0000      -9.941685      -270.5270
   9   2.0000      -9.941294      -270.5164
  10   2.0000      -9.935055      -270.3466
  11   2.0000      -9.926014      -270.1006
  12   2.0000      -0.973800       -26.4985
  13   2.0000      -0.945917       -25.7397
  14   2.0000      -0.932588       -25.3770
  15   2.0000      -0.926119       -25.2010
  16   2.0000      -0.910598       -24.7786
  17   2.0000      -0.904069       -24.6010
  18   2.0000      -0.702289       -19.1103
  19   2.0000      -0.685960       -18.6659
  20   2.0000      -0.617406       -16.8005
  21   2.0000      -0.582927       -15.8622
  22   2.0000      -0.569119       -15.4865
  23   2.0000      -0.512477       -13.9452
  24   2.0000      -0.497849       -13.5472
  25   2.0000      -0.488417       -13.2905
  26   2.0000      -0.472091       -12.8463
  27   2.0000      -0.459162       -12.4944
  28   2.0000      -0.435474       -11.8499
  29   2.0000      -0.419462       -11.4141
  30   2.0000      -0.417284       -11.3549
  31   2.0000      -0.405830       -11.0432
  32   2.0000      -0.389505       -10.5990
  33   2.0000      -0.384714       -10.4686
  34   2.0000      -0.352708        -9.5977
  35   2.0000      -0.344556        -9.3758
  36   2.0000      -0.313732        -8.5371
  37   2.0000      -0.307970        -8.3803
  38   2.0000      -0.302926        -8.2430
  39   2.0000      -0.293298        -7.9811
  40   2.0000      -0.281297        -7.6545
  41   2.0000      -0.270472        -7.3599
  42   2.0000      -0.256529        -6.9805
  43   2.0000      -0.235350        -6.4042
  44   2.0000      -0.226541        -6.1645
  45   2.0000      -0.217895        -5.9292
  46   2.0000      -0.207709        -5.6521
  47   2.0000      -0.197327        -5.3695
  48   0.0000       0.018921         0.5149
  49   0.0000       0.024513         0.6670
  50   0.0000       0.034953         0.9511
  51   0.0000       0.045324         1.2333
  52   0.0000       0.057210         1.5568

MULLIKEN ATOMIC CHARGES
-----------------------
   0 C :    0.034686
   1 C :    0.015336
   2 H :    0.070866
   3 C :    0.066728
   4 H :    0.069192
   5 C :    0.029884
   6 H :    0.052601
   7 C :   -0.008453
   8 H :    0.063936
   9 C :    0.243513
  10 H :    0.059742
  11 O :   -0.301202
  12 O :   -0.406783
  13 O :   -0.426648
  14 O :   -0.413797
  15 O :   -0.411255
  16 O :   -0.428263
  17 H :    0.079228
  18 H :    0.096425
  19 H :    0.304167
  20 H :    0.300278
  21 H :    0.303316
  22 H :    0.299488
  23 H :    0.307016
Sum of atomic charges:   -0.0000000

LOEWDIN ATOMIC CHARGES
----------------------
   0 C :   -0.136442
   1 C :   -0.064058
   2 H :    0.122957
   3 C :   -0.078851
   4 H :    0.116731
   5 C :   -0.083418
   6 H :    0.113009
   7 C :   -0.111026
   8 H :    0.104588
   9 C :    0.009775
  10 H :    0.099630
  11 O :   -0.131369
  12 O :   -0.323838
  13 O :   -0.332104
  14 O :   -0.307630
  15 O :   -0.313332
  16 O :   -0.332865
  17 H :    0.102425
  18 H :    0.112693
  19 H :    0.291957
  20 H :    0.278213
  21 H :    0.288172
  22 H :    0.284323
  23 H :    0.290459

  Mayer bond orders larger than 0.100000
B(  0-C ,  1-C ) :   1.0613 B(  0-C , 16-O ) :   1.0619 B(  0-C , 17-H ) :   0.9102
B(  0-C , 18-H ) :   0.9018 B(  1-C ,  2-H ) :   0.8936 B(  1-C ,  3-C ) :   0.9645
B(  1-C , 11-O ) :   1.0453 B(  3-C ,  4-H ) :   0.8596 B(  3-C ,  5-C ) :   1.0233
B(  3-C , 15-O ) :   1.0496 B(  5-C ,  6-H ) :   0.8553 B(  5-C ,  7-C ) :   1.0123
B(  5-C , 14-O ) :   1.0402 B(  7-C ,  8-H ) :   0.8561 B(  7-C ,  9-C ) :   0.9832
B(  7-C , 13-O ) :   1.0749 B(  9-C , 10-H ) :   0.8892 B(  9-C , 11-O ) :   1.0703
B(  9-C , 12-O ) :   1.0647 B( 12-O , 19-H ) :   0.8413 B( 13-O , 20-H ) :   0.8235
B( 14-O , 21-H ) :   0.8456 B( 15-O , 22-H ) :   0.8508 B( 16-O , 23-H ) :   0.8454

Dispersion correction           -0.025307022
FINAL SINGLE POINT ENERGY      -685.683800831532

DIPOLE MOMENT
-------------

Method             : SCF
Type of density    : Electron Density
Multiplicity       :   1
Irrep              :   0
Energy             :  -685.8142214818514049 Eh
Relativity type    :
Basis              : AO
                                X                 Y                 Z
Electronic contribution:      2.154751001       0.603642892       0.961800443
Nuclear contribution   :     -2.569221147      -0.859934559      -1.616901443
                        -----------------------------------------
Total Dipole Moment    :     -0.414470145      -0.256291667      -0.655101000
                        -----------------------------------------
Magnitude (a.u.)       :      0.816473049
Magnitude (Debye)      :      2.075309564

Rotational constants in cm-1:             0.035081             0.032982             0.022492
Rotational constants in MHz :          1051.713272           988.771896           674.283796

                             ****ORCA TERMINATED NORMALLY****
TOTAL RUN TIME: 0 days 0 hours 0 minutes 12 seconds 132 msec
