                         Program Version 6.0.0  -   RELEASE  -
|  1> ! pbe def2-sv(p) def2/J RI DEFGRID1 loosescf d4 GCP(DFT/SV(P)) printgap
|  2> %output
|  3>     printlevel normal
|  4> end
|  5> * xyz 0 1
|  6> C -2.6220854177 -0.5547492025 1.0187814096
|  7> C -1.7670693411 0.0255028602 -0.0722460187
|  8> O -2.2200129745 0.2831304617 -1.1711460538
|  9> C -0.3097584091 0.2474624796 0.2742298485
| 10> C 0.4286990808 0.9661673437 -0.8553210144
| 11> C 1.89327568 1.1857821668 -0.492710079
| 12> C 2.5724390538 -0.1467306702 -0.1920705822
| 13> C 1.8434509839 -0.8682574034 0.9368589732
| 14> C 0.37638278 -1.0933076934 0.5798377635
| 15> H -3.6595642387 -0.2725222633 0.8604412861
| 16> H -2.5593297464 -1.6400543896 0.9581328173
| 17> H -2.2852081632 -0.2399799778 2.0004525614
| 18> H -0.2749300163 0.8658988319 1.1778556131
| 19> H 0.3556656954 0.3646739605 -1.764390863
| 20> H -0.0612766069 1.9208774947 -1.0590504782
| 21> H 2.403055901 1.6882694732 -1.3164044549
| 22> H 1.956644723 1.8328798174 0.3851104383
| 23> H 2.5590607951 -0.7692547426 -1.0894099826
| 24> H 3.6146256551 0.0205881011 0.0852559399
| 25> H 2.3202353472 -1.8302220902 1.1324588432
| 26> H 1.9060827906 -0.2694531602 1.8478850122
| 27> H 0.3093866015 -1.7337579639 -0.3025632188
| 28> H -0.1271672832 -1.5945922124 1.4062223231
| 29> *
| 30>
| 31>                          ****END OF INPUT****

CARTESIAN COORDINATES (ANGSTROEM)
---------------------------------
  C     -2.622085   -0.554749    1.018781
  C     -1.767069    0.025503   -0.072246
  O     -2.220013    0.283130   -1.171146
  C     -0.309758    0.247462    0.274230
  C      0.428699    0.966167   -0.855321
  C      1.893276    1.185782   -0.492710
  C      2.572439   -0.146731   -0.192071
  C      1.843451   -0.868257    0.936859
  C      0.376383   -1.093308    0.579838
  H     -3.659564   -0.272522    0.860441
  H     -2.559330   -1.640054    0.958133
  H     -2.285208   -0.239980    2.000453
  H     -0.274930    0.865899    1.177856
  H      0.355666    0.364674   -1.764391
  H     -0.061277    1.920877   -1.059050
  H      2.403056    1.688269   -1.316404
  H      1.956645    1.832880    0.385110
  H      2.559061   -0.769255   -1.089410
  H      3.614626    0.020588    0.085256
  H      2.320235   -1.830222    1.132459
  H      1.906083   -0.269453    1.847885
  H      0.309387   -1.733758   -0.302563
  H     -0.127167   -1.594592    1.406222

 Total Charge           Charge          ....    0
 Multiplicity           Mult            ....    1
 Number of Electrons    NEL             ....   70
 Basis Dimension        Dim             ....  154

ORBITAL ENERGIES
----------------

  NO   OCC          E(Eh)            E(eV)
   0   2.0000     -18.733835      -509.7736
   1   2.0000      -9.969784      -271.2916
   2   2.0000      -9.899383      -269.3759
   3   2.0000      -9.896292      -269.2918
   4   2.0000      -9.888639      -269.0836
   5   2.0000      -9.885516      -268.9986
   6   2.0000      -9.883780      -268.9513
   7   2.0000      -9.882214      -268.9087
   8   2.0000      -9.879166      -268.8258
   9   2.0000      -0.931955       -25.3598
  10   2.0000      -0.762921       -20.7601
  11   2.0000      -0.694306       -18.8930
  12   2.0000      -0.669885       -18.2285
  13   2.0000      -0.654919       -17.8212
  14   2.0000      -0.561133       -15.2692
  15   2.0000      -0.544962       -14.8292
  16   2.0000      -0.503893       -13.7116
  17   2.0000      -0.470003       -12.7894
  18   2.0000      -0.431967       -11.7544
  19   2.0000      -0.416871       -11.3436
  20   2.0000      -0.403416       -10.9775
  21   2.0000      -0.398515       -10.8441
  22   2.0000      -0.385824       -10.4988
  23   2.0000      -0.377332       -10.2677
  24   2.0000      -0.365568        -9.9476
  25   2.0000      -0.339941        -9.2503
  26   2.0000      -0.337221        -9.1763
  27   2.0000      -0.327537        -8.9127
  28   2.0000      -0.315381        -8.5820
  29   2.0000      -0.304782        -8.2936
  30   2.0000      -0.300950        -8.1893
  31   2.0000      -0.285092        -7.7577
  32   2.0000      -0.271375        -7.3845
  33   2.0000      -0.261757        -7.1228
  34   2.0000      -0.191843        -5.2203
  35   0.0000      -0.047530        -1.2933
  36   0.0000       0.027496         0.7482
  37   0.0000       0.044335         1.2064
  38   0.0000       0.052677         1.4334
  39   0.0000       0.071010         1.9323

MULLIKEN ATOMIC CHARGES
-----------------------
   0 C :   -0.243762
   1 C :    0.032072
   2 O :   -0.169208
   3 C :   -0.206317
   4 C :   -0.112469
   5 C :   -0.130396
   6 C :   -0.163851
   7 C :   -0.125666
   8 C :   -0.154971
   9 H :    0.120702
  10 H :    0.136181
  11 H :    0.111996
  12 H :    0.078814
  13 H :    0.082527
  14 H :    0.088409
  15 H :    0.086654
  16 H :    0.069814
  17 H :    0.077672
  18 H :    0.086318
  19 H :    0.088295
  20 H :    0.072614
  21 H :    0.086611
  22 H :    0.087961
Sum of atomic charges:   -0.0000000

LOEWDIN ATOMIC CHARGES
----------------------
   0 C :   -0.362992
   1 C :    0.050107
   2 O :   -0.129504
   3 C :   -0.172683
   4 C :   -0.215525
   5 C :   -0.225924
   6 C :   -0.227649
   7 C :   -0.224047
   8 C :   -0.211114
   9 H :    0.138659
  10 H :    0.148924
  11 H :    0.129946
  12 H :    0.127613
  13 H :    0.120692
  14 H :    0.120998
  15 H :    0.117734
  16 H :    0.112683
  17 H :    0.115597
  18 H :    0.116713
  19 H :    0.117929
  20 H :    0.114813
  21 H :    0.120715
  22 H :    0.116314

  Mayer bond orders larger than 0.100000
B(  0-C ,  1-C ) :   1.0816 B(  0-C ,  9-H ) :   0.9279 B(  0-C , 10-H ) :   0.9165
B(  0-C , 11-H ) :   0.9346 B(  1-C ,  2-O ) :   2.1889 B(  1-C ,  3-C ) :   0.9295
B(  3-C ,  4-C ) :   1.0999 B(  3-C ,  8-C ) :   1.0718 B(  3-C , 12-H ) :   0.8634
B(  4-C ,  5-C ) :   1.1302 B(  4-C , 13-H ) :   0.9054 B(  4-C , 14-H ) :   0.9154
B(  5-C ,  6-C ) :   1.1318 B(  5-C , 15-H ) :   0.9197 B(  5-C , 16-H ) :   0.9107
B(  6-C ,  7-C ) :   1.1379 B(  6-C , 17-H ) :   0.9151 B(  6-C , 18-H ) :   0.9198
B(  7-C ,  8-C ) :   1.1390 B(  7-C , 19-H ) :   0.9187 B(  7-C , 20-H ) :   0.9108
B(  8-C , 21-H ) :   0.9091 B(  8-C , 22-H ) :   0.9100

Dispersion correction           -0.021819658
FINAL SINGLE POINT ENERGY      -387.610146344329

DIPOLE MOMENT
-------------

Method             : SCF
Type of density    : Electron Density
Multiplicity       :   1
Irrep              :   0
Energy             :  -387.6880108477037652 Eh
Relativity type    :
Basis              : AO
                                X                 Y                 Z
Electronic contribution:     -5.571270102       1.269795271      -3.174221033
Nuclear contribution   :      6.025076934      -1.550012773       4.037380294
                        -----------------------------------------
Total Dipole Moment    :      0.453806832      -0.280217502       0.863159261
                        -----------------------------------------
Magnitude (a.u.)       :      1.014645948
Magnitude (Debye)      :      2.579025042

Rotational constants in cm-1:             0.103065             0.036669             0.029661
Rotational constants in MHz :          3089.814700          1099.323717           889.205405

                             ****ORCA TERMINATED NORMALLY****
TOTAL RUN TIME: 0 days 0 hours 0 minutes 9 seconds 996 msec
