                         Program Version 6.0.0  -   RELEASE  -
|  1> ! wb97x-v def2-tzvp def2/J RIJCOSX DEFGRID2 scfconv7 GCP(DFT/TZ) printgap
|  2> %output
|  3>     printlevel normal
|  4> end
|  5> * xyz 0 1
|  6> C 0.23605203655007348 1.3781714341979288 -0.0003043923312224096
|  7> C 1.3115320490460722 0.4848933305841777 -0.0002685727596145922
|  8> C 1.075310559093706 -0.8932799636243486 -0.00018591655791649818
|  9> C -0.23607214662542675 -1.3781024004281763 -0.00015740529886463595
| 10> C -1.3115495359368627 -0.4848138282207844 -0.00019244591987206233
| 11> C -1.0753180509162825 0.893357006078929 -0.00025438576827292107
| 12> Cl -2.404191238736578 1.9970944142534484 -0.00028355490349702426
| 13> Cl -2.9318972145797026 -1.0835506720229524 -0.00013903842846346015
| 14> Cl -0.5276025414360076 -3.080826313785825 -5.049031737701362e-05
| 15> Cl 2.4042023763621136 -1.997029649847077 -0.00014050408265677824
| 16> Cl 2.9319130322596494 1.08352375846988 -0.00029037155228356685
| 17> Cl 0.5275531174202671 3.0808716101105817 -0.0003343701222667469
| 18> *
| 19>
| 20>                          ****END OF INPUT****

CARTESIAN COORDINATES (ANGSTROEM)
---------------------------------
  C      0.236052    1.378171   -0.000304
  C      1.311532    0.484893   -0.000269
  C      1.075311   -0.893280   -0.000186
  C     -0.236072   -1.378102   -0.000157
  C     -1.311550   -0.484814   -0.000192
  C     -1.075318    0.893357   -0.000254
  Cl    -2.404191    1.997094   -0.000284
  Cl    -2.931897   -1.083551   -0.000139
  Cl    -0.527603   -3.080826   -0.000050
  Cl     2.404202   -1.997030   -0.000141
  Cl     2.931913    1.083524   -0.000290
  Cl     0.527553    3.080872   -0.000334

 Total Charge           Charge          ....    0
 Multiplicity           Mult            ....    1
 Number of Electrons    NEL             ....  138
 Basis Dimension        Dim             ....  408

ORBITAL ENERGIES
----------------

  NO   OCC          E(Eh)            E(eV)
   0   2.0000    -107.174723     -2916.3725
   1   2.0000    -107.174700     -2916.3718
   2   2.0000    -107.174691     -2916.3716
   3   2.0000    -107.174677     -2916.3712
   4   2.0000    -107.174667     -2916.3710
   5   2.0000    -107.174627     -2916.3699
   6   2.0000     -12.166174      -331.0584
   7   2.0000     -12.165822      -331.0488
   8   2.0000     -12.165817      -331.0487
   9   2.0000     -12.163548      -330.9870
  10   2.0000     -12.163542      -330.9868
  11   2.0000     -12.161937      -330.9431
  12   2.0000     -11.327809      -308.2453
  13   2.0000     -11.327799      -308.2451
  14   2.0000     -11.327748      -308.2437
  15   2.0000     -11.327727      -308.2431
  16   2.0000     -11.327704      -308.2425
  17   2.0000     -11.327694      -308.2422
  18   2.0000      -9.120038      -248.1688
  19   2.0000      -9.120028      -248.1686
  20   2.0000      -9.119646      -248.1582
  21   2.0000      -9.119291      -248.1485
  22   2.0000      -9.119281      -248.1483
  23   2.0000      -9.118297      -248.1215
  24   2.0000      -9.117611      -248.1028
  25   2.0000      -9.116803      -248.0808
  26   2.0000      -9.116794      -248.0806
  27   2.0000      -9.116741      -248.0791
  28   2.0000      -9.116732      -248.0789
  29   2.0000      -9.116701      -248.0780
  30   2.0000      -9.116519      -248.0731
  31   2.0000      -9.116218      -248.0649
  32   2.0000      -9.116209      -248.0647
  33   2.0000      -9.115850      -248.0549
  34   2.0000      -9.115841      -248.0546
  35   2.0000      -9.115627      -248.0488
  36   2.0000      -1.515343       -41.2346
  37   2.0000      -1.476350       -40.1735
  38   2.0000      -1.476328       -40.1729
  39   2.0000      -1.443165       -39.2705
  40   2.0000      -1.443151       -39.2701
  41   2.0000      -1.430476       -38.9252
  42   2.0000      -1.383392       -37.6440
  43   2.0000      -1.300242       -35.3814
  44   2.0000      -1.300147       -35.3788
  45   2.0000      -1.162610       -31.6362
  46   2.0000      -1.162560       -31.6349
  47   2.0000      -1.065205       -28.9857
  48   2.0000      -1.024005       -27.8646
  49   2.0000      -0.998953       -27.1829
  50   2.0000      -0.970224       -26.4011
  51   2.0000      -0.970164       -26.3995
  52   2.0000      -0.937090       -25.4995
  53   2.0000      -0.937039       -25.4981
  54   2.0000      -0.907848       -24.7038
  55   2.0000      -0.860737       -23.4219
  56   2.0000      -0.860721       -23.4214
  57   2.0000      -0.833816       -22.6893
  58   2.0000      -0.833813       -22.6892
  59   2.0000      -0.832320       -22.6486
  60   2.0000      -0.832311       -22.6483
  61   2.0000      -0.830144       -22.5894
  62   2.0000      -0.827030       -22.5046
  63   2.0000      -0.820607       -22.3299
  64   2.0000      -0.820594       -22.3295
  65   2.0000      -0.808614       -22.0035
  66   2.0000      -0.778370       -21.1805
  67   2.0000      -0.696961       -18.9653
  68   2.0000      -0.696899       -18.9636
  69   0.0000      -0.372931       -10.1480
  70   0.0000      -0.330779        -9.0010
  71   0.0000      -0.330726        -8.9995
  72   0.0000      -0.296778        -8.0757
  73   0.0000      -0.296719        -8.0741

MULLIKEN ATOMIC CHARGES
-----------------------
   0 C :    0.012868
   1 C :    0.014363
   2 C :    0.013542
   3 C :    0.013029
   4 C :    0.014478
   5 C :    0.013651
   6 Cl:   -0.013725
   7 Cl:   -0.013660
   8 Cl:   -0.013599
   9 Cl:   -0.013727
  10 Cl:   -0.013633
  11 Cl:   -0.013587
Sum of atomic charges:   -0.0000000

LOEWDIN ATOMIC CHARGES
----------------------
   0 C :   -0.446994
   1 C :   -0.446982
   2 C :   -0.446864
   3 C :   -0.446962
   4 C :   -0.446977
   5 C :   -0.446885
   6 Cl:    0.446919
   7 Cl:    0.447005
   8 Cl:    0.446900
   9 Cl:    0.446894
  10 Cl:    0.447012
  11 Cl:    0.446933

  Mayer bond orders larger than 0.100000
B(  0-C ,  1-C ) :   1.3306 B(  0-C ,  5-C ) :   1.3309 B(  0-C , 11-Cl) :   1.2261
B(  1-C ,  2-C ) :   1.3308 B(  1-C , 10-Cl) :   1.2246 B(  2-C ,  3-C ) :   1.3308
B(  2-C ,  9-Cl) :   1.2246 B(  3-C ,  4-C ) :   1.3305 B(  3-C ,  8-Cl) :   1.2257
B(  4-C ,  5-C ) :   1.3308 B(  4-C ,  7-Cl) :   1.2242 B(  5-C ,  6-Cl) :   1.2246

FINAL SINGLE POINT ENERGY     -2989.510686029007

DIPOLE MOMENT
-------------

Method             : SCF
Type of density    : Electron Density
Multiplicity       :   1
Irrep              :   0
Energy             : -2989.5168802676066662 Eh
Relativity type    :
Basis              : AO
                                X                 Y                 Z
Electronic contribution:      0.000004062      -0.000002000       0.000041658
Nuclear contribution   :     -0.000007683       0.000048377      -0.000042385
                        -----------------------------------------
Total Dipole Moment    :     -0.000003621       0.000046378      -0.000000727
                        -----------------------------------------
Magnitude (a.u.)       :      0.000046524
Magnitude (Debye)      :      0.000118256

Rotational constants in cm-1:             0.015195             0.015193             0.007597
Rotational constants in MHz :           455.529569           455.463462           227.748257

                             ****ORCA TERMINATED NORMALLY****
TOTAL RUN TIME: 0 days 0 hours 4 minutes 27 seconds 613 msec
