                         Program Version 6.0.0  -   RELEASE  -
|  1> ! wb97x-v def2-tzvp def2/J RIJCOSX DEFGRID2 scfconv7 GCP(DFT/TZ) printgap
|  2> %output
|  3>     printlevel normal
|  4> end
|  5> %cpcm
|  6>     smd true
|  7>     smdsolvent "water"
|  8> end
|  9> * xyz 0 1
| 10> C 0.23605203655007348 1.3781714341979288 -0.0003043923312224096
| 11> C 1.3115320490460722 0.4848933305841777 -0.0002685727596145922
| 12> C 1.075310559093706 -0.8932799636243486 -0.00018591655791649818
| 13> C -0.23607214662542675 -1.3781024004281763 -0.00015740529886463595
| 14> C -1.3115495359368627 -0.4848138282207844 -0.00019244591987206233
| 15> C -1.0753180509162825 0.893357006078929 -0.00025438576827292107
| 16> Cl -2.404191238736578 1.9970944142534484 -0.00028355490349702426
| 17> Cl -2.9318972145797026 -1.0835506720229524 -0.00013903842846346015
| 18> Cl -0.5276025414360076 -3.080826313785825 -5.049031737701362e-05
| 19> Cl 2.4042023763621136 -1.997029649847077 -0.00014050408265677824
| 20> Cl 2.9319130322596494 1.08352375846988 -0.00029037155228356685
| 21> Cl 0.5275531174202671 3.0808716101105817 -0.0003343701222667469
| 22> *
| 23>
| 24>                          ****END OF INPUT****

CARTESIAN COORDINATES (ANGSTROEM)
---------------------------------
  C      0.236052    1.378171   -0.000304
  C      1.311532    0.484893   -0.000269
  C      1.075311   -0.893280   -0.000186
  C     -0.236072   -1.378102   -0.000157
  C     -1.311550   -0.484814   -0.000192
  C     -1.075318    0.893357   -0.000254
  Cl    -2.404191    1.997094   -0.000284
  Cl    -2.931897   -1.083551   -0.000139
  Cl    -0.527603   -3.080826   -0.000050
  Cl     2.404202   -1.997030   -0.000141
  Cl     2.931913    1.083524   -0.000290
  Cl     0.527553    3.080872   -0.000334

 Total Charge           Charge          ....    0
 Multiplicity           Mult            ....    1
 Number of Electrons    NEL             ....  138
 Basis Dimension        Dim             ....  408

ORBITAL ENERGIES
----------------

  NO   OCC          E(Eh)            E(eV)
   0   2.0000    -107.171663     -2916.2892
   1   2.0000    -107.171639     -2916.2886
   2   2.0000    -107.171630     -2916.2883
   3   2.0000    -107.171617     -2916.2880
   4   2.0000    -107.171606     -2916.2877
   5   2.0000    -107.171566     -2916.2866
   6   2.0000     -12.160178      -330.8953
   7   2.0000     -12.159825      -330.8857
   8   2.0000     -12.159819      -330.8855
   9   2.0000     -12.157542      -330.8235
  10   2.0000     -12.157535      -330.8233
  11   2.0000     -12.155927      -330.7796
  12   2.0000     -11.324752      -308.1622
  13   2.0000     -11.324743      -308.1619
  14   2.0000     -11.324691      -308.1605
  15   2.0000     -11.324667      -308.1599
  16   2.0000     -11.324646      -308.1593
  17   2.0000     -11.324636      -308.1590
  18   2.0000      -9.116969      -248.0853
  19   2.0000      -9.116959      -248.0851
  20   2.0000      -9.116578      -248.0747
  21   2.0000      -9.116227      -248.0651
  22   2.0000      -9.116217      -248.0649
  23   2.0000      -9.115236      -248.0382
  24   2.0000      -9.114587      -248.0205
  25   2.0000      -9.113779      -247.9985
  26   2.0000      -9.113770      -247.9983
  27   2.0000      -9.113692      -247.9962
  28   2.0000      -9.113685      -247.9960
  29   2.0000      -9.113664      -247.9954
  30   2.0000      -9.113473      -247.9902
  31   2.0000      -9.113195      -247.9826
  32   2.0000      -9.113186      -247.9824
  33   2.0000      -9.112824      -247.9726
  34   2.0000      -9.112815      -247.9723
  35   2.0000      -9.112599      -247.9664
  36   2.0000      -1.509927       -41.0872
  37   2.0000      -1.472226       -40.0613
  38   2.0000      -1.472205       -40.0607
  39   2.0000      -1.439760       -39.1779
  40   2.0000      -1.439751       -39.1776
  41   2.0000      -1.427259       -38.8377
  42   2.0000      -1.378274       -37.5048
  43   2.0000      -1.294510       -35.2254
  44   2.0000      -1.294411       -35.2227
  45   2.0000      -1.156996       -31.4835
  46   2.0000      -1.156948       -31.4822
  47   2.0000      -1.059283       -28.8246
  48   2.0000      -1.019608       -27.7449
  49   2.0000      -0.995199       -27.0807
  50   2.0000      -0.965892       -26.2833
  51   2.0000      -0.965832       -26.2816
  52   2.0000      -0.932929       -25.3863
  53   2.0000      -0.932881       -25.3850
  54   2.0000      -0.901697       -24.5364
  55   2.0000      -0.856658       -23.3109
  56   2.0000      -0.856641       -23.3104
  57   2.0000      -0.830882       -22.6094
  58   2.0000      -0.830880       -22.6094
  59   2.0000      -0.829329       -22.5672
  60   2.0000      -0.829322       -22.5670
  61   2.0000      -0.827139       -22.5076
  62   2.0000      -0.824165       -22.4267
  63   2.0000      -0.817862       -22.2552
  64   2.0000      -0.817847       -22.2548
  65   2.0000      -0.805909       -21.9299
  66   2.0000      -0.773758       -21.0550
  67   2.0000      -0.690707       -18.7951
  68   2.0000      -0.690631       -18.7930
  69   0.0000      -0.368171       -10.0184
  70   0.0000      -0.323705        -8.8085
  71   0.0000      -0.323658        -8.8072
  72   0.0000      -0.291994        -7.9455
  73   0.0000      -0.291932        -7.9439

MULLIKEN ATOMIC CHARGES
-----------------------
   0 C :    0.026569
   1 C :    0.028936
   2 C :    0.027581
   3 C :    0.026708
   4 C :    0.029060
   5 C :    0.027685
   6 Cl:   -0.027781
   7 Cl:   -0.027779
   8 Cl:   -0.027728
   9 Cl:   -0.027781
  10 Cl:   -0.027752
  11 Cl:   -0.027718
Sum of atomic charges:   -0.0000000

LOEWDIN ATOMIC CHARGES
----------------------
   0 C :   -0.439112
   1 C :   -0.439044
   2 C :   -0.438942
   3 C :   -0.439089
   4 C :   -0.439040
   5 C :   -0.438957
   6 Cl:    0.439018
   7 Cl:    0.439094
   8 Cl:    0.438973
   9 Cl:    0.438994
  10 Cl:    0.439101
  11 Cl:    0.439005

  Mayer bond orders larger than 0.100000
B(  0-C ,  1-C ) :   1.3362 B(  0-C ,  5-C ) :   1.3365 B(  0-C , 11-Cl) :   1.2023
B(  1-C ,  2-C ) :   1.3362 B(  1-C , 10-Cl) :   1.2007 B(  2-C ,  3-C ) :   1.3364
B(  2-C ,  9-Cl) :   1.2011 B(  3-C ,  4-C ) :   1.3361 B(  3-C ,  8-Cl) :   1.2019
B(  4-C ,  5-C ) :   1.3361 B(  4-C ,  7-Cl) :   1.2003 B(  5-C ,  6-Cl) :   1.2010

FINAL SINGLE POINT ENERGY     -2989.508445279322

DIPOLE MOMENT
-------------

Method             : SCF
Type of density    : Electron Density
Multiplicity       :   1
Irrep              :   0
Energy             : -2989.5146395179217507 Eh
Relativity type    :
Basis              : AO
                                X                 Y                 Z
Electronic contribution:      0.000000657       0.000028386       0.000037367
Nuclear contribution   :     -0.000007683       0.000048377      -0.000042385
                        -----------------------------------------
Total Dipole Moment    :     -0.000007026       0.000076763      -0.000005018
                        -----------------------------------------
Magnitude (a.u.)       :      0.000077247
Magnitude (Debye)      :      0.000196345

Rotational constants in cm-1:             0.015195             0.015193             0.007597
Rotational constants in MHz :           455.529569           455.463462           227.748257

                             ****ORCA TERMINATED NORMALLY****
TOTAL RUN TIME: 0 days 0 hours 4 minutes 43 seconds 13 msec
