                         Program Version 6.0.0  -   RELEASE  -
|  1> ! wb97x-v def2-tzvp def2/J RIJCOSX DEFGRID2 scfconv7 GCP(DFT/TZ) printgap
|  2> %output
|  3>     printlevel normal
|  4> end
|  5> * xyz 0 1
|  6> C -1.3859185412664057 -0.5793285923702923 1.5326002752374143e-05
|  7> S -6.67470537136387e-06 0.612231710382817 7.743252952305415e-06
|  8> C 1.3859161385303378 -0.5793158542483785 -1.28471840458459e-05
|  9> H -1.3540796733851708 -1.2080142485558627 0.8947149701523518
| 10> H -1.3542432356530814 -1.2078480930525808 -0.894806681062904
| 11> H -2.317507697808475 -0.007611901262313901 0.00015572395444800511
| 12> H 1.3542315185850566 -1.2078593411404088 0.894792067947999
| 13> H 2.3174999209065987 -0.007590691496009649 -0.0001218876065621395
| 14> H 1.3540981186136885 -1.2079780134708906 -0.8947295695645884
| 15> *
| 16>
| 17>                          ****END OF INPUT****

CARTESIAN COORDINATES (ANGSTROEM)
---------------------------------
  C     -1.385919   -0.579329    0.000015
  S     -0.000007    0.612232    0.000008
  C      1.385916   -0.579316   -0.000013
  H     -1.354080   -1.208014    0.894715
  H     -1.354243   -1.207848   -0.894807
  H     -2.317508   -0.007612    0.000156
  H      1.354232   -1.207859    0.894792
  H      2.317500   -0.007591   -0.000122
  H      1.354098   -1.207978   -0.894730

 Total Charge           Charge          ....    0
 Multiplicity           Mult            ....    1
 Number of Electrons    NEL             ....   34
 Basis Dimension        Dim             ....  135

ORBITAL ENERGIES
----------------

  NO   OCC          E(Eh)            E(eV)
   0   2.0000     -94.116551     -2561.0415
   1   2.0000     -12.070671      -328.4597
   2   2.0000     -12.070503      -328.4551
   3   2.0000      -9.626544      -261.9516
   4   2.0000      -7.604417      -206.9267
   5   2.0000      -7.603188      -206.8933
   6   2.0000      -7.602371      -206.8710
   7   2.0000      -1.289320       -35.0842
   8   2.0000      -1.191840       -32.4316
   9   2.0000      -1.080732       -29.4082
  10   2.0000      -0.859858       -23.3979
  11   2.0000      -0.857319       -23.3288
  12   2.0000      -0.853132       -23.2149
  13   2.0000      -0.834928       -22.7195
  14   2.0000      -0.801079       -21.7985
  15   2.0000      -0.739725       -20.1289
  16   2.0000      -0.630254       -17.1501
  17   0.0000      -0.189783        -5.1643
  18   0.0000      -0.167683        -4.5629
  19   0.0000      -0.008790        -0.2392
  20   0.0000       0.012788         0.3480
  21   0.0000       0.032472         0.8836

MULLIKEN ATOMIC CHARGES
-----------------------
   0 C :   -0.344185
   1 S :   -0.079795
   2 C :   -0.344180
   3 H :    0.123939
   4 H :    0.123941
   5 H :    0.136201
   6 H :    0.123940
   7 H :    0.136200
   8 H :    0.123939
Sum of atomic charges:   -0.0000000

LOEWDIN ATOMIC CHARGES
----------------------
   0 C :   -0.511011
   1 S :    0.396617
   2 C :   -0.511011
   3 H :    0.101437
   4 H :    0.101436
   5 H :    0.109830
   6 H :    0.101436
   7 H :    0.109830
   8 H :    0.101437

  Mayer bond orders larger than 0.100000
B(  0-C ,  1-S ) :   1.0747 B(  0-C ,  3-H ) :   0.9681 B(  0-C ,  4-H ) :   0.9681
B(  0-C ,  5-H ) :   0.9661 B(  1-S ,  2-C ) :   1.0747 B(  2-C ,  6-H ) :   0.9681
B(  2-C ,  7-H ) :   0.9661 B(  2-C ,  8-H ) :   0.9681

FINAL SINGLE POINT ENERGY      -477.963601444928

DIPOLE MOMENT
-------------

Method             : SCF
Type of density    : Electron Density
Multiplicity       :   1
Irrep              :   0
Energy             :  -477.9695934588277169 Eh
Relativity type    :
Basis              : AO
                                X                 Y                 Z
Electronic contribution:     -0.000019363       3.995427535       0.000018600
Nuclear contribution   :      0.000021194      -4.639424216      -0.000021366
                        -----------------------------------------
Total Dipole Moment    :      0.000001831      -0.643996681      -0.000002766
                        -----------------------------------------
Magnitude (a.u.)       :      0.643996681
Magnitude (Debye)      :      1.636909476

Rotational constants in cm-1:             0.577727             0.249410             0.186658
Rotational constants in MHz :         17319.816158          7477.138187          5595.853302

                             ****ORCA TERMINATED NORMALLY****
TOTAL RUN TIME: 0 days 0 hours 0 minutes 23 seconds 22 msec
