                         Program Version 6.0.0  -   RELEASE  -
|  1> ! pbe def2-sv(p) def2/J RI DEFGRID1 loosescf d4 GCP(DFT/SV(P)) printgap
|  2> %output
|  3>     printlevel normal
|  4> end
|  5> * xyz 0 1
|  6> C 3.7241345654 0.1811190103 0.0642125228
|  7> C 2.2502717445 0.3301716534 -0.3034502342
|  8> H 2.1757705283 0.5483323455 -1.3752768205
|  9> C 1.6003252873 1.4752397959 0.470255375
| 10> C 0.1222572477 1.5990103399 0.1162408192
| 11> C -0.6431141875 0.3039083469 0.4076113497
| 12> H -0.5177760201 0.0606755923 1.468699315
| 13> C 0.0041168642 -0.8365075588 -0.3932687995
| 14> H -0.066810991 -0.6027975757 -1.4678954379
| 15> C 1.4854505914 -0.9610355801 -0.0200120832
| 16> O -0.6813157204 -2.0504720171 -0.1344200981
| 17> C -2.1567015183 0.4938645127 0.1602644785
| 18> C -2.5543742502 0.3597476342 -1.3081019094
| 19> C -2.9848068765 -0.4671857743 1.012802107
| 20> H 4.1819261086 -0.6245452399 -0.5046529645
| 21> H 4.2630228005 1.1013790977 -0.147291702
| 22> H 3.8291810284 -0.0427539635 1.1234130017
| 23> H 1.7024625098 1.2880201049 1.5415382882
| 24> H 2.1116693084 2.4127453326 0.2434777664
| 25> H -0.3214354304 2.4132539511 0.6920855816
| 26> H 0.0237073698 1.8472713644 -0.9428336806
| 27> H 1.5583930075 -1.2075433753 1.0420253372
| 28> H 1.9304802011 -1.7828516922 -0.5875640102
| 29> H -0.2006651052 -2.7762719097 -0.5542163312
| 30> H -2.3994609465 1.514789727 0.4809967733
| 31> H -3.5953207125 0.6486500884 -1.4345459211
| 32> H -2.4467080404 -0.6708979307 -1.6353051805
| 33> H -1.9450987986 1.0001512911 -1.9411725339
| 34> H -4.045939188 -0.3146085652 0.8288292966
| 35> H -2.7922019608 -0.3029434139 2.0707152101
| 36> H -2.7302378681 -1.4948039411 0.7712880481
| 37> *
| 38>
| 39>                          ****END OF INPUT****

CARTESIAN COORDINATES (ANGSTROEM)
---------------------------------
  C      3.724135    0.181119    0.064213
  C      2.250272    0.330172   -0.303450
  H      2.175771    0.548332   -1.375277
  C      1.600325    1.475240    0.470255
  C      0.122257    1.599010    0.116241
  C     -0.643114    0.303908    0.407611
  H     -0.517776    0.060676    1.468699
  C      0.004117   -0.836508   -0.393269
  H     -0.066811   -0.602798   -1.467895
  C      1.485451   -0.961036   -0.020012
  O     -0.681316   -2.050472   -0.134420
  C     -2.156702    0.493865    0.160264
  C     -2.554374    0.359748   -1.308102
  C     -2.984807   -0.467186    1.012802
  H      4.181926   -0.624545   -0.504653
  H      4.263023    1.101379   -0.147292
  H      3.829181   -0.042754    1.123413
  H      1.702463    1.288020    1.541538
  H      2.111669    2.412745    0.243478
  H     -0.321435    2.413254    0.692086
  H      0.023707    1.847271   -0.942834
  H      1.558393   -1.207543    1.042025
  H      1.930480   -1.782852   -0.587564
  H     -0.200665   -2.776272   -0.554216
  H     -2.399461    1.514790    0.480997
  H     -3.595321    0.648650   -1.434546
  H     -2.446708   -0.670898   -1.635305
  H     -1.945099    1.000151   -1.941173
  H     -4.045939   -0.314609    0.828829
  H     -2.792202   -0.302943    2.070715
  H     -2.730238   -1.494804    0.771288

 Total Charge           Charge          ....    0
 Multiplicity           Mult            ....    1
 Number of Electrons    NEL             ....   88
 Basis Dimension        Dim             ....  194

ORBITAL ENERGIES
----------------

  NO   OCC          E(Eh)            E(eV)
   0   2.0000     -18.741657      -509.9864
   1   2.0000      -9.933522      -270.3049
   2   2.0000      -9.895118      -269.2598
   3   2.0000      -9.885488      -268.9978
   4   2.0000      -9.882772      -268.9239
   5   2.0000      -9.882317      -268.9115
   6   2.0000      -9.880612      -268.8651
   7   2.0000      -9.880481      -268.8615
   8   2.0000      -9.873637      -268.6753
   9   2.0000      -9.862176      -268.3635
  10   2.0000      -9.852466      -268.0992
  11   2.0000      -0.919385       -25.0177
  12   2.0000      -0.759549       -20.6684
  13   2.0000      -0.717643       -19.5280
  14   2.0000      -0.667851       -18.1731
  15   2.0000      -0.655422       -17.8349
  16   2.0000      -0.602131       -16.3848
  17   2.0000      -0.597132       -16.2488
  18   2.0000      -0.551916       -15.0184
  19   2.0000      -0.526911       -14.3380
  20   2.0000      -0.502483       -13.6732
  21   2.0000      -0.481863       -13.1122
  22   2.0000      -0.454655       -12.3718
  23   2.0000      -0.418003       -11.3744
  24   2.0000      -0.415918       -11.3177
  25   2.0000      -0.403816       -10.9884
  26   2.0000      -0.392722       -10.6865
  27   2.0000      -0.369920       -10.0660
  28   2.0000      -0.361287        -9.8311
  29   2.0000      -0.352167        -9.5830
  30   2.0000      -0.345468        -9.4007
  31   2.0000      -0.336175        -9.1478
  32   2.0000      -0.330078        -8.9819
  33   2.0000      -0.320168        -8.7122
  34   2.0000      -0.313288        -8.5250
  35   2.0000      -0.310745        -8.4558
  36   2.0000      -0.297801        -8.1036
  37   2.0000      -0.289288        -7.8719
  38   2.0000      -0.284974        -7.7545
  39   2.0000      -0.269700        -7.3389
  40   2.0000      -0.267984        -7.2922
  41   2.0000      -0.258689        -7.0393
  42   2.0000      -0.242856        -6.6085
  43   2.0000      -0.212559        -5.7840
  44   0.0000       0.026499         0.7211
  45   0.0000       0.038525         1.0483
  46   0.0000       0.044787         1.2187
  47   0.0000       0.046467         1.2644
  48   0.0000       0.076922         2.0932

MULLIKEN ATOMIC CHARGES
-----------------------
   0 C :   -0.196091
   1 C :   -0.216282
   2 H :    0.063216
   3 C :   -0.093970
   4 C :   -0.104624
   5 C :   -0.164451
   6 H :    0.054529
   7 C :    0.069219
   8 H :    0.047395
   9 C :   -0.100538
  10 O :   -0.404910
  11 C :   -0.102248
  12 C :   -0.263423
  13 C :   -0.240716
  14 H :    0.094550
  15 H :    0.096305
  16 H :    0.090998
  17 H :    0.066293
  18 H :    0.077639
  19 H :    0.080441
  20 H :    0.072395
  21 H :    0.070793
  22 H :    0.062263
  23 H :    0.295733
  24 H :    0.057394
  25 H :    0.094660
  26 H :    0.109284
  27 H :    0.095679
  28 H :    0.084931
  29 H :    0.085878
  30 H :    0.117658
Sum of atomic charges:    0.0000000

LOEWDIN ATOMIC CHARGES
----------------------
   0 C :   -0.326473
   1 C :   -0.152961
   2 H :    0.113486
   3 C :   -0.215740
   4 C :   -0.213375
   5 C :   -0.137172
   6 H :    0.117008
   7 C :   -0.046326
   8 H :    0.095145
   9 C :   -0.227036
  10 O :   -0.318793
  11 C :   -0.143635
  12 C :   -0.333042
  13 C :   -0.336805
  14 H :    0.116399
  15 H :    0.117639
  16 H :    0.117237
  17 H :    0.114519
  18 H :    0.115786
  19 H :    0.117709
  20 H :    0.114356
  21 H :    0.117532
  22 H :    0.107863
  23 H :    0.281431
  24 H :    0.110231
  25 H :    0.117584
  26 H :    0.119389
  27 H :    0.111211
  28 H :    0.111016
  29 H :    0.111566
  30 H :    0.124255

  Mayer bond orders larger than 0.100000
B(  0-C ,  1-C ) :   1.1108 B(  0-C , 14-H ) :   0.9488 B(  0-C , 15-H ) :   0.9481
B(  0-C , 16-H ) :   0.9462 B(  1-C ,  2-H ) :   0.8904 B(  1-C ,  3-C ) :   1.0988
B(  1-C ,  9-C ) :   1.0805 B(  3-C ,  4-C ) :   1.1439 B(  3-C , 17-H ) :   0.9027
B(  3-C , 18-H ) :   0.9117 B(  4-C ,  5-C ) :   1.0887 B(  4-C , 19-H ) :   0.9076
B(  4-C , 20-H ) :   0.8962 B(  5-C ,  6-H ) :   0.8789 B(  5-C ,  7-C ) :   1.0526
B(  5-C , 11-C ) :   1.0178 B(  7-C ,  8-H ) :   0.8766 B(  7-C ,  9-C ) :   1.0918
B(  7-C , 10-O ) :   1.0580 B(  9-C , 21-H ) :   0.8912 B(  9-C , 22-H ) :   0.9045
B( 10-O , 23-H ) :   0.8465 B( 11-C , 12-C ) :   1.1169 B( 11-C , 13-C ) :   1.1153
B( 11-C , 24-H ) :   0.8996 B( 12-C , 25-H ) :   0.9453 B( 12-C , 26-H ) :   0.9344
B( 12-C , 27-H ) :   0.9454 B( 13-C , 28-H ) :   0.9479 B( 13-C , 29-H ) :   0.9470
B( 13-C , 30-H ) :   0.9330

Dispersion correction           -0.031690498
FINAL SINGLE POINT ENERGY      -467.199527521386

DIPOLE MOMENT
-------------

Method             : SCF
Type of density    : Electron Density
Multiplicity       :   1
Irrep              :   0
Energy             :  -467.3121477395909551 Eh
Relativity type    :
Basis              : AO
                                X                 Y                 Z
Electronic contribution:     -0.089658690      -2.842824423       0.006236230
Nuclear contribution   :      0.660639026       2.798377814      -0.309417746
                        -----------------------------------------
Total Dipole Moment    :      0.570980336      -0.044446610      -0.303181516
                        -----------------------------------------
Magnitude (a.u.)       :      0.648007003
Magnitude (Debye)      :      1.647102905

Rotational constants in cm-1:             0.065854             0.022728             0.019575
Rotational constants in MHz :          1974.263281           681.364358           586.835247

                             ****ORCA TERMINATED NORMALLY****
TOTAL RUN TIME: 0 days 0 hours 0 minutes 14 seconds 480 msec
