                         Program Version 6.0.0  -   RELEASE  -
|  1> ! r2scan-3c def2/J RI DEFGRID2 scfconv6 printgap
|  2> %output
|  3>     printlevel normal
|  4> end
|  5> * xyz 0 1
|  6> C -2.5590299133 -0.6788674028 -0.3256813341
|  7> C -1.1697730508 -0.319119972 0.2160192041
|  8> H -1.2032617116 -0.2962954647 1.3185627527
|  9> C -0.7061031385 1.0475586123 -0.3093067441
| 10> H -0.7202557819 1.0283393594 -1.4047715374
| 11> C 0.73231079 1.3441378824 0.1513877241
| 12> H 0.7475287012 1.4975017801 1.2441020238
| 13> C 1.6631190075 0.1706923059 -0.1624248484
| 14> H 1.8178237505 0.1273903082 -1.2491497436
| 15> C 1.0348101591 -1.1607723734 0.2920427054
| 16> H 1.0099387743 -1.1667333556 1.403568167
| 17> O -0.2728669403 -1.3347320476 -0.1985905784
| 18> O 1.8265428542 -2.1792287177 -0.1977703133
| 19> O 2.8750586413 0.3784261412 0.5135860136
| 20> O 1.2309383357 2.4867391188 -0.4967580679
| 21> O -1.5705486677 2.0892863064 0.061441767
| 22> O -3.1558613562 -1.7366050735 0.375904453
| 23> H -2.4618087921 -0.9140206859 -1.3914893384
| 24> H -3.2180851317 0.1827227429 -0.206538286
| 25> H 1.3976110775 -3.037025207 -0.0533230952
| 26> H 3.504052627 -0.3098370685 0.2502745131
| 27> H 0.5576688314 3.18448368 -0.4510118675
| 28> H -1.6411860152 2.1325332452 1.0271863872
| 29> H -2.6321741948 -2.5385323556 0.2389511867
| 30> *
| 31>
| 32>                          ****END OF INPUT****

CARTESIAN COORDINATES (ANGSTROEM)
---------------------------------
  C     -2.559030   -0.678867   -0.325681
  C     -1.169773   -0.319120    0.216019
  H     -1.203262   -0.296295    1.318563
  C     -0.706103    1.047559   -0.309307
  H     -0.720256    1.028339   -1.404772
  C      0.732311    1.344138    0.151388
  H      0.747529    1.497502    1.244102
  C      1.663119    0.170692   -0.162425
  H      1.817824    0.127390   -1.249150
  C      1.034810   -1.160772    0.292043
  H      1.009939   -1.166733    1.403568
  O     -0.272867   -1.334732   -0.198591
  O      1.826543   -2.179229   -0.197770
  O      2.875059    0.378426    0.513586
  O      1.230938    2.486739   -0.496758
  O     -1.570549    2.089286    0.061442
  O     -3.155861   -1.736605    0.375904
  H     -2.461809   -0.914021   -1.391489
  H     -3.218085    0.182723   -0.206538
  H      1.397611   -3.037025   -0.053323
  H      3.504053   -0.309837    0.250275
  H      0.557669    3.184484   -0.451012
  H     -1.641186    2.132533    1.027186
  H     -2.632174   -2.538532    0.238951

 Total Charge           Charge          ....    0
 Multiplicity           Mult            ....    1
 Number of Electrons    NEL             ....   96
 Basis Dimension        Dim             ....  318

ORBITAL ENERGIES
----------------

  NO   OCC          E(Eh)            E(eV)
   0   2.0000     -18.980698      -516.4910
   1   2.0000     -18.978688      -516.4364
   2   2.0000     -18.978616      -516.4344
   3   2.0000     -18.957571      -515.8617
   4   2.0000     -18.956917      -515.8439
   5   2.0000     -18.954009      -515.7648
   6   2.0000     -10.145004      -276.0596
   7   2.0000     -10.100578      -274.8507
   8   2.0000     -10.099687      -274.8265
   9   2.0000     -10.095309      -274.7073
  10   2.0000     -10.092213      -274.6231
  11   2.0000     -10.085593      -274.4429
  12   2.0000      -1.061360       -28.8811
  13   2.0000      -1.023472       -27.8501
  14   2.0000      -1.006070       -27.3766
  15   2.0000      -0.998455       -27.1693
  16   2.0000      -0.989504       -26.9258
  17   2.0000      -0.983925       -26.7740
  18   2.0000      -0.756927       -20.5970
  19   2.0000      -0.741802       -20.1855
  20   2.0000      -0.661939       -18.0123
  21   2.0000      -0.629037       -17.1170
  22   2.0000      -0.596374       -16.2282
  23   2.0000      -0.568579       -15.4718
  24   2.0000      -0.528832       -14.3903
  25   2.0000      -0.518013       -14.0958
  26   2.0000      -0.503258       -13.6944
  27   2.0000      -0.489880       -13.3303
  28   2.0000      -0.483787       -13.1645
  29   2.0000      -0.461500       -12.5581
  30   2.0000      -0.443501       -12.0683
  31   2.0000      -0.418113       -11.3774
  32   2.0000      -0.403285       -10.9739
  33   2.0000      -0.399162       -10.8617
  34   2.0000      -0.398328       -10.8391
  35   2.0000      -0.380349       -10.3498
  36   2.0000      -0.356670        -9.7055
  37   2.0000      -0.346254        -9.4220
  38   2.0000      -0.325852        -8.8669
  39   2.0000      -0.323647        -8.8069
  40   2.0000      -0.313374        -8.5273
  41   2.0000      -0.302936        -8.2433
  42   2.0000      -0.286413        -7.7937
  43   2.0000      -0.269869        -7.3435
  44   2.0000      -0.262206        -7.1350
  45   2.0000      -0.253259        -6.8915
  46   2.0000      -0.243266        -6.6196
  47   2.0000      -0.223401        -6.0791
  48   0.0000       0.027109         0.7377
  49   0.0000       0.043353         1.1797
  50   0.0000       0.051449         1.4000
  51   0.0000       0.066651         1.8137
  52   0.0000       0.079546         2.1645

MULLIKEN ATOMIC CHARGES
-----------------------
   0 C :   -0.296341
   1 C :   -0.033975
   2 H :    0.186009
   3 C :   -0.052410
   4 H :    0.175031
   5 C :   -0.028453
   6 H :    0.164360
   7 C :   -0.011664
   8 H :    0.175848
   9 C :   -0.016471
  10 H :    0.140419
  11 O :   -0.207988
  12 O :   -0.398983
  13 O :   -0.415216
  14 O :   -0.411767
  15 O :   -0.422253
  16 O :   -0.406465
  17 H :    0.151131
  18 H :    0.166950
  19 H :    0.307860
  20 H :    0.310790
  21 H :    0.310060
  22 H :    0.305153
  23 H :    0.308374
Sum of atomic charges:    0.0000000

LOEWDIN ATOMIC CHARGES
----------------------
   0 C :    0.042422
   1 C :    0.102508
   2 H :    0.183173
   3 C :    0.100266
   4 H :    0.203286
   5 C :    0.109306
   6 H :    0.182090
   7 C :    0.128978
   8 H :    0.192947
   9 C :    0.297101
  10 H :    0.180081
  11 O :   -0.688447
  12 O :   -0.501767
  13 O :   -0.554081
  14 O :   -0.562962
  15 O :   -0.582412
  16 O :   -0.591913
  17 H :    0.172569
  18 H :    0.195072
  19 H :    0.284255
  20 H :    0.280689
  21 H :    0.281118
  22 H :    0.274375
  23 H :    0.271345

  Mayer bond orders larger than 0.100000
B(  0-C ,  1-C ) :   0.9049 B(  0-C , 16-O ) :   1.0118 B(  0-C , 17-H ) :   1.0010
B(  0-C , 18-H ) :   0.9694 B(  1-C ,  2-H ) :   0.9681 B(  1-C ,  3-C ) :   0.8416
B(  1-C , 11-O ) :   0.7933 B(  3-C ,  4-H ) :   0.9451 B(  3-C ,  5-C ) :   0.8865
B(  3-C , 15-O ) :   0.9882 B(  5-C ,  6-H ) :   0.9878 B(  5-C ,  7-C ) :   0.9221
B(  5-C , 14-O ) :   0.9067 B(  7-C ,  8-H ) :   0.9858 B(  7-C ,  9-C ) :   0.7900
B(  7-C , 13-O ) :   0.9293 B(  9-C , 10-H ) :   1.0039 B(  9-C , 11-O ) :   0.9179
B(  9-C , 12-O ) :   1.0547 B( 12-O , 19-H ) :   0.8803 B( 13-O , 20-H ) :   0.8836
B( 14-O , 21-H ) :   0.8730 B( 15-O , 22-H ) :   0.8838 B( 16-O , 23-H ) :   0.8839

Dispersion correction           -0.007943925
FINAL SINGLE POINT ENERGY      -687.073571128222

DIPOLE MOMENT
-------------

Method             : SCF
Type of density    : Electron Density
Multiplicity       :   1
Irrep              :   0
Energy             :  -687.0848444599320146 Eh
Relativity type    :
Basis              : AO
                                X                 Y                 Z
Electronic contribution:      2.437002824      -0.503915854      -0.310876068
Nuclear contribution   :     -2.652592384      -0.107091100       0.682306812
                        -----------------------------------------
Total Dipole Moment    :     -0.215589560      -0.611006954       0.371430743
                        -----------------------------------------
Magnitude (a.u.)       :      0.746839442
Magnitude (Debye)      :      1.898315001

Rotational constants in cm-1:             0.039325             0.025649             0.016359
Rotational constants in MHz :          1178.935538           768.932971           490.417973

                             ****ORCA TERMINATED NORMALLY****
TOTAL RUN TIME: 0 days 0 hours 0 minutes 43 seconds 269 msec
