                         Program Version 6.0.0  -   RELEASE  -
|  1> ! r2scan-3c def2/J RI DEFGRID2 scfconv6 printgap
|  2> %output
|  3>     printlevel normal
|  4> end
|  5> %cpcm
|  6>     smd true
|  7>     smdsolvent "water"
|  8> end
|  9> * xyz 0 1
| 10> C -2.5590299133 -0.6788674028 -0.3256813341
| 11> C -1.1697730508 -0.319119972 0.2160192041
| 12> H -1.2032617116 -0.2962954647 1.3185627527
| 13> C -0.7061031385 1.0475586123 -0.3093067441
| 14> H -0.7202557819 1.0283393594 -1.4047715374
| 15> C 0.73231079 1.3441378824 0.1513877241
| 16> H 0.7475287012 1.4975017801 1.2441020238
| 17> C 1.6631190075 0.1706923059 -0.1624248484
| 18> H 1.8178237505 0.1273903082 -1.2491497436
| 19> C 1.0348101591 -1.1607723734 0.2920427054
| 20> H 1.0099387743 -1.1667333556 1.403568167
| 21> O -0.2728669403 -1.3347320476 -0.1985905784
| 22> O 1.8265428542 -2.1792287177 -0.1977703133
| 23> O 2.8750586413 0.3784261412 0.5135860136
| 24> O 1.2309383357 2.4867391188 -0.4967580679
| 25> O -1.5705486677 2.0892863064 0.061441767
| 26> O -3.1558613562 -1.7366050735 0.375904453
| 27> H -2.4618087921 -0.9140206859 -1.3914893384
| 28> H -3.2180851317 0.1827227429 -0.206538286
| 29> H 1.3976110775 -3.037025207 -0.0533230952
| 30> H 3.504052627 -0.3098370685 0.2502745131
| 31> H 0.5576688314 3.18448368 -0.4510118675
| 32> H -1.6411860152 2.1325332452 1.0271863872
| 33> H -2.6321741948 -2.5385323556 0.2389511867
| 34> *
| 35>
| 36>                          ****END OF INPUT****

CARTESIAN COORDINATES (ANGSTROEM)
---------------------------------
  C     -2.559030   -0.678867   -0.325681
  C     -1.169773   -0.319120    0.216019
  H     -1.203262   -0.296295    1.318563
  C     -0.706103    1.047559   -0.309307
  H     -0.720256    1.028339   -1.404772
  C      0.732311    1.344138    0.151388
  H      0.747529    1.497502    1.244102
  C      1.663119    0.170692   -0.162425
  H      1.817824    0.127390   -1.249150
  C      1.034810   -1.160772    0.292043
  H      1.009939   -1.166733    1.403568
  O     -0.272867   -1.334732   -0.198591
  O      1.826543   -2.179229   -0.197770
  O      2.875059    0.378426    0.513586
  O      1.230938    2.486739   -0.496758
  O     -1.570549    2.089286    0.061442
  O     -3.155861   -1.736605    0.375904
  H     -2.461809   -0.914021   -1.391489
  H     -3.218085    0.182723   -0.206538
  H      1.397611   -3.037025   -0.053323
  H      3.504053   -0.309837    0.250275
  H      0.557669    3.184484   -0.451012
  H     -1.641186    2.132533    1.027186
  H     -2.632174   -2.538532    0.238951

 Total Charge           Charge          ....    0
 Multiplicity           Mult            ....    1
 Number of Electrons    NEL             ....   96
 Basis Dimension        Dim             ....  318

ORBITAL ENERGIES
----------------

  NO   OCC          E(Eh)            E(eV)
   0   2.0000     -18.973600      -516.2979
   1   2.0000     -18.969361      -516.1826
   2   2.0000     -18.964042      -516.0378
   3   2.0000     -18.962115      -515.9854
   4   2.0000     -18.958310      -515.8818
   5   2.0000     -18.956330      -515.8280
   6   2.0000     -10.135794      -275.8090
   7   2.0000     -10.088012      -274.5088
   8   2.0000     -10.087928      -274.5065
   9   2.0000     -10.087687      -274.4999
  10   2.0000     -10.087188      -274.4863
  11   2.0000     -10.075771      -274.1757
  12   2.0000      -1.053330       -28.6626
  13   2.0000      -1.013781       -27.5864
  14   2.0000      -1.005110       -27.3504
  15   2.0000      -0.995108       -27.0783
  16   2.0000      -0.986156       -26.8347
  17   2.0000      -0.981684       -26.7130
  18   2.0000      -0.747703       -20.3460
  19   2.0000      -0.733777       -19.9671
  20   2.0000      -0.653219       -17.7750
  21   2.0000      -0.620575       -16.8867
  22   2.0000      -0.587883       -15.9971
  23   2.0000      -0.558361       -15.1938
  24   2.0000      -0.520718       -14.1695
  25   2.0000      -0.510371       -13.8879
  26   2.0000      -0.497131       -13.5276
  27   2.0000      -0.480619       -13.0783
  28   2.0000      -0.476462       -12.9652
  29   2.0000      -0.453315       -12.3353
  30   2.0000      -0.437127       -11.8948
  31   2.0000      -0.411825       -11.2063
  32   2.0000      -0.400757       -10.9051
  33   2.0000      -0.394784       -10.7426
  34   2.0000      -0.391283       -10.6473
  35   2.0000      -0.376014       -10.2319
  36   2.0000      -0.352433        -9.5902
  37   2.0000      -0.343651        -9.3512
  38   2.0000      -0.325957        -8.8697
  39   2.0000      -0.320707        -8.7269
  40   2.0000      -0.309115        -8.4114
  41   2.0000      -0.300503        -8.1771
  42   2.0000      -0.279815        -7.6141
  43   2.0000      -0.266289        -7.2461
  44   2.0000      -0.261025        -7.1029
  45   2.0000      -0.254588        -6.9277
  46   2.0000      -0.241606        -6.5744
  47   2.0000      -0.220171        -5.9912
  48   0.0000       0.045364         1.2344
  49   0.0000       0.060476         1.6456
  50   0.0000       0.076035         2.0690
  51   0.0000       0.086153         2.3443
  52   0.0000       0.095121         2.5884

MULLIKEN ATOMIC CHARGES
-----------------------
   0 C :   -0.300532
   1 C :   -0.007770
   2 H :    0.203900
   3 C :   -0.059312
   4 H :    0.193452
   5 C :   -0.010668
   6 H :    0.182908
   7 C :    0.012729
   8 H :    0.185695
   9 C :   -0.042147
  10 H :    0.165486
  11 O :   -0.243989
  12 O :   -0.454444
  13 O :   -0.489622
  14 O :   -0.491819
  15 O :   -0.480849
  16 O :   -0.482994
  17 H :    0.166174
  18 H :    0.175105
  19 H :    0.358972
  20 H :    0.354085
  21 H :    0.350246
  22 H :    0.358221
  23 H :    0.357173
Sum of atomic charges:   -0.0000000

LOEWDIN ATOMIC CHARGES
----------------------
   0 C :    0.040696
   1 C :    0.110833
   2 H :    0.196228
   3 C :    0.106132
   4 H :    0.207298
   5 C :    0.110821
   6 H :    0.194099
   7 C :    0.123854
   8 H :    0.196879
   9 C :    0.300269
  10 H :    0.190966
  11 O :   -0.699785
  12 O :   -0.519546
  13 O :   -0.587884
  14 O :   -0.601384
  15 O :   -0.596009
  16 O :   -0.624582
  17 H :    0.179225
  18 H :    0.197215
  19 H :    0.302142
  20 H :    0.295601
  21 H :    0.295257
  22 H :    0.294022
  23 H :    0.287653

  Mayer bond orders larger than 0.100000
B(  0-C ,  1-C ) :   0.9031 B(  0-C , 16-O ) :   0.9960 B(  0-C , 17-H ) :   0.9878
B(  0-C , 18-H ) :   0.9691 B(  1-C ,  2-H ) :   0.9492 B(  1-C ,  3-C ) :   0.8553
B(  1-C , 11-O ) :   0.7851 B(  3-C ,  4-H ) :   0.9586 B(  3-C ,  5-C ) :   0.8929
B(  3-C , 15-O ) :   0.9708 B(  5-C ,  6-H ) :   0.9671 B(  5-C ,  7-C ) :   0.9300
B(  5-C , 14-O ) :   0.8906 B(  7-C ,  8-H ) :   0.9609 B(  7-C ,  9-C ) :   0.8156
B(  7-C , 13-O ) :   0.8989 B(  9-C , 10-H ) :   1.0041 B(  9-C , 11-O ) :   0.9371
B(  9-C , 12-O ) :   1.0497 B( 12-O , 19-H ) :   0.8544 B( 13-O , 20-H ) :   0.8620
B( 14-O , 21-H ) :   0.8551 B( 15-O , 22-H ) :   0.8579 B( 16-O , 23-H ) :   0.8582

Dispersion correction           -0.007943925
FINAL SINGLE POINT ENERGY      -687.110830379028

DIPOLE MOMENT
-------------

Method             : SCF
Type of density    : Electron Density
Multiplicity       :   1
Irrep              :   0
Energy             :  -687.1221037107379743 Eh
Relativity type    :
Basis              : AO
                                X                 Y                 Z
Electronic contribution:      2.246929948      -0.739016658      -0.014765662
Nuclear contribution   :     -2.652592384      -0.107091100       0.682306812
                        -----------------------------------------
Total Dipole Moment    :     -0.405662436      -0.846107758       0.667541149
                        -----------------------------------------
Magnitude (a.u.)       :      1.151551794
Magnitude (Debye)      :      2.927012048

Rotational constants in cm-1:             0.039325             0.025649             0.016359
Rotational constants in MHz :          1178.935538           768.932971           490.417973

                             ****ORCA TERMINATED NORMALLY****
TOTAL RUN TIME: 0 days 0 hours 0 minutes 52 seconds 300 msec
