                         Program Version 6.0.0  -   RELEASE  -
|  1> ! pbe def2-sv(p) def2/J RI DEFGRID1 loosescf d4 GCP(DFT/SV(P)) printgap
|  2> %output
|  3>     printlevel normal
|  4> end
|  5> * xyz 0 1
|  6> C -2.2369811623 -0.9999586338 -0.3596488782
|  7> C -1.1491582673 -0.2309287882 0.40225131
|  8> H -1.5996208489 0.1915847816 1.3098464807
|  9> C -0.5698422924 0.9057712276 -0.4538396427
| 10> H -0.3884326541 0.5377279588 -1.4713298589
| 11> C 0.7681325068 1.3251455495 0.1739945907
| 12> H 0.6370679957 1.4849109182 1.25170064
| 13> C 1.7627749643 0.1684330781 -0.0256234699
| 14> H 2.1499030749 0.205230053 -1.0558357911
| 15> C 1.0521898878 -1.1911293322 0.1342392578
| 16> H 1.7044350115 -1.8317489918 0.7428476562
| 17> O -0.1330859959 -1.1172676311 0.8826522492
| 18> O 0.8429400084 -1.7192106311 -1.1395061452
| 19> O 2.8206349086 0.2143097375 0.8966712858
| 20> O 1.2637649658 2.5380834985 -0.3289566302
| 21> O -1.4693617096 1.9678435979 -0.6008901065
| 22> O -2.9771201019 -1.8502878526 0.4801332093
| 23> H -1.7745464593 -1.5643558739 -1.1792042943
| 24> H -2.9457460278 -0.2819988754 -0.7774514463
| 25> H 0.6863006283 -2.674231926 -1.0903013806
| 26> H 3.2370161654 1.0890162891 0.8523299627
| 27> H 1.1638101018 2.5627370641 -1.2915923059
| 28> H -1.5876364214 2.4246628655 0.24513253
| 29> H -2.3594733371 -2.4047301162 0.9789775072
| 30> *
| 31>
| 32>                          ****END OF INPUT****

CARTESIAN COORDINATES (ANGSTROEM)
---------------------------------
  C     -2.236981   -0.999959   -0.359649
  C     -1.149158   -0.230929    0.402251
  H     -1.599621    0.191585    1.309846
  C     -0.569842    0.905771   -0.453840
  H     -0.388433    0.537728   -1.471330
  C      0.768133    1.325146    0.173995
  H      0.637068    1.484911    1.251701
  C      1.762775    0.168433   -0.025623
  H      2.149903    0.205230   -1.055836
  C      1.052190   -1.191129    0.134239
  H      1.704435   -1.831749    0.742848
  O     -0.133086   -1.117268    0.882652
  O      0.842940   -1.719211   -1.139506
  O      2.820635    0.214310    0.896671
  O      1.263765    2.538083   -0.328957
  O     -1.469362    1.967844   -0.600890
  O     -2.977120   -1.850288    0.480133
  H     -1.774546   -1.564356   -1.179204
  H     -2.945746   -0.281999   -0.777451
  H      0.686301   -2.674232   -1.090301
  H      3.237016    1.089016    0.852330
  H      1.163810    2.562737   -1.291592
  H     -1.587636    2.424663    0.245133
  H     -2.359473   -2.404730    0.978978

 Total Charge           Charge          ....    0
 Multiplicity           Mult            ....    1
 Number of Electrons    NEL             ....   96
 Basis Dimension        Dim             ....  192

ORBITAL ENERGIES
----------------

  NO   OCC          E(Eh)            E(eV)
   0   2.0000     -18.773917      -510.8643
   1   2.0000     -18.773443      -510.8514
   2   2.0000     -18.761458      -510.5252
   3   2.0000     -18.760162      -510.4900
   4   2.0000     -18.754984      -510.3491
   5   2.0000     -18.740681      -509.9599
   6   2.0000      -9.991784      -271.8903
   7   2.0000      -9.948840      -270.7217
   8   2.0000      -9.945554      -270.6323
   9   2.0000      -9.944598      -270.6063
  10   2.0000      -9.944054      -270.5915
  11   2.0000      -9.924613      -270.0624
  12   2.0000      -0.986686       -26.8491
  13   2.0000      -0.952101       -25.9080
  14   2.0000      -0.936011       -25.4701
  15   2.0000      -0.924818       -25.1656
  16   2.0000      -0.921803       -25.0835
  17   2.0000      -0.911300       -24.7977
  18   2.0000      -0.709027       -19.2936
  19   2.0000      -0.695004       -18.9120
  20   2.0000      -0.621571       -16.9138
  21   2.0000      -0.589918       -16.0525
  22   2.0000      -0.571067       -15.5395
  23   2.0000      -0.530538       -14.4367
  24   2.0000      -0.518092       -14.0980
  25   2.0000      -0.496218       -13.5028
  26   2.0000      -0.471831       -12.8392
  27   2.0000      -0.457317       -12.4442
  28   2.0000      -0.443118       -12.0578
  29   2.0000      -0.423803       -11.5323
  30   2.0000      -0.413622       -11.2552
  31   2.0000      -0.405540       -11.0353
  32   2.0000      -0.391360       -10.6494
  33   2.0000      -0.380549       -10.3553
  34   2.0000      -0.362278        -9.8581
  35   2.0000      -0.355439        -9.6720
  36   2.0000      -0.333586        -9.0773
  37   2.0000      -0.316616        -8.6156
  38   2.0000      -0.312869        -8.5136
  39   2.0000      -0.291475        -7.9314
  40   2.0000      -0.281937        -7.6719
  41   2.0000      -0.273404        -7.4397
  42   2.0000      -0.262041        -7.1305
  43   2.0000      -0.245876        -6.6906
  44   2.0000      -0.238152        -6.4805
  45   2.0000      -0.229307        -6.2398
  46   2.0000      -0.215453        -5.8628
  47   2.0000      -0.199736        -5.4351
  48   0.0000       0.009716         0.2644
  49   0.0000       0.021874         0.5952
  50   0.0000       0.025883         0.7043
  51   0.0000       0.042184         1.1479
  52   0.0000       0.054306         1.4777

MULLIKEN ATOMIC CHARGES
-----------------------
   0 C :    0.085585
   1 C :    0.036443
   2 H :    0.056437
   3 C :   -0.015831
   4 H :    0.072894
   5 C :    0.041289
   6 H :    0.055772
   7 C :    0.086797
   8 H :    0.057322
   9 C :    0.165252
  10 H :    0.078046
  11 O :   -0.327433
  12 O :   -0.396065
  13 O :   -0.415694
  14 O :   -0.411782
  15 O :   -0.400896
  16 O :   -0.435599
  17 H :    0.062358
  18 H :    0.087932
  19 H :    0.309111
  20 H :    0.306977
  21 H :    0.303921
  22 H :    0.303066
  23 H :    0.294099
Sum of atomic charges:    0.0000000

LOEWDIN ATOMIC CHARGES
----------------------
   0 C :   -0.135144
   1 C :   -0.074850
   2 H :    0.111016
   3 C :   -0.087979
   4 H :    0.117283
   5 C :   -0.088301
   6 H :    0.114883
   7 C :   -0.080409
   8 H :    0.104525
   9 C :   -0.001178
  10 H :    0.108300
  11 O :   -0.152946
  12 O :   -0.308529
  13 O :   -0.318065
  14 O :   -0.313840
  15 O :   -0.303026
  16 O :   -0.339848
  17 H :    0.095537
  18 H :    0.118458
  19 H :    0.290037
  20 H :    0.288973
  21 H :    0.287854
  22 H :    0.288417
  23 H :    0.278832

  Mayer bond orders larger than 0.100000
B(  0-C ,  1-C ) :   1.0696 B(  0-C , 16-O ) :   1.0708 B(  0-C , 17-H ) :   0.9005
B(  0-C , 18-H ) :   0.9096 B(  1-C ,  2-H ) :   0.8778 B(  1-C ,  3-C ) :   0.9610
B(  1-C , 11-O ) :   0.9485 B(  3-C ,  4-H ) :   0.8718 B(  3-C ,  5-C ) :   1.0182
B(  3-C , 15-O ) :   1.0505 B(  5-C ,  6-H ) :   0.8468 B(  5-C ,  7-C ) :   1.0174
B(  5-C , 14-O ) :   1.0707 B(  7-C ,  8-H ) :   0.8814 B(  7-C ,  9-C ) :   0.9748
B(  7-C , 13-O ) :   1.0884 B(  9-C , 10-H ) :   0.8930 B(  9-C , 11-O ) :   1.0774
B(  9-C , 12-O ) :   1.1010 B( 12-O , 19-H ) :   0.8361 B( 13-O , 20-H ) :   0.8410
B( 14-O , 21-H ) :   0.8457 B( 15-O , 22-H ) :   0.8460 B( 16-O , 23-H ) :   0.8468

Dispersion correction           -0.024362677
FINAL SINGLE POINT ENERGY      -685.691415956738

DIPOLE MOMENT
-------------

Method             : SCF
Type of density    : Electron Density
Multiplicity       :   1
Irrep              :   0
Energy             :  -685.8210989103899919 Eh
Relativity type    :
Basis              : AO
                                X                 Y                 Z
Electronic contribution:      1.621273913       0.181419050       1.201288889
Nuclear contribution   :     -1.005184697      -0.244550292      -1.390254034
                        -----------------------------------------
Total Dipole Moment    :      0.616089216      -0.063131242      -0.188965145
                        -----------------------------------------
Magnitude (a.u.)       :      0.647502357
Magnitude (Debye)      :      1.645820196

Rotational constants in cm-1:             0.042474             0.025559             0.018520
Rotational constants in MHz :          1273.352325           766.230036           555.205429

                             ****ORCA TERMINATED NORMALLY****
TOTAL RUN TIME: 0 days 0 hours 0 minutes 12 seconds 111 msec
