                         Program Version 6.0.0  -   RELEASE  -
|  1> ! pbe def2-sv(p) def2/J RI DEFGRID1 loosescf d4 GCP(DFT/SV(P)) printgap
|  2> %output
|  3>     printlevel normal
|  4> end
|  5> * xyz 0 1
|  6> C -3.6476141975 0.0320332292 -0.0539200627
|  7> C -2.1537651893 0.0136103038 -0.0041701185
|  8> C -1.4365636751 1.1879875597 0.2063680594
|  9> C -0.0562193895 1.1920129136 0.2160481864
| 10> C 0.6521951354 0.0050625016 0.0268816097
| 11> C -0.0675619271 -1.1785638252 -0.1539057974
| 12> C -1.446148846 -1.171527164 -0.1814284569
| 13> C 2.1269749083 -0.0778651655 0.0329514062
| 14> O 2.692870217 -1.1168048444 0.3494652329
| 15> C 2.9178706829 1.1208127362 -0.4122734351
| 16> H -3.9758648866 0.3027693589 -1.0571587259
| 17> H -4.0562028679 -0.9462701801 0.1835954522
| 18> H -4.0484199695 0.7670169074 0.6392131376
| 19> H -1.9714665594 2.1124571765 0.365533185
| 20> H 0.4639212136 2.1166782973 0.410071979
| 21> H 0.4847233303 -2.0981465834 -0.2835015464
| 22> H -1.9820610975 -2.096002562 -0.3369304141
| 23> H 2.314117908 2.0132712831 -0.5140740485
| 24> H 3.3562178075 0.8784300159 -1.3796468966
| 25> H 3.7397710915 1.2886108122 0.2799791278
| 26> *
| 27>
| 28>                          ****END OF INPUT****

CARTESIAN COORDINATES (ANGSTROEM)
---------------------------------
  C     -3.647614    0.032033   -0.053920
  C     -2.153765    0.013610   -0.004170
  C     -1.436564    1.187988    0.206368
  C     -0.056219    1.192013    0.216048
  C      0.652195    0.005063    0.026882
  C     -0.067562   -1.178564   -0.153906
  C     -1.446149   -1.171527   -0.181428
  C      2.126975   -0.077865    0.032951
  O      2.692870   -1.116805    0.349465
  C      2.917871    1.120813   -0.412273
  H     -3.975865    0.302769   -1.057159
  H     -4.056203   -0.946270    0.183595
  H     -4.048420    0.767017    0.639213
  H     -1.971467    2.112457    0.365533
  H      0.463921    2.116678    0.410072
  H      0.484723   -2.098147   -0.283502
  H     -1.982061   -2.096003   -0.336930
  H      2.314118    2.013271   -0.514074
  H      3.356218    0.878430   -1.379647
  H      3.739771    1.288611    0.279979

 Total Charge           Charge          ....    0
 Multiplicity           Mult            ....    1
 Number of Electrons    NEL             ....   72
 Basis Dimension        Dim             ....  160

ORBITAL ENERGIES
----------------

  NO   OCC          E(Eh)            E(eV)
   0   2.0000     -18.730923      -509.6943
   1   2.0000      -9.968278      -271.2506
   2   2.0000      -9.916869      -269.8517
   3   2.0000      -9.903723      -269.4940
   4   2.0000      -9.900639      -269.4101
   5   2.0000      -9.898850      -269.3614
   6   2.0000      -9.898799      -269.3600
   7   2.0000      -9.898515      -269.3523
   8   2.0000      -9.893240      -269.2087
   9   2.0000      -9.884760      -268.9780
  10   2.0000      -0.926279       -25.2053
  11   2.0000      -0.788501       -21.4562
  12   2.0000      -0.715015       -19.4566
  13   2.0000      -0.680652       -18.5215
  14   2.0000      -0.666937       -18.1483
  15   2.0000      -0.626640       -17.0517
  16   2.0000      -0.553212       -15.0537
  17   2.0000      -0.544748       -14.8234
  18   2.0000      -0.498695       -13.5702
  19   2.0000      -0.441733       -12.0202
  20   2.0000      -0.430808       -11.7229
  21   2.0000      -0.404011       -10.9937
  22   2.0000      -0.396126       -10.7791
  23   2.0000      -0.395562       -10.7638
  24   2.0000      -0.388140       -10.5618
  25   2.0000      -0.381206       -10.3731
  26   2.0000      -0.368054       -10.0153
  27   2.0000      -0.347399        -9.4532
  28   2.0000      -0.342953        -9.3322
  29   2.0000      -0.332321        -9.0429
  30   2.0000      -0.316160        -8.6031
  31   2.0000      -0.304646        -8.2898
  32   2.0000      -0.299800        -8.1580
  33   2.0000      -0.239127        -6.5070
  34   2.0000      -0.228215        -6.2100
  35   2.0000      -0.193862        -5.2753
  36   0.0000      -0.081431        -2.2158
  37   0.0000      -0.043320        -1.1788
  38   0.0000      -0.002565        -0.0698
  39   0.0000       0.039369         1.0713
  40   0.0000       0.051545         1.4026

MULLIKEN ATOMIC CHARGES
-----------------------
   0 C :   -0.224066
   1 C :    0.053551
   2 C :   -0.107822
   3 C :   -0.107265
   4 C :    0.093304
   5 C :   -0.088711
   6 C :   -0.103107
   7 C :    0.003702
   8 O :   -0.179988
   9 C :   -0.252026
  10 H :    0.126023
  11 H :    0.110248
  12 H :    0.113163
  13 H :    0.038847
  14 H :    0.052147
  15 H :    0.059577
  16 H :    0.042826
  17 H :    0.111150
  18 H :    0.133967
  19 H :    0.124479
Sum of atomic charges:   -0.0000000

LOEWDIN ATOMIC CHARGES
----------------------
   0 C :   -0.322402
   1 C :   -0.033353
   2 C :   -0.123290
   3 C :   -0.105353
   4 C :   -0.079144
   5 C :   -0.083154
   6 C :   -0.121866
   7 C :    0.047550
   8 O :   -0.142947
   9 C :   -0.360518
  10 H :    0.138966
  11 H :    0.128754
  12 H :    0.130508
  13 H :    0.123058
  14 H :    0.125674
  15 H :    0.133122
  16 H :    0.124402
  17 H :    0.124642
  18 H :    0.151882
  19 H :    0.143468

  Mayer bond orders larger than 0.100000
B(  0-C ,  1-C ) :   1.1026 B(  0-C , 10-H ) :   0.9288 B(  0-C , 11-H ) :   0.9417
B(  0-C , 12-H ) :   0.9399 B(  1-C ,  2-C ) :   1.3790 B(  1-C ,  6-C ) :   1.3641
B(  2-C ,  3-C ) :   1.3846 B(  2-C , 13-H ) :   0.9629 B(  3-C ,  4-C ) :   1.3317
B(  3-C , 14-H ) :   0.9518 B(  4-C ,  5-C ) :   1.3658 B(  4-C ,  7-C ) :   0.9472
B(  5-C ,  6-C ) :   1.3564 B(  5-C , 15-H ) :   0.9594 B(  6-C , 16-H ) :   0.9663
B(  7-C ,  8-O ) :   2.1368 B(  7-C ,  9-C ) :   1.0858 B(  9-C , 17-H ) :   0.9280
B(  9-C , 18-H ) :   0.9213 B(  9-C , 19-H ) :   0.9252

Dispersion correction           -0.020706397
FINAL SINGLE POINT ENERGY      -423.280319061035

DIPOLE MOMENT
-------------

Method             : SCF
Type of density    : Electron Density
Multiplicity       :   1
Irrep              :   0
Energy             :  -423.3358119160264437 Eh
Relativity type    :
Basis              : AO
                                X                 Y                 Z
Electronic contribution:      4.356995135      -3.251970284       1.257605603
Nuclear contribution   :     -5.284458032       4.053995034      -1.583066455
                        -----------------------------------------
Total Dipole Moment    :     -0.927462897       0.802024751      -0.325460853
                        -----------------------------------------
Magnitude (a.u.)       :      1.268603915
Magnitude (Debye)      :      3.224534893

Rotational constants in cm-1:             0.121749             0.026274             0.022187
Rotational constants in MHz :          3649.950838           787.674347           665.155730

                             ****ORCA TERMINATED NORMALLY****
TOTAL RUN TIME: 0 days 0 hours 0 minutes 9 seconds 442 msec
