                         Program Version 6.0.0  -   RELEASE  -
|  1> ! r2scan-3c def2/J RI DEFGRID2 scfconv6 printgap
|  2> %output
|  3>     printlevel normal
|  4> end
|  5> * xyz 0 1
|  6> C -1.1325280293 -1.3313164524 -0.4992479128
|  7> C -0.6802820269 -0.2002747023 0.427481703
|  8> C -1.5481825312 1.0371853611 0.2866373699
|  9> N 0.7115570296 0.095026407 0.0507574085
| 10> O 0.9264143286 0.9371567318 -0.7932649326
| 11> O 1.5836898881 -0.5638654815 0.5845363837
| 12> H -1.1260420607 -0.9944882528 -1.5332654828
| 13> H -0.4753613388 -2.1922169655 -0.4006998392
| 14> H -2.1415047865 -1.6287210408 -0.2324538769
| 15> H -0.6437811011 -0.5611417539 1.4587109768
| 16> H -1.1975989526 1.8318212986 0.9401542893
| 17> H -2.5708092242 0.7912345356 0.5529005992
| 18> H -1.5267688118 1.399000882 -0.7378956036
| 19> *
| 20>
| 21>                          ****END OF INPUT****

CARTESIAN COORDINATES (ANGSTROEM)
---------------------------------
  C     -1.132528   -1.331316   -0.499248
  C     -0.680282   -0.200275    0.427482
  C     -1.548183    1.037185    0.286637
  N      0.711557    0.095026    0.050757
  O      0.926414    0.937157   -0.793265
  O      1.583690   -0.563865    0.584536
  H     -1.126042   -0.994488   -1.533265
  H     -0.475361   -2.192217   -0.400700
  H     -2.141505   -1.628721   -0.232454
  H     -0.643781   -0.561142    1.458711
  H     -1.197599    1.831821    0.940154
  H     -2.570809    0.791235    0.552901
  H     -1.526769    1.399001   -0.737896

 Total Charge           Charge          ....    0
 Multiplicity           Mult            ....    1
 Number of Electrons    NEL             ....   48
 Basis Dimension        Dim             ....  164

ORBITAL ENERGIES
----------------

  NO   OCC          E(Eh)            E(eV)
   0   2.0000     -18.983861      -516.5771
   1   2.0000     -18.980620      -516.4889
   2   2.0000     -14.385785      -391.4571
   3   2.0000     -10.104392      -274.9545
   4   2.0000     -10.051349      -273.5111
   5   2.0000     -10.044155      -273.3154
   6   2.0000      -1.203929       -32.7606
   7   2.0000      -1.025173       -27.8964
   8   2.0000      -0.824900       -22.4467
   9   2.0000      -0.685600       -18.6561
  10   2.0000      -0.677203       -18.4276
  11   2.0000      -0.552185       -15.0257
  12   2.0000      -0.519086       -14.1250
  13   2.0000      -0.501379       -13.6432
  14   2.0000      -0.482687       -13.1346
  15   2.0000      -0.441291       -12.0081
  16   2.0000      -0.398280       -10.8378
  17   2.0000      -0.391485       -10.6528
  18   2.0000      -0.381185       -10.3726
  19   2.0000      -0.346448        -9.4273
  20   2.0000      -0.342310        -9.3147
  21   2.0000      -0.290363        -7.9012
  22   2.0000      -0.272384        -7.4120
  23   2.0000      -0.255054        -6.9404
  24   0.0000      -0.097846        -2.6625
  25   0.0000       0.069587         1.8935
  26   0.0000       0.094975         2.5844
  27   0.0000       0.113561         3.0902
  28   0.0000       0.119964         3.2644

MULLIKEN ATOMIC CHARGES
-----------------------
   0 C :   -0.473672
   1 C :   -0.121344
   2 C :   -0.434516
   3 N :    0.247905
   4 O :   -0.189558
   5 O :   -0.197174
   6 H :    0.166560
   7 H :    0.170285
   8 H :    0.159304
   9 H :    0.185697
  10 H :    0.159139
  11 H :    0.150819
  12 H :    0.176556
Sum of atomic charges:    0.0000000

LOEWDIN ATOMIC CHARGES
----------------------
   0 C :   -0.346278
   1 C :    0.059935
   2 C :   -0.363064
   3 N :   -0.542595
   4 O :   -0.006944
   5 O :   -0.007033
   6 H :    0.168073
   7 H :    0.170401
   8 H :    0.162755
   9 H :    0.202061
  10 H :    0.165703
  11 H :    0.160976
  12 H :    0.176011

  Mayer bond orders larger than 0.100000
B(  0-C ,  1-C ) :   0.9184 B(  0-C ,  6-H ) :   0.9656 B(  0-C ,  7-H ) :   0.9618
B(  0-C ,  8-H ) :   0.9710 B(  1-C ,  2-C ) :   0.9299 B(  1-C ,  3-N ) :   0.8275
B(  1-C ,  5-O ) :   0.1081 B(  1-C ,  9-H ) :   0.9448 B(  2-C , 10-H ) :   0.9669
B(  2-C , 11-H ) :   0.9655 B(  2-C , 12-H ) :   0.9636 B(  3-N ,  4-O ) :   1.8523
B(  3-N ,  5-O ) :   1.8468 B(  4-O ,  5-O ) :   0.2745

Dispersion correction           -0.003007242
FINAL SINGLE POINT ENERGY      -323.585723870337

DIPOLE MOMENT
-------------

Method             : SCF
Type of density    : Electron Density
Multiplicity       :   1
Irrep              :   0
Energy             :  -323.5950710852822567 Eh
Relativity type    :
Basis              : AO
                                X                 Y                 Z
Electronic contribution:      7.600818281       1.003850009       0.216663181
Nuclear contribution   :     -9.042089670      -1.264701827       0.041698230
                        -----------------------------------------
Total Dipole Moment    :     -1.441271389      -0.260851818       0.258361410
                        -----------------------------------------
Magnitude (a.u.)       :      1.487298728
Magnitude (Debye)      :      3.780412933

Rotational constants in cm-1:             0.173848             0.108310             0.085659
Rotational constants in MHz :          5211.827286          3247.052325          2567.982727

                             ****ORCA TERMINATED NORMALLY****
TOTAL RUN TIME: 0 days 0 hours 0 minutes 21 seconds 30 msec
