                         Program Version 6.0.0  -   RELEASE  -
|  1> ! r2scan-3c def2/J RI DEFGRID2 scfconv6 printgap
|  2> %output
|  3>     printlevel normal
|  4> end
|  5> %cpcm
|  6>     smd true
|  7>     smdsolvent "water"
|  8> end
|  9> * xyz 0 1
| 10> C -1.1325280293 -1.3313164524 -0.4992479128
| 11> C -0.6802820269 -0.2002747023 0.427481703
| 12> C -1.5481825312 1.0371853611 0.2866373699
| 13> N 0.7115570296 0.095026407 0.0507574085
| 14> O 0.9264143286 0.9371567318 -0.7932649326
| 15> O 1.5836898881 -0.5638654815 0.5845363837
| 16> H -1.1260420607 -0.9944882528 -1.5332654828
| 17> H -0.4753613388 -2.1922169655 -0.4006998392
| 18> H -2.1415047865 -1.6287210408 -0.2324538769
| 19> H -0.6437811011 -0.5611417539 1.4587109768
| 20> H -1.1975989526 1.8318212986 0.9401542893
| 21> H -2.5708092242 0.7912345356 0.5529005992
| 22> H -1.5267688118 1.399000882 -0.7378956036
| 23> *
| 24>
| 25>                          ****END OF INPUT****

CARTESIAN COORDINATES (ANGSTROEM)
---------------------------------
  C     -1.132528   -1.331316   -0.499248
  C     -0.680282   -0.200275    0.427482
  C     -1.548183    1.037185    0.286637
  N      0.711557    0.095026    0.050757
  O      0.926414    0.937157   -0.793265
  O      1.583690   -0.563865    0.584536
  H     -1.126042   -0.994488   -1.533265
  H     -0.475361   -2.192217   -0.400700
  H     -2.141505   -1.628721   -0.232454
  H     -0.643781   -0.561142    1.458711
  H     -1.197599    1.831821    0.940154
  H     -2.570809    0.791235    0.552901
  H     -1.526769    1.399001   -0.737896

 Total Charge           Charge          ....    0
 Multiplicity           Mult            ....    1
 Number of Electrons    NEL             ....   48
 Basis Dimension        Dim             ....  164

ORBITAL ENERGIES
----------------

  NO   OCC          E(Eh)            E(eV)
   0   2.0000     -18.995817      -516.9024
   1   2.0000     -18.994484      -516.8662
   2   2.0000     -14.394316      -391.6893
   3   2.0000     -10.090656      -274.5807
   4   2.0000     -10.030343      -272.9395
   5   2.0000     -10.024072      -272.7689
   6   2.0000      -1.214739       -33.0547
   7   2.0000      -1.037292       -28.2262
   8   2.0000      -0.814712       -22.1694
   9   2.0000      -0.669367       -18.2144
  10   2.0000      -0.665699       -18.1146
  11   2.0000      -0.556321       -15.1383
  12   2.0000      -0.521707       -14.1964
  13   2.0000      -0.503619       -13.7042
  14   2.0000      -0.489927       -13.3316
  15   2.0000      -0.425451       -11.5771
  16   2.0000      -0.380450       -10.3526
  17   2.0000      -0.373911       -10.1746
  18   2.0000      -0.360508        -9.8099
  19   2.0000      -0.328164        -8.9298
  20   2.0000      -0.324135        -8.8202
  21   2.0000      -0.304019        -8.2728
  22   2.0000      -0.283473        -7.7137
  23   2.0000      -0.269376        -7.3301
  24   0.0000      -0.107596        -2.9278
  25   0.0000       0.086250         2.3470
  26   0.0000       0.108817         2.9611
  27   0.0000       0.133909         3.6439
  28   0.0000       0.137291         3.7359

MULLIKEN ATOMIC CHARGES
-----------------------
   0 C :   -0.503238
   1 C :   -0.085967
   2 C :   -0.485253
   3 N :    0.288494
   4 O :   -0.242918
   5 O :   -0.258004
   6 H :    0.178750
   7 H :    0.176094
   8 H :    0.186745
   9 H :    0.212651
  10 H :    0.176448
  11 H :    0.178398
  12 H :    0.177798
Sum of atomic charges:    0.0000000

LOEWDIN ATOMIC CHARGES
----------------------
   0 C :   -0.343569
   1 C :    0.073646
   2 C :   -0.364326
   3 N :   -0.534906
   4 O :   -0.037011
   5 O :   -0.042559
   6 H :    0.171497
   7 H :    0.171723
   8 H :    0.174282
   9 H :    0.214643
  10 H :    0.169740
  11 H :    0.172389
  12 H :    0.174453

  Mayer bond orders larger than 0.100000
B(  0-C ,  1-C ) :   0.8910 B(  0-C ,  6-H ) :   0.9623 B(  0-C ,  7-H ) :   0.9599
B(  0-C ,  8-H ) :   0.9614 B(  1-C ,  2-C ) :   0.9085 B(  1-C ,  3-N ) :   0.8527
B(  1-C ,  9-H ) :   0.9337 B(  2-C , 10-H ) :   0.9668 B(  2-C , 11-H ) :   0.9579
B(  2-C , 12-H ) :   0.9643 B(  3-N ,  4-O ) :   1.8112 B(  3-N ,  5-O ) :   1.7974
B(  4-O ,  5-O ) :   0.2659

Dispersion correction           -0.003007242
FINAL SINGLE POINT ENERGY      -323.590505705855

DIPOLE MOMENT
-------------

Method             : SCF
Type of density    : Electron Density
Multiplicity       :   1
Irrep              :   0
Energy             :  -323.5998529207994920 Eh
Relativity type    :
Basis              : AO
                                X                 Y                 Z
Electronic contribution:      7.128954171       0.901411836       0.344287922
Nuclear contribution   :     -9.042089670      -1.264701827       0.041698230
                        -----------------------------------------
Total Dipole Moment    :     -1.913135499      -0.363289991       0.385986152
                        -----------------------------------------
Magnitude (a.u.)       :      1.985208393
Magnitude (Debye)      :      5.045998723

Rotational constants in cm-1:             0.173848             0.108310             0.085659
Rotational constants in MHz :          5211.827286          3247.052325          2567.982727

                             ****ORCA TERMINATED NORMALLY****
TOTAL RUN TIME: 0 days 0 hours 0 minutes 22 seconds 956 msec
