                         Program Version 6.0.0  -   RELEASE  -
|  1> ! r2scan-3c def2/J RI DEFGRID2 scfconv6 printgap
|  2> %output
|  3>     printlevel normal
|  4> end
|  5> * xyz 0 1
|  6> C -1.9615179038 -0.169256905 0.505369424
|  7> C -1.1832803098 -0.1670692523 -0.8049203917
|  8> C 0.0993519631 0.6404272749 -0.7174921123
|  9> Cl 1.2785789406 -0.1289333645 0.4070221477
| 10> H -1.3584755712 -0.5967137559 1.3028808814
| 11> H -2.2367758438 0.8440916763 0.7873445848
| 12> H -2.8676460884 -0.7598558192 0.4047872446
| 13> H -0.9471653124 -1.1917271179 -1.0958706253
| 14> H -1.7938321218 0.2776465626 -1.5930669135
| 15> H -0.0822512595 1.6387647459 -0.3233915841
| 16> H 0.6037620776 0.6991452064 -1.6799307599
| 17> *
| 18>
| 19>                          ****END OF INPUT****

CARTESIAN COORDINATES (ANGSTROEM)
---------------------------------
  C     -1.961518   -0.169257    0.505369
  C     -1.183280   -0.167069   -0.804920
  C      0.099352    0.640427   -0.717492
  Cl     1.278579   -0.128933    0.407022
  H     -1.358476   -0.596714    1.302881
  H     -2.236776    0.844092    0.787345
  H     -2.867646   -0.759856    0.404787
  H     -0.947165   -1.191727   -1.095871
  H     -1.793832    0.277647   -1.593067
  H     -0.082251    1.638765   -0.323392
  H      0.603762    0.699145   -1.679931

 Total Charge           Charge          ....    0
 Multiplicity           Mult            ....    1
 Number of Electrons    NEL             ....   42
 Basis Dimension        Dim             ....  119

ORBITAL ENERGIES
----------------

  NO   OCC          E(Eh)            E(eV)
   0   2.0000    -101.197585     -2753.7263
   1   2.0000     -10.092154      -274.6215
   2   2.0000     -10.044041      -273.3123
   3   2.0000     -10.023386      -272.7502
   4   2.0000      -9.353623      -254.5250
   5   2.0000      -7.099774      -193.1947
   6   2.0000      -7.089739      -192.9216
   7   2.0000      -7.089649      -192.9192
   8   2.0000      -0.821518       -22.3546
   9   2.0000      -0.738391       -20.0926
  10   2.0000      -0.645483       -17.5645
  11   2.0000      -0.560680       -15.2569
  12   2.0000      -0.446429       -12.1480
  13   2.0000      -0.439078       -11.9479
  14   2.0000      -0.399077       -10.8594
  15   2.0000      -0.373783       -10.1711
  16   2.0000      -0.336975        -9.1696
  17   2.0000      -0.330815        -9.0019
  18   2.0000      -0.317899        -8.6505
  19   2.0000      -0.264914        -7.2087
  20   2.0000      -0.262703        -7.1485
  21   0.0000       0.008706         0.2369
  22   0.0000       0.090486         2.4622
  23   0.0000       0.122431         3.3315
  24   0.0000       0.124229         3.3805
  25   0.0000       0.142023         3.8647

MULLIKEN ATOMIC CHARGES
-----------------------
   0 C :   -0.466269
   1 C :   -0.228426
   2 C :   -0.143902
   3 Cl:   -0.213693
   4 H :    0.164285
   5 H :    0.138886
   6 H :    0.147523
   7 H :    0.150006
   8 H :    0.138637
   9 H :    0.149809
  10 H :    0.163144
Sum of atomic charges:    0.0000000

LOEWDIN ATOMIC CHARGES
----------------------
   0 C :   -0.429995
   1 C :   -0.335405
   2 C :   -0.319711
   3 Cl:   -0.010796
   4 H :    0.158987
   5 H :    0.150323
   6 H :    0.152818
   7 H :    0.160285
   8 H :    0.158876
   9 H :    0.157207
  10 H :    0.157412

  Mayer bond orders larger than 0.100000
B(  0-C ,  1-C ) :   0.9222 B(  0-C ,  4-H ) :   0.9708 B(  0-C ,  5-H ) :   0.9780
B(  0-C ,  6-H ) :   0.9705 B(  1-C ,  2-C ) :   0.9325 B(  1-C ,  7-H ) :   0.9637
B(  1-C ,  8-H ) :   0.9504 B(  2-C ,  3-Cl) :   0.9636 B(  2-C ,  9-H ) :   0.9627
B(  2-C , 10-H ) :   0.9563

Dispersion correction           -0.002298159
FINAL SINGLE POINT ENERGY      -578.670401437037

DIPOLE MOMENT
-------------

Method             : SCF
Type of density    : Electron Density
Multiplicity       :   1
Irrep              :   0
Energy             :  -578.6757466399564009 Eh
Relativity type    :
Basis              : AO
                                X                 Y                 Z
Electronic contribution:      9.221742920      -0.754844254       2.106622779
Nuclear contribution   :     -9.861643774       1.028055405      -2.607688796
                        -----------------------------------------
Total Dipole Moment    :     -0.639900855       0.273211151      -0.501066017
                        -----------------------------------------
Magnitude (a.u.)       :      0.857429058
Magnitude (Debye)      :      2.179411466

Rotational constants in cm-1:             0.396352             0.110837             0.095568
Rotational constants in MHz :         11882.337094          3322.807560          2865.064340

                             ****ORCA TERMINATED NORMALLY****
TOTAL RUN TIME: 0 days 0 hours 0 minutes 10 seconds 510 msec
