                         Program Version 6.0.0  -   RELEASE  -
|  1> ! r2scan-3c def2/J RI DEFGRID2 scfconv6 printgap
|  2> %output
|  3>     printlevel normal
|  4> end
|  5> %cpcm
|  6>     smd true
|  7>     smdsolvent "water"
|  8> end
|  9> * xyz 0 1
| 10> C -1.9615179038 -0.169256905 0.505369424
| 11> C -1.1832803098 -0.1670692523 -0.8049203917
| 12> C 0.0993519631 0.6404272749 -0.7174921123
| 13> Cl 1.2785789406 -0.1289333645 0.4070221477
| 14> H -1.3584755712 -0.5967137559 1.3028808814
| 15> H -2.2367758438 0.8440916763 0.7873445848
| 16> H -2.8676460884 -0.7598558192 0.4047872446
| 17> H -0.9471653124 -1.1917271179 -1.0958706253
| 18> H -1.7938321218 0.2776465626 -1.5930669135
| 19> H -0.0822512595 1.6387647459 -0.3233915841
| 20> H 0.6037620776 0.6991452064 -1.6799307599
| 21> *
| 22>
| 23>                          ****END OF INPUT****

CARTESIAN COORDINATES (ANGSTROEM)
---------------------------------
  C     -1.961518   -0.169257    0.505369
  C     -1.183280   -0.167069   -0.804920
  C      0.099352    0.640427   -0.717492
  Cl     1.278579   -0.128933    0.407022
  H     -1.358476   -0.596714    1.302881
  H     -2.236776    0.844092    0.787345
  H     -2.867646   -0.759856    0.404787
  H     -0.947165   -1.191727   -1.095871
  H     -1.793832    0.277647   -1.593067
  H     -0.082251    1.638765   -0.323392
  H      0.603762    0.699145   -1.679931

 Total Charge           Charge          ....    0
 Multiplicity           Mult            ....    1
 Number of Electrons    NEL             ....   42
 Basis Dimension        Dim             ....  119

ORBITAL ENERGIES
----------------

  NO   OCC          E(Eh)            E(eV)
   0   2.0000    -101.197706     -2753.7296
   1   2.0000     -10.080452      -274.3031
   2   2.0000     -10.029688      -272.9217
   3   2.0000     -10.010775      -272.4070
   4   2.0000      -9.354134      -254.5389
   5   2.0000      -7.099875      -193.1974
   6   2.0000      -7.090418      -192.9401
   7   2.0000      -7.090334      -192.9378
   8   2.0000      -0.816761       -22.2252
   9   2.0000      -0.728637       -19.8272
  10   2.0000      -0.634724       -17.2717
  11   2.0000      -0.548109       -14.9148
  12   2.0000      -0.433804       -11.8044
  13   2.0000      -0.427252       -11.6261
  14   2.0000      -0.387848       -10.5539
  15   2.0000      -0.366096        -9.9620
  16   2.0000      -0.325663        -8.8617
  17   2.0000      -0.319255        -8.6874
  18   2.0000      -0.304865        -8.2958
  19   2.0000      -0.264973        -7.2103
  20   2.0000      -0.262459        -7.1419
  21   0.0000       0.013980         0.3804
  22   0.0000       0.104584         2.8459
  23   0.0000       0.133280         3.6267
  24   0.0000       0.135578         3.6893
  25   0.0000       0.157245         4.2788

MULLIKEN ATOMIC CHARGES
-----------------------
   0 C :   -0.505255
   1 C :   -0.233617
   2 C :   -0.156597
   3 Cl:   -0.261607
   4 H :    0.157673
   5 H :    0.156598
   6 H :    0.160285
   7 H :    0.158041
   8 H :    0.161144
   9 H :    0.175908
  10 H :    0.187426
Sum of atomic charges:   -0.0000000

LOEWDIN ATOMIC CHARGES
----------------------
   0 C :   -0.438173
   1 C :   -0.333325
   2 C :   -0.313662
   3 Cl:   -0.043485
   4 H :    0.154170
   5 H :    0.155145
   6 H :    0.156258
   7 H :    0.161346
   8 H :    0.168504
   9 H :    0.166614
  10 H :    0.166607

  Mayer bond orders larger than 0.100000
B(  0-C ,  1-C ) :   0.9067 B(  0-C ,  4-H ) :   0.9734 B(  0-C ,  5-H ) :   0.9755
B(  0-C ,  6-H ) :   0.9679 B(  1-C ,  2-C ) :   0.9272 B(  1-C ,  7-H ) :   0.9668
B(  1-C ,  8-H ) :   0.9460 B(  2-C ,  3-Cl) :   0.9273 B(  2-C ,  9-H ) :   0.9579
B(  2-C , 10-H ) :   0.9499

Dispersion correction           -0.002298159
FINAL SINGLE POINT ENERGY      -578.672001613198

DIPOLE MOMENT
-------------

Method             : SCF
Type of density    : Electron Density
Multiplicity       :   1
Irrep              :   0
Energy             :  -578.6773468161181881 Eh
Relativity type    :
Basis              : AO
                                X                 Y                 Z
Electronic contribution:      9.041439390      -0.623402681       1.905879474
Nuclear contribution   :     -9.861643774       1.028055405      -2.607688796
                        -----------------------------------------
Total Dipole Moment    :     -0.820204384       0.404652724      -0.701809322
                        -----------------------------------------
Magnitude (a.u.)       :      1.152829295
Magnitude (Debye)      :      2.930259196

Rotational constants in cm-1:             0.396352             0.110837             0.095568
Rotational constants in MHz :         11882.337094          3322.807560          2865.064340

                             ****ORCA TERMINATED NORMALLY****
TOTAL RUN TIME: 0 days 0 hours 0 minutes 13 seconds 131 msec
