                         Program Version 6.0.0  -   RELEASE  -
|  1> ! wb97x-v def2-tzvp def2/J RIJCOSX DEFGRID2 scfconv7 GCP(DFT/TZ) printgap
|  2> %output
|  3>     printlevel normal
|  4> end
|  5> * xyz 0 1
|  6> C -2.0728905960541835 0.07270509198122747 -4.060020133944652e-05
|  7> C -0.7127343055388675 0.6965846924785007 0.0003231995239479637
|  8> C 0.45675118447142515 0.04217718384127758 0.0002765411910751838
|  9> C 1.7665325578774815 0.7765673757878198 -0.0002756283127449538
| 10> C 0.5529947156740576 -1.4661860531551782 4.527590157503454e-05
| 11> H -2.651041824125635 0.3892935042630849 0.8776723653056006
| 12> H -2.65060571387813 0.38990625752456587 -0.8778173999039202
| 13> H -2.032210644882912 -1.019266425186047 -0.0005264389501356877
| 14> H -0.6893943008702945 1.7869024421188524 0.0002869032356626004
| 15> H 2.365959326198788 0.5037067178230807 0.8782517245329777
| 16> H 2.3660493727091993 0.5021532880872778 -0.8782676506200942
| 17> H 1.6272700458106806 1.8615310791247217 -0.0012604424637580399
| 18> H 0.06409314022790279 -1.9051221260532192 0.8769834101740919
| 19> H 0.07764019363995622 -1.903623240696605 -0.8851698544881229
| 20> H 1.597835115321394 -1.7877339870292819 0.007549568274849138
| 21> *
| 22>
| 23>                          ****END OF INPUT****

CARTESIAN COORDINATES (ANGSTROEM)
---------------------------------
  C     -2.072891    0.072705   -0.000041
  C     -0.712734    0.696585    0.000323
  C      0.456751    0.042177    0.000277
  C      1.766533    0.776567   -0.000276
  C      0.552995   -1.466186    0.000045
  H     -2.651042    0.389294    0.877672
  H     -2.650606    0.389906   -0.877817
  H     -2.032211   -1.019266   -0.000526
  H     -0.689394    1.786902    0.000287
  H      2.365959    0.503707    0.878252
  H      2.366049    0.502153   -0.878268
  H      1.627270    1.861531   -0.001260
  H      0.064093   -1.905122    0.876983
  H      0.077640   -1.903623   -0.885170
  H      1.597835   -1.787734    0.007550

 Total Charge           Charge          ....    0
 Multiplicity           Mult            ....    1
 Number of Electrons    NEL             ....   40
 Basis Dimension        Dim             ....  215

ORBITAL ENERGIES
----------------

  NO   OCC          E(Eh)            E(eV)
   0   2.0000     -12.047482      -327.8287
   1   2.0000     -12.037061      -327.5451
   2   2.0000     -12.035937      -327.5145
   3   2.0000     -12.035458      -327.5015
   4   2.0000     -12.032057      -327.4089
   5   2.0000      -1.326695       -36.1012
   6   2.0000      -1.231888       -33.5214
   7   2.0000      -1.184279       -32.2259
   8   2.0000      -1.134759       -30.8784
   9   2.0000      -0.975702       -26.5502
  10   2.0000      -0.903592       -24.5880
  11   2.0000      -0.884551       -24.0699
  12   2.0000      -0.844808       -22.9884
  13   2.0000      -0.818559       -22.2741
  14   2.0000      -0.816492       -22.2179
  15   2.0000      -0.808706       -22.0060
  16   2.0000      -0.805176       -21.9100
  17   2.0000      -0.795424       -21.6446
  18   2.0000      -0.774434       -21.0734
  19   2.0000      -0.626867       -17.0579
  20   0.0000      -0.190260        -5.1772
  21   0.0000      -0.033929        -0.9233
  22   0.0000      -0.012105        -0.3294
  23   0.0000      -0.003644        -0.0992
  24   0.0000       0.011324         0.3082

MULLIKEN ATOMIC CHARGES
-----------------------
   0 C :   -0.320567
   1 C :   -0.159148
   2 C :    0.057166
   3 C :   -0.346440
   4 C :   -0.394555
   5 H :    0.115246
   6 H :    0.115270
   7 H :    0.112212
   8 H :    0.101002
   9 H :    0.116061
  10 H :    0.116056
  11 H :    0.107309
  12 H :    0.129999
  13 H :    0.130114
  14 H :    0.120274
Sum of atomic charges:   -0.0000000

LOEWDIN ATOMIC CHARGES
----------------------
   0 C :   -0.291381
   1 C :   -0.192490
   2 C :   -0.232949
   3 C :   -0.265716
   4 C :   -0.265845
   5 H :    0.123080
   6 H :    0.123108
   7 H :    0.121640
   8 H :    0.136343
   9 H :    0.123337
  10 H :    0.123362
  11 H :    0.121893
  12 H :    0.126129
  13 H :    0.126220
  14 H :    0.123267

  Mayer bond orders larger than 0.100000
B(  0-C ,  1-C ) :   0.9641 B(  0-C ,  5-H ) :   0.9750 B(  0-C ,  6-H ) :   0.9749
B(  0-C ,  7-H ) :   0.9869 B(  1-C ,  2-C ) :   1.9074 B(  1-C ,  8-H ) :   0.9646
B(  2-C ,  3-C ) :   0.9637 B(  2-C ,  4-C ) :   0.9041 B(  3-C ,  9-H ) :   0.9729
B(  3-C , 10-H ) :   0.9730 B(  3-C , 11-H ) :   0.9890 B(  4-C , 12-H ) :   0.9804
B(  4-C , 13-H ) :   0.9799 B(  4-C , 14-H ) :   0.9893

FINAL SINGLE POINT ENERGY      -196.540124171657

DIPOLE MOMENT
-------------

Method             : SCF
Type of density    : Electron Density
Multiplicity       :   1
Irrep              :   0
Energy             :  -196.5498811310567930 Eh
Relativity type    :
Basis              : AO
                                X                 Y                 Z
Electronic contribution:     -0.044096360       1.050550003       0.001843328
Nuclear contribution   :      0.075744909      -1.145520581      -0.002374181
                        -----------------------------------------
Total Dipole Moment    :      0.031648549      -0.094970578      -0.000530853
                        -----------------------------------------
Magnitude (a.u.)       :      0.100106559
Magnitude (Debye)      :      0.254450651

Rotational constants in cm-1:             0.268625             0.119226             0.086538
Rotational constants in MHz :          8053.171943          3574.295944          2594.331754

                             ****ORCA TERMINATED NORMALLY****
TOTAL RUN TIME: 0 days 0 hours 0 minutes 53 seconds 861 msec
