                         Program Version 6.0.0  -   RELEASE  -
|  1> ! wb97x-v def2-tzvp def2/J RIJCOSX DEFGRID2 scfconv7 GCP(DFT/TZ) printgap
|  2> %output
|  3>     printlevel normal
|  4> end
|  5> %cpcm
|  6>     smd true
|  7>     smdsolvent "water"
|  8> end
|  9> * xyz 0 1
| 10> C -2.0728905960541835 0.07270509198122747 -4.060020133944652e-05
| 11> C -0.7127343055388675 0.6965846924785007 0.0003231995239479637
| 12> C 0.45675118447142515 0.04217718384127758 0.0002765411910751838
| 13> C 1.7665325578774815 0.7765673757878198 -0.0002756283127449538
| 14> C 0.5529947156740576 -1.4661860531551782 4.527590157503454e-05
| 15> H -2.651041824125635 0.3892935042630849 0.8776723653056006
| 16> H -2.65060571387813 0.38990625752456587 -0.8778173999039202
| 17> H -2.032210644882912 -1.019266425186047 -0.0005264389501356877
| 18> H -0.6893943008702945 1.7869024421188524 0.0002869032356626004
| 19> H 2.365959326198788 0.5037067178230807 0.8782517245329777
| 20> H 2.3660493727091993 0.5021532880872778 -0.8782676506200942
| 21> H 1.6272700458106806 1.8615310791247217 -0.0012604424637580399
| 22> H 0.06409314022790279 -1.9051221260532192 0.8769834101740919
| 23> H 0.07764019363995622 -1.903623240696605 -0.8851698544881229
| 24> H 1.597835115321394 -1.7877339870292819 0.007549568274849138
| 25> *
| 26>
| 27>                          ****END OF INPUT****

CARTESIAN COORDINATES (ANGSTROEM)
---------------------------------
  C     -2.072891    0.072705   -0.000041
  C     -0.712734    0.696585    0.000323
  C      0.456751    0.042177    0.000277
  C      1.766533    0.776567   -0.000276
  C      0.552995   -1.466186    0.000045
  H     -2.651042    0.389294    0.877672
  H     -2.650606    0.389906   -0.877817
  H     -2.032211   -1.019266   -0.000526
  H     -0.689394    1.786902    0.000287
  H      2.365959    0.503707    0.878252
  H      2.366049    0.502153   -0.878268
  H      1.627270    1.861531   -0.001260
  H      0.064093   -1.905122    0.876983
  H      0.077640   -1.903623   -0.885170
  H      1.597835   -1.787734    0.007550

 Total Charge           Charge          ....    0
 Multiplicity           Mult            ....    1
 Number of Electrons    NEL             ....   40
 Basis Dimension        Dim             ....  215

ORBITAL ENERGIES
----------------

  NO   OCC          E(Eh)            E(eV)
   0   2.0000     -12.045461      -327.7737
   1   2.0000     -12.029763      -327.3465
   2   2.0000     -12.029247      -327.3324
   3   2.0000     -12.028644      -327.3161
   4   2.0000     -12.028190      -327.3037
   5   2.0000      -1.323640       -36.0181
   6   2.0000      -1.226940       -33.3867
   7   2.0000      -1.177859       -32.0512
   8   2.0000      -1.130304       -30.7571
   9   2.0000      -0.970765       -26.4159
  10   2.0000      -0.898693       -24.4547
  11   2.0000      -0.879743       -23.9390
  12   2.0000      -0.839064       -22.8321
  13   2.0000      -0.812930       -22.1210
  14   2.0000      -0.809737       -22.0341
  15   2.0000      -0.801614       -21.8130
  16   2.0000      -0.799378       -21.7522
  17   2.0000      -0.788466       -21.4553
  18   2.0000      -0.769127       -20.9290
  19   2.0000      -0.625327       -17.0160
  20   0.0000      -0.188431        -5.1275
  21   0.0000      -0.028647        -0.7795
  22   0.0000      -0.005510        -0.1499
  23   0.0000       0.003934         0.1071
  24   0.0000       0.019923         0.5421

MULLIKEN ATOMIC CHARGES
-----------------------
   0 C :   -0.358760
   1 C :   -0.220351
   2 C :    0.015807
   3 C :   -0.379917
   4 C :   -0.416784
   5 H :    0.131947
   6 H :    0.131999
   7 H :    0.133336
   8 H :    0.137568
   9 H :    0.134063
  10 H :    0.134056
  11 H :    0.128023
  12 H :    0.144208
  13 H :    0.144215
  14 H :    0.140593
Sum of atomic charges:   -0.0000000

LOEWDIN ATOMIC CHARGES
----------------------
   0 C :   -0.297857
   1 C :   -0.209146
   2 C :   -0.241327
   3 C :   -0.271168
   4 C :   -0.268290
   5 H :    0.126452
   6 H :    0.126480
   7 H :    0.125710
   8 H :    0.141551
   9 H :    0.127786
  10 H :    0.127809
  11 H :    0.124952
  12 H :    0.129819
  13 H :    0.129899
  14 H :    0.127330

  Mayer bond orders larger than 0.100000
B(  0-C ,  1-C ) :   0.9614 B(  0-C ,  5-H ) :   0.9702 B(  0-C ,  6-H ) :   0.9702
B(  0-C ,  7-H ) :   0.9853 B(  1-C ,  2-C ) :   1.8916 B(  1-C ,  8-H ) :   0.9653
B(  2-C ,  3-C ) :   0.9650 B(  2-C ,  4-C ) :   0.9147 B(  3-C ,  9-H ) :   0.9674
B(  3-C , 10-H ) :   0.9675 B(  3-C , 11-H ) :   0.9862 B(  4-C , 12-H ) :   0.9741
B(  4-C , 13-H ) :   0.9736 B(  4-C , 14-H ) :   0.9860

FINAL SINGLE POINT ENERGY      -196.538358940966

DIPOLE MOMENT
-------------

Method             : SCF
Type of density    : Electron Density
Multiplicity       :   1
Irrep              :   0
Energy             :  -196.5481159003660423 Eh
Relativity type    :
Basis              : AO
                                X                 Y                 Z
Electronic contribution:     -0.014089839       0.994703388       0.001700101
Nuclear contribution   :      0.075744909      -1.145520581      -0.002374181
                        -----------------------------------------
Total Dipole Moment    :      0.061655070      -0.150817194      -0.000674080
                        -----------------------------------------
Magnitude (a.u.)       :      0.162934428
Magnitude (Debye)      :      0.414146404

Rotational constants in cm-1:             0.268625             0.119226             0.086538
Rotational constants in MHz :          8053.171943          3574.295944          2594.331754

                             ****ORCA TERMINATED NORMALLY****
TOTAL RUN TIME: 0 days 0 hours 0 minutes 49 seconds 78 msec
