                         Program Version 6.0.0  -   RELEASE  -
|  1> ! pbe def2-sv(p) def2/J RI DEFGRID1 loosescf d4 GCP(DFT/SV(P)) printgap
|  2> %output
|  3>     printlevel normal
|  4> end
|  5> * xyz 0 1
|  6> C -2.4674547302 -1.1083703296 0.3451788674
|  7> C -1.0441035832 -0.5727918221 0.5715303052
|  8> H -0.8546520001 -0.4806242484 1.6529278015
|  9> C -0.8154552298 0.7974694009 -0.0878745059
| 10> H -0.9213787327 0.6770434888 -1.1743781079
| 11> C 0.6147535383 1.2464081909 0.21941736
| 12> H 0.7129195151 1.3799089403 1.3095182873
| 13> C 1.6213236924 0.1838513947 -0.2375735128
| 14> H 1.6295963769 0.1502602433 -1.3365315526
| 15> C 1.2213577435 -1.2088197889 0.2728191246
| 16> H 1.4053908546 -1.2295437135 1.3684327609
| 17> O -0.1338240038 -1.509269445 0.0248882219
| 18> O 1.9843081468 -2.1474657725 -0.3854835194
| 19> O 2.9028359372 0.4574903456 0.2628194921
| 20> O 0.9380177874 2.4456751755 -0.4402302223
| 21> O -1.6894326199 1.7847635663 0.3966945755
| 22> O -3.046114235 -0.4965277781 -0.7859023134
| 23> H -3.0725060073 -0.8969324313 1.2350146765
| 24> H -2.381507342 -2.1907966378 0.2124431804
| 25> H 1.6744351127 -3.038571341 -0.1564695634
| 26> H 3.1689414037 1.3348772985 -0.0540169203
| 27> H 0.2394567726 3.0910390958 -0.2524628452
| 28> H -2.5760122375 1.5994022638 0.0513364625
| 29> H -3.8342625761 -0.991376421 -1.0491133311
| 30> *
| 31>
| 32>                          ****END OF INPUT****

CARTESIAN COORDINATES (ANGSTROEM)
---------------------------------
  C     -2.467455   -1.108370    0.345179
  C     -1.044104   -0.572792    0.571530
  H     -0.854652   -0.480624    1.652928
  C     -0.815455    0.797469   -0.087875
  H     -0.921379    0.677043   -1.174378
  C      0.614754    1.246408    0.219417
  H      0.712920    1.379909    1.309518
  C      1.621324    0.183851   -0.237574
  H      1.629596    0.150260   -1.336532
  C      1.221358   -1.208820    0.272819
  H      1.405391   -1.229544    1.368433
  O     -0.133824   -1.509269    0.024888
  O      1.984308   -2.147466   -0.385484
  O      2.902836    0.457490    0.262819
  O      0.938018    2.445675   -0.440230
  O     -1.689433    1.784764    0.396695
  O     -3.046114   -0.496528   -0.785902
  H     -3.072506   -0.896932    1.235015
  H     -2.381507   -2.190797    0.212443
  H      1.674435   -3.038571   -0.156470
  H      3.168941    1.334877   -0.054017
  H      0.239457    3.091039   -0.252463
  H     -2.576012    1.599402    0.051336
  H     -3.834263   -0.991376   -1.049113

 Total Charge           Charge          ....    0
 Multiplicity           Mult            ....    1
 Number of Electrons    NEL             ....   96
 Basis Dimension        Dim             ....  192

ORBITAL ENERGIES
----------------

  NO   OCC          E(Eh)            E(eV)
   0   2.0000     -18.772784      -510.8334
   1   2.0000     -18.766931      -510.6741
   2   2.0000     -18.754277      -510.3298
   3   2.0000     -18.750949      -510.2393
   4   2.0000     -18.745586      -510.0933
   5   2.0000     -18.737395      -509.8704
   6   2.0000      -9.980324      -271.5784
   7   2.0000      -9.946075      -270.6465
   8   2.0000      -9.945854      -270.6405
   9   2.0000      -9.934891      -270.3421
  10   2.0000      -9.932664      -270.2815
  11   2.0000      -9.930392      -270.2197
  12   2.0000      -0.978601       -26.6291
  13   2.0000      -0.948169       -25.8010
  14   2.0000      -0.938052       -25.5257
  15   2.0000      -0.923189       -25.1213
  16   2.0000      -0.910280       -24.7700
  17   2.0000      -0.904728       -24.6189
  18   2.0000      -0.700324       -19.0568
  19   2.0000      -0.689575       -18.7643
  20   2.0000      -0.623245       -16.9594
  21   2.0000      -0.571478       -15.5507
  22   2.0000      -0.554267       -15.0824
  23   2.0000      -0.520695       -14.1688
  24   2.0000      -0.500093       -13.6082
  25   2.0000      -0.487450       -13.2642
  26   2.0000      -0.477135       -12.9835
  27   2.0000      -0.459449       -12.5023
  28   2.0000      -0.454183       -12.3589
  29   2.0000      -0.429930       -11.6990
  30   2.0000      -0.408344       -11.1116
  31   2.0000      -0.397123       -10.8063
  32   2.0000      -0.388023       -10.5587
  33   2.0000      -0.377700       -10.2777
  34   2.0000      -0.355173        -9.6647
  35   2.0000      -0.351522        -9.5654
  36   2.0000      -0.319287        -8.6883
  37   2.0000      -0.313604        -8.5336
  38   2.0000      -0.298855        -8.1323
  39   2.0000      -0.296811        -8.0766
  40   2.0000      -0.275567        -7.4986
  41   2.0000      -0.271168        -7.3789
  42   2.0000      -0.248144        -6.7523
  43   2.0000      -0.237961        -6.4752
  44   2.0000      -0.227828        -6.1995
  45   2.0000      -0.220979        -6.0132
  46   2.0000      -0.208412        -5.6712
  47   2.0000      -0.202398        -5.5075
  48   0.0000       0.003528         0.0960
  49   0.0000       0.031446         0.8557
  50   0.0000       0.040072         1.0904
  51   0.0000       0.050557         1.3757
  52   0.0000       0.064814         1.7637

MULLIKEN ATOMIC CHARGES
-----------------------
   0 C :    0.056531
   1 C :    0.004288
   2 H :    0.052657
   3 C :    0.039587
   4 H :    0.067873
   5 C :    0.072935
   6 H :    0.049147
   7 C :    0.049789
   8 H :    0.062839
   9 C :    0.200324
  10 H :    0.036448
  11 O :   -0.315997
  12 O :   -0.370047
  13 O :   -0.414959
  14 O :   -0.428007
  15 O :   -0.432076
  16 O :   -0.438184
  17 H :    0.077249
  18 H :    0.090199
  19 H :    0.302516
  20 H :    0.307606
  21 H :    0.308186
  22 H :    0.310834
  23 H :    0.310262
Sum of atomic charges:    0.0000000

LOEWDIN ATOMIC CHARGES
----------------------
   0 C :   -0.127207
   1 C :   -0.065106
   2 H :    0.103405
   3 C :   -0.084703
   4 H :    0.111243
   5 C :   -0.075129
   6 H :    0.101350
   7 C :   -0.074663
   8 H :    0.111532
   9 C :    0.009572
  10 H :    0.080700
  11 O :   -0.156600
  12 O :   -0.287103
  13 O :   -0.314979
  14 O :   -0.326115
  15 O :   -0.325713
  16 O :   -0.336944
  17 H :    0.101128
  18 H :    0.112656
  19 H :    0.287760
  20 H :    0.289445
  21 H :    0.287619
  22 H :    0.284016
  23 H :    0.293834

  Mayer bond orders larger than 0.100000
B(  0-C ,  1-C ) :   1.0430 B(  0-C , 16-O ) :   1.0804 B(  0-C , 17-H ) :   0.9170
B(  0-C , 18-H ) :   0.9156 B(  1-C ,  2-H ) :   0.8754 B(  1-C ,  3-C ) :   1.0069
B(  1-C , 11-O ) :   0.9854 B(  3-C ,  4-H ) :   0.8693 B(  3-C ,  5-C ) :   1.0066
B(  3-C , 15-O ) :   1.0805 B(  5-C ,  6-H ) :   0.8719 B(  5-C ,  7-C ) :   1.0249
B(  5-C , 14-O ) :   1.0832 B(  7-C ,  8-H ) :   0.8647 B(  7-C ,  9-C ) :   0.9988
B(  7-C , 13-O ) :   1.0776 B(  9-C , 10-H ) :   0.8825 B(  9-C , 11-O ) :   1.0061
B(  9-C , 12-O ) :   1.1939 B( 12-O , 19-H ) :   0.8419 B( 13-O , 20-H ) :   0.8412
B( 14-O , 21-H ) :   0.8347 B( 15-O , 22-H ) :   0.8293 B( 16-O , 23-H ) :   0.8451

Dispersion correction           -0.023885412
FINAL SINGLE POINT ENERGY      -685.697378165984

DIPOLE MOMENT
-------------

Method             : SCF
Type of density    : Electron Density
Multiplicity       :   1
Irrep              :   0
Energy             :  -685.8273657760166770 Eh
Relativity type    :
Basis              : AO
                                X                 Y                 Z
Electronic contribution:      2.774603642       0.127167910      -1.467072593
Nuclear contribution   :     -4.498043609      -0.550584495       1.681256548
                        -----------------------------------------
Total Dipole Moment    :     -1.723439968      -0.423416585       0.214183955
                        -----------------------------------------
Magnitude (a.u.)       :      1.787568654
Magnitude (Debye)      :      4.543638430

Rotational constants in cm-1:             0.042134             0.025934             0.017337
Rotational constants in MHz :          1263.136905           777.490834           519.757559

                             ****ORCA TERMINATED NORMALLY****
TOTAL RUN TIME: 0 days 0 hours 0 minutes 11 seconds 493 msec
