                         Program Version 6.0.0  -   RELEASE  -
|  1> ! pbe def2-sv(p) def2/J RI DEFGRID1 loosescf d4 GCP(DFT/SV(P)) printgap
|  2> %output
|  3>     printlevel normal
|  4> end
|  5> * xyz 0 1
|  6> C -2.5138586711 -0.7341849145 -0.1942116959
|  7> C -1.193709476 -0.5403253171 0.5506624089
|  8> H -1.3165424913 -0.903489985 1.5850334445
|  9> C -0.7550727347 0.9369676264 0.6685131674
| 10> H -1.6126673904 1.5832695251 0.4289818168
| 11> C 0.3748661741 1.2833071887 -0.319969077
| 12> H 0.7861763708 2.2663268926 -0.0542949929
| 13> C 1.5566311029 0.2909635236 -0.2140343484
| 14> H 1.9355349504 0.117971172 -1.2317232255
| 15> C 1.0830680734 -1.0633505149 0.3420928634
| 16> H 1.0853541208 -1.0124189499 1.4508899274
| 17> O -0.2241175024 -1.3420131732 -0.100520102
| 18> O 1.9299635263 -2.0539966456 -0.1203090736
| 19> O 2.5436584591 0.8697975564 0.600417277
| 20> O -0.0955553717 1.4069598994 -1.6334556985
| 21> O -0.360489002 1.1253015897 2.0078681377
| 22> O -2.4343736761 -0.1215606081 -1.4603660921
| 23> H -3.3184219822 -0.2910437179 0.4042731472
| 24> H -2.6782786692 -1.812137268 -0.2957441933
| 25> H 1.5238792776 -2.9230118806 0.0236223901
| 26> H 3.3255483614 0.2993699246 0.6108850804
| 27> H -0.7723514828 0.7259713489 -1.8055681181
| 28> H -0.0387881993 2.0293237959 2.1349342203
| 29> H -3.2370659169 -0.3126196604 -1.9658230836
| 30> *
| 31>
| 32>                          ****END OF INPUT****

CARTESIAN COORDINATES (ANGSTROEM)
---------------------------------
  C     -2.513859   -0.734185   -0.194212
  C     -1.193709   -0.540325    0.550662
  H     -1.316542   -0.903490    1.585033
  C     -0.755073    0.936968    0.668513
  H     -1.612667    1.583270    0.428982
  C      0.374866    1.283307   -0.319969
  H      0.786176    2.266327   -0.054295
  C      1.556631    0.290964   -0.214034
  H      1.935535    0.117971   -1.231723
  C      1.083068   -1.063351    0.342093
  H      1.085354   -1.012419    1.450890
  O     -0.224118   -1.342013   -0.100520
  O      1.929964   -2.053997   -0.120309
  O      2.543658    0.869798    0.600417
  O     -0.095555    1.406960   -1.633456
  O     -0.360489    1.125302    2.007868
  O     -2.434374   -0.121561   -1.460366
  H     -3.318422   -0.291044    0.404273
  H     -2.678279   -1.812137   -0.295744
  H      1.523879   -2.923012    0.023622
  H      3.325548    0.299370    0.610885
  H     -0.772351    0.725971   -1.805568
  H     -0.038788    2.029324    2.134934
  H     -3.237066   -0.312620   -1.965823

 Total Charge           Charge          ....    0
 Multiplicity           Mult            ....    1
 Number of Electrons    NEL             ....   96
 Basis Dimension        Dim             ....  192

ORBITAL ENERGIES
----------------

  NO   OCC          E(Eh)            E(eV)
   0   2.0000     -18.778130      -510.9789
   1   2.0000     -18.765729      -510.6415
   2   2.0000     -18.755414      -510.3608
   3   2.0000     -18.751056      -510.2422
   4   2.0000     -18.741002      -509.9686
   5   2.0000     -18.722585      -509.4674
   6   2.0000      -9.973187      -271.3842
   7   2.0000      -9.949721      -270.7457
   8   2.0000      -9.949518      -270.7401
   9   2.0000      -9.940174      -270.4859
  10   2.0000      -9.928744      -270.1749
  11   2.0000      -9.921351      -269.9737
  12   2.0000      -0.979980       -26.6666
  13   2.0000      -0.950310       -25.8592
  14   2.0000      -0.931038       -25.3348
  15   2.0000      -0.919213       -25.0131
  16   2.0000      -0.909589       -24.7512
  17   2.0000      -0.899829       -24.4856
  18   2.0000      -0.702693       -19.1213
  19   2.0000      -0.676214       -18.4007
  20   2.0000      -0.617571       -16.8050
  21   2.0000      -0.587732       -15.9930
  22   2.0000      -0.554153       -15.0793
  23   2.0000      -0.512155       -13.9365
  24   2.0000      -0.503660       -13.7053
  25   2.0000      -0.482963       -13.1421
  26   2.0000      -0.467742       -12.7279
  27   2.0000      -0.465710       -12.6726
  28   2.0000      -0.460742       -12.5374
  29   2.0000      -0.423180       -11.5153
  30   2.0000      -0.407875       -11.0988
  31   2.0000      -0.394256       -10.7282
  32   2.0000      -0.381702       -10.3866
  33   2.0000      -0.372740       -10.1428
  34   2.0000      -0.352301        -9.5866
  35   2.0000      -0.342015        -9.3067
  36   2.0000      -0.329361        -8.9624
  37   2.0000      -0.318525        -8.6675
  38   2.0000      -0.298142        -8.1129
  39   2.0000      -0.288817        -7.8591
  40   2.0000      -0.278979        -7.5914
  41   2.0000      -0.265790        -7.2325
  42   2.0000      -0.243307        -6.6207
  43   2.0000      -0.243063        -6.6141
  44   2.0000      -0.225651        -6.1403
  45   2.0000      -0.222212        -6.0467
  46   2.0000      -0.202428        -5.5083
  47   2.0000      -0.189144        -5.1469
  48   0.0000       0.007408         0.2016
  49   0.0000       0.029788         0.8106
  50   0.0000       0.035021         0.9530
  51   0.0000       0.049754         1.3539
  52   0.0000       0.063846         1.7373

MULLIKEN ATOMIC CHARGES
-----------------------
   0 C :    0.059203
   1 C :    0.015983
   2 H :    0.082824
   3 C :   -0.010768
   4 H :    0.076843
   5 C :    0.059783
   6 H :    0.060017
   7 C :    0.092141
   8 H :    0.063543
   9 C :    0.153992
  10 H :    0.045922
  11 O :   -0.313954
  12 O :   -0.385880
  13 O :   -0.420954
  14 O :   -0.431205
  15 O :   -0.411244
  16 O :   -0.438961
  17 H :    0.085093
  18 H :    0.086894
  19 H :    0.302028
  20 H :    0.303213
  21 H :    0.302655
  22 H :    0.305024
  23 H :    0.317807
Sum of atomic charges:    0.0000000

LOEWDIN ATOMIC CHARGES
----------------------
   0 C :   -0.122037
   1 C :   -0.061490
   2 H :    0.116268
   3 C :   -0.078144
   4 H :    0.104465
   5 C :   -0.064491
   6 H :    0.111506
   7 C :   -0.081783
   8 H :    0.111076
   9 C :   -0.010927
  10 H :    0.082138
  11 O :   -0.158172
  12 O :   -0.303819
  13 O :   -0.320894
  14 O :   -0.325576
  15 O :   -0.315811
  16 O :   -0.323797
  17 H :    0.106036
  18 H :    0.108492
  19 H :    0.286525
  20 H :    0.287898
  21 H :    0.267655
  22 H :    0.287584
  23 H :    0.297296

  Mayer bond orders larger than 0.100000
B(  0-C ,  1-C ) :   1.0765 B(  0-C , 16-O ) :   1.0488 B(  0-C , 17-H ) :   0.9144
B(  0-C , 18-H ) :   0.9131 B(  1-C ,  2-H ) :   0.8883 B(  1-C ,  3-C ) :   0.9466
B(  1-C , 11-O ) :   1.0086 B(  3-C ,  4-H ) :   0.9021 B(  3-C ,  5-C ) :   1.0243
B(  3-C , 15-O ) :   1.0537 B(  5-C ,  6-H ) :   0.8852 B(  5-C ,  7-C ) :   0.9366
B(  5-C , 14-O ) :   1.0914 B(  7-C ,  8-H ) :   0.8792 B(  7-C ,  9-C ) :   1.0142
B(  7-C , 13-O ) :   1.0683 B(  9-C , 10-H ) :   0.8690 B(  9-C , 11-O ) :   1.0302
B(  9-C , 12-O ) :   1.1572 B( 12-O , 19-H ) :   0.8401 B( 13-O , 20-H ) :   0.8470
B( 14-O , 21-H ) :   0.7985 B( 15-O , 22-H ) :   0.8434 B( 16-O , 21-H ) :   0.1122
B( 16-O , 23-H ) :   0.8389

Dispersion correction           -0.025006751
FINAL SINGLE POINT ENERGY      -685.692152796881

DIPOLE MOMENT
-------------

Method             : SCF
Type of density    : Electron Density
Multiplicity       :   1
Irrep              :   0
Energy             :  -685.8231836709355775 Eh
Relativity type    :
Basis              : AO
                                X                 Y                 Z
Electronic contribution:      2.854022337      -0.521046967      -0.881579435
Nuclear contribution   :     -4.030530753      -0.219825290       1.195521730
                        -----------------------------------------
Total Dipole Moment    :     -1.176508416      -0.740872257       0.313942295
                        -----------------------------------------
Magnitude (a.u.)       :      1.425350315
Magnitude (Debye)      :      3.622952579

Rotational constants in cm-1:             0.041494             0.026557             0.023482
Rotational constants in MHz :          1243.953354           796.147008           703.971056

                             ****ORCA TERMINATED NORMALLY****
TOTAL RUN TIME: 0 days 0 hours 0 minutes 12 seconds 87 msec
