                         Program Version 6.0.0  -   RELEASE  -
|  1> ! pbe def2-sv(p) def2/J RI DEFGRID1 loosescf d4 GCP(DFT/SV(P)) printgap
|  2> %output
|  3>     printlevel normal
|  4> end
|  5> * xyz 0 1
|  6> C 0.0356086354 -1.2147056669 -0.0001037079
|  7> C 1.4071201391 -1.2117788844 -9.8557e-06
|  8> C 2.1131143554 0.0011661008 -2.71874e-05
|  9> C 1.4086577668 1.2124038412 -2.07516e-05
| 10> C 0.0347330719 1.2129135271 -9.74608e-05
| 11> C -0.6587012594 -0.0001025629 -0.0002165517
| 12> N -2.0662795012 0.0008200724 -0.0004282745
| 13> O -2.6592989874 -1.073618506 0.000261025
| 14> O -2.657545862 1.0765570069 0.0002789003
| 15> O 3.4442247959 -0.056528543 0.0001686176
| 16> H -0.5245129581 -2.136354021 -5.84744e-05
| 17> H 1.9683683017 -2.1314089062 0.0002309269
| 18> H 1.9435101644 2.1491590448 -1.60133e-05
| 19> H -0.5263641213 2.1342443577 9.8155e-05
| 20> H 3.8552447642 0.8248525066 0.0001161974
| 21> *
| 22>
| 23>                          ****END OF INPUT****

CARTESIAN COORDINATES (ANGSTROEM)
---------------------------------
  C      0.035609   -1.214706   -0.000104
  C      1.407120   -1.211779   -0.000010
  C      2.113114    0.001166   -0.000027
  C      1.408658    1.212404   -0.000021
  C      0.034733    1.212914   -0.000097
  C     -0.658701   -0.000103   -0.000217
  N     -2.066280    0.000820   -0.000428
  O     -2.659299   -1.073619    0.000261
  O     -2.657546    1.076557    0.000279
  O      3.444225   -0.056529    0.000169
  H     -0.524513   -2.136354   -0.000058
  H      1.968368   -2.131409    0.000231
  H      1.943510    2.149159   -0.000016
  H     -0.526364    2.134244    0.000098
  H      3.855245    0.824853    0.000116

 Total Charge           Charge          ....    0
 Multiplicity           Mult            ....    1
 Number of Electrons    NEL             ....   72
 Basis Dimension        Dim             ....  150

ORBITAL ENERGIES
----------------

  NO   OCC          E(Eh)            E(eV)
   0   2.0000     -18.819950      -512.1169
   1   2.0000     -18.762659      -510.5579
   2   2.0000     -18.762058      -510.5416
   3   2.0000     -14.199325      -386.3833
   4   2.0000      -9.989369      -271.8246
   5   2.0000      -9.948173      -270.7036
   6   2.0000      -9.926701      -270.1193
   7   2.0000      -9.925008      -270.0732
   8   2.0000      -9.922100      -269.9941
   9   2.0000      -9.917254      -269.8622
  10   2.0000      -1.115381       -30.3511
  11   2.0000      -1.006310       -27.3831
  12   2.0000      -0.941989       -25.6328
  13   2.0000      -0.812258       -22.1027
  14   2.0000      -0.736271       -20.0350
  15   2.0000      -0.706000       -19.2112
  16   2.0000      -0.640314       -17.4238
  17   2.0000      -0.588977       -16.0269
  18   2.0000      -0.549777       -14.9602
  19   2.0000      -0.527503       -14.3541
  20   2.0000      -0.479631       -13.0514
  21   2.0000      -0.479209       -13.0399
  22   2.0000      -0.460971       -12.5436
  23   2.0000      -0.426480       -11.6051
  24   2.0000      -0.420884       -11.4528
  25   2.0000      -0.407234       -11.0814
  26   2.0000      -0.399935       -10.8828
  27   2.0000      -0.392507       -10.6807
  28   2.0000      -0.360197        -9.8014
  29   2.0000      -0.328250        -8.9321
  30   2.0000      -0.321843        -8.7578
  31   2.0000      -0.265013        -7.2114
  32   2.0000      -0.254083        -6.9139
  33   2.0000      -0.248838        -6.7712
  34   2.0000      -0.228636        -6.2215
  35   2.0000      -0.220089        -5.9889
  36   0.0000      -0.108484        -2.9520
  37   0.0000      -0.062420        -1.6985
  38   0.0000      -0.020287        -0.5520
  39   0.0000      -0.003170        -0.0862
  40   0.0000       0.037823         1.0292

MULLIKEN ATOMIC CHARGES
-----------------------
   0 C :   -0.112856
   1 C :   -0.121304
   2 C :    0.262234
   3 C :   -0.160870
   4 C :   -0.121760
   5 C :    0.214966
   6 N :    0.203586
   7 O :   -0.229019
   8 O :   -0.231459
   9 O :   -0.297418
  10 H :    0.077411
  11 H :    0.064680
  12 H :    0.045961
  13 H :    0.076027
  14 H :    0.329822
Sum of atomic charges:   -0.0000000

LOEWDIN ATOMIC CHARGES
----------------------
   0 C :   -0.092097
   1 C :   -0.138994
   2 C :    0.036193
   3 C :   -0.168409
   4 C :   -0.092359
   5 C :   -0.065531
   6 N :    0.255785
   7 O :   -0.201356
   8 O :   -0.204008
   9 O :   -0.195587
  10 H :    0.145720
  11 H :    0.139265
  12 H :    0.128681
  13 H :    0.144909
  14 H :    0.307788

  Mayer bond orders larger than 0.100000
B(  0-C ,  1-C ) :   1.3599 B(  0-C ,  5-C ) :   1.3308 B(  0-C , 10-H ) :   0.9523
B(  1-C ,  2-C ) :   1.3127 B(  1-C , 11-H ) :   0.9666 B(  2-C ,  3-C ) :   1.2672
B(  2-C ,  9-O ) :   1.2419 B(  3-C ,  4-C ) :   1.3534 B(  3-C , 12-H ) :   0.9599
B(  4-C ,  5-C ) :   1.3507 B(  4-C , 13-H ) :   0.9465 B(  5-C ,  6-N ) :   0.9163
B(  6-N ,  7-O ) :   1.5224 B(  6-N ,  8-O ) :   1.5207 B(  7-O ,  8-O ) :   0.2895
B(  9-O , 14-H ) :   0.8329

Dispersion correction           -0.016055137
FINAL SINGLE POINT ENERGY      -510.972774084506

DIPOLE MOMENT
-------------

Method             : SCF
Type of density    : Electron Density
Multiplicity       :   1
Irrep              :   0
Energy             :  -511.0230950888717416 Eh
Relativity type    :
Basis              : AO
                                X                 Y                 Z
Electronic contribution:     -4.036427246      -0.245697310      -0.000806406
Nuclear contribution   :      6.261893155       0.787740206       0.000356006
                        -----------------------------------------
Total Dipole Moment    :      2.225465908       0.542042896      -0.000450400
                        -----------------------------------------
Magnitude (a.u.)       :      2.290525969
Magnitude (Debye)      :      5.822054326

Rotational constants in cm-1:             0.132913             0.027842             0.023020
Rotational constants in MHz :          3984.619510           834.688717           690.123322

                             ****ORCA TERMINATED NORMALLY****
TOTAL RUN TIME: 0 days 0 hours 0 minutes 9 seconds 394 msec
