                         Program Version 6.0.0  -   RELEASE  -
|  1> ! pbe def2-sv(p) def2/J RI DEFGRID1 loosescf d4 GCP(DFT/SV(P)) printgap
|  2> %output
|  3>     printlevel normal
|  4> end
|  5> * xyz 0 1
|  6> C -0.1546399634 -2.3477536622 0.1891339437
|  7> C 0.4983623921 -1.0062902607 0.1199757157
|  8> C 1.891585768 -0.9547034465 0.1102787864
|  9> C 2.584775504 0.2330736109 -0.0184345519
| 10> C 1.8958686496 1.4310845988 -0.1609266534
| 11> C 0.5199363833 1.4164572078 -0.1686894077
| 12> C -0.1803982036 0.2140298991 -0.0188710587
| 13> N -1.5991366091 0.3289200285 -0.0207801496
| 14> O -2.281407277 -0.4828191507 0.5858410562
| 15> O -2.091677735 1.2745650507 -0.6223865293
| 16> H 0.4045800763 -2.9945870485 0.8595343377
| 17> H -1.1834081124 -2.2961985996 0.5263602848
| 18> H -0.136914657 -2.8019253983 -0.8016825724
| 19> H 2.4361318514 -1.8811335953 0.2052418971
| 20> H 3.6631287345 0.2286001875 -0.0106974715
| 21> H 2.427038352 2.3629392219 -0.2628959246
| 22> H -0.0484307092 2.3280699313 -0.2721969516
| 23> *
| 24>
| 25>                          ****END OF INPUT****

CARTESIAN COORDINATES (ANGSTROEM)
---------------------------------
  C     -0.154640   -2.347754    0.189134
  C      0.498362   -1.006290    0.119976
  C      1.891586   -0.954703    0.110279
  C      2.584776    0.233074   -0.018435
  C      1.895869    1.431085   -0.160927
  C      0.519936    1.416457   -0.168689
  C     -0.180398    0.214030   -0.018871
  N     -1.599137    0.328920   -0.020780
  O     -2.281407   -0.482819    0.585841
  O     -2.091678    1.274565   -0.622387
  H      0.404580   -2.994587    0.859534
  H     -1.183408   -2.296199    0.526360
  H     -0.136915   -2.801925   -0.801683
  H      2.436132   -1.881134    0.205242
  H      3.663129    0.228600   -0.010697
  H      2.427038    2.362939   -0.262896
  H     -0.048431    2.328070   -0.272197

 Total Charge           Charge          ....    0
 Multiplicity           Mult            ....    1
 Number of Electrons    NEL             ....   72
 Basis Dimension        Dim             ....  154

ORBITAL ENERGIES
----------------

  NO   OCC          E(Eh)            E(eV)
   0   2.0000     -18.776125      -510.9243
   1   2.0000     -18.771962      -510.8111
   2   2.0000     -14.209171      -386.6512
   3   2.0000      -9.952857      -270.8310
   4   2.0000      -9.937085      -270.4018
   5   2.0000      -9.921375      -269.9743
   6   2.0000      -9.918383      -269.8929
   7   2.0000      -9.916129      -269.8316
   8   2.0000      -9.915773      -269.8219
   9   2.0000      -9.891672      -269.1661
  10   2.0000      -1.128284       -30.7022
  11   2.0000      -0.954615       -25.9764
  12   2.0000      -0.814899       -22.1745
  13   2.0000      -0.740001       -20.1365
  14   2.0000      -0.719314       -19.5735
  15   2.0000      -0.652097       -17.7445
  16   2.0000      -0.617717       -16.8089
  17   2.0000      -0.562543       -15.3076
  18   2.0000      -0.529144       -14.3987
  19   2.0000      -0.489887       -13.3305
  20   2.0000      -0.487183       -13.2569
  21   2.0000      -0.456627       -12.4255
  22   2.0000      -0.450783       -12.2664
  23   2.0000      -0.428027       -11.6472
  24   2.0000      -0.408845       -11.1252
  25   2.0000      -0.394552       -10.7363
  26   2.0000      -0.388078       -10.5601
  27   2.0000      -0.359182        -9.7738
  28   2.0000      -0.343321        -9.3422
  29   2.0000      -0.335730        -9.1357
  30   2.0000      -0.325618        -8.8605
  31   2.0000      -0.268215        -7.2985
  32   2.0000      -0.262564        -7.1447
  33   2.0000      -0.253967        -6.9108
  34   2.0000      -0.245592        -6.6829
  35   2.0000      -0.225166        -6.1271
  36   0.0000      -0.114427        -3.1137
  37   0.0000      -0.059036        -1.6064
  38   0.0000      -0.037020        -1.0074
  39   0.0000       0.032888         0.8949
  40   0.0000       0.054518         1.4835

MULLIKEN ATOMIC CHARGES
-----------------------
   0 C :   -0.232757
   1 C :   -0.006483
   2 C :   -0.146828
   3 C :   -0.006509
   4 C :   -0.050560
   5 C :   -0.100104
   6 C :    0.133154
   7 N :    0.203062
   8 O :   -0.216294
   9 O :   -0.216123
  10 H :    0.111390
  11 H :    0.143748
  12 H :    0.128215
  13 H :    0.050709
  14 H :    0.066022
  15 H :    0.066906
  16 H :    0.072451
Sum of atomic charges:   -0.0000000

LOEWDIN ATOMIC CHARGES
----------------------
   0 C :   -0.338196
   1 C :   -0.020942
   2 C :   -0.114289
   3 C :   -0.099191
   4 C :   -0.121797
   5 C :   -0.099725
   6 C :   -0.041036
   7 N :    0.257034
   8 O :   -0.183782
   9 O :   -0.186781
  10 H :    0.134073
  11 H :    0.139062
  12 H :    0.142155
  13 H :    0.129093
  14 H :    0.130594
  15 H :    0.131829
  16 H :    0.141901

  Mayer bond orders larger than 0.100000
B(  0-C ,  1-C ) :   1.1262 B(  0-C , 10-H ) :   0.9271 B(  0-C , 11-H ) :   0.9083
B(  0-C , 12-H ) :   0.9244 B(  1-C ,  2-C ) :   1.3645 B(  1-C ,  6-C ) :   1.3837
B(  2-C ,  3-C ) :   1.3776 B(  2-C , 13-H ) :   0.9622 B(  3-C ,  4-C ) :   1.3304
B(  3-C , 14-H ) :   0.9657 B(  4-C ,  5-C ) :   1.3591 B(  4-C , 15-H ) :   0.9661
B(  5-C ,  6-C ) :   1.3605 B(  5-C , 16-H ) :   0.9491 B(  6-C ,  7-N ) :   0.8930
B(  7-N ,  8-O ) :   1.5031 B(  7-N ,  9-O ) :   1.5252 B(  8-O ,  9-O ) :   0.2956

Dispersion correction           -0.018485328
FINAL SINGLE POINT ENERGY      -475.100743842842

DIPOLE MOMENT
-------------

Method             : SCF
Type of density    : Electron Density
Multiplicity       :   1
Irrep              :   0
Energy             :  -475.1518260621073750 Eh
Relativity type    :
Basis              : AO
                                X                 Y                 Z
Electronic contribution:     -5.450920701       4.416675151      -0.239992913
Nuclear contribution   :      7.021029562      -4.728208918       0.227942955
                        -----------------------------------------
Total Dipole Moment    :      1.570108861      -0.311533767      -0.012049958
                        -----------------------------------------
Magnitude (a.u.)       :      1.600762420
Magnitude (Debye)      :      4.068814717

Rotational constants in cm-1:             0.075832             0.042300             0.027964
Rotational constants in MHz :          2273.392410          1268.122827           838.353876

                             ****ORCA TERMINATED NORMALLY****
TOTAL RUN TIME: 0 days 0 hours 0 minutes 9 seconds 175 msec
