                         Program Version 6.0.0  -   RELEASE  -
|  1> ! wb97x-v def2-tzvp def2/J RIJCOSX DEFGRID2 scfconv7 GCP(DFT/TZ) printgap
|  2> %output
|  3>     printlevel normal
|  4> end
|  5> * xyz 0 1
|  6> C 1.2003991528872702 -1.2589121168957351 0.035260205573559966
|  7> C 0.3986831910461319 6.062159308521266e-05 -0.3184078551390212
|  8> C 1.199595687882005 1.2595371174982293 0.03532734483580055
|  9> C -0.9149605444721919 -0.0003451472212630716 0.4068730515361648
| 10> C -2.11492701632226 -0.00033515975385404296 -0.17119195723380473
| 11> H 0.6520055748982374 -2.168337345901028 -0.23095829845636534
| 12> H 1.410367148447876 -1.290377767965307 1.1110417010967524
| 13> H 2.1584813903594715 -1.2675344760069118 -0.49589532851646173
| 14> H 0.19807071628220607 3.665914572844062e-05 -1.3978236317371953
| 15> H 1.409953377144899 1.2908415082189153 1.111037084324209
| 16> H 2.1574592321845816 1.2690399845939146 -0.4962095555502792
| 17> H 0.6503946455962982 2.168616851875134 -0.23041122696426247
| 18> H -0.843644047538278 -0.0005708937029320207 1.497318637155109
| 19> H -3.029685061302518 -0.000565130506491393 0.415656668966637
| 20> H -2.2184579856802573 -0.00011786874193530894 -1.2548721461137624
| 21> *
| 22>
| 23>                          ****END OF INPUT****

CARTESIAN COORDINATES (ANGSTROEM)
---------------------------------
  C      1.200399   -1.258912    0.035260
  C      0.398683    0.000061   -0.318408
  C      1.199596    1.259537    0.035327
  C     -0.914961   -0.000345    0.406873
  C     -2.114927   -0.000335   -0.171192
  H      0.652006   -2.168337   -0.230958
  H      1.410367   -1.290378    1.111042
  H      2.158481   -1.267534   -0.495895
  H      0.198071    0.000037   -1.397824
  H      1.409953    1.290842    1.111037
  H      2.157459    1.269040   -0.496210
  H      0.650395    2.168617   -0.230411
  H     -0.843644   -0.000571    1.497319
  H     -3.029685   -0.000565    0.415657
  H     -2.218458   -0.000118   -1.254872

 Total Charge           Charge          ....    0
 Multiplicity           Mult            ....    1
 Number of Electrons    NEL             ....   40
 Basis Dimension        Dim             ....  215

ORBITAL ENERGIES
----------------

  NO   OCC          E(Eh)            E(eV)
   0   2.0000     -12.053355      -327.9885
   1   2.0000     -12.047539      -327.8302
   2   2.0000     -12.036464      -327.5289
   3   2.0000     -12.035644      -327.5065
   4   2.0000     -12.035315      -327.4976
   5   2.0000      -1.329017       -36.1644
   6   2.0000      -1.253439       -34.1078
   7   2.0000      -1.176018       -32.0011
   8   2.0000      -1.092403       -29.7258
   9   2.0000      -1.006891       -27.3989
  10   2.0000      -0.910717       -24.7819
  11   2.0000      -0.897269       -24.4159
  12   2.0000      -0.856977       -23.3195
  13   2.0000      -0.848392       -23.0859
  14   2.0000      -0.814178       -22.1549
  15   2.0000      -0.809771       -22.0350
  16   2.0000      -0.783217       -21.3124
  17   2.0000      -0.774217       -21.0675
  18   2.0000      -0.751243       -20.4424
  19   2.0000      -0.650626       -17.7044
  20   0.0000      -0.196412        -5.3446
  21   0.0000      -0.026887        -0.7316
  22   0.0000      -0.011586        -0.3153
  23   0.0000      -0.007898        -0.2149
  24   0.0000       0.012371         0.3366

MULLIKEN ATOMIC CHARGES
-----------------------
   0 C :   -0.347535
   1 C :    0.045513
   2 C :   -0.347539
   3 C :   -0.147781
   4 C :   -0.271700
   5 H :    0.118014
   6 H :    0.102607
   7 H :    0.110831
   8 H :    0.065067
   9 H :    0.102603
  10 H :    0.110834
  11 H :    0.118018
  12 H :    0.108735
  13 H :    0.119280
  14 H :    0.113055
Sum of atomic charges:   -0.0000000

LOEWDIN ATOMIC CHARGES
----------------------
   0 C :   -0.275643
   1 C :   -0.299677
   2 C :   -0.275640
   3 C :   -0.176799
   4 C :   -0.213656
   5 H :    0.120084
   6 H :    0.118958
   7 H :    0.118294
   8 H :    0.149036
   9 H :    0.118959
  10 H :    0.118292
  11 H :    0.120087
  12 H :    0.140431
  13 H :    0.118392
  14 H :    0.118883

  Mayer bond orders larger than 0.100000
B(  0-C ,  1-C ) :   0.9767 B(  0-C ,  5-H ) :   0.9805 B(  0-C ,  6-H ) :   0.9741
B(  0-C ,  7-H ) :   0.9794 B(  1-C ,  2-C ) :   0.9767 B(  1-C ,  3-C ) :   0.9594
B(  1-C ,  8-H ) :   0.9687 B(  2-C ,  9-H ) :   0.9741 B(  2-C , 10-H ) :   0.9794
B(  2-C , 11-H ) :   0.9805 B(  3-C ,  4-C ) :   1.9828 B(  3-C , 12-H ) :   0.9499
B(  4-C , 13-H ) :   0.9711 B(  4-C , 14-H ) :   0.9669

FINAL SINGLE POINT ENERGY      -196.536340221328

DIPOLE MOMENT
-------------

Method             : SCF
Type of density    : Electron Density
Multiplicity       :   1
Irrep              :   0
Energy             :  -196.5459063729277034 Eh
Relativity type    :
Basis              : AO
                                X                 Y                 Z
Electronic contribution:     -2.276887987      -0.000766956      -0.066830311
Nuclear contribution   :      2.415932995       0.000820121       0.042707372
                        -----------------------------------------
Total Dipole Moment    :      0.139045008       0.000053166      -0.024122939
                        -----------------------------------------
Magnitude (a.u.)       :      0.141122051
Magnitude (Debye)      :      0.358703747

Rotational constants in cm-1:             0.252203             0.118572             0.091781
Rotational constants in MHz :          7560.842881          3554.698696          2751.522067

                             ****ORCA TERMINATED NORMALLY****
TOTAL RUN TIME: 0 days 0 hours 1 minutes 10 seconds 193 msec
