                         Program Version 6.0.0  -   RELEASE  -
|  1> ! wb97x-v def2-tzvp def2/J RIJCOSX DEFGRID2 scfconv7 GCP(DFT/TZ) printgap
|  2> %output
|  3>     printlevel normal
|  4> end
|  5> %cpcm
|  6>     smd true
|  7>     smdsolvent "water"
|  8> end
|  9> * xyz 0 1
| 10> C 1.2003991528872702 -1.2589121168957351 0.035260205573559966
| 11> C 0.3986831910461319 6.062159308521266e-05 -0.3184078551390212
| 12> C 1.199595687882005 1.2595371174982293 0.03532734483580055
| 13> C -0.9149605444721919 -0.0003451472212630716 0.4068730515361648
| 14> C -2.11492701632226 -0.00033515975385404296 -0.17119195723380473
| 15> H 0.6520055748982374 -2.168337345901028 -0.23095829845636534
| 16> H 1.410367148447876 -1.290377767965307 1.1110417010967524
| 17> H 2.1584813903594715 -1.2675344760069118 -0.49589532851646173
| 18> H 0.19807071628220607 3.665914572844062e-05 -1.3978236317371953
| 19> H 1.409953377144899 1.2908415082189153 1.111037084324209
| 20> H 2.1574592321845816 1.2690399845939146 -0.4962095555502792
| 21> H 0.6503946455962982 2.168616851875134 -0.23041122696426247
| 22> H -0.843644047538278 -0.0005708937029320207 1.497318637155109
| 23> H -3.029685061302518 -0.000565130506491393 0.415656668966637
| 24> H -2.2184579856802573 -0.00011786874193530894 -1.2548721461137624
| 25> *
| 26>
| 27>                          ****END OF INPUT****

CARTESIAN COORDINATES (ANGSTROEM)
---------------------------------
  C      1.200399   -1.258912    0.035260
  C      0.398683    0.000061   -0.318408
  C      1.199596    1.259537    0.035327
  C     -0.914961   -0.000345    0.406873
  C     -2.114927   -0.000335   -0.171192
  H      0.652006   -2.168337   -0.230958
  H      1.410367   -1.290378    1.111042
  H      2.158481   -1.267534   -0.495895
  H      0.198071    0.000037   -1.397824
  H      1.409953    1.290842    1.111037
  H      2.157459    1.269040   -0.496210
  H      0.650395    2.168617   -0.230411
  H     -0.843644   -0.000571    1.497319
  H     -3.029685   -0.000565    0.415657
  H     -2.218458   -0.000118   -1.254872

 Total Charge           Charge          ....    0
 Multiplicity           Mult            ....    1
 Number of Electrons    NEL             ....   40
 Basis Dimension        Dim             ....  215

ORBITAL ENERGIES
----------------

  NO   OCC          E(Eh)            E(eV)
   0   2.0000     -12.045799      -327.7828
   1   2.0000     -12.044211      -327.7397
   2   2.0000     -12.032258      -327.4144
   3   2.0000     -12.026831      -327.2667
   4   2.0000     -12.026517      -327.2582
   5   2.0000      -1.323510       -36.0145
   6   2.0000      -1.248776       -33.9809
   7   2.0000      -1.167939       -31.7812
   8   2.0000      -1.086216       -29.5574
   9   2.0000      -1.000934       -27.2368
  10   2.0000      -0.905313       -24.6348
  11   2.0000      -0.891474       -24.2582
  12   2.0000      -0.850061       -23.1313
  13   2.0000      -0.840689       -22.8763
  14   2.0000      -0.807339       -21.9688
  15   2.0000      -0.800794       -21.7907
  16   2.0000      -0.775276       -21.0963
  17   2.0000      -0.767152       -20.8753
  18   2.0000      -0.743482       -20.2312
  19   2.0000      -0.649393       -17.6709
  20   0.0000      -0.194768        -5.2999
  21   0.0000      -0.019363        -0.5269
  22   0.0000      -0.002220        -0.0604
  23   0.0000       0.000778         0.0212
  24   0.0000       0.020716         0.5637

MULLIKEN ATOMIC CHARGES
-----------------------
   0 C :   -0.403231
   1 C :    0.067939
   2 C :   -0.403234
   3 C :   -0.201142
   4 C :   -0.360774
   5 H :    0.126961
   6 H :    0.122727
   7 H :    0.129944
   8 H :    0.085092
   9 H :    0.122722
  10 H :    0.129950
  11 H :    0.126959
  12 H :    0.147705
  13 H :    0.156277
  14 H :    0.152105
Sum of atomic charges:   -0.0000000

LOEWDIN ATOMIC CHARGES
----------------------
   0 C :   -0.281438
   1 C :   -0.298893
   2 C :   -0.281434
   3 C :   -0.183917
   4 C :   -0.234434
   5 H :    0.120394
   6 H :    0.122623
   7 H :    0.122096
   8 H :    0.153126
   9 H :    0.122623
  10 H :    0.122095
  11 H :    0.120394
  12 H :    0.147802
  13 H :    0.123740
  14 H :    0.125224

  Mayer bond orders larger than 0.100000
B(  0-C ,  1-C ) :   0.9623 B(  0-C ,  5-H ) :   0.9775 B(  0-C ,  6-H ) :   0.9740
B(  0-C ,  7-H ) :   0.9770 B(  1-C ,  2-C ) :   0.9623 B(  1-C ,  3-C ) :   0.9471
B(  1-C ,  8-H ) :   0.9722 B(  2-C ,  9-H ) :   0.9740 B(  2-C , 10-H ) :   0.9770
B(  2-C , 11-H ) :   0.9775 B(  3-C ,  4-C ) :   1.9609 B(  3-C , 12-H ) :   0.9485
B(  4-C , 13-H ) :   0.9703 B(  4-C , 14-H ) :   0.9630

FINAL SINGLE POINT ENERGY      -196.534166334666

DIPOLE MOMENT
-------------

Method             : SCF
Type of density    : Electron Density
Multiplicity       :   1
Irrep              :   0
Energy             :  -196.5437324862656965 Eh
Relativity type    :
Basis              : AO
                                X                 Y                 Z
Electronic contribution:     -2.192101405      -0.000742736      -0.059707056
Nuclear contribution   :      2.415932995       0.000820121       0.042707372
                        -----------------------------------------
Total Dipole Moment    :      0.223831590       0.000077385      -0.016999684
                        -----------------------------------------
Magnitude (a.u.)       :      0.224476226
Magnitude (Debye)      :      0.570573221

Rotational constants in cm-1:             0.252203             0.118572             0.091781
Rotational constants in MHz :          7560.842881          3554.698696          2751.522067

                             ****ORCA TERMINATED NORMALLY****
TOTAL RUN TIME: 0 days 0 hours 1 minutes 16 seconds 175 msec
