                         Program Version 6.0.0  -   RELEASE  -
|  1> ! pbe def2-sv(p) def2/J RI DEFGRID1 loosescf d4 GCP(DFT/SV(P)) printgap
|  2> %output
|  3>     printlevel normal
|  4> end
|  5> * xyz 0 1
|  6> C -3.5014210752 -0.3655116401 0.1732081315
|  7> C -2.1825818584 0.1074880822 -0.4329598233
|  8> H -2.4070517912 0.6927005162 -1.3300913625
|  9> C -1.2839379199 -1.0699882275 -0.8348789703
| 10> C -0.3610748992 -1.4870276908 0.3071312859
| 11> C 0.6467919931 -0.3714744094 0.6554975818
| 12> H 0.7540828226 -0.3402968087 1.7480950027
| 13> C 0.0439201793 0.9719755566 0.3110315452
| 14> O 0.6636098916 1.9308704595 -0.1049747256
| 15> C -1.438821135 1.0211098453 0.5643525368
| 16> C 2.0633662869 -0.6251344391 0.098128299
| 17> C 2.1371276514 -0.4986022925 -1.4216518173
| 18> C 3.0836340862 0.3031830378 0.7578272402
| 19> H -3.3213954877 -1.0115564875 1.0288762673
| 20> H -4.0949024991 0.4844509422 0.5006640662
| 21> H -4.0763270151 -0.9212348201 -0.5633857438
| 22> H -1.9034242982 -1.9157225571 -1.1357126439
| 23> H -0.677167903 -0.7783685 -1.6933766256
| 24> H -0.9671278679 -1.7317809411 1.1799706181
| 25> H 0.1860689651 -2.3879118252 0.0283929239
| 26> H -1.6234627557 0.6644897277 1.5780679919
| 27> H -1.7922401816 2.0489529438 0.4798360998
| 28> H 2.3277322322 -1.655433179 0.3671793875
| 29> H 1.8282956934 0.4959707632 -1.7349920042
| 30> H 1.5050402563 -1.2369250864 -1.9078190473
| 31> H 3.1598739605 -0.6570155555 -1.755726904
| 32> H 4.0846150582 0.0736353774 0.400652479
| 33> H 3.070684281 0.1857968322 1.8395044888
| 34> H 2.8625941727 1.3399570645 0.5187745851
| 35> *
| 36>
| 37>                          ****END OF INPUT****

CARTESIAN COORDINATES (ANGSTROEM)
---------------------------------
  C     -3.501421   -0.365512    0.173208
  C     -2.182582    0.107488   -0.432960
  H     -2.407052    0.692701   -1.330091
  C     -1.283938   -1.069988   -0.834879
  C     -0.361075   -1.487028    0.307131
  C      0.646792   -0.371474    0.655498
  H      0.754083   -0.340297    1.748095
  C      0.043920    0.971976    0.311032
  O      0.663610    1.930870   -0.104975
  C     -1.438821    1.021110    0.564353
  C      2.063366   -0.625134    0.098128
  C      2.137128   -0.498602   -1.421652
  C      3.083634    0.303183    0.757827
  H     -3.321395   -1.011556    1.028876
  H     -4.094902    0.484451    0.500664
  H     -4.076327   -0.921235   -0.563386
  H     -1.903424   -1.915723   -1.135713
  H     -0.677168   -0.778368   -1.693377
  H     -0.967128   -1.731781    1.179971
  H      0.186069   -2.387912    0.028393
  H     -1.623463    0.664490    1.578068
  H     -1.792240    2.048953    0.479836
  H      2.327732   -1.655433    0.367179
  H      1.828296    0.495971   -1.734992
  H      1.505040   -1.236925   -1.907819
  H      3.159874   -0.657016   -1.755727
  H      4.084615    0.073635    0.400652
  H      3.070684    0.185797    1.839504
  H      2.862594    1.339957    0.518775

 Total Charge           Charge          ....    0
 Multiplicity           Mult            ....    1
 Number of Electrons    NEL             ....   86
 Basis Dimension        Dim             ....  190

ORBITAL ENERGIES
----------------

  NO   OCC          E(Eh)            E(eV)
   0   2.0000     -18.735163      -509.8097
   1   2.0000      -9.970868      -271.3211
   2   2.0000      -9.908098      -269.6131
   3   2.0000      -9.900398      -269.4035
   4   2.0000      -9.895234      -269.2630
   5   2.0000      -9.894951      -269.2553
   6   2.0000      -9.889994      -269.1204
   7   2.0000      -9.889146      -269.0973
   8   2.0000      -9.881261      -268.8828
   9   2.0000      -9.866400      -268.4784
  10   2.0000      -9.860676      -268.3226
  11   2.0000      -0.934333       -25.4245
  12   2.0000      -0.769782       -20.9468
  13   2.0000      -0.726935       -19.7809
  14   2.0000      -0.675604       -18.3841
  15   2.0000      -0.657174       -17.8826
  16   2.0000      -0.615627       -16.7521
  17   2.0000      -0.602483       -16.3944
  18   2.0000      -0.556289       -15.1374
  19   2.0000      -0.526039       -14.3142
  20   2.0000      -0.497473       -13.5369
  21   2.0000      -0.451378       -12.2826
  22   2.0000      -0.443688       -12.0734
  23   2.0000      -0.435986       -11.8638
  24   2.0000      -0.414463       -11.2781
  25   2.0000      -0.388359       -10.5678
  26   2.0000      -0.387768       -10.5517
  27   2.0000      -0.378975       -10.3124
  28   2.0000      -0.358380        -9.7520
  29   2.0000      -0.352702        -9.5975
  30   2.0000      -0.347855        -9.4656
  31   2.0000      -0.342569        -9.3218
  32   2.0000      -0.340447        -9.2640
  33   2.0000      -0.338994        -9.2245
  34   2.0000      -0.321031        -8.7357
  35   2.0000      -0.313814        -8.5393
  36   2.0000      -0.303158        -8.2494
  37   2.0000      -0.287727        -7.8295
  38   2.0000      -0.285839        -7.7781
  39   2.0000      -0.280074        -7.6212
  40   2.0000      -0.274256        -7.4629
  41   2.0000      -0.266660        -7.2562
  42   2.0000      -0.187451        -5.1008
  43   0.0000      -0.051256        -1.3948
  44   0.0000       0.025684         0.6989
  45   0.0000       0.042417         1.1542
  46   0.0000       0.048961         1.3323
  47   0.0000       0.068681         1.8689

MULLIKEN ATOMIC CHARGES
-----------------------
   0 C :   -0.240985
   1 C :   -0.207510
   2 H :    0.082206
   3 C :   -0.115675
   4 C :   -0.105969
   5 C :   -0.145401
   6 H :    0.092735
   7 C :   -0.019043
   8 O :   -0.154755
   9 C :   -0.043262
  10 C :   -0.132414
  11 C :   -0.269643
  12 C :   -0.252948
  13 H :    0.097721
  14 H :    0.105527
  15 H :    0.103863
  16 H :    0.082979
  17 H :    0.096465
  18 H :    0.075097
  19 H :    0.091418
  20 H :    0.081293
  21 H :    0.089703
  22 H :    0.064709
  23 H :    0.120600
  24 H :    0.104960
  25 H :    0.095492
  26 H :    0.092820
  27 H :    0.087298
  28 H :    0.122721
Sum of atomic charges:    0.0000000

LOEWDIN ATOMIC CHARGES
----------------------
   0 C :   -0.329916
   1 C :   -0.141469
   2 H :    0.122323
   3 C :   -0.224217
   4 C :   -0.213581
   5 C :   -0.161217
   6 H :    0.142497
   7 C :    0.055794
   8 O :   -0.124563
   9 C :   -0.235265
  10 C :   -0.140211
  11 C :   -0.338123
  12 C :   -0.338659
  13 H :    0.115864
  14 H :    0.120727
  15 H :    0.119532
  16 H :    0.120114
  17 H :    0.122145
  18 H :    0.117506
  19 H :    0.123142
  20 H :    0.132732
  21 H :    0.130612
  22 H :    0.112901
  23 H :    0.125053
  24 H :    0.113341
  25 H :    0.119074
  26 H :    0.115530
  27 H :    0.111801
  28 H :    0.126536

  Mayer bond orders larger than 0.100000
B(  0-C ,  1-C ) :   1.1154 B(  0-C , 13-H ) :   0.9448 B(  0-C , 14-H ) :   0.9483
B(  0-C , 15-H ) :   0.9456 B(  1-C ,  2-H ) :   0.8989 B(  1-C ,  3-C ) :   1.0954
B(  1-C ,  9-C ) :   1.0730 B(  3-C ,  4-C ) :   1.1908 B(  3-C , 16-H ) :   0.9134
B(  3-C , 17-H ) :   0.8899 B(  4-C ,  5-C ) :   1.0601 B(  4-C , 18-H ) :   0.8901
B(  4-C , 19-H ) :   0.9087 B(  5-C ,  6-H ) :   0.8495 B(  5-C ,  7-C ) :   0.9268
B(  5-C , 10-C ) :   1.0430 B(  7-C ,  8-O ) :   2.1591 B(  7-C ,  9-C ) :   1.0805
B(  9-C , 20-H ) :   0.8704 B(  9-C , 21-H ) :   0.8904 B( 10-C , 11-C ) :   1.1140
B( 10-C , 12-C ) :   1.1049 B( 10-C , 22-H ) :   0.8977 B( 11-C , 23-H ) :   0.9393
B( 11-C , 24-H ) :   0.9381 B( 11-C , 25-H ) :   0.9450 B( 12-C , 26-H ) :   0.9468
B( 12-C , 27-H ) :   0.9471 B( 12-C , 28-H ) :   0.9376

Dispersion correction           -0.030859411
FINAL SINGLE POINT ENERGY      -466.027036035903

DIPOLE MOMENT
-------------

Method             : SCF
Type of density    : Electron Density
Multiplicity       :   1
Irrep              :   0
Energy             :  -466.1236525804429220 Eh
Relativity type    :
Basis              : AO
                                X                 Y                 Z
Electronic contribution:      0.404463660       5.399695774       0.681624627
Nuclear contribution   :     -1.007233358      -6.210433018      -0.424754555
                        -----------------------------------------
Total Dipole Moment    :     -0.602769698      -0.810737244       0.256870072
                        -----------------------------------------
Magnitude (a.u.)       :      1.042405114
Magnitude (Debye)      :      2.649583233

Rotational constants in cm-1:             0.068890             0.024868             0.021874
Rotational constants in MHz :          2065.258729           745.531133           655.765160

                             ****ORCA TERMINATED NORMALLY****
TOTAL RUN TIME: 0 days 0 hours 0 minutes 12 seconds 978 msec
