                         Program Version 6.0.0  -   RELEASE  -
|  1> ! r2scan-3c def2/J RI DEFGRID2 scfconv6 printgap
|  2> %output
|  3>     printlevel normal
|  4> end
|  5> * xyz 0 1
|  6> C -2.5646722958 0.6173678126 -0.1388312992
|  7> C -1.3866238963 -0.325593893 0.0115678786
|  8> O -0.1808670466 0.4252919057 -0.2065775533
|  9> C 0.9771316936 -0.1618052845 0.0626897647
| 10> O 1.0612470924 -1.2995518539 0.4810544942
| 11> C 2.1397513022 0.7434293645 -0.211625447
| 12> H -2.5652866996 1.0538315395 -1.1331411114
| 13> H -3.4871856605 0.0668215698 0.0126017369
| 14> H -2.4986583195 1.415924343 0.5942469079
| 15> H -1.422607176 -1.1383953263 -0.7211747172
| 16> H -1.3423146339 -0.7700355047 1.0113981445
| 17> H 2.7569729353 0.810131359 0.6802548336
| 18> H 1.7827449409 1.723847798 -0.5068102537
| 19> H 2.7447084437 0.3078065636 -1.0030267089
| 20> *
| 21>
| 22>                          ****END OF INPUT****

CARTESIAN COORDINATES (ANGSTROEM)
---------------------------------
  C     -2.564672    0.617368   -0.138831
  C     -1.386624   -0.325594    0.011568
  O     -0.180867    0.425292   -0.206578
  C      0.977132   -0.161805    0.062690
  O      1.061247   -1.299552    0.481054
  C      2.139751    0.743429   -0.211625
  H     -2.565287    1.053832   -1.133141
  H     -3.487186    0.066822    0.012602
  H     -2.498658    1.415924    0.594247
  H     -1.422607   -1.138395   -0.721175
  H     -1.342315   -0.770036    1.011398
  H      2.756973    0.810131    0.680255
  H      1.782745    1.723848   -0.506810
  H      2.744708    0.307807   -1.003027

 Total Charge           Charge          ....    0
 Multiplicity           Mult            ....    1
 Number of Electrons    NEL             ....   48
 Basis Dimension        Dim             ....  164

ORBITAL ENERGIES
----------------

  NO   OCC          E(Eh)            E(eV)
   0   2.0000     -18.997926      -516.9598
   1   2.0000     -18.926249      -515.0094
   2   2.0000     -10.154465      -276.3170
   3   2.0000     -10.092110      -274.6203
   4   2.0000     -10.038991      -273.1748
   5   2.0000     -10.032879      -273.0085
   6   2.0000      -1.072702       -29.1897
   7   2.0000      -0.973708       -26.4959
   8   2.0000      -0.757495       -20.6125
   9   2.0000      -0.708359       -19.2754
  10   2.0000      -0.613580       -16.6963
  11   2.0000      -0.536936       -14.6108
  12   2.0000      -0.466791       -12.7020
  13   2.0000      -0.456153       -12.4126
  14   2.0000      -0.436452       -11.8765
  15   2.0000      -0.416911       -11.3447
  16   2.0000      -0.385121       -10.4797
  17   2.0000      -0.370446       -10.0804
  18   2.0000      -0.365337        -9.9413
  19   2.0000      -0.358567        -9.7571
  20   2.0000      -0.324293        -8.8245
  21   2.0000      -0.316029        -8.5996
  22   2.0000      -0.272081        -7.4037
  23   2.0000      -0.234930        -6.3928
  24   0.0000      -0.013981        -0.3805
  25   0.0000       0.075571         2.0564
  26   0.0000       0.097439         2.6514
  27   0.0000       0.120394         3.2761
  28   0.0000       0.132003         3.5920

MULLIKEN ATOMIC CHARGES
-----------------------
   0 C :   -0.439954
   1 C :   -0.149996
   2 O :   -0.167926
   3 C :    0.410247
   4 O :   -0.420950
   5 C :   -0.514188
   6 H :    0.151952
   7 H :    0.147165
   8 H :    0.152373
   9 H :    0.151378
  10 H :    0.162751
  11 H :    0.172914
  12 H :    0.171074
  13 H :    0.173162
Sum of atomic charges:   -0.0000000

LOEWDIN ATOMIC CHARGES
----------------------
   0 C :   -0.386671
   1 C :    0.033775
   2 O :   -0.602859
   3 C :    0.351136
   4 O :   -0.429958
   5 C :   -0.336953
   6 H :    0.159321
   7 H :    0.159680
   8 H :    0.159307
   9 H :    0.177098
  10 H :    0.182713
  11 H :    0.179425
  12 H :    0.173719
  13 H :    0.180265

  Mayer bond orders larger than 0.100000
B(  0-C ,  1-C ) :   0.9397 B(  0-C ,  6-H ) :   0.9702 B(  0-C ,  7-H ) :   0.9680
B(  0-C ,  8-H ) :   0.9736 B(  1-C ,  2-O ) :   0.8081 B(  1-C ,  9-H ) :   0.9481
B(  1-C , 10-H ) :   0.9562 B(  2-O ,  3-C ) :   1.0799 B(  3-C ,  4-O ) :   1.8174
B(  3-C ,  5-C ) :   0.9439 B(  5-C , 11-H ) :   0.9543 B(  5-C , 12-H ) :   0.9878
B(  5-C , 13-H ) :   0.9479

Dispersion correction           -0.002870126
FINAL SINGLE POINT ENERGY      -307.637530438133

DIPOLE MOMENT
-------------

Method             : SCF
Type of density    : Electron Density
Multiplicity       :   1
Irrep              :   0
Energy             :  -307.6437614499099027 Eh
Relativity type    :
Basis              : AO
                                X                 Y                 Z
Electronic contribution:      3.345104689      -2.525662626       0.726506282
Nuclear contribution   :     -3.769286627       3.242411414      -0.995688330
                        -----------------------------------------
Total Dipole Moment    :     -0.424181937       0.716748788      -0.269182048
                        -----------------------------------------
Magnitude (a.u.)       :      0.875281735
Magnitude (Debye)      :      2.224789364

Rotational constants in cm-1:             0.282393             0.069781             0.057879
Rotational constants in MHz :          8465.939544          2091.974174          1735.164644

                             ****ORCA TERMINATED NORMALLY****
TOTAL RUN TIME: 0 days 0 hours 0 minutes 15 seconds 159 msec
