                         Program Version 6.0.0  -   RELEASE  -
|  1> ! r2scan-3c def2/J RI DEFGRID2 scfconv6 printgap
|  2> %output
|  3>     printlevel normal
|  4> end
|  5> %cpcm
|  6>     smd true
|  7>     smdsolvent "water"
|  8> end
|  9> * xyz 0 1
| 10> C -2.5646722958 0.6173678126 -0.1388312992
| 11> C -1.3866238963 -0.325593893 0.0115678786
| 12> O -0.1808670466 0.4252919057 -0.2065775533
| 13> C 0.9771316936 -0.1618052845 0.0626897647
| 14> O 1.0612470924 -1.2995518539 0.4810544942
| 15> C 2.1397513022 0.7434293645 -0.211625447
| 16> H -2.5652866996 1.0538315395 -1.1331411114
| 17> H -3.4871856605 0.0668215698 0.0126017369
| 18> H -2.4986583195 1.415924343 0.5942469079
| 19> H -1.422607176 -1.1383953263 -0.7211747172
| 20> H -1.3423146339 -0.7700355047 1.0113981445
| 21> H 2.7569729353 0.810131359 0.6802548336
| 22> H 1.7827449409 1.723847798 -0.5068102537
| 23> H 2.7447084437 0.3078065636 -1.0030267089
| 24> *
| 25>
| 26>                          ****END OF INPUT****

CARTESIAN COORDINATES (ANGSTROEM)
---------------------------------
  C     -2.564672    0.617368   -0.138831
  C     -1.386624   -0.325594    0.011568
  O     -0.180867    0.425292   -0.206578
  C      0.977132   -0.161805    0.062690
  O      1.061247   -1.299552    0.481054
  C      2.139751    0.743429   -0.211625
  H     -2.565287    1.053832   -1.133141
  H     -3.487186    0.066822    0.012602
  H     -2.498658    1.415924    0.594247
  H     -1.422607   -1.138395   -0.721175
  H     -1.342315   -0.770036    1.011398
  H      2.756973    0.810131    0.680255
  H      1.782745    1.723848   -0.506810
  H      2.744708    0.307807   -1.003027

 Total Charge           Charge          ....    0
 Multiplicity           Mult            ....    1
 Number of Electrons    NEL             ....   48
 Basis Dimension        Dim             ....  164

ORBITAL ENERGIES
----------------

  NO   OCC          E(Eh)            E(eV)
   0   2.0000     -19.003331      -517.1069
   1   2.0000     -18.942785      -515.4594
   2   2.0000     -10.165187      -276.6088
   3   2.0000     -10.083998      -274.3995
   4   2.0000     -10.030318      -272.9388
   5   2.0000     -10.018950      -272.6295
   6   2.0000      -1.079897       -29.3855
   7   2.0000      -0.987999       -26.8848
   8   2.0000      -0.751860       -20.4591
   9   2.0000      -0.700588       -19.0640
  10   2.0000      -0.606207       -16.4957
  11   2.0000      -0.534906       -14.5555
  12   2.0000      -0.465001       -12.6533
  13   2.0000      -0.462808       -12.5936
  14   2.0000      -0.444458       -12.0943
  15   2.0000      -0.410813       -11.1788
  16   2.0000      -0.378867       -10.3095
  17   2.0000      -0.365468        -9.9449
  18   2.0000      -0.356827        -9.7098
  19   2.0000      -0.350469        -9.5368
  20   2.0000      -0.323297        -8.7974
  21   2.0000      -0.315954        -8.5976
  22   2.0000      -0.278413        -7.5760
  23   2.0000      -0.252773        -6.8783
  24   0.0000      -0.021707        -0.5907
  25   0.0000       0.080029         2.1777
  26   0.0000       0.108172         2.9435
  27   0.0000       0.128265         3.4903
  28   0.0000       0.141712         3.8562

MULLIKEN ATOMIC CHARGES
-----------------------
   0 C :   -0.488441
   1 C :   -0.152337
   2 O :   -0.184221
   3 C :    0.462561
   4 O :   -0.511683
   5 C :   -0.550618
   6 H :    0.164453
   7 H :    0.168708
   8 H :    0.165512
   9 H :    0.171922
  10 H :    0.170851
  11 H :    0.196131
  12 H :    0.187682
  13 H :    0.199480
Sum of atomic charges:   -0.0000000

LOEWDIN ATOMIC CHARGES
----------------------
   0 C :   -0.389643
   1 C :    0.035919
   2 O :   -0.603424
   3 C :    0.362656
   4 O :   -0.494908
   5 C :   -0.334746
   6 H :    0.162678
   7 H :    0.168313
   8 H :    0.162593
   9 H :    0.183838
  10 H :    0.185871
  11 H :    0.188481
  12 H :    0.181865
  13 H :    0.190507

  Mayer bond orders larger than 0.100000
B(  0-C ,  1-C ) :   0.9415 B(  0-C ,  6-H ) :   0.9678 B(  0-C ,  7-H ) :   0.9616
B(  0-C ,  8-H ) :   0.9721 B(  1-C ,  2-O ) :   0.7943 B(  1-C ,  9-H ) :   0.9395
B(  1-C , 10-H ) :   0.9496 B(  2-O ,  3-C ) :   1.1091 B(  3-C ,  4-O ) :   1.7431
B(  3-C ,  5-C ) :   0.9444 B(  5-C , 11-H ) :   0.9445 B(  5-C , 12-H ) :   0.9774
B(  5-C , 13-H ) :   0.9367

Dispersion correction           -0.002870126
FINAL SINGLE POINT ENERGY      -307.643712850736

DIPOLE MOMENT
-------------

Method             : SCF
Type of density    : Electron Density
Multiplicity       :   1
Irrep              :   0
Energy             :  -307.6499438625127709 Eh
Relativity type    :
Basis              : AO
                                X                 Y                 Z
Electronic contribution:      3.229309575      -2.254577435       0.618363713
Nuclear contribution   :     -3.769286627       3.242411414      -0.995688330
                        -----------------------------------------
Total Dipole Moment    :     -0.539977052       0.987833979      -0.377324616
                        -----------------------------------------
Magnitude (a.u.)       :      1.187335274
Magnitude (Debye)      :      3.017966425

Rotational constants in cm-1:             0.282393             0.069781             0.057879
Rotational constants in MHz :          8465.939544          2091.974174          1735.164644

                             ****ORCA TERMINATED NORMALLY****
TOTAL RUN TIME: 0 days 0 hours 0 minutes 17 seconds 329 msec
