                         Program Version 6.0.0  -   RELEASE  -
|  1> ! r2scan-3c def2/J RI DEFGRID2 scfconv6 printgap
|  2> %output
|  3>     printlevel normal
|  4> end
|  5> %cpcm
|  6>     smd true
|  7>     smdsolvent "water"
|  8> end
|  9> * xyz 0 1
| 10> C -1.5502620083 0.916555529 -0.255568954
| 11> C -1.3272555082 -0.5083723204 0.2355645076
| 12> C 0.0807845618 -1.0024193265 0.4083816815
| 13> C 1.2653655493 -0.4710543367 0.1414728088
| 14> C 1.6235104161 0.8545803798 -0.4545542214
| 15> H -2.6099251604 1.1563903602 -0.1885211725
| 16> H -1.2505143572 1.0266023091 -1.294023133
| 17> H -1.000775719 1.6272620269 0.3546815296
| 18> H -1.8149272657 -0.6185050423 1.2105170587
| 19> H -1.8370706289 -1.2016587888 -0.4425379894
| 20> H 0.0884707149 -1.9943108574 0.85025921
| 21> H 2.1315755441 -1.0670998331 0.4075484442
| 22> H 1.7578048192 1.5942740532 0.3353998451
| 23> H 0.8698984703 1.2190267701 -1.1415716811
| 24> H 2.5674770514 0.7688640687 -0.9889856422
| 25> *
| 26>
| 27>                          ****END OF INPUT****

CARTESIAN COORDINATES (ANGSTROEM)
---------------------------------
  C     -1.550262    0.916556   -0.255569
  C     -1.327256   -0.508372    0.235565
  C      0.080785   -1.002419    0.408382
  C      1.265366   -0.471054    0.141473
  C      1.623510    0.854580   -0.454554
  H     -2.609925    1.156390   -0.188521
  H     -1.250514    1.026602   -1.294023
  H     -1.000776    1.627262    0.354682
  H     -1.814927   -0.618505    1.210517
  H     -1.837071   -1.201659   -0.442538
  H      0.088471   -1.994311    0.850259
  H      2.131576   -1.067100    0.407548
  H      1.757805    1.594274    0.335400
  H      0.869898    1.219027   -1.141572
  H      2.567477    0.768864   -0.988986

 Total Charge           Charge          ....    0
 Multiplicity           Mult            ....    1
 Number of Electrons    NEL             ....   40
 Basis Dimension        Dim             ....  145

ORBITAL ENERGIES
----------------

  NO   OCC          E(Eh)            E(eV)
   0   2.0000     -10.024843      -272.7898
   1   2.0000     -10.021604      -272.7017
   2   2.0000     -10.020467      -272.6708
   3   2.0000     -10.012803      -272.4622
   4   2.0000     -10.009179      -272.3636
   5   2.0000      -0.766193       -20.8492
   6   2.0000      -0.710294       -19.3281
   7   2.0000      -0.650832       -17.7100
   8   2.0000      -0.580352       -15.7922
   9   2.0000      -0.481264       -13.0959
  10   2.0000      -0.435095       -11.8395
  11   2.0000      -0.411932       -11.2093
  12   2.0000      -0.381903       -10.3921
  13   2.0000      -0.371454       -10.1078
  14   2.0000      -0.352374        -9.5886
  15   2.0000      -0.344228        -9.3669
  16   2.0000      -0.317806        -8.6480
  17   2.0000      -0.299576        -8.1519
  18   2.0000      -0.279459        -7.6045
  19   2.0000      -0.217280        -5.9125
  20   0.0000       0.002548         0.0693
  21   0.0000       0.090469         2.4618
  22   0.0000       0.127252         3.4627
  23   0.0000       0.135070         3.6754
  24   0.0000       0.145102         3.9484

MULLIKEN ATOMIC CHARGES
-----------------------
   0 C :   -0.531281
   1 C :   -0.222569
   2 C :   -0.207576
   3 C :   -0.178418
   4 C :   -0.494529
   5 H :    0.155779
   6 H :    0.162720
   7 H :    0.163582
   8 H :    0.155698
   9 H :    0.158254
  10 H :    0.166610
  11 H :    0.169326
  12 H :    0.175437
  13 H :    0.168980
  14 H :    0.157987
Sum of atomic charges:   -0.0000000

LOEWDIN ATOMIC CHARGES
----------------------
   0 C :   -0.429956
   1 C :   -0.305963
   2 C :   -0.224764
   3 C :   -0.234037
   4 C :   -0.423693
   5 H :    0.153885
   6 H :    0.153229
   7 H :    0.156040
   8 H :    0.165340
   9 H :    0.166264
  10 H :    0.167719
  11 H :    0.165894
  12 H :    0.167120
  13 H :    0.163446
  14 H :    0.159475

  Mayer bond orders larger than 0.100000
B(  0-C ,  1-C ) :   0.8728 B(  0-C ,  5-H ) :   0.9675 B(  0-C ,  6-H ) :   0.9759
B(  0-C ,  7-H ) :   0.9783 B(  1-C ,  2-C ) :   0.9263 B(  1-C ,  8-H ) :   0.9709
B(  1-C ,  9-H ) :   0.9618 B(  2-C ,  3-C ) :   1.9061 B(  2-C , 10-H ) :   0.9406
B(  3-C ,  4-C ) :   0.8884 B(  3-C , 11-H ) :   0.9490 B(  4-C , 12-H ) :   0.9644
B(  4-C , 13-H ) :   0.9828 B(  4-C , 14-H ) :   0.9660

Dispersion correction           -0.003393901
FINAL SINGLE POINT ENERGY      -196.453237489928

DIPOLE MOMENT
-------------

Method             : SCF
Type of density    : Electron Density
Multiplicity       :   1
Irrep              :   0
Energy             :  -196.4562505667400103 Eh
Relativity type    :
Basis              : AO
                                X                 Y                 Z
Electronic contribution:      0.884689604      -2.224532372       0.820169468
Nuclear contribution   :     -1.030099622       2.355603170      -0.841758887
                        -----------------------------------------
Total Dipole Moment    :     -0.145410018       0.131070798      -0.021589420
                        -----------------------------------------
Magnitude (a.u.)       :      0.196951086
Magnitude (Debye)      :      0.500609877

Rotational constants in cm-1:             0.255379             0.122637             0.086908
Rotational constants in MHz :          7656.068173          3676.556367          2605.424690

                             ****ORCA TERMINATED NORMALLY****
TOTAL RUN TIME: 0 days 0 hours 0 minutes 13 seconds 936 msec
