                         Program Version 6.0.0  -   RELEASE  -
|  1> ! wb97x-v def2-tzvp def2/J RIJCOSX DEFGRID2 scfconv7 GCP(DFT/TZ) printgap
|  2> %output
|  3>     printlevel normal
|  4> end
|  5> * xyz 0 1
|  6> C 2.1188989424966267 0.01842776875577314 0.00018215769180129373
|  7> N 0.6608113023914574 -0.005964578289798078 0.00043494234497650874
|  8> C -0.1354096641496797 -1.1288708813305584 8.691174687030872e-05
|  9> C -1.426464961134881 -0.667989863604942 -0.00020035491034356732
| 10> N -1.4461612785970648 0.7128619639127662 -0.00011026082431893113
| 11> C -0.16937741504165016 1.0689166014166258 0.0002653454118799979
| 12> H 2.505615319044456 -0.4787797627491344 -0.8930708593924991
| 13> H 2.451654891208314 1.0572474513942713 0.004857275879046336
| 14> H 2.5057183431834873 -0.486810890468715 0.8888443295391135
| 15> H 0.285505484243484 -2.1232297196741703 0.00012094830909670916
| 16> H -2.3368324871359185 -1.2507537974331067 -0.00038804249067697215
| 17> H 0.20943085220144092 2.082414815644723 0.0004279636222333891
| 18> *
| 19>
| 20>                          ****END OF INPUT****

CARTESIAN COORDINATES (ANGSTROEM)
---------------------------------
  C      2.118899    0.018428    0.000182
  N      0.660811   -0.005965    0.000435
  C     -0.135410   -1.128871    0.000087
  C     -1.426465   -0.667990   -0.000200
  N     -1.446161    0.712862   -0.000110
  C     -0.169377    1.068917    0.000265
  H      2.505615   -0.478780   -0.893071
  H      2.451655    1.057247    0.004857
  H      2.505718   -0.486811    0.888844
  H      0.285505   -2.123230    0.000121
  H     -2.336832   -1.250754   -0.000388
  H      0.209431    2.082415    0.000428

 Total Charge           Charge          ....    0
 Multiplicity           Mult            ....    1
 Number of Electrons    NEL             ....   44
 Basis Dimension        Dim             ....  222

ORBITAL ENERGIES
----------------

  NO   OCC          E(Eh)            E(eV)
   0   2.0000     -16.589423      -451.4211
   1   2.0000     -16.502560      -449.0575
   2   2.0000     -12.104778      -329.3878
   3   2.0000     -12.096197      -329.1542
   4   2.0000     -12.069662      -328.4322
   5   2.0000     -12.055315      -328.0418
   6   2.0000      -1.601603       -43.5818
   7   2.0000      -1.467398       -39.9299
   8   2.0000      -1.292127       -35.1606
   9   2.0000      -1.251297       -34.0495
  10   2.0000      -1.120222       -30.4828
  11   2.0000      -1.080653       -29.4061
  12   2.0000      -1.013560       -27.5804
  13   2.0000      -0.930858       -25.3299
  14   2.0000      -0.926538       -25.2124
  15   2.0000      -0.911424       -24.8011
  16   2.0000      -0.875221       -23.8160
  17   2.0000      -0.859322       -23.3834
  18   2.0000      -0.841022       -22.8854
  19   2.0000      -0.779969       -21.2240
  20   2.0000      -0.737865       -20.0783
  21   2.0000      -0.626866       -17.0579
  22   0.0000      -0.248347        -6.7579
  23   0.0000      -0.186404        -5.0723
  24   0.0000      -0.130618        -3.5543
  25   0.0000      -0.061693        -1.6788
  26   0.0000      -0.031101        -0.8463

MULLIKEN ATOMIC CHARGES
-----------------------
   0 C :   -0.285723
   1 N :    0.012777
   2 C :   -0.127264
   3 C :   -0.119445
   4 N :   -0.277398
   5 C :   -0.011988
   6 H :    0.139639
   7 H :    0.132851
   8 H :    0.139635
   9 H :    0.137240
  10 H :    0.121633
  11 H :    0.138042
Sum of atomic charges:    0.0000000

LOEWDIN ATOMIC CHARGES
----------------------
   0 C :   -0.254757
   1 N :    0.213576
   2 C :   -0.230810
   3 C :   -0.257444
   4 N :    0.068737
   5 C :   -0.288805
   6 H :    0.119668
   7 H :    0.124271
   8 H :    0.119716
   9 H :    0.131336
  10 H :    0.126911
  11 H :    0.127601

  Mayer bond orders larger than 0.100000
B(  0-C ,  1-N ) :   0.9227 B(  0-C ,  6-H ) :   0.9717 B(  0-C ,  7-H ) :   0.9747
B(  0-C ,  8-H ) :   0.9718 B(  1-N ,  2-C ) :   1.1543 B(  1-N ,  5-C ) :   1.2518
B(  2-C ,  3-C ) :   1.6503 B(  2-C ,  9-H ) :   0.9567 B(  3-C ,  4-N ) :   1.3823
B(  3-C , 10-H ) :   0.9800 B(  4-N ,  5-C ) :   1.6893 B(  5-C , 11-H ) :   0.9621

FINAL SINGLE POINT ENERGY      -265.541580450118

DIPOLE MOMENT
-------------

Method             : SCF
Type of density    : Electron Density
Multiplicity       :   1
Irrep              :   0
Energy             :  -265.5483832817179746 Eh
Relativity type    :
Basis              : AO
                                X                 Y                 Z
Electronic contribution:     -3.706953799       0.703917225       0.000130416
Nuclear contribution   :      5.315846464      -1.133514099       0.000101627
                        -----------------------------------------
Total Dipole Moment    :      1.608892665      -0.429596874       0.000232043
                        -----------------------------------------
Magnitude (a.u.)       :      1.665259480
Magnitude (Debye)      :      4.232753215

Rotational constants in cm-1:             0.305389             0.120169             0.087671
Rotational constants in MHz :          9155.324812          3602.572578          2628.312743

                             ****ORCA TERMINATED NORMALLY****
TOTAL RUN TIME: 0 days 0 hours 1 minutes 27 seconds 109 msec
