                         Program Version 6.0.0  -   RELEASE  -
|  1> ! wb97x-v def2-tzvp def2/J RIJCOSX DEFGRID2 scfconv7 GCP(DFT/TZ) printgap
|  2> %output
|  3>     printlevel normal
|  4> end
|  5> %cpcm
|  6>     smd true
|  7>     smdsolvent "water"
|  8> end
|  9> * xyz 0 1
| 10> C 2.1188989424966267 0.01842776875577314 0.00018215769180129373
| 11> N 0.6608113023914574 -0.005964578289798078 0.00043494234497650874
| 12> C -0.1354096641496797 -1.1288708813305584 8.691174687030872e-05
| 13> C -1.426464961134881 -0.667989863604942 -0.00020035491034356732
| 14> N -1.4461612785970648 0.7128619639127662 -0.00011026082431893113
| 15> C -0.16937741504165016 1.0689166014166258 0.0002653454118799979
| 16> H 2.505615319044456 -0.4787797627491344 -0.8930708593924991
| 17> H 2.451654891208314 1.0572474513942713 0.004857275879046336
| 18> H 2.5057183431834873 -0.486810890468715 0.8888443295391135
| 19> H 0.285505484243484 -2.1232297196741703 0.00012094830909670916
| 20> H -2.3368324871359185 -1.2507537974331067 -0.00038804249067697215
| 21> H 0.20943085220144092 2.082414815644723 0.0004279636222333891
| 22> *
| 23>
| 24>                          ****END OF INPUT****

CARTESIAN COORDINATES (ANGSTROEM)
---------------------------------
  C      2.118899    0.018428    0.000182
  N      0.660811   -0.005965    0.000435
  C     -0.135410   -1.128871    0.000087
  C     -1.426465   -0.667990   -0.000200
  N     -1.446161    0.712862   -0.000110
  C     -0.169377    1.068917    0.000265
  H      2.505615   -0.478780   -0.893071
  H      2.451655    1.057247    0.004857
  H      2.505718   -0.486811    0.888844
  H      0.285505   -2.123230    0.000121
  H     -2.336832   -1.250754   -0.000388
  H      0.209431    2.082415    0.000428

 Total Charge           Charge          ....    0
 Multiplicity           Mult            ....    1
 Number of Electrons    NEL             ....   44
 Basis Dimension        Dim             ....  222

ORBITAL ENERGIES
----------------

  NO   OCC          E(Eh)            E(eV)
   0   2.0000     -16.585099      -451.3035
   1   2.0000     -16.511336      -449.2963
   2   2.0000     -12.095832      -329.1443
   3   2.0000     -12.077582      -328.6477
   4   2.0000     -12.067199      -328.3652
   5   2.0000     -12.056506      -328.0742
   6   2.0000      -1.600165       -43.5427
   7   2.0000      -1.469897       -39.9979
   8   2.0000      -1.288967       -35.0746
   9   2.0000      -1.238779       -33.7089
  10   2.0000      -1.119420       -30.4610
  11   2.0000      -1.076645       -29.2970
  12   2.0000      -1.002323       -27.2746
  13   2.0000      -0.921753       -25.0822
  14   2.0000      -0.919800       -25.0290
  15   2.0000      -0.904371       -24.6092
  16   2.0000      -0.874617       -23.7995
  17   2.0000      -0.835099       -22.7242
  18   2.0000      -0.828555       -22.5461
  19   2.0000      -0.790481       -21.5101
  20   2.0000      -0.739775       -20.1303
  21   2.0000      -0.628597       -17.1050
  22   0.0000      -0.249168        -6.7802
  23   0.0000      -0.190170        -5.1748
  24   0.0000      -0.113500        -3.0885
  25   0.0000      -0.057939        -1.5766
  26   0.0000      -0.021392        -0.5821

MULLIKEN ATOMIC CHARGES
-----------------------
   0 C :   -0.308942
   1 N :    0.016769
   2 C :   -0.163328
   3 C :   -0.175750
   4 N :   -0.373518
   5 C :   -0.022643
   6 H :    0.159198
   7 H :    0.164452
   8 H :    0.159290
   9 H :    0.188376
  10 H :    0.165765
  11 H :    0.190331
Sum of atomic charges:    0.0000000

LOEWDIN ATOMIC CHARGES
----------------------
   0 C :   -0.243757
   1 N :    0.223531
   2 C :   -0.220362
   3 C :   -0.289911
   4 N :    0.006263
   5 C :   -0.285392
   6 H :    0.127279
   7 H :    0.133515
   8 H :    0.127344
   9 H :    0.146484
  10 H :    0.133193
  11 H :    0.141812

  Mayer bond orders larger than 0.100000
B(  0-C ,  1-N ) :   0.9042 B(  0-C ,  6-H ) :   0.9666 B(  0-C ,  7-H ) :   0.9663
B(  0-C ,  8-H ) :   0.9666 B(  1-N ,  2-C ) :   1.1604 B(  1-N ,  5-C ) :   1.2853
B(  2-C ,  3-C ) :   1.6639 B(  2-C ,  9-H ) :   0.9540 B(  3-C ,  4-N ) :   1.3804
B(  3-C , 10-H ) :   0.9640 B(  4-N ,  5-C ) :   1.6605 B(  5-C , 11-H ) :   0.9492

FINAL SINGLE POINT ENERGY      -265.554354712426

DIPOLE MOMENT
-------------

Method             : SCF
Type of density    : Electron Density
Multiplicity       :   1
Irrep              :   0
Energy             :  -265.5611575440262868 Eh
Relativity type    :
Basis              : AO
                                X                 Y                 Z
Electronic contribution:     -3.079469810       0.548715679       0.000251775
Nuclear contribution   :      5.315846464      -1.133514099       0.000101627
                        -----------------------------------------
Total Dipole Moment    :      2.236376654      -0.584798420       0.000353402
                        -----------------------------------------
Magnitude (a.u.)       :      2.311573026
Magnitude (Debye)      :      5.875551695

Rotational constants in cm-1:             0.305389             0.120169             0.087671
Rotational constants in MHz :          9155.324812          3602.572578          2628.312743

                             ****ORCA TERMINATED NORMALLY****
TOTAL RUN TIME: 0 days 0 hours 1 minutes 26 seconds 271 msec
