                         Program Version 6.0.0  -   RELEASE  -
|  1> ! r2scan-3c def2/J RI DEFGRID2 scfconv6 printgap
|  2> %output
|  3>     printlevel normal
|  4> end
|  5> * xyz 0 1
|  6> C -2.4683313917 0.7091026834 0.9780422913
|  7> C -1.687753257 -0.0250110209 -0.0745172956
|  8> O -2.2543838319 -0.6810880881 -0.9369476571
|  9> C -0.2079606135 0.0185784629 -0.0122916314
| 10> C 0.4957957105 -1.0897631222 -0.4871875602
| 11> C 1.8762456915 -1.1147752013 -0.4532164286
| 12> C 2.5746799772 -0.0212265218 0.0344287412
| 13> C 1.8864938747 1.095120796 0.4825419571
| 14> C 0.5037781753 1.1173210068 0.4671228653
| 15> H -1.856185406 1.3795653315 1.5674181295
| 16> H -2.9062128891 -0.0394403264 1.6373108286
| 17> H -3.2906888901 1.2460968055 0.5110591393
| 18> H -0.0666031897 -1.9285991416 -0.8708486392
| 19> H 2.4072700934 -1.983274022 -0.8111450988
| 20> H 3.6533751139 -0.0362204892 0.0577527619
| 21> H 2.4304816062 1.9532635328 0.8460428823
| 22> H -0.0135554521 2.0053470167 0.7941700178
| 23> *
| 24>
| 25>                          ****END OF INPUT****

CARTESIAN COORDINATES (ANGSTROEM)
---------------------------------
  C     -2.468331    0.709103    0.978042
  C     -1.687753   -0.025011   -0.074517
  O     -2.254384   -0.681088   -0.936948
  C     -0.207961    0.018578   -0.012292
  C      0.495796   -1.089763   -0.487188
  C      1.876246   -1.114775   -0.453216
  C      2.574680   -0.021227    0.034429
  C      1.886494    1.095121    0.482542
  C      0.503778    1.117321    0.467123
  H     -1.856185    1.379565    1.567418
  H     -2.906213   -0.039440    1.637311
  H     -3.290689    1.246097    0.511059
  H     -0.066603   -1.928599   -0.870849
  H      2.407270   -1.983274   -0.811145
  H      3.653375   -0.036220    0.057753
  H      2.430482    1.953264    0.846043
  H     -0.013555    2.005347    0.794170

 Total Charge           Charge          ....    0
 Multiplicity           Mult            ....    1
 Number of Electrons    NEL             ....   64
 Basis Dimension        Dim             ....  216

ORBITAL ENERGIES
----------------

  NO   OCC          E(Eh)            E(eV)
   0   2.0000     -18.935058      -515.2491
   1   2.0000     -10.122238      -275.4401
   2   2.0000     -10.053920      -273.5811
   3   2.0000     -10.053005      -273.5562
   4   2.0000     -10.051100      -273.5043
   5   2.0000     -10.049135      -273.4509
   6   2.0000     -10.047471      -273.4056
   7   2.0000     -10.046987      -273.3924
   8   2.0000     -10.035540      -273.0809
   9   2.0000      -1.001214       -27.2444
  10   2.0000      -0.841552       -22.8998
  11   2.0000      -0.750740       -20.4287
  12   2.0000      -0.730822       -19.8867
  13   2.0000      -0.706356       -19.2209
  14   2.0000      -0.607226       -16.5235
  15   2.0000      -0.587338       -15.9823
  16   2.0000      -0.530738       -14.4421
  17   2.0000      -0.485920       -13.2226
  18   2.0000      -0.443938       -12.0802
  19   2.0000      -0.435277       -11.8445
  20   2.0000      -0.423413       -11.5216
  21   2.0000      -0.417145       -11.3511
  22   2.0000      -0.403111       -10.9692
  23   2.0000      -0.388306       -10.5663
  24   2.0000      -0.367655       -10.0044
  25   2.0000      -0.359160        -9.7733
  26   2.0000      -0.336896        -9.1674
  27   2.0000      -0.326422        -8.8824
  28   2.0000      -0.320015        -8.7080
  29   2.0000      -0.252441        -6.8693
  30   2.0000      -0.249673        -6.7939
  31   2.0000      -0.217602        -5.9212
  32   0.0000      -0.085655        -2.3308
  33   0.0000      -0.044674        -1.2156
  34   0.0000      -0.002142        -0.0583
  35   0.0000       0.070052         1.9062
  36   0.0000       0.101690         2.7671

MULLIKEN ATOMIC CHARGES
-----------------------
   0 C :   -0.516570
   1 C :    0.266885
   2 O :   -0.348500
   3 C :    0.134392
   4 C :   -0.168051
   5 C :   -0.153432
   6 C :   -0.120393
   7 C :   -0.160033
   8 C :   -0.204676
   9 H :    0.146937
  10 H :    0.179442
  11 H :    0.179494
  12 H :    0.177190
  13 H :    0.149020
  14 H :    0.149571
  15 H :    0.147937
  16 H :    0.140786
Sum of atomic charges:   -0.0000000

LOEWDIN ATOMIC CHARGES
----------------------
   0 C :   -0.379491
   1 C :    0.240472
   2 O :   -0.469068
   3 C :   -0.075213
   4 C :   -0.104120
   5 C :   -0.157802
   6 C :   -0.145942
   7 C :   -0.160747
   8 C :   -0.139796
   9 H :    0.159172
  10 H :    0.185461
  11 H :    0.180162
  12 H :    0.188094
  13 H :    0.170026
  14 H :    0.169091
  15 H :    0.169045
  16 H :    0.170657

  Mayer bond orders larger than 0.100000
B(  0-C ,  1-C ) :   0.9229 B(  0-C ,  9-H ) :   0.9692 B(  0-C , 10-H ) :   0.9435
B(  0-C , 11-H ) :   0.9675 B(  1-C ,  2-O ) :   1.9265 B(  1-C ,  3-C ) :   0.9044
B(  2-O ,  3-C ) :  -0.1359 B(  3-C ,  4-C ) :   1.4084 B(  3-C ,  8-C ) :   1.3776
B(  4-C ,  5-C ) :   1.4056 B(  4-C , 12-H ) :   0.9497 B(  5-C ,  6-C ) :   1.3937
B(  5-C , 13-H ) :   0.9536 B(  6-C ,  7-C ) :   1.4214 B(  6-C , 14-H ) :   0.9465
B(  7-C ,  8-C ) :   1.4380 B(  7-C , 15-H ) :   0.9491 B(  8-C , 16-H ) :   0.9354

Dispersion correction           -0.005621991
FINAL SINGLE POINT ENERGY      -384.794994444366

DIPOLE MOMENT
-------------

Method             : SCF
Type of density    : Electron Density
Multiplicity       :   1
Irrep              :   0
Energy             :  -384.7945027476944801 Eh
Relativity type    :
Basis              : AO
                                X                 Y                 Z
Electronic contribution:      0.474747444      -1.900137912      -2.704824226
Nuclear contribution   :      0.302356067       2.426092896       3.487145631
                        -----------------------------------------
Total Dipole Moment    :      0.777103512       0.525954984       0.782321405
                        -----------------------------------------
Magnitude (a.u.)       :      1.221697710
Magnitude (Debye)      :      3.105308795

Rotational constants in cm-1:             0.124220             0.040320             0.031583
Rotational constants in MHz :          3724.011003          1208.766918           946.839259

                             ****ORCA TERMINATED NORMALLY****
TOTAL RUN TIME: 0 days 0 hours 0 minutes 32 seconds 4 msec
