                         Program Version 6.0.0  -   RELEASE  -
|  1> ! r2scan-3c def2/J RI DEFGRID2 scfconv6 printgap
|  2> %output
|  3>     printlevel normal
|  4> end
|  5> %cpcm
|  6>     smd true
|  7>     smdsolvent "water"
|  8> end
|  9> * xyz 0 1
| 10> C -2.4683313917 0.7091026834 0.9780422913
| 11> C -1.687753257 -0.0250110209 -0.0745172956
| 12> O -2.2543838319 -0.6810880881 -0.9369476571
| 13> C -0.2079606135 0.0185784629 -0.0122916314
| 14> C 0.4957957105 -1.0897631222 -0.4871875602
| 15> C 1.8762456915 -1.1147752013 -0.4532164286
| 16> C 2.5746799772 -0.0212265218 0.0344287412
| 17> C 1.8864938747 1.095120796 0.4825419571
| 18> C 0.5037781753 1.1173210068 0.4671228653
| 19> H -1.856185406 1.3795653315 1.5674181295
| 20> H -2.9062128891 -0.0394403264 1.6373108286
| 21> H -3.2906888901 1.2460968055 0.5110591393
| 22> H -0.0666031897 -1.9285991416 -0.8708486392
| 23> H 2.4072700934 -1.983274022 -0.8111450988
| 24> H 3.6533751139 -0.0362204892 0.0577527619
| 25> H 2.4304816062 1.9532635328 0.8460428823
| 26> H -0.0135554521 2.0053470167 0.7941700178
| 27> *
| 28>
| 29>                          ****END OF INPUT****

CARTESIAN COORDINATES (ANGSTROEM)
---------------------------------
  C     -2.468331    0.709103    0.978042
  C     -1.687753   -0.025011   -0.074517
  O     -2.254384   -0.681088   -0.936948
  C     -0.207961    0.018578   -0.012292
  C      0.495796   -1.089763   -0.487188
  C      1.876246   -1.114775   -0.453216
  C      2.574680   -0.021227    0.034429
  C      1.886494    1.095121    0.482542
  C      0.503778    1.117321    0.467123
  H     -1.856185    1.379565    1.567418
  H     -2.906213   -0.039440    1.637311
  H     -3.290689    1.246097    0.511059
  H     -0.066603   -1.928599   -0.870849
  H      2.407270   -1.983274   -0.811145
  H      3.653375   -0.036220    0.057753
  H      2.430482    1.953264    0.846043
  H     -0.013555    2.005347    0.794170

 Total Charge           Charge          ....    0
 Multiplicity           Mult            ....    1
 Number of Electrons    NEL             ....   64
 Basis Dimension        Dim             ....  216

ORBITAL ENERGIES
----------------

  NO   OCC          E(Eh)            E(eV)
   0   2.0000     -18.947261      -515.5812
   1   2.0000     -10.130355      -275.6610
   2   2.0000     -10.050642      -273.4919
   3   2.0000     -10.046146      -273.3695
   4   2.0000     -10.044108      -273.3141
   5   2.0000     -10.043067      -273.2857
   6   2.0000     -10.040104      -273.2051
   7   2.0000     -10.040063      -273.2040
   8   2.0000     -10.025033      -272.7950
   9   2.0000      -1.015117       -27.6227
  10   2.0000      -0.837224       -22.7820
  11   2.0000      -0.746419       -20.3111
  12   2.0000      -0.724902       -19.7256
  13   2.0000      -0.699288       -19.0286
  14   2.0000      -0.602422       -16.3927
  15   2.0000      -0.580182       -15.7876
  16   2.0000      -0.525490       -14.2993
  17   2.0000      -0.481627       -13.1057
  18   2.0000      -0.439496       -11.9593
  19   2.0000      -0.434247       -11.8165
  20   2.0000      -0.416971       -11.3463
  21   2.0000      -0.413590       -11.2544
  22   2.0000      -0.395439       -10.7604
  23   2.0000      -0.392100       -10.6696
  24   2.0000      -0.361910        -9.8481
  25   2.0000      -0.353046        -9.6069
  26   2.0000      -0.333891        -9.0856
  27   2.0000      -0.325702        -8.8628
  28   2.0000      -0.314014        -8.5448
  29   2.0000      -0.249559        -6.7908
  30   2.0000      -0.248144        -6.7523
  31   2.0000      -0.230736        -6.2787
  32   0.0000      -0.087484        -2.3806
  33   0.0000      -0.040054        -1.0899
  34   0.0000      -0.001438        -0.0391
  35   0.0000       0.082355         2.2410
  36   0.0000       0.111473         3.0333

MULLIKEN ATOMIC CHARGES
-----------------------
   0 C :   -0.551354
   1 C :    0.324800
   2 O :   -0.449974
   3 C :    0.102650
   4 C :   -0.197081
   5 C :   -0.198489
   6 C :   -0.136257
   7 C :   -0.197913
   8 C :   -0.196634
   9 H :    0.176945
  10 H :    0.204812
  11 H :    0.193584
  12 H :    0.192750
  13 H :    0.182702
  14 H :    0.185257
  15 H :    0.183062
  16 H :    0.181140
Sum of atomic charges:   -0.0000000

LOEWDIN ATOMIC CHARGES
----------------------
   0 C :   -0.376326
   1 C :    0.255611
   2 O :   -0.544840
   3 C :   -0.087910
   4 C :   -0.118611
   5 C :   -0.163269
   6 C :   -0.144369
   7 C :   -0.163405
   8 C :   -0.132247
   9 H :    0.172552
  10 H :    0.195543
  11 H :    0.186219
  12 H :    0.190752
  13 H :    0.181477
  14 H :    0.181272
  15 H :    0.181380
  16 H :    0.186170

  Mayer bond orders larger than 0.100000
B(  0-C ,  1-C ) :   0.9330 B(  0-C ,  9-H ) :   0.9581 B(  0-C , 10-H ) :   0.9339
B(  0-C , 11-H ) :   0.9565 B(  1-C ,  2-O ) :   1.8521 B(  1-C ,  3-C ) :   0.9207
B(  2-O ,  3-C ) :  -0.1254 B(  3-C ,  4-C ) :   1.3381 B(  3-C ,  8-C ) :   1.3676
B(  4-C ,  5-C ) :   1.3949 B(  4-C , 12-H ) :   0.9559 B(  5-C ,  6-C ) :   1.3676
B(  5-C , 13-H ) :   0.9589 B(  6-C ,  7-C ) :   1.3850 B(  6-C , 14-H ) :   0.9489
B(  7-C ,  8-C ) :   1.4123 B(  7-C , 15-H ) :   0.9570 B(  8-C , 16-H ) :   0.9371

Dispersion correction           -0.005621991
FINAL SINGLE POINT ENERGY      -384.803579848633

DIPOLE MOMENT
-------------

Method             : SCF
Type of density    : Electron Density
Multiplicity       :   1
Irrep              :   0
Energy             :  -384.8030881519619015 Eh
Relativity type    :
Basis              : AO
                                X                 Y                 Z
Electronic contribution:      0.847279707      -1.570628480      -2.292619937
Nuclear contribution   :      0.302356067       2.426092896       3.487145631
                        -----------------------------------------
Total Dipole Moment    :      1.149635774       0.855464415       1.194525694
                        -----------------------------------------
Magnitude (a.u.)       :      1.865575893
Magnitude (Debye)      :      4.741917073

Rotational constants in cm-1:             0.124220             0.040320             0.031583
Rotational constants in MHz :          3724.011003          1208.766918           946.839259

                             ****ORCA TERMINATED NORMALLY****
TOTAL RUN TIME: 0 days 0 hours 0 minutes 33 seconds 658 msec
