                         Program Version 6.0.0  -   RELEASE  -
|  1> ! wb97x-v def2-tzvp def2/J RIJCOSX DEFGRID2 scfconv7 GCP(DFT/TZ) printgap
|  2> %output
|  3>     printlevel normal
|  4> end
|  5> * xyz 0 1
|  6> C -4.2720925848681464e-05 0.988382276209856 -1.0921166274821957e-05
|  7> Br -1.6311823235919432 -0.0876372925816947 -9.06266958755775e-05
|  8> Br 1.631239588353758 -0.08766291246743252 7.449437448291317e-05
|  9> H -0.0008068672890419998 1.589561800554143 0.9049807136642747
| 10> H -0.00038688415914918547 1.5905410371909927 -0.9043503543797294
| 11> *
| 12>
| 13>                          ****END OF INPUT****

CARTESIAN COORDINATES (ANGSTROEM)
---------------------------------
  C     -0.000043    0.988382   -0.000011
  Br    -1.631182   -0.087637   -0.000091
  Br     1.631240   -0.087663    0.000074
  H     -0.000807    1.589562    0.904981
  H     -0.000387    1.590541   -0.904350

 Total Charge           Charge          ....    0
 Multiplicity           Mult            ....    1
 Number of Electrons    NEL             ....   78
 Basis Dimension        Dim             ....  139

ORBITAL ENERGIES
----------------

  NO   OCC          E(Eh)            E(eV)
   0   2.0000    -494.734377    -13462.4068
   1   2.0000    -494.734341    -13462.4058
   2   2.0000     -66.903938     -1820.5487
   3   2.0000     -66.903900     -1820.5477
   4   2.0000     -60.960865     -1658.8295
   5   2.0000     -60.960753     -1658.8264
   6   2.0000     -60.959126     -1658.7821
   7   2.0000     -60.959104     -1658.7816
   8   2.0000     -60.959069     -1658.7806
   9   2.0000     -60.959060     -1658.7804
  10   2.0000     -12.170050      -331.1639
  11   2.0000     -10.655850      -289.9604
  12   2.0000     -10.655739      -289.9574
  13   2.0000      -8.436656      -229.5731
  14   2.0000      -8.435276      -229.5355
  15   2.0000      -8.428949      -229.3634
  16   2.0000      -8.428573      -229.3531
  17   2.0000      -8.428320      -229.3463
  18   2.0000      -8.428192      -229.3428
  19   2.0000      -4.421178      -120.3064
  20   2.0000      -4.421018      -120.3020
  21   2.0000      -4.418279      -120.2275
  22   2.0000      -4.418226      -120.2260
  23   2.0000      -4.418098      -120.2226
  24   2.0000      -4.417980      -120.2193
  25   2.0000      -4.410180      -120.0071
  26   2.0000      -4.410164      -120.0067
  27   2.0000      -4.410149      -120.0063
  28   2.0000      -4.410132      -120.0058
  29   2.0000      -1.376770       -37.4638
  30   2.0000      -1.327859       -36.1329
  31   2.0000      -1.169143       -31.8140
  32   2.0000      -0.921067       -25.0635
  33   2.0000      -0.873641       -23.7730
  34   2.0000      -0.863228       -23.4896
  35   2.0000      -0.742039       -20.1919
  36   2.0000      -0.741717       -20.1831
  37   2.0000      -0.731423       -19.9030
  38   2.0000      -0.729065       -19.8389
  39   0.0000      -0.338462        -9.2100
  40   0.0000      -0.277119        -7.5408
  41   0.0000      -0.020778        -0.5654
  42   0.0000      -0.003253        -0.0885
  43   0.0000       0.086088         2.3426

MULLIKEN ATOMIC CHARGES
-----------------------
   0 C :   -0.211798
   1 Br:   -0.058821
   2 Br:   -0.058704
   3 H :    0.164651
   4 H :    0.164672
Sum of atomic charges:   -0.0000000

LOEWDIN ATOMIC CHARGES
----------------------
   0 C :   -0.679127
   1 Br:    0.228336
   2 Br:    0.228362
   3 H :    0.111217
   4 H :    0.111211

  Mayer bond orders larger than 0.100000
B(  0-C ,  1-Br) :   1.0962 B(  0-C ,  2-Br) :   1.0962 B(  0-C ,  3-H ) :   0.9576
B(  0-C ,  4-H ) :   0.9576

FINAL SINGLE POINT ENERGY     -5187.138029137831

DIPOLE MOMENT
-------------

Method             : SCF
Type of density    : Electron Density
Multiplicity       :   1
Irrep              :   0
Energy             : -5187.1458691895313677 Eh
Relativity type    :
Basis              : AO
                                X                 Y                 Z
Electronic contribution:      0.001479584      -4.093810602      -0.000524412
Nuclear contribution   :     -0.001377083       4.713968847       0.000665813
                        -----------------------------------------
Total Dipole Moment    :      0.000102501       0.620158246       0.000141401
                        -----------------------------------------
Magnitude (a.u.)       :      0.620158270
Magnitude (Debye)      :      1.576317051

Rotational constants in cm-1:             0.855651             0.039493             0.038031
Rotational constants in MHz :         25651.786589          1183.964332          1140.154402

                             ****ORCA TERMINATED NORMALLY****
TOTAL RUN TIME: 0 days 0 hours 0 minutes 43 seconds 84 msec
