                         Program Version 6.0.0  -   RELEASE  -
|  1> ! wb97x-v def2-tzvp def2/J RIJCOSX DEFGRID2 scfconv7 GCP(DFT/TZ) printgap
|  2> %output
|  3>     printlevel normal
|  4> end
|  5> %cpcm
|  6>     smd true
|  7>     smdsolvent "water"
|  8> end
|  9> * xyz 0 1
| 10> C -4.2720925848681464e-05 0.988382276209856 -1.0921166274821957e-05
| 11> Br -1.6311823235919432 -0.0876372925816947 -9.06266958755775e-05
| 12> Br 1.631239588353758 -0.08766291246743252 7.449437448291317e-05
| 13> H -0.0008068672890419998 1.589561800554143 0.9049807136642747
| 14> H -0.00038688415914918547 1.5905410371909927 -0.9043503543797294
| 15> *
| 16>
| 17>                          ****END OF INPUT****

CARTESIAN COORDINATES (ANGSTROEM)
---------------------------------
  C     -0.000043    0.988382   -0.000011
  Br    -1.631182   -0.087637   -0.000091
  Br     1.631240   -0.087663    0.000074
  H     -0.000807    1.589562    0.904981
  H     -0.000387    1.590541   -0.904350

 Total Charge           Charge          ....    0
 Multiplicity           Mult            ....    1
 Number of Electrons    NEL             ....   78
 Basis Dimension        Dim             ....  139

ORBITAL ENERGIES
----------------

  NO   OCC          E(Eh)            E(eV)
   0   2.0000    -494.729639    -13462.2779
   1   2.0000    -494.729603    -13462.2769
   2   2.0000     -66.899261     -1820.4214
   3   2.0000     -66.899223     -1820.4204
   4   2.0000     -60.956151     -1658.7012
   5   2.0000     -60.956039     -1658.6981
   6   2.0000     -60.954479     -1658.6557
   7   2.0000     -60.954450     -1658.6549
   8   2.0000     -60.954414     -1658.6539
   9   2.0000     -60.954414     -1658.6539
  10   2.0000     -12.158336      -330.8451
  11   2.0000     -10.651213      -289.8342
  12   2.0000     -10.651104      -289.8313
  13   2.0000      -8.431893      -229.4435
  14   2.0000      -8.430505      -229.4057
  15   2.0000      -8.424447      -229.2409
  16   2.0000      -8.424057      -229.2303
  17   2.0000      -8.423805      -229.2234
  18   2.0000      -8.423684      -229.2201
  19   2.0000      -4.416375      -120.1757
  20   2.0000      -4.416213      -120.1713
  21   2.0000      -4.413583      -120.0997
  22   2.0000      -4.413529      -120.0982
  23   2.0000      -4.413402      -120.0948
  24   2.0000      -4.413275      -120.0913
  25   2.0000      -4.405738      -119.8862
  26   2.0000      -4.405721      -119.8858
  27   2.0000      -4.405707      -119.8854
  28   2.0000      -4.405690      -119.8849
  29   2.0000      -1.370570       -37.2951
  30   2.0000      -1.323279       -36.0082
  31   2.0000      -1.158422       -31.5223
  32   2.0000      -0.907992       -24.7077
  33   2.0000      -0.864640       -23.5280
  34   2.0000      -0.856705       -23.3121
  35   2.0000      -0.737542       -20.0695
  36   2.0000      -0.737463       -20.0674
  37   2.0000      -0.727467       -19.7954
  38   2.0000      -0.723882       -19.6978
  39   0.0000      -0.331157        -9.0112
  40   0.0000      -0.268271        -7.3000
  41   0.0000      -0.003661        -0.0996
  42   0.0000       0.014548         0.3959
  43   0.0000       0.091022         2.4768

MULLIKEN ATOMIC CHARGES
-----------------------
   0 C :   -0.230226
   1 Br:   -0.085208
   2 Br:   -0.085089
   3 H :    0.200229
   4 H :    0.200293
Sum of atomic charges:   -0.0000000

LOEWDIN ATOMIC CHARGES
----------------------
   0 C :   -0.665283
   1 Br:    0.210607
   2 Br:    0.210637
   3 H :    0.122016
   4 H :    0.122024

  Mayer bond orders larger than 0.100000
B(  0-C ,  1-Br) :   1.0790 B(  0-C ,  2-Br) :   1.0789 B(  0-C ,  3-H ) :   0.9479
B(  0-C ,  4-H ) :   0.9478

FINAL SINGLE POINT ENERGY     -5187.142085665036

DIPOLE MOMENT
-------------

Method             : SCF
Type of density    : Electron Density
Multiplicity       :   1
Irrep              :   0
Energy             : -5187.1499257167361066 Eh
Relativity type    :
Basis              : AO
                                X                 Y                 Z
Electronic contribution:      0.001462626      -3.871785047      -0.000508406
Nuclear contribution   :     -0.001377083       4.713968847       0.000665813
                        -----------------------------------------
Total Dipole Moment    :      0.000085543       0.842183800       0.000157408
                        -----------------------------------------
Magnitude (a.u.)       :      0.842183819
Magnitude (Debye)      :      2.140661148

Rotational constants in cm-1:             0.855651             0.039493             0.038031
Rotational constants in MHz :         25651.786589          1183.964332          1140.154402

                             ****ORCA TERMINATED NORMALLY****
TOTAL RUN TIME: 0 days 0 hours 0 minutes 50 seconds 972 msec
