                         Program Version 6.0.0  -   RELEASE  -
|  1> ! wb97x-v def2-tzvp def2/J RIJCOSX DEFGRID2 scfconv7 GCP(DFT/TZ) printgap
|  2> %output
|  3>     printlevel normal
|  4> end
|  5> * xyz 0 1
|  6> C -2.816288159905242 1.4086456444810658 -0.09575192364840279
|  7> C -2.384225294441222 -0.04441427442829362 0.0478162021710836
|  8> C -0.8934192862067446 -0.2991068437709991 0.046028929492704485
|  9> C -0.42817249179305317 -1.618276783188134 0.15552378541781384
| 10> C 0.9344988995568234 -1.8880418666969274 0.1585901302950516
| 11> C 1.867470566681227 -0.857509265398825 0.05217860726842159
| 12> C 1.4047790128635085 0.45027476255891924 -0.05994737853629155
| 13> C 0.03732624365774749 0.7326878635922467 -0.06115117686333689
| 14> O 2.262950140853351 1.5251141924572693 -0.17595394952297297
| 15> H -2.4384676150019096 2.0257427916110213 0.725934603785486
| 16> H -3.908090145355093 1.4756220918214742 -0.08689961583695886
| 17> H -2.463479403819688 1.8439214900423737 -1.0364565754975215
| 18> H -2.83017909693004 -0.6398274953662869 -0.759165282915445
| 19> H -2.797938347084049 -0.45779702088964747 0.9767504348530431
| 20> H -1.143230352168644 -2.432018335334134 0.23754370831245497
| 21> H 1.283849043466099 -2.912713597432267 0.24389866787621212
| 22> H 2.934498391405614 -1.061407376026554 0.0521500954233483
| 23> H -0.27729510256874207 1.7667821036854043 -0.1497563667512335
| 24> H 3.174325277260145 1.2005808149930564 -0.17786435115321733
| 25> *
| 26>
| 27>                          ****END OF INPUT****

CARTESIAN COORDINATES (ANGSTROEM)
---------------------------------
  C     -2.816288    1.408646   -0.095752
  C     -2.384225   -0.044414    0.047816
  C     -0.893419   -0.299107    0.046029
  C     -0.428172   -1.618277    0.155524
  C      0.934499   -1.888042    0.158590
  C      1.867471   -0.857509    0.052179
  C      1.404779    0.450275   -0.059947
  C      0.037326    0.732688   -0.061151
  O      2.262950    1.525114   -0.175954
  H     -2.438468    2.025743    0.725935
  H     -3.908090    1.475622   -0.086900
  H     -2.463479    1.843921   -1.036457
  H     -2.830179   -0.639827   -0.759165
  H     -2.797938   -0.457797    0.976750
  H     -1.143230   -2.432018    0.237544
  H      1.283849   -2.912714    0.243899
  H      2.934498   -1.061407    0.052150
  H     -0.277295    1.766782   -0.149756
  H      3.174325    1.200581   -0.177864

 Total Charge           Charge          ....    0
 Multiplicity           Mult            ....    1
 Number of Electrons    NEL             ....   66
 Basis Dimension        Dim             ....  339

ORBITAL ENERGIES
----------------

  NO   OCC          E(Eh)            E(eV)
   0   2.0000     -21.700706      -590.5062
   1   2.0000     -12.111543      -329.5719
   2   2.0000     -12.060734      -328.1893
   3   2.0000     -12.053926      -328.0040
   4   2.0000     -12.049903      -327.8945
   5   2.0000     -12.046883      -327.8123
   6   2.0000     -12.040945      -327.6508
   7   2.0000     -12.039223      -327.6039
   8   2.0000     -12.037595      -327.5596
   9   2.0000      -1.712526       -46.6002
  10   2.0000      -1.384720       -37.6801
  11   2.0000      -1.305742       -35.5311
  12   2.0000      -1.276496       -34.7352
  13   2.0000      -1.241910       -33.7941
  14   2.0000      -1.152340       -31.3568
  15   2.0000      -1.135702       -30.9040
  16   2.0000      -1.090771       -29.6814
  17   2.0000      -1.037334       -28.2273
  18   2.0000      -1.002168       -27.2704
  19   2.0000      -0.948258       -25.8034
  20   2.0000      -0.944227       -25.6937
  21   2.0000      -0.938725       -25.5440
  22   2.0000      -0.894407       -24.3380
  23   2.0000      -0.881018       -23.9737
  24   2.0000      -0.873227       -23.7617
  25   2.0000      -0.834058       -22.6959
  26   2.0000      -0.832642       -22.6573
  27   2.0000      -0.806393       -21.9431
  28   2.0000      -0.787343       -21.4247
  29   2.0000      -0.785721       -21.3806
  30   2.0000      -0.753976       -20.5167
  31   2.0000      -0.636438       -17.3184
  32   2.0000      -0.631375       -17.1806
  33   0.0000      -0.243220        -6.6184
  34   0.0000      -0.236643        -6.4394
  35   0.0000      -0.144775        -3.9395
  36   0.0000      -0.070605        -1.9213
  37   0.0000      -0.065576        -1.7844

MULLIKEN ATOMIC CHARGES
-----------------------
   0 C :   -0.365181
   1 C :   -0.151376
   2 C :    0.178818
   3 C :   -0.249070
   4 C :   -0.106273
   5 C :   -0.223666
   6 C :    0.231548
   7 C :   -0.267465
   8 O :   -0.392043
   9 H :    0.118126
  10 H :    0.121027
  11 H :    0.118811
  12 H :    0.106142
  13 H :    0.105856
  14 H :    0.111582
  15 H :    0.117061
  16 H :    0.106046
  17 H :    0.128324
  18 H :    0.311735
Sum of atomic charges:    0.0000000

LOEWDIN ATOMIC CHARGES
----------------------
   0 C :   -0.302936
   1 C :   -0.241180
   2 C :   -0.135779
   3 C :   -0.134568
   4 C :   -0.137131
   5 C :   -0.155878
   6 C :   -0.256276
   7 C :   -0.100212
   8 O :    0.060086
   9 H :    0.119135
  10 H :    0.118709
  11 H :    0.119316
  12 H :    0.143930
  13 H :    0.144044
  14 H :    0.142787
  15 H :    0.142466
  16 H :    0.138003
  17 H :    0.151644
  18 H :    0.183840

  Mayer bond orders larger than 0.100000
B(  0-C ,  1-C ) :   1.0033 B(  0-C ,  9-H ) :   0.9786 B(  0-C , 10-H ) :   0.9808
B(  0-C , 11-H ) :   0.9793 B(  1-C ,  2-C ) :   0.9490 B(  1-C , 12-H ) :   0.9671
B(  1-C , 13-H ) :   0.9642 B(  2-C ,  3-C ) :   1.3473 B(  2-C ,  7-C ) :   1.4021
B(  3-C ,  4-C ) :   1.4809 B(  3-C , 14-H ) :   0.9824 B(  4-C ,  5-C ) :   1.3969
B(  4-C , 15-H ) :   0.9675 B(  5-C ,  6-C ) :   1.3904 B(  5-C , 16-H ) :   0.9613
B(  6-C ,  7-C ) :   1.4210 B(  6-C ,  8-O ) :   1.1836 B(  7-C , 17-H ) :   0.9596
B(  8-O , 18-H ) :   0.8911

FINAL SINGLE POINT ENERGY      -386.117941356405

DIPOLE MOMENT
-------------

Method             : SCF
Type of density    : Electron Density
Multiplicity       :   1
Irrep              :   0
Energy             :  -386.1290644271048791 Eh
Relativity type    :
Basis              : AO
                                X                 Y                 Z
Electronic contribution:      8.087274320      -1.141697507       0.006586852
Nuclear contribution   :     -7.932967879       0.796546852       0.011658339
                        -----------------------------------------
Total Dipole Moment    :      0.154306441      -0.345150655       0.018245191
                        -----------------------------------------
Magnitude (a.u.)       :      0.378513328
Magnitude (Debye)      :      0.962104421

Rotational constants in cm-1:             0.090366             0.041648             0.028813
Rotational constants in MHz :          2709.102997          1248.573995           863.792580

                             ****ORCA TERMINATED NORMALLY****
TOTAL RUN TIME: 0 days 0 hours 3 minutes 47 seconds 901 msec
