                         Program Version 6.0.0  -   RELEASE  -
|  1> ! wb97x-v def2-tzvp def2/J RIJCOSX DEFGRID2 scfconv7 GCP(DFT/TZ) printgap
|  2> %output
|  3>     printlevel normal
|  4> end
|  5> %cpcm
|  6>     smd true
|  7>     smdsolvent "water"
|  8> end
|  9> * xyz 0 1
| 10> C -2.816288159905242 1.4086456444810658 -0.09575192364840279
| 11> C -2.384225294441222 -0.04441427442829362 0.0478162021710836
| 12> C -0.8934192862067446 -0.2991068437709991 0.046028929492704485
| 13> C -0.42817249179305317 -1.618276783188134 0.15552378541781384
| 14> C 0.9344988995568234 -1.8880418666969274 0.1585901302950516
| 15> C 1.867470566681227 -0.857509265398825 0.05217860726842159
| 16> C 1.4047790128635085 0.45027476255891924 -0.05994737853629155
| 17> C 0.03732624365774749 0.7326878635922467 -0.06115117686333689
| 18> O 2.262950140853351 1.5251141924572693 -0.17595394952297297
| 19> H -2.4384676150019096 2.0257427916110213 0.725934603785486
| 20> H -3.908090145355093 1.4756220918214742 -0.08689961583695886
| 21> H -2.463479403819688 1.8439214900423737 -1.0364565754975215
| 22> H -2.83017909693004 -0.6398274953662869 -0.759165282915445
| 23> H -2.797938347084049 -0.45779702088964747 0.9767504348530431
| 24> H -1.143230352168644 -2.432018335334134 0.23754370831245497
| 25> H 1.283849043466099 -2.912713597432267 0.24389866787621212
| 26> H 2.934498391405614 -1.061407376026554 0.0521500954233483
| 27> H -0.27729510256874207 1.7667821036854043 -0.1497563667512335
| 28> H 3.174325277260145 1.2005808149930564 -0.17786435115321733
| 29> *
| 30>
| 31>                          ****END OF INPUT****

CARTESIAN COORDINATES (ANGSTROEM)
---------------------------------
  C     -2.816288    1.408646   -0.095752
  C     -2.384225   -0.044414    0.047816
  C     -0.893419   -0.299107    0.046029
  C     -0.428172   -1.618277    0.155524
  C      0.934499   -1.888042    0.158590
  C      1.867471   -0.857509    0.052179
  C      1.404779    0.450275   -0.059947
  C      0.037326    0.732688   -0.061151
  O      2.262950    1.525114   -0.175954
  H     -2.438468    2.025743    0.725935
  H     -3.908090    1.475622   -0.086900
  H     -2.463479    1.843921   -1.036457
  H     -2.830179   -0.639827   -0.759165
  H     -2.797938   -0.457797    0.976750
  H     -1.143230   -2.432018    0.237544
  H      1.283849   -2.912714    0.243899
  H      2.934498   -1.061407    0.052150
  H     -0.277295    1.766782   -0.149756
  H      3.174325    1.200581   -0.177864

 Total Charge           Charge          ....    0
 Multiplicity           Mult            ....    1
 Number of Electrons    NEL             ....   66
 Basis Dimension        Dim             ....  339

ORBITAL ENERGIES
----------------

  NO   OCC          E(Eh)            E(eV)
   0   2.0000     -21.700045      -590.4882
   1   2.0000     -12.111949      -329.5829
   2   2.0000     -12.060337      -328.1784
   3   2.0000     -12.051588      -327.9404
   4   2.0000     -12.043386      -327.7172
   5   2.0000     -12.041584      -327.6682
   6   2.0000     -12.040951      -327.6509
   7   2.0000     -12.037783      -327.5647
   8   2.0000     -12.027674      -327.2896
   9   2.0000      -1.712306       -46.5942
  10   2.0000      -1.385082       -37.6900
  11   2.0000      -1.302218       -35.4352
  12   2.0000      -1.276868       -34.7453
  13   2.0000      -1.236559       -33.6485
  14   2.0000      -1.150825       -31.3155
  15   2.0000      -1.132158       -30.8076
  16   2.0000      -1.087384       -29.5892
  17   2.0000      -1.034929       -28.1619
  18   2.0000      -1.004202       -27.3257
  19   2.0000      -0.946572       -25.7575
  20   2.0000      -0.945178       -25.7196
  21   2.0000      -0.938430       -25.5360
  22   2.0000      -0.889084       -24.1932
  23   2.0000      -0.877563       -23.8797
  24   2.0000      -0.864870       -23.5343
  25   2.0000      -0.828718       -22.5506
  26   2.0000      -0.826760       -22.4973
  27   2.0000      -0.802003       -21.8236
  28   2.0000      -0.780354       -21.2345
  29   2.0000      -0.778951       -21.1963
  30   2.0000      -0.751771       -20.4567
  31   2.0000      -0.638174       -17.3656
  32   2.0000      -0.631993       -17.1974
  33   0.0000      -0.244242        -6.6462
  34   0.0000      -0.237341        -6.4584
  35   0.0000      -0.143430        -3.9029
  36   0.0000      -0.070321        -1.9135
  37   0.0000      -0.037207        -1.0125

MULLIKEN ATOMIC CHARGES
-----------------------
   0 C :   -0.399342
   1 C :   -0.150092
   2 C :    0.137594
   3 C :   -0.298239
   4 C :   -0.132711
   5 C :   -0.288687
   6 C :    0.255168
   7 C :   -0.312089
   8 O :   -0.471810
   9 H :    0.128024
  10 H :    0.138756
  11 H :    0.128229
  12 H :    0.123106
  13 H :    0.122523
  14 H :    0.154164
  15 H :    0.162523
  16 H :    0.168315
  17 H :    0.157293
  18 H :    0.377273
Sum of atomic charges:    0.0000000

LOEWDIN ATOMIC CHARGES
----------------------
   0 C :   -0.306417
   1 C :   -0.240269
   2 C :   -0.144215
   3 C :   -0.144739
   4 C :   -0.147249
   5 C :   -0.154436
   6 C :   -0.268931
   7 C :   -0.114573
   8 O :    0.034373
   9 H :    0.121068
  10 H :    0.121880
  11 H :    0.121091
  12 H :    0.148823
  13 H :    0.148865
  14 H :    0.151757
  15 H :    0.152297
  16 H :    0.154218
  17 H :    0.157275
  18 H :    0.209183

  Mayer bond orders larger than 0.100000
B(  0-C ,  1-C ) :   1.0003 B(  0-C ,  9-H ) :   0.9755 B(  0-C , 10-H ) :   0.9775
B(  0-C , 11-H ) :   0.9764 B(  1-C ,  2-C ) :   0.9590 B(  1-C , 12-H ) :   0.9632
B(  1-C , 13-H ) :   0.9601 B(  2-C ,  3-C ) :   1.3282 B(  2-C ,  7-C ) :   1.4000
B(  3-C ,  4-C ) :   1.4489 B(  3-C , 14-H ) :   0.9871 B(  4-C ,  5-C ) :   1.3536
B(  4-C , 15-H ) :   0.9704 B(  5-C ,  6-C ) :   1.3886 B(  5-C , 16-H ) :   0.9701
B(  6-C ,  7-C ) :   1.3924 B(  6-C ,  8-O ) :   1.1419 B(  7-C , 17-H ) :   0.9663
B(  8-O , 18-H ) :   0.8500

FINAL SINGLE POINT ENERGY      -386.126763267522

DIPOLE MOMENT
-------------

Method             : SCF
Type of density    : Electron Density
Multiplicity       :   1
Irrep              :   0
Energy             :  -386.1378863382220743 Eh
Relativity type    :
Basis              : AO
                                X                 Y                 Z
Electronic contribution:      8.185807526      -1.319527474       0.017127416
Nuclear contribution   :     -7.932967879       0.796546852       0.011658339
                        -----------------------------------------
Total Dipole Moment    :      0.252839648      -0.522980622       0.028785755
                        -----------------------------------------
Magnitude (a.u.)       :      0.581605741
Magnitude (Debye)      :      1.478324310

Rotational constants in cm-1:             0.090366             0.041648             0.028813
Rotational constants in MHz :          2709.102997          1248.573995           863.792580

                             ****ORCA TERMINATED NORMALLY****
TOTAL RUN TIME: 0 days 0 hours 3 minutes 55 seconds 968 msec
