                         Program Version 6.0.0  -   RELEASE  -
|  1> ! pbe def2-sv(p) def2/J RI DEFGRID1 loosescf d4 GCP(DFT/SV(P)) printgap
|  2> %output
|  3>     printlevel normal
|  4> end
|  5> * xyz 0 1
|  6> C -3.6331184578 0.2373294641 -0.0011099984
|  7> C -2.1438865489 0.0686193656 0.001048992
|  8> C -1.5564100519 -1.1878874572 -0.0002419819
|  9> C -0.1791282322 -1.3271748395 -0.0008443803
| 10> C 0.6539580212 -0.2173252003 -0.0001838673
| 11> C 0.0637678736 1.0418250174 0.0013141968
| 12> C -1.3101153056 1.1817166651 0.0018794469
| 13> C 2.1542516794 -0.3815713841 -0.0009166051
| 14> C 2.7704245433 0.2307055422 1.2592294157
| 15> C 2.7696468401 0.2346504871 -1.2595181721
| 16> H -4.1330290264 -0.7269300033 0.0338727006
| 17> H -3.9486674213 0.8268374981 0.8581765658
| 18> H -3.9516985299 0.7628138482 -0.9002503098
| 19> H -2.18070727 -2.0703138996 -0.0007090999
| 20> H 0.2537586644 -2.3180353305 -0.0017338669
| 21> H 0.6825100322 1.9270724662 0.0021889699
| 22> H -1.7473249099 2.1702808661 0.0030977571
| 23> H 2.3776967688 -1.4545187146 -0.0026805899
| 24> H 2.600266053 1.3038576574 1.2891245227
| 25> H 3.8429450175 0.0516815341 1.2776811411
| 26> H 2.3285651026 -0.211810266 2.1492683509
| 27> H 2.5986061063 1.3077524679 -1.2864882564
| 28> H 2.327934127 -0.2058171724 -2.1506722835
| 29> H 3.8423215628 0.0565737463 -1.2787055296
| 30> *
| 31>
| 32>                          ****END OF INPUT****

CARTESIAN COORDINATES (ANGSTROEM)
---------------------------------
  C     -3.633118    0.237329   -0.001110
  C     -2.143887    0.068619    0.001049
  C     -1.556410   -1.187887   -0.000242
  C     -0.179128   -1.327175   -0.000844
  C      0.653958   -0.217325   -0.000184
  C      0.063768    1.041825    0.001314
  C     -1.310115    1.181717    0.001879
  C      2.154252   -0.381571   -0.000917
  C      2.770425    0.230706    1.259229
  C      2.769647    0.234650   -1.259518
  H     -4.133029   -0.726930    0.033873
  H     -3.948667    0.826837    0.858177
  H     -3.951699    0.762814   -0.900250
  H     -2.180707   -2.070314   -0.000709
  H      0.253759   -2.318035   -0.001734
  H      0.682510    1.927072    0.002189
  H     -1.747325    2.170281    0.003098
  H      2.377697   -1.454519   -0.002681
  H      2.600266    1.303858    1.289125
  H      3.842945    0.051682    1.277681
  H      2.328565   -0.211810    2.149268
  H      2.598606    1.307752   -1.286488
  H      2.327934   -0.205817   -2.150672
  H      3.842322    0.056574   -1.278706

 Total Charge           Charge          ....    0
 Multiplicity           Mult            ....    1
 Number of Electrons    NEL             ....   74
 Basis Dimension        Dim             ....  168

ORBITAL ENERGIES
----------------

  NO   OCC          E(Eh)            E(eV)
   0   2.0000      -9.897688      -269.3298
   1   2.0000      -9.893915      -269.2271
   2   2.0000      -9.893006      -269.2024
   3   2.0000      -9.884387      -268.9678
   4   2.0000      -9.882705      -268.9221
   5   2.0000      -9.882460      -268.9154
   6   2.0000      -9.881899      -268.9001
   7   2.0000      -9.879288      -268.8291
   8   2.0000      -9.873939      -268.6836
   9   2.0000      -9.873926      -268.6832
  10   2.0000      -0.776762       -21.1368
  11   2.0000      -0.727292       -19.7906
  12   2.0000      -0.676708       -18.4142
  13   2.0000      -0.662931       -18.0393
  14   2.0000      -0.610523       -16.6132
  15   2.0000      -0.607458       -16.5298
  16   2.0000      -0.544837       -14.8258
  17   2.0000      -0.529708       -14.4141
  18   2.0000      -0.498461       -13.5638
  19   2.0000      -0.444673       -12.1002
  20   2.0000      -0.420209       -11.4345
  21   2.0000      -0.396820       -10.7980
  22   2.0000      -0.384810       -10.4712
  23   2.0000      -0.379188       -10.3182
  24   2.0000      -0.376488       -10.2448
  25   2.0000      -0.367381        -9.9970
  26   2.0000      -0.366320        -9.9681
  27   2.0000      -0.341635        -9.2964
  28   2.0000      -0.338044        -9.1986
  29   2.0000      -0.321811        -8.7569
  30   2.0000      -0.311785        -8.4841
  31   2.0000      -0.299769        -8.1571
  32   2.0000      -0.293573        -7.9885
  33   2.0000      -0.281252        -7.6533
  34   2.0000      -0.277177        -7.5424
  35   2.0000      -0.222587        -6.0569
  36   2.0000      -0.206494        -5.6190
  37   0.0000      -0.029240        -0.7957
  38   0.0000      -0.024972        -0.6795
  39   0.0000       0.040146         1.0924
  40   0.0000       0.053661         1.4602
  41   0.0000       0.059863         1.6289

MULLIKEN ATOMIC CHARGES
-----------------------
   0 C :   -0.222536
   1 C :    0.057979
   2 C :   -0.114273
   3 C :   -0.125662
   4 C :    0.141188
   5 C :   -0.134397
   6 C :   -0.108883
   7 C :   -0.139163
   8 C :   -0.241612
   9 C :   -0.241673
  10 H :    0.099294
  11 H :    0.113152
  12 H :    0.114396
  13 H :    0.031607
  14 H :    0.032949
  15 H :    0.042469
  16 H :    0.030248
  17 H :    0.060983
  18 H :    0.098437
  19 H :    0.097961
  20 H :    0.105567
  21 H :    0.098453
  22 H :    0.105553
  23 H :    0.097963
Sum of atomic charges:   -0.0000000

LOEWDIN ATOMIC CHARGES
----------------------
   0 C :   -0.323329
   1 C :   -0.052461
   2 C :   -0.125615
   3 C :   -0.124645
   4 C :   -0.033307
   5 C :   -0.119048
   6 C :   -0.121043
   7 C :   -0.141922
   8 C :   -0.323573
   9 C :   -0.323572
  10 H :    0.123065
  11 H :    0.130774
  12 H :    0.131439
  13 H :    0.119400
  14 H :    0.119504
  15 H :    0.119351
  16 H :    0.119164
  17 H :    0.116438
  18 H :    0.116374
  19 H :    0.117117
  20 H :    0.121202
  21 H :    0.116371
  22 H :    0.121196
  23 H :    0.117120

  Mayer bond orders larger than 0.100000
B(  0-C ,  1-C ) :   1.0961 B(  0-C , 10-H ) :   0.9459 B(  0-C , 11-H ) :   0.9371
B(  0-C , 12-H ) :   0.9362 B(  1-C ,  2-C ) :   1.4050 B(  1-C ,  6-C ) :   1.3679
B(  2-C ,  3-C ) :   1.3433 B(  2-C , 13-H ) :   0.9589 B(  3-C ,  4-C ) :   1.4027
B(  3-C , 14-H ) :   0.9598 B(  4-C ,  5-C ) :   1.3509 B(  4-C ,  7-C ) :   1.0111
B(  5-C ,  6-C ) :   1.3847 B(  5-C , 15-H ) :   0.9586 B(  6-C , 16-H ) :   0.9670
B(  7-C ,  8-C ) :   1.1025 B(  7-C ,  9-C ) :   1.1025 B(  7-C , 17-H ) :   0.8893
B(  8-C , 18-H ) :   0.9469 B(  8-C , 19-H ) :   0.9486 B(  8-C , 20-H ) :   0.9519
B(  9-C , 21-H ) :   0.9468 B(  9-C , 22-H ) :   0.9519 B(  9-C , 23-H ) :   0.9486

Dispersion correction           -0.024655420
FINAL SINGLE POINT ENERGY      -388.586354037819

DIPOLE MOMENT
-------------

Method             : SCF
Type of density    : Electron Density
Multiplicity       :   1
Irrep              :   0
Energy             :  -388.6547401893625988 Eh
Relativity type    :
Basis              : AO
                                X                 Y                 Z
Electronic contribution:     -4.609942333      -1.307253779       0.004527077
Nuclear contribution   :      4.590614702       1.331675650      -0.007345777
                        -----------------------------------------
Total Dipole Moment    :     -0.019327632       0.024421870      -0.002818700
                        -----------------------------------------
Magnitude (a.u.)       :      0.031271875
Magnitude (Debye)      :      0.079486790

Rotational constants in cm-1:             0.109765             0.024725             0.023279
Rotational constants in MHz :          3290.663619           741.236558           697.889467

                             ****ORCA TERMINATED NORMALLY****
TOTAL RUN TIME: 0 days 0 hours 0 minutes 11 seconds 516 msec
