                         Program Version 6.0.0  -   RELEASE  -
|  1> ! r2scan-3c def2/J RI DEFGRID2 scfconv6 printgap
|  2> %output
|  3>     printlevel normal
|  4> end
|  5> * xyz 0 1
|  6> C 2.05731445 0.0256187596 -0.3562269326
|  7> C 0.76404349 0.1032113352 0.449301467
|  8> H 1.0086148864 0.1827116621 1.5172933466
|  9> C -0.1499997884 1.25982377 0.003876622
| 10> C -1.542556737 0.6305856121 -0.0010028997
| 11> C -1.2120003333 -0.8148403944 -0.3646592618
| 12> O 0.0031988144 -1.1047664895 0.3064335181
| 13> H 2.6323848022 0.936102726 -0.2156174409
| 14> H 2.6464878866 -0.8253298571 -0.0256365289
| 15> H 1.8330555524 -0.0986751139 -1.4128921559
| 16> H -0.0749154513 2.1128501461 0.6729514379
| 17> H 0.1238702604 1.5758929643 -1.0030283634
| 18> H -1.983972888 0.6696614664 0.9948945986
| 19> H -2.2184900392 1.0935356029 -0.7143629633
| 20> H -1.9523569329 -1.5402360503 -0.025510561
| 21> H -1.0740462847 -0.9219145412 -1.4502297673
| 22> *
| 23>
| 24>                          ****END OF INPUT****

CARTESIAN COORDINATES (ANGSTROEM)
---------------------------------
  C      2.057314    0.025619   -0.356227
  C      0.764043    0.103211    0.449301
  H      1.008615    0.182712    1.517293
  C     -0.150000    1.259824    0.003877
  C     -1.542557    0.630586   -0.001003
  C     -1.212000   -0.814840   -0.364659
  O      0.003199   -1.104766    0.306434
  H      2.632385    0.936103   -0.215617
  H      2.646488   -0.825330   -0.025637
  H      1.833056   -0.098675   -1.412892
  H     -0.074915    2.112850    0.672951
  H      0.123870    1.575893   -1.003028
  H     -1.983973    0.669661    0.994895
  H     -2.218490    1.093536   -0.714363
  H     -1.952357   -1.540236   -0.025511
  H     -1.074046   -0.921915   -1.450230

 Total Charge           Charge          ....    0
 Multiplicity           Mult            ....    1
 Number of Electrons    NEL             ....   48
 Basis Dimension        Dim             ....  169

ORBITAL ENERGIES
----------------

  NO   OCC          E(Eh)            E(eV)
   0   2.0000     -18.939563      -515.3717
   1   2.0000     -10.077033      -274.2100
   2   2.0000     -10.069989      -274.0183
   3   2.0000     -10.030986      -272.9570
   4   2.0000     -10.030701      -272.9492
   5   2.0000     -10.015534      -272.5365
   6   2.0000      -0.992323       -27.0025
   7   2.0000      -0.752313       -20.4715
   8   2.0000      -0.728526       -19.8242
   9   2.0000      -0.640190       -17.4205
  10   2.0000      -0.563457       -15.3324
  11   2.0000      -0.531845       -14.4722
  12   2.0000      -0.472322       -12.8525
  13   2.0000      -0.450549       -12.2601
  14   2.0000      -0.400651       -10.9023
  15   2.0000      -0.395194       -10.7538
  16   2.0000      -0.381213       -10.3733
  17   2.0000      -0.360331        -9.8051
  18   2.0000      -0.338749        -9.2178
  19   2.0000      -0.321876        -8.7587
  20   2.0000      -0.304048        -8.2736
  21   2.0000      -0.298365        -8.1189
  22   2.0000      -0.279648        -7.6096
  23   2.0000      -0.209046        -5.6884
  24   0.0000       0.078367         2.1325
  25   0.0000       0.101622         2.7653
  26   0.0000       0.109432         2.9778
  27   0.0000       0.112439         3.0596
  28   0.0000       0.127171         3.4605

MULLIKEN ATOMIC CHARGES
-----------------------
   0 C :   -0.490063
   1 C :    0.059527
   2 H :    0.143930
   3 C :   -0.353662
   4 C :   -0.277108
   5 C :   -0.170558
   6 O :   -0.260114
   7 H :    0.141979
   8 H :    0.155816
   9 H :    0.146550
  10 H :    0.153572
  11 H :    0.167552
  12 H :    0.156445
  13 H :    0.152303
  14 H :    0.140165
  15 H :    0.133666
Sum of atomic charges:    0.0000000

LOEWDIN ATOMIC CHARGES
----------------------
   0 C :   -0.391281
   1 C :    0.057253
   2 H :    0.170535
   3 C :   -0.272894
   4 C :   -0.272326
   5 C :    0.017260
   6 O :   -0.759477
   7 H :    0.156347
   8 H :    0.159687
   9 H :    0.156080
  10 H :    0.163833
  11 H :    0.161957
  12 H :    0.160319
  13 H :    0.160750
  14 H :    0.174573
  15 H :    0.157385

  Mayer bond orders larger than 0.100000
B(  0-C ,  1-C ) :   0.9468 B(  0-C ,  7-H ) :   0.9702 B(  0-C ,  8-H ) :   0.9727
B(  0-C ,  9-H ) :   0.9844 B(  1-C ,  2-H ) :   0.9259 B(  1-C ,  3-C ) :   0.9248
B(  1-C ,  6-O ) :   0.8746 B(  3-C ,  4-C ) :   0.8992 B(  3-C , 10-H ) :   0.9543
B(  3-C , 11-H ) :   1.0010 B(  4-C ,  5-C ) :   0.9361 B(  4-C , 12-H ) :   0.9701
B(  4-C , 13-H ) :   0.9770 B(  5-C ,  6-O ) :   0.8934 B(  5-C , 14-H ) :   0.9568
B(  5-C , 15-H ) :   0.9693

Dispersion correction           -0.003873647
FINAL SINGLE POINT ENERGY      -271.690122966199

DIPOLE MOMENT
-------------

Method             : SCF
Type of density    : Electron Density
Multiplicity       :   1
Irrep              :   0
Energy             :  -271.6951655713262426 Eh
Relativity type    :
Basis              : AO
                                X                 Y                 Z
Electronic contribution:     -1.069316953      -2.372328425       1.396026842
Nuclear contribution   :      0.882522330       2.971272875      -1.554815087
                        -----------------------------------------
Total Dipole Moment    :     -0.186794623       0.598944451      -0.158788245
                        -----------------------------------------
Magnitude (a.u.)       :      0.647178795
Magnitude (Debye)      :      1.644997766

Rotational constants in cm-1:             0.206763             0.109975             0.083556
Rotational constants in MHz :          6198.596449          3296.952735          2504.934809

                             ****ORCA TERMINATED NORMALLY****
TOTAL RUN TIME: 0 days 0 hours 0 minutes 19 seconds 817 msec
