                         Program Version 6.0.0  -   RELEASE  -
|  1> ! r2scan-3c def2/J RI DEFGRID2 scfconv6 printgap
|  2> %output
|  3>     printlevel normal
|  4> end
|  5> %cpcm
|  6>     smd true
|  7>     smdsolvent "water"
|  8> end
|  9> * xyz 0 1
| 10> C 2.05731445 0.0256187596 -0.3562269326
| 11> C 0.76404349 0.1032113352 0.449301467
| 12> H 1.0086148864 0.1827116621 1.5172933466
| 13> C -0.1499997884 1.25982377 0.003876622
| 14> C -1.542556737 0.6305856121 -0.0010028997
| 15> C -1.2120003333 -0.8148403944 -0.3646592618
| 16> O 0.0031988144 -1.1047664895 0.3064335181
| 17> H 2.6323848022 0.936102726 -0.2156174409
| 18> H 2.6464878866 -0.8253298571 -0.0256365289
| 19> H 1.8330555524 -0.0986751139 -1.4128921559
| 20> H -0.0749154513 2.1128501461 0.6729514379
| 21> H 0.1238702604 1.5758929643 -1.0030283634
| 22> H -1.983972888 0.6696614664 0.9948945986
| 23> H -2.2184900392 1.0935356029 -0.7143629633
| 24> H -1.9523569329 -1.5402360503 -0.025510561
| 25> H -1.0740462847 -0.9219145412 -1.4502297673
| 26> *
| 27>
| 28>                          ****END OF INPUT****

CARTESIAN COORDINATES (ANGSTROEM)
---------------------------------
  C      2.057314    0.025619   -0.356227
  C      0.764043    0.103211    0.449301
  H      1.008615    0.182712    1.517293
  C     -0.150000    1.259824    0.003877
  C     -1.542557    0.630586   -0.001003
  C     -1.212000   -0.814840   -0.364659
  O      0.003199   -1.104766    0.306434
  H      2.632385    0.936103   -0.215617
  H      2.646488   -0.825330   -0.025637
  H      1.833056   -0.098675   -1.412892
  H     -0.074915    2.112850    0.672951
  H      0.123870    1.575893   -1.003028
  H     -1.983973    0.669661    0.994895
  H     -2.218490    1.093536   -0.714363
  H     -1.952357   -1.540236   -0.025511
  H     -1.074046   -0.921915   -1.450230

 Total Charge           Charge          ....    0
 Multiplicity           Mult            ....    1
 Number of Electrons    NEL             ....   48
 Basis Dimension        Dim             ....  169

ORBITAL ENERGIES
----------------

  NO   OCC          E(Eh)            E(eV)
   0   2.0000     -18.948592      -515.6174
   1   2.0000     -10.073982      -274.1270
   2   2.0000     -10.066112      -273.9128
   3   2.0000     -10.021430      -272.6970
   4   2.0000     -10.020560      -272.6733
   5   2.0000     -10.010016      -272.3864
   6   2.0000      -0.999053       -27.1856
   7   2.0000      -0.745897       -20.2969
   8   2.0000      -0.724623       -19.7180
   9   2.0000      -0.635402       -17.2902
  10   2.0000      -0.557693       -15.1756
  11   2.0000      -0.527547       -14.3553
  12   2.0000      -0.468684       -12.7535
  13   2.0000      -0.447614       -12.1802
  14   2.0000      -0.395109       -10.7515
  15   2.0000      -0.390608       -10.6290
  16   2.0000      -0.377236       -10.2651
  17   2.0000      -0.355563        -9.6754
  18   2.0000      -0.333381        -9.0718
  19   2.0000      -0.316290        -8.6067
  20   2.0000      -0.299167        -8.1407
  21   2.0000      -0.289928        -7.8893
  22   2.0000      -0.283404        -7.7118
  23   2.0000      -0.215537        -5.8651
  24   0.0000       0.081783         2.2254
  25   0.0000       0.109009         2.9663
  26   0.0000       0.114726         3.1219
  27   0.0000       0.121024         3.2932
  28   0.0000       0.136209         3.7064

MULLIKEN ATOMIC CHARGES
-----------------------
   0 C :   -0.537524
   1 C :    0.071710
   2 H :    0.154736
   3 C :   -0.355696
   4 C :   -0.301560
   5 C :   -0.173196
   6 O :   -0.339294
   7 H :    0.162913
   8 H :    0.161319
   9 H :    0.163043
  10 H :    0.170052
  11 H :    0.180751
  12 H :    0.170236
  13 H :    0.170201
  14 H :    0.154648
  15 H :    0.147660
Sum of atomic charges:    0.0000000

LOEWDIN ATOMIC CHARGES
----------------------
   0 C :   -0.398836
   1 C :    0.057990
   2 H :    0.175371
   3 C :   -0.270339
   4 C :   -0.270660
   5 C :    0.015880
   6 O :   -0.805978
   7 H :    0.164782
   8 H :    0.158964
   9 H :    0.160215
  10 H :    0.170098
  11 H :    0.167120
  12 H :    0.163516
  13 H :    0.168160
  14 H :    0.179334
  15 H :    0.164382

  Mayer bond orders larger than 0.100000
B(  0-C ,  1-C ) :   0.9375 B(  0-C ,  7-H ) :   0.9646 B(  0-C ,  8-H ) :   0.9713
B(  0-C ,  9-H ) :   0.9803 B(  1-C ,  2-H ) :   0.9238 B(  1-C ,  3-C ) :   0.9236
B(  1-C ,  6-O ) :   0.8675 B(  3-C ,  4-C ) :   0.8852 B(  3-C , 10-H ) :   0.9509
B(  3-C , 11-H ) :   0.9952 B(  4-C ,  5-C ) :   0.9348 B(  4-C , 12-H ) :   0.9738
B(  4-C , 13-H ) :   0.9711 B(  5-C ,  6-O ) :   0.8870 B(  5-C , 14-H ) :   0.9527
B(  5-C , 15-H ) :   0.9614

Dispersion correction           -0.003873647
FINAL SINGLE POINT ENERGY      -271.694167712395

DIPOLE MOMENT
-------------

Method             : SCF
Type of density    : Electron Density
Multiplicity       :   1
Irrep              :   0
Energy             :  -271.6992103175222155 Eh
Relativity type    :
Basis              : AO
                                X                 Y                 Z
Electronic contribution:     -1.147689324      -2.068849096       1.302229233
Nuclear contribution   :      0.882522330       2.971272875      -1.554815087
                        -----------------------------------------
Total Dipole Moment    :     -0.265166994       0.902423780      -0.252585853
                        -----------------------------------------
Magnitude (a.u.)       :      0.973900316
Magnitude (Debye)      :      2.475457876

Rotational constants in cm-1:             0.206763             0.109975             0.083556
Rotational constants in MHz :          6198.596449          3296.952735          2504.934809

                             ****ORCA TERMINATED NORMALLY****
TOTAL RUN TIME: 0 days 0 hours 0 minutes 23 seconds 413 msec
