                         Program Version 6.0.0  -   RELEASE  -
|  1> ! r2scan-3c def2/J RI DEFGRID2 scfconv6 printgap
|  2> %output
|  3>     printlevel normal
|  4> end
|  5> * xyz 0 1
|  6> C -2.1693264728 0.0067950078 -3.41588e-05
|  7> C -0.8774223152 0.8175427558 7.31168e-05
|  8> C 0.4266799116 -0.0017235035 1.03416e-05
|  9> C 1.6012987913 0.9836481039 1.65188e-05
| 10> C 0.5206052785 -0.8801889157 -1.2499067629
| 11> C 0.5205937001 -0.8802847619 1.2498529214
| 12> H -2.2390476734 -0.6218019528 0.8833859084
| 13> H -3.0222023193 0.6821386628 -0.0005262117
| 14> H -2.2385289568 -0.6224671508 -0.883021197
| 15> H -0.8738798673 1.4652850465 0.8805035229
| 16> H -0.8738605398 1.4653628999 -0.8802944727
| 17> H 1.5677752905 1.6196927399 -0.8818127562
| 18> H 2.5483489958 0.4488237065 -0.0001477727
| 19> H 1.5679830634 1.6195032973 0.8819784192
| 20> H 0.4005933468 -0.2799114962 -2.1491123498
| 21> H 1.4915481189 -1.368839745 -1.2915357163
| 22> H -0.244046105 -1.6521575007 -1.2435787719
| 23> H 1.4912812967 -1.3694674261 1.2911188733
| 24> H -0.2444897036 -1.6518367334 1.2437716491
| 25> H 0.4012431397 -0.2799815676 2.1491281468
| 26> *
| 27>
| 28>                          ****END OF INPUT****

CARTESIAN COORDINATES (ANGSTROEM)
---------------------------------
  C     -2.169326    0.006795   -0.000034
  C     -0.877422    0.817543    0.000073
  C      0.426680   -0.001724    0.000010
  C      1.601299    0.983648    0.000017
  C      0.520605   -0.880189   -1.249907
  C      0.520594   -0.880285    1.249853
  H     -2.239048   -0.621802    0.883386
  H     -3.022202    0.682139   -0.000526
  H     -2.238529   -0.622467   -0.883021
  H     -0.873880    1.465285    0.880504
  H     -0.873861    1.465363   -0.880294
  H      1.567775    1.619693   -0.881813
  H      2.548349    0.448824   -0.000148
  H      1.567983    1.619503    0.881978
  H      0.400593   -0.279911   -2.149112
  H      1.491548   -1.368840   -1.291536
  H     -0.244046   -1.652158   -1.243579
  H      1.491281   -1.369467    1.291119
  H     -0.244490   -1.651837    1.243772
  H      0.401243   -0.279982    2.149128

 Total Charge           Charge          ....    0
 Multiplicity           Mult            ....    1
 Number of Electrons    NEL             ....   50
 Basis Dimension        Dim             ....  184

ORBITAL ENERGIES
----------------

  NO   OCC          E(Eh)            E(eV)
   0   2.0000     -10.038068      -273.1497
   1   2.0000     -10.020224      -272.6642
   2   2.0000     -10.013417      -272.4789
   3   2.0000     -10.011503      -272.4269
   4   2.0000     -10.011500      -272.4268
   5   2.0000     -10.011073      -272.4151
   6   2.0000      -0.790588       -21.5130
   7   2.0000      -0.702923       -19.1275
   8   2.0000      -0.649261       -17.6673
   9   2.0000      -0.648873       -17.6567
  10   2.0000      -0.587480       -15.9862
  11   2.0000      -0.492216       -13.3939
  12   2.0000      -0.427201       -11.6247
  13   2.0000      -0.425902       -11.5894
  14   2.0000      -0.405138       -11.0244
  15   2.0000      -0.391332       -10.6487
  16   2.0000      -0.366957        -9.9854
  17   2.0000      -0.349244        -9.5034
  18   2.0000      -0.344665        -9.3788
  19   2.0000      -0.329955        -8.9785
  20   2.0000      -0.324200        -8.8219
  21   2.0000      -0.310807        -8.4575
  22   2.0000      -0.284298        -7.7361
  23   2.0000      -0.281938        -7.6719
  24   2.0000      -0.276988        -7.5372
  25   0.0000       0.077699         2.1143
  26   0.0000       0.110608         3.0098
  27   0.0000       0.123259         3.3541
  28   0.0000       0.132814         3.6141
  29   0.0000       0.138344         3.7645

MULLIKEN ATOMIC CHARGES
-----------------------
   0 C :   -0.512914
   1 C :   -0.233379
   2 C :    0.128366
   3 C :   -0.482744
   4 C :   -0.511818
   5 C :   -0.511760
   6 H :    0.153299
   7 H :    0.146927
   8 H :    0.153303
   9 H :    0.146319
  10 H :    0.146320
  11 H :    0.151659
  12 H :    0.153382
  13 H :    0.151665
  14 H :    0.153604
  15 H :    0.150402
  16 H :    0.156687
  17 H :    0.150393
  18 H :    0.156699
  19 H :    0.153590
Sum of atomic charges:   -0.0000000

LOEWDIN ATOMIC CHARGES
----------------------
   0 C :   -0.422478
   1 C :   -0.305105
   2 C :   -0.218026
   3 C :   -0.409403
   4 C :   -0.408706
   5 C :   -0.408695
   6 H :    0.151089
   7 H :    0.151616
   8 H :    0.151098
   9 H :    0.157006
  10 H :    0.157000
  11 H :    0.155989
  12 H :    0.154524
  13 H :    0.155985
  14 H :    0.157002
  15 H :    0.156841
  16 H :    0.155210
  17 H :    0.156839
  18 H :    0.155215
  19 H :    0.156998

  Mayer bond orders larger than 0.100000
B(  0-C ,  1-C ) :   0.8872 B(  0-C ,  6-H ) :   0.9837 B(  0-C ,  7-H ) :   0.9712
B(  0-C ,  8-H ) :   0.9837 B(  1-C ,  2-C ) :   0.8977 B(  1-C ,  9-H ) :   0.9740
B(  1-C , 10-H ) :   0.9740 B(  2-C ,  3-C ) :   0.9337 B(  2-C ,  4-C ) :   0.9208
B(  2-C ,  5-C ) :   0.9209 B(  3-C , 11-H ) :   0.9781 B(  3-C , 12-H ) :   0.9793
B(  3-C , 13-H ) :   0.9781 B(  4-C , 14-H ) :   0.9748 B(  4-C , 15-H ) :   0.9720
B(  4-C , 16-H ) :   0.9768 B(  5-C , 17-H ) :   0.9720 B(  5-C , 18-H ) :   0.9768
B(  5-C , 19-H ) :   0.9748

Dispersion correction           -0.005389107
FINAL SINGLE POINT ENERGY      -236.991098312472

DIPOLE MOMENT
-------------

Method             : SCF
Type of density    : Electron Density
Multiplicity       :   1
Irrep              :   0
Energy             :  -236.9956322262354433 Eh
Relativity type    :
Basis              : AO
                                X                 Y                 Z
Electronic contribution:      0.236229078       0.531456716       0.000130324
Nuclear contribution   :     -0.250753514      -0.511914419      -0.000133902
                        -----------------------------------------
Total Dipole Moment    :     -0.014524436       0.019542298      -0.000003578
                        -----------------------------------------
Magnitude (a.u.)       :      0.024348730
Magnitude (Debye)      :      0.061889554

Rotational constants in cm-1:             0.144339             0.084049             0.083737
Rotational constants in MHz :          4327.163901          2519.735126          2510.357552

                             ****ORCA TERMINATED NORMALLY****
TOTAL RUN TIME: 0 days 0 hours 0 minutes 17 seconds 60 msec
