                         Program Version 6.0.0  -   RELEASE  -
|  1> ! r2scan-3c def2/J RI DEFGRID2 scfconv6 printgap
|  2> %output
|  3>     printlevel normal
|  4> end
|  5> %cpcm
|  6>     smd true
|  7>     smdsolvent "water"
|  8> end
|  9> * xyz 0 1
| 10> C -2.1693264728 0.0067950078 -3.41588e-05
| 11> C -0.8774223152 0.8175427558 7.31168e-05
| 12> C 0.4266799116 -0.0017235035 1.03416e-05
| 13> C 1.6012987913 0.9836481039 1.65188e-05
| 14> C 0.5206052785 -0.8801889157 -1.2499067629
| 15> C 0.5205937001 -0.8802847619 1.2498529214
| 16> H -2.2390476734 -0.6218019528 0.8833859084
| 17> H -3.0222023193 0.6821386628 -0.0005262117
| 18> H -2.2385289568 -0.6224671508 -0.883021197
| 19> H -0.8738798673 1.4652850465 0.8805035229
| 20> H -0.8738605398 1.4653628999 -0.8802944727
| 21> H 1.5677752905 1.6196927399 -0.8818127562
| 22> H 2.5483489958 0.4488237065 -0.0001477727
| 23> H 1.5679830634 1.6195032973 0.8819784192
| 24> H 0.4005933468 -0.2799114962 -2.1491123498
| 25> H 1.4915481189 -1.368839745 -1.2915357163
| 26> H -0.244046105 -1.6521575007 -1.2435787719
| 27> H 1.4912812967 -1.3694674261 1.2911188733
| 28> H -0.2444897036 -1.6518367334 1.2437716491
| 29> H 0.4012431397 -0.2799815676 2.1491281468
| 30> *
| 31>
| 32>                          ****END OF INPUT****

CARTESIAN COORDINATES (ANGSTROEM)
---------------------------------
  C     -2.169326    0.006795   -0.000034
  C     -0.877422    0.817543    0.000073
  C      0.426680   -0.001724    0.000010
  C      1.601299    0.983648    0.000017
  C      0.520605   -0.880189   -1.249907
  C      0.520594   -0.880285    1.249853
  H     -2.239048   -0.621802    0.883386
  H     -3.022202    0.682139   -0.000526
  H     -2.238529   -0.622467   -0.883021
  H     -0.873880    1.465285    0.880504
  H     -0.873861    1.465363   -0.880294
  H      1.567775    1.619693   -0.881813
  H      2.548349    0.448824   -0.000148
  H      1.567983    1.619503    0.881978
  H      0.400593   -0.279911   -2.149112
  H      1.491548   -1.368840   -1.291536
  H     -0.244046   -1.652158   -1.243579
  H      1.491281   -1.369467    1.291119
  H     -0.244490   -1.651837    1.243772
  H      0.401243   -0.279982    2.149128

 Total Charge           Charge          ....    0
 Multiplicity           Mult            ....    1
 Number of Electrons    NEL             ....   50
 Basis Dimension        Dim             ....  184

ORBITAL ENERGIES
----------------

  NO   OCC          E(Eh)            E(eV)
   0   2.0000     -10.030898      -272.9546
   1   2.0000     -10.012301      -272.4486
   2   2.0000     -10.005700      -272.2689
   3   2.0000     -10.003502      -272.2091
   4   2.0000     -10.003469      -272.2082
   5   2.0000     -10.003466      -272.2082
   6   2.0000      -0.782956       -21.3053
   7   2.0000      -0.695606       -18.9284
   8   2.0000      -0.641882       -17.4665
   9   2.0000      -0.641778       -17.4637
  10   2.0000      -0.580272       -15.7900
  11   2.0000      -0.485139       -13.2013
  12   2.0000      -0.419516       -11.4156
  13   2.0000      -0.418190       -11.3795
  14   2.0000      -0.397668       -10.8211
  15   2.0000      -0.383785       -10.4433
  16   2.0000      -0.359565        -9.7842
  17   2.0000      -0.341644        -9.2966
  18   2.0000      -0.336981        -9.1697
  19   2.0000      -0.322297        -8.7702
  20   2.0000      -0.316708        -8.6181
  21   2.0000      -0.303036        -8.2460
  22   2.0000      -0.276646        -7.5279
  23   2.0000      -0.274688        -7.4746
  24   2.0000      -0.269400        -7.3307
  25   0.0000       0.086308         2.3486
  26   0.0000       0.117376         3.1940
  27   0.0000       0.130381         3.5478
  28   0.0000       0.139019         3.7829
  29   0.0000       0.143411         3.9024

MULLIKEN ATOMIC CHARGES
-----------------------
   0 C :   -0.546173
   1 C :   -0.256731
   2 C :    0.184021
   3 C :   -0.535227
   4 C :   -0.558616
   5 C :   -0.558559
   6 H :    0.162719
   7 H :    0.156049
   8 H :    0.162725
   9 H :    0.155530
  10 H :    0.155531
  11 H :    0.162904
  12 H :    0.165425
  13 H :    0.162912
  14 H :    0.164290
  15 H :    0.161623
  16 H :    0.167839
  17 H :    0.161611
  18 H :    0.167848
  19 H :    0.164279
Sum of atomic charges:   -0.0000000

LOEWDIN ATOMIC CHARGES
----------------------
   0 C :   -0.430207
   1 C :   -0.307941
   2 C :   -0.213012
   3 C :   -0.418615
   4 C :   -0.417102
   5 C :   -0.417092
   6 H :    0.153460
   7 H :    0.153248
   8 H :    0.153469
   9 H :    0.158983
  10 H :    0.158977
  11 H :    0.158165
  12 H :    0.157209
  13 H :    0.158161
  14 H :    0.159321
  15 H :    0.158932
  16 H :    0.157897
  17 H :    0.158929
  18 H :    0.157901
  19 H :    0.159318

  Mayer bond orders larger than 0.100000
B(  0-C ,  1-C ) :   0.8853 B(  0-C ,  6-H ) :   0.9805 B(  0-C ,  7-H ) :   0.9695
B(  0-C ,  8-H ) :   0.9804 B(  1-C ,  2-C ) :   0.8908 B(  1-C ,  9-H ) :   0.9748
B(  1-C , 10-H ) :   0.9748 B(  2-C ,  3-C ) :   0.9168 B(  2-C ,  4-C ) :   0.9112
B(  2-C ,  5-C ) :   0.9112 B(  3-C , 11-H ) :   0.9772 B(  3-C , 12-H ) :   0.9775
B(  3-C , 13-H ) :   0.9772 B(  4-C , 14-H ) :   0.9734 B(  4-C , 15-H ) :   0.9715
B(  4-C , 16-H ) :   0.9738 B(  5-C , 17-H ) :   0.9715 B(  5-C , 18-H ) :   0.9738
B(  5-C , 19-H ) :   0.9734

Dispersion correction           -0.005389107
FINAL SINGLE POINT ENERGY      -236.987630642994

DIPOLE MOMENT
-------------

Method             : SCF
Type of density    : Electron Density
Multiplicity       :   1
Irrep              :   0
Energy             :  -236.9921645567577855 Eh
Relativity type    :
Basis              : AO
                                X                 Y                 Z
Electronic contribution:      0.231424547       0.530439078       0.000128765
Nuclear contribution   :     -0.250753514      -0.511914419      -0.000133902
                        -----------------------------------------
Total Dipole Moment    :     -0.019328967       0.018524659      -0.000005137
                        -----------------------------------------
Magnitude (a.u.)       :      0.026772598
Magnitude (Debye)      :      0.068050536

Rotational constants in cm-1:             0.144339             0.084049             0.083737
Rotational constants in MHz :          4327.163901          2519.735126          2510.357552

                             ****ORCA TERMINATED NORMALLY****
TOTAL RUN TIME: 0 days 0 hours 0 minutes 19 seconds 590 msec
