                         Program Version 6.0.0  -   RELEASE  -
|  1> ! pbe def2-sv(p) def2/J RI DEFGRID1 loosescf d4 GCP(DFT/SV(P)) printgap
|  2> %output
|  3>     printlevel normal
|  4> end
|  5> * xyz 0 1
|  6> C -2.5163826059 -0.9937272614 0.3608818498
|  7> C -1.0669871535 -0.5233765923 0.5923762834
|  8> H -0.8904551854 -0.4690328965 1.6798474571
|  9> C -0.7978982866 0.8607329676 -0.0345877282
| 10> H -0.9350406703 0.7848748298 -1.1193366511
| 11> C 0.659125648 1.2523635511 0.2320495488
| 12> H 0.8202535879 1.3486652294 1.3204920666
| 13> C 1.5873664827 0.1458308515 -0.2833426002
| 14> H 1.4995517685 0.0837686293 -1.3780333489
| 15> C 1.1651049813 -1.2141556723 0.2974451574
| 16> H 1.3319616422 -1.1936918356 1.3980185856
| 17> O -0.189119399 -1.4876372711 0.0412281728
| 18> O 1.9350837423 -2.1932739716 -0.3001151628
| 19> O 2.8976654152 0.4791010167 0.097706687
| 20> O 0.9256014615 2.4773500934 -0.3991271716
| 21> O -1.722881773 1.8144168317 0.4135568809
| 22> O -3.0185212913 -0.7188991971 -0.9184519001
| 23> H -3.1517630354 -0.5418214999 1.129641288
| 24> H -2.5343886821 -2.0801195929 0.4664711522
| 25> H 1.5069735817 -3.0560754012 -0.1873629776
| 26> H 3.5003808955 -0.2185413748 -0.1988214103
| 27> H 1.8775086684 2.6507440812 -0.3414231198
| 28> H -1.4322634794 2.1967790073 1.2533048638
| 29> H -3.178229764 0.2330004096 -0.994801478
| 30> *
| 31>
| 32>                          ****END OF INPUT****

CARTESIAN COORDINATES (ANGSTROEM)
---------------------------------
  C     -2.516383   -0.993727    0.360882
  C     -1.066987   -0.523377    0.592376
  H     -0.890455   -0.469033    1.679847
  C     -0.797898    0.860733   -0.034588
  H     -0.935041    0.784875   -1.119337
  C      0.659126    1.252364    0.232050
  H      0.820254    1.348665    1.320492
  C      1.587366    0.145831   -0.283343
  H      1.499552    0.083769   -1.378033
  C      1.165105   -1.214156    0.297445
  H      1.331962   -1.193692    1.398019
  O     -0.189119   -1.487637    0.041228
  O      1.935084   -2.193274   -0.300115
  O      2.897665    0.479101    0.097707
  O      0.925601    2.477350   -0.399127
  O     -1.722882    1.814417    0.413557
  O     -3.018521   -0.718899   -0.918452
  H     -3.151763   -0.541821    1.129641
  H     -2.534389   -2.080120    0.466471
  H      1.506974   -3.056075   -0.187363
  H      3.500381   -0.218541   -0.198821
  H      1.877509    2.650744   -0.341423
  H     -1.432263    2.196779    1.253305
  H     -3.178230    0.233000   -0.994801

 Total Charge           Charge          ....    0
 Multiplicity           Mult            ....    1
 Number of Electrons    NEL             ....   96
 Basis Dimension        Dim             ....  192

ORBITAL ENERGIES
----------------

  NO   OCC          E(Eh)            E(eV)
   0   2.0000     -18.774600      -510.8828
   1   2.0000     -18.769464      -510.7431
   2   2.0000     -18.763756      -510.5878
   3   2.0000     -18.761420      -510.5242
   4   2.0000     -18.749942      -510.2119
   5   2.0000     -18.745170      -510.0820
   6   2.0000      -9.990206      -271.8473
   7   2.0000      -9.948576      -270.7145
   8   2.0000      -9.946197      -270.6498
   9   2.0000      -9.945806      -270.6391
  10   2.0000      -9.943969      -270.5892
  11   2.0000      -9.931812      -270.2583
  12   2.0000      -0.990251       -26.9461
  13   2.0000      -0.949016       -25.8240
  14   2.0000      -0.942612       -25.6498
  15   2.0000      -0.924443       -25.1554
  16   2.0000      -0.920123       -25.0378
  17   2.0000      -0.915145       -24.9024
  18   2.0000      -0.707447       -19.2506
  19   2.0000      -0.691760       -18.8238
  20   2.0000      -0.621738       -16.9183
  21   2.0000      -0.586828       -15.9684
  22   2.0000      -0.560866       -15.2619
  23   2.0000      -0.539702       -14.6860
  24   2.0000      -0.512259       -13.9393
  25   2.0000      -0.492514       -13.4020
  26   2.0000      -0.478545       -13.0219
  27   2.0000      -0.461230       -12.5507
  28   2.0000      -0.441816       -12.0224
  29   2.0000      -0.433160       -11.7869
  30   2.0000      -0.418865       -11.3979
  31   2.0000      -0.414454       -11.2779
  32   2.0000      -0.389154       -10.5894
  33   2.0000      -0.378373       -10.2961
  34   2.0000      -0.354936        -9.6583
  35   2.0000      -0.352125        -9.5818
  36   2.0000      -0.328928        -8.9506
  37   2.0000      -0.326056        -8.8724
  38   2.0000      -0.309594        -8.4245
  39   2.0000      -0.300413        -8.1747
  40   2.0000      -0.278357        -7.5745
  41   2.0000      -0.272871        -7.4252
  42   2.0000      -0.257798        -7.0151
  43   2.0000      -0.247435        -6.7331
  44   2.0000      -0.232675        -6.3314
  45   2.0000      -0.228645        -6.2217
  46   2.0000      -0.216392        -5.8883
  47   2.0000      -0.204168        -5.5557
  48   0.0000       0.012978         0.3532
  49   0.0000       0.018245         0.4965
  50   0.0000       0.031072         0.8455
  51   0.0000       0.046376         1.2619
  52   0.0000       0.058878         1.6022

MULLIKEN ATOMIC CHARGES
-----------------------
   0 C :    0.095076
   1 C :    0.011527
   2 H :    0.035272
   3 C :    0.042690
   4 H :    0.074012
   5 C :    0.056886
   6 H :    0.039646
   7 C :    0.020563
   8 H :    0.068344
   9 C :    0.188345
  10 H :    0.032447
  11 O :   -0.307407
  12 O :   -0.392569
  13 O :   -0.425642
  14 O :   -0.406251
  15 O :   -0.413132
  16 O :   -0.434457
  17 H :    0.072021
  18 H :    0.088789
  19 H :    0.312719
  20 H :    0.314148
  21 H :    0.308379
  22 H :    0.306694
  23 H :    0.311902
Sum of atomic charges:   -0.0000000

LOEWDIN ATOMIC CHARGES
----------------------
   0 C :   -0.121572
   1 C :   -0.077418
   2 H :    0.095953
   3 C :   -0.076638
   4 H :    0.120237
   5 C :   -0.073541
   6 H :    0.094758
   7 C :   -0.090525
   8 H :    0.112243
   9 C :   -0.004497
  10 H :    0.076803
  11 O :   -0.149090
  12 O :   -0.304840
  13 O :   -0.321584
  14 O :   -0.317643
  15 O :   -0.308945
  16 O :   -0.329287
  17 H :    0.101360
  18 H :    0.119232
  19 H :    0.294304
  20 H :    0.293599
  21 H :    0.288537
  22 H :    0.290903
  23 H :    0.287651

  Mayer bond orders larger than 0.100000
B(  0-C ,  1-C ) :   1.0021 B(  0-C , 16-O ) :   1.1107 B(  0-C , 17-H ) :   0.9171
B(  0-C , 18-H ) :   0.9208 B(  1-C ,  2-H ) :   0.8660 B(  1-C ,  3-C ) :   0.9836
B(  1-C , 11-O ) :   0.9732 B(  3-C ,  4-H ) :   0.8539 B(  3-C ,  5-C ) :   1.0373
B(  3-C , 15-O ) :   1.0468 B(  5-C ,  6-H ) :   0.8683 B(  5-C ,  7-C ) :   1.0165
B(  5-C , 14-O ) :   1.1153 B(  7-C ,  8-H ) :   0.8671 B(  7-C ,  9-C ) :   0.9891
B(  7-C , 13-O ) :   1.0623 B(  9-C , 10-H ) :   0.8809 B(  9-C , 11-O ) :   1.0265
B(  9-C , 12-O ) :   1.1591 B( 12-O , 19-H ) :   0.8353 B( 13-O , 20-H ) :   0.8374
B( 14-O , 21-H ) :   0.8370 B( 15-O , 22-H ) :   0.8448 B( 16-O , 23-H ) :   0.8379

Dispersion correction           -0.023958330
FINAL SINGLE POINT ENERGY      -685.698390654942

DIPOLE MOMENT
-------------

Method             : SCF
Type of density    : Electron Density
Multiplicity       :   1
Irrep              :   0
Energy             :  -685.8282419682865338 Eh
Relativity type    :
Basis              : AO
                                X                 Y                 Z
Electronic contribution:      2.060349881       0.018528614      -1.861146745
Nuclear contribution   :     -1.475214882      -0.239787938       2.824995333
                        -----------------------------------------
Total Dipole Moment    :      0.585134999      -0.221259324       0.963848588
                        -----------------------------------------
Magnitude (a.u.)       :      1.149061685
Magnitude (Debye)      :      2.920682693

Rotational constants in cm-1:             0.041218             0.026045             0.017367
Rotational constants in MHz :          1235.692751           780.816109           520.645183

                             ****ORCA TERMINATED NORMALLY****
TOTAL RUN TIME: 0 days 0 hours 0 minutes 11 seconds 765 msec
