                         Program Version 6.0.0  -   RELEASE  -
|  1> ! pbe def2-sv(p) def2/J RI DEFGRID1 loosescf d4 GCP(DFT/SV(P)) printgap
|  2> %output
|  3>     printlevel normal
|  4> end
|  5> * xyz 0 1
|  6> C 1.8169083845 -0.4824096192 0.5069492955
|  7> C 0.8326120912 -0.3441857803 -0.6604890743
|  8> C -0.4753369618 0.2084878144 -0.1509367958
|  9> O -0.7795418494 1.3781289101 -0.2198227451
| 10> O -1.3011511195 -0.6576597692 0.4317464785
| 11> H 1.4294786703 -1.1457989471 1.2757020357
| 12> H 2.7593560898 -0.8815606148 0.1443405909
| 13> H 2.0011855603 0.4905793318 0.9558194116
| 14> H 1.2323729855 0.3551084363 -1.3942310731
| 15> H 0.674277234 -1.3123315672 -1.1361476781
| 16> H -0.9769015055 -1.5768217898 0.4187525853
| 17> *
| 18>
| 19>                          ****END OF INPUT****

CARTESIAN COORDINATES (ANGSTROEM)
---------------------------------
  C      1.816908   -0.482410    0.506949
  C      0.832612   -0.344186   -0.660489
  C     -0.475337    0.208488   -0.150937
  O     -0.779542    1.378129   -0.219823
  O     -1.301151   -0.657660    0.431746
  H      1.429479   -1.145799    1.275702
  H      2.759356   -0.881561    0.144341
  H      2.001186    0.490579    0.955819
  H      1.232373    0.355108   -1.394231
  H      0.674277   -1.312332   -1.136148
  H     -0.976902   -1.576822    0.418753

 Total Charge           Charge          ....    0
 Multiplicity           Mult            ....    1
 Number of Electrons    NEL             ....   40
 Basis Dimension        Dim             ....   82

ORBITAL ENERGIES
----------------

  NO   OCC          E(Eh)            E(eV)
   0   2.0000     -18.801010      -511.6015
   1   2.0000     -18.730448      -509.6814
   2   2.0000     -10.009573      -272.3743
   3   2.0000      -9.911334      -269.7011
   4   2.0000      -9.901400      -269.4308
   5   2.0000      -1.004147       -27.3242
   6   2.0000      -0.911729       -24.8094
   7   2.0000      -0.718573       -19.5534
   8   2.0000      -0.596437       -16.2299
   9   2.0000      -0.568221       -15.4621
  10   2.0000      -0.465409       -12.6644
  11   2.0000      -0.431244       -11.7347
  12   2.0000      -0.406992       -11.0748
  13   2.0000      -0.373613       -10.1665
  14   2.0000      -0.362183        -9.8555
  15   2.0000      -0.340472        -9.2647
  16   2.0000      -0.332149        -9.0382
  17   2.0000      -0.311950        -8.4886
  18   2.0000      -0.268503        -7.3063
  19   2.0000      -0.214786        -5.8446
  20   0.0000      -0.023916        -0.6508
  21   0.0000      -0.001021        -0.0278
  22   0.0000       0.061742         1.6801
  23   0.0000       0.075917         2.0658
  24   0.0000       0.086782         2.3615

MULLIKEN ATOMIC CHARGES
-----------------------
   0 C :   -0.292291
   1 C :   -0.230825
   2 C :    0.112096
   3 O :   -0.182403
   4 O :   -0.286913
   5 H :    0.098218
   6 H :    0.122877
   7 H :    0.129535
   8 H :    0.116926
   9 H :    0.096505
  10 H :    0.316276
Sum of atomic charges:    0.0000000

LOEWDIN ATOMIC CHARGES
----------------------
   0 C :   -0.332155
   1 C :   -0.270040
   2 C :    0.024719
   3 O :   -0.153377
   4 O :   -0.204717
   5 H :    0.114888
   6 H :    0.127007
   7 H :    0.132106
   8 H :    0.141090
   9 H :    0.121769
  10 H :    0.298710

  Mayer bond orders larger than 0.100000
B(  0-C ,  1-C ) :   1.1250 B(  0-C ,  5-H ) :   0.9547 B(  0-C ,  6-H ) :   0.9508
B(  0-C ,  7-H ) :   0.9518 B(  1-C ,  2-C ) :   1.0232 B(  1-C ,  8-H ) :   0.9078
B(  1-C ,  9-H ) :   0.9079 B(  2-C ,  3-O ) :   2.1421 B(  2-C ,  4-O ) :   1.2042
B(  4-O , 10-H ) :   0.8272

Dispersion correction           -0.006624539
FINAL SINGLE POINT ENERGY      -267.810218836315

DIPOLE MOMENT
-------------

Method             : SCF
Type of density    : Electron Density
Multiplicity       :   1
Irrep              :   0
Energy             :  -267.8540557870120438 Eh
Relativity type    :
Basis              : AO
                                X                 Y                 Z
Electronic contribution:     -5.795761333       2.371072874      -0.313212751
Nuclear contribution   :      6.648686968      -3.808443741       0.251045568
                        -----------------------------------------
Total Dipole Moment    :      0.852925636      -1.437370866      -0.062167183
                        -----------------------------------------
Magnitude (a.u.)       :      1.672537565
Magnitude (Debye)      :      4.251252638

Rotational constants in cm-1:             0.280332             0.134081             0.107469
Rotational constants in MHz :          8404.142047          4019.642888          3221.825851

                             ****ORCA TERMINATED NORMALLY****
TOTAL RUN TIME: 0 days 0 hours 0 minutes 5 seconds 122 msec
