                         Program Version 6.0.0  -   RELEASE  -
|  1> ! wb97x-v def2-tzvp def2/J RIJCOSX DEFGRID2 scfconv7 GCP(DFT/TZ) printgap
|  2> %output
|  3>     printlevel normal
|  4> end
|  5> * xyz 0 1
|  6> C 2.202719415534446 0.4933083463632697 0.12218945175093995
|  7> C 1.2303156425974198 -0.587863463805534 -0.33315370288993745
|  8> C -0.10927294660589601 -0.5791708250296477 0.376335030619436
|  9> H 0.0273835813497329 -0.5489810880937421 1.4607543927929638
| 10> C -1.01883153642719 -1.715618157427067 -0.029473053729447914
| 11> Cl -0.9949096057636512 1.0316126994292882 0.011302057429785283
| 12> H 2.3561325594157863 0.44945504247908774 1.2058200407850168
| 13> H 1.8350981468302452 1.4923514992854212 -0.12884493229062552
| 14> H 3.175203139212341 0.3620954518101043 -0.3612740308200314
| 15> H 1.6626839822602422 -1.577007281874389 -0.12875815166553878
| 16> H 1.0659626438488181 -0.5347881129910181 -1.4160609172035272
| 17> H -0.533902056717798 -2.660678423283383 0.24065675096617006
| 18> H -1.980673561600627 -1.6661437882375587 0.4864284106422667
| 19> H -1.1922091569828899 -1.7141291682737059 -1.1096775345954
| 20> *
| 21>
| 22>                          ****END OF INPUT****

CARTESIAN COORDINATES (ANGSTROEM)
---------------------------------
  C      2.202719    0.493308    0.122189
  C      1.230316   -0.587863   -0.333154
  C     -0.109273   -0.579171    0.376335
  H      0.027384   -0.548981    1.460754
  C     -1.018832   -1.715618   -0.029473
  Cl    -0.994910    1.031613    0.011302
  H      2.356133    0.449455    1.205820
  H      1.835098    1.492351   -0.128845
  H      3.175203    0.362095   -0.361274
  H      1.662684   -1.577007   -0.128758
  H      1.065963   -0.534788   -1.416061
  H     -0.533902   -2.660678    0.240657
  H     -1.980674   -1.666144    0.486428
  H     -1.192209   -1.714129   -1.109678

 Total Charge           Charge          ....    0
 Multiplicity           Mult            ....    1
 Number of Electrons    NEL             ....   50
 Basis Dimension        Dim             ....  215

ORBITAL ENERGIES
----------------

  NO   OCC          E(Eh)            E(eV)
   0   2.0000    -107.116277     -2914.7821
   1   2.0000     -12.117248      -329.7271
   2   2.0000     -12.057572      -328.1032
   3   2.0000     -12.051114      -327.9275
   4   2.0000     -12.039420      -327.6093
   5   2.0000     -11.269522      -306.6593
   6   2.0000      -9.060825      -246.5576
   7   2.0000      -9.058386      -246.4912
   8   2.0000      -9.058282      -246.4884
   9   2.0000      -1.385505       -37.7015
  10   2.0000      -1.300303       -35.3830
  11   2.0000      -1.240491       -33.7555
  12   2.0000      -1.136649       -30.9298
  13   2.0000      -1.054209       -28.6865
  14   2.0000      -0.916252       -24.9325
  15   2.0000      -0.893239       -24.3063
  16   2.0000      -0.889543       -24.2057
  17   2.0000      -0.856064       -23.2947
  18   2.0000      -0.823007       -22.3952
  19   2.0000      -0.812776       -22.1168
  20   2.0000      -0.804552       -21.8930
  21   2.0000      -0.789771       -21.4908
  22   2.0000      -0.771716       -20.9995
  23   2.0000      -0.759675       -20.6718
  24   2.0000      -0.751392       -20.4464
  25   0.0000      -0.264489        -7.1971
  26   0.0000      -0.044743        -1.2175
  27   0.0000      -0.029536        -0.8037
  28   0.0000      -0.020270        -0.5516
  29   0.0000       0.008200         0.2231

MULLIKEN ATOMIC CHARGES
-----------------------
   0 C :   -0.337918
   1 C :   -0.170089
   2 C :    0.025072
   3 H :    0.108439
   4 C :   -0.323043
   5 Cl:   -0.208187
   6 H :    0.101950
   7 H :    0.128740
   8 H :    0.115500
   9 H :    0.092491
  10 H :    0.106178
  11 H :    0.109655
  12 H :    0.131572
  13 H :    0.119640
Sum of atomic charges:   -0.0000000

LOEWDIN ATOMIC CHARGES
----------------------
   0 C :   -0.308297
   1 C :   -0.298632
   2 C :   -0.440964
   3 H :    0.138148
   4 C :   -0.306742
   5 Cl:    0.209729
   6 H :    0.117364
   7 H :    0.118861
   8 H :    0.118034
   9 H :    0.141849
  10 H :    0.138344
  11 H :    0.125001
  12 H :    0.123153
  13 H :    0.124152

  Mayer bond orders larger than 0.100000
B(  0-C ,  1-C ) :   0.9902 B(  0-C ,  6-H ) :   0.9769 B(  0-C ,  7-H ) :   0.9757
B(  0-C ,  8-H ) :   0.9809 B(  1-C ,  2-C ) :   0.9948 B(  1-C ,  9-H ) :   0.9573
B(  1-C , 10-H ) :   0.9651 B(  2-C ,  3-H ) :   0.9680 B(  2-C ,  4-C ) :   0.9947
B(  2-C ,  5-Cl) :   0.9869 B(  4-C , 11-H ) :   0.9655 B(  4-C , 12-H ) :   0.9780
B(  4-C , 13-H ) :   0.9715

FINAL SINGLE POINT ENERGY      -618.004809269970

DIPOLE MOMENT
-------------

Method             : SCF
Type of density    : Electron Density
Multiplicity       :   1
Irrep              :   0
Energy             :  -618.0144711562699058 Eh
Relativity type    :
Basis              : AO
                                X                 Y                 Z
Electronic contribution:     -6.968194559       6.686586888       0.072942540
Nuclear contribution   :      7.440411316      -7.496348839       0.043262037
                        -----------------------------------------
Total Dipole Moment    :      0.472216757      -0.809761951       0.116204577
                        -----------------------------------------
Magnitude (a.u.)       :      0.944566878
Magnitude (Debye)      :      2.400898200

Rotational constants in cm-1:             0.148972             0.103152             0.065918
Rotational constants in MHz :          4466.078410          3092.425552          1976.178624

                             ****ORCA TERMINATED NORMALLY****
TOTAL RUN TIME: 0 days 0 hours 1 minutes 5 seconds 371 msec
