                         Program Version 6.0.0  -   RELEASE  -
|  1> ! wb97x-v def2-tzvp def2/J RIJCOSX DEFGRID2 scfconv7 GCP(DFT/TZ) printgap
|  2> %output
|  3>     printlevel normal
|  4> end
|  5> %cpcm
|  6>     smd true
|  7>     smdsolvent "water"
|  8> end
|  9> * xyz 0 1
| 10> C 2.202719415534446 0.4933083463632697 0.12218945175093995
| 11> C 1.2303156425974198 -0.587863463805534 -0.33315370288993745
| 12> C -0.10927294660589601 -0.5791708250296477 0.376335030619436
| 13> H 0.0273835813497329 -0.5489810880937421 1.4607543927929638
| 14> C -1.01883153642719 -1.715618157427067 -0.029473053729447914
| 15> Cl -0.9949096057636512 1.0316126994292882 0.011302057429785283
| 16> H 2.3561325594157863 0.44945504247908774 1.2058200407850168
| 17> H 1.8350981468302452 1.4923514992854212 -0.12884493229062552
| 18> H 3.175203139212341 0.3620954518101043 -0.3612740308200314
| 19> H 1.6626839822602422 -1.577007281874389 -0.12875815166553878
| 20> H 1.0659626438488181 -0.5347881129910181 -1.4160609172035272
| 21> H -0.533902056717798 -2.660678423283383 0.24065675096617006
| 22> H -1.980673561600627 -1.6661437882375587 0.4864284106422667
| 23> H -1.1922091569828899 -1.7141291682737059 -1.1096775345954
| 24> *
| 25>
| 26>                          ****END OF INPUT****

CARTESIAN COORDINATES (ANGSTROEM)
---------------------------------
  C      2.202719    0.493308    0.122189
  C      1.230316   -0.587863   -0.333154
  C     -0.109273   -0.579171    0.376335
  H      0.027384   -0.548981    1.460754
  C     -1.018832   -1.715618   -0.029473
  Cl    -0.994910    1.031613    0.011302
  H      2.356133    0.449455    1.205820
  H      1.835098    1.492351   -0.128845
  H      3.175203    0.362095   -0.361274
  H      1.662684   -1.577007   -0.128758
  H      1.065963   -0.534788   -1.416061
  H     -0.533902   -2.660678    0.240657
  H     -1.980674   -1.666144    0.486428
  H     -1.192209   -1.714129   -1.109678

 Total Charge           Charge          ....    0
 Multiplicity           Mult            ....    1
 Number of Electrons    NEL             ....   50
 Basis Dimension        Dim             ....  215

ORBITAL ENERGIES
----------------

  NO   OCC          E(Eh)            E(eV)
   0   2.0000    -107.117191     -2914.8069
   1   2.0000     -12.106648      -329.4386
   2   2.0000     -12.042785      -327.7008
   3   2.0000     -12.035697      -327.5080
   4   2.0000     -12.027554      -327.2864
   5   2.0000     -11.270684      -306.6909
   6   2.0000      -9.061924      -246.5875
   7   2.0000      -9.059656      -246.5258
   8   2.0000      -9.059553      -246.5230
   9   2.0000      -1.383003       -37.6334
  10   2.0000      -1.290757       -35.1233
  11   2.0000      -1.227600       -33.4047
  12   2.0000      -1.123992       -30.5854
  13   2.0000      -1.041829       -28.3496
  14   2.0000      -0.904993       -24.6261
  15   2.0000      -0.881892       -23.9975
  16   2.0000      -0.877500       -23.8780
  17   2.0000      -0.843659       -22.9571
  18   2.0000      -0.811918       -22.0934
  19   2.0000      -0.799247       -21.7486
  20   2.0000      -0.792925       -21.5766
  21   2.0000      -0.781202       -21.2576
  22   2.0000      -0.761832       -20.7305
  23   2.0000      -0.758296       -20.6343
  24   2.0000      -0.747562       -20.3422
  25   0.0000      -0.257655        -7.0112
  26   0.0000      -0.032127        -0.8742
  27   0.0000      -0.012358        -0.3363
  28   0.0000      -0.007113        -0.1936
  29   0.0000       0.022123         0.6020

MULLIKEN ATOMIC CHARGES
-----------------------
   0 C :   -0.384639
   1 C :   -0.182445
   2 C :    0.038239
   3 H :    0.139345
   4 C :   -0.369985
   5 Cl:   -0.263807
   6 H :    0.123700
   7 H :    0.120230
   8 H :    0.133473
   9 H :    0.119467
  10 H :    0.116497
  11 H :    0.138149
  12 H :    0.140226
  13 H :    0.131551
Sum of atomic charges:   -0.0000000

LOEWDIN ATOMIC CHARGES
----------------------
   0 C :   -0.315517
   1 C :   -0.295804
   2 C :   -0.430524
   3 H :    0.146625
   4 C :   -0.308567
   5 Cl:    0.172945
   6 H :    0.121184
   7 H :    0.114082
   8 H :    0.121313
   9 H :    0.150838
  10 H :    0.140171
  11 H :    0.133849
  12 H :    0.123739
  13 H :    0.125666

  Mayer bond orders larger than 0.100000
B(  0-C ,  1-C ) :   0.9793 B(  0-C ,  6-H ) :   0.9760 B(  0-C ,  7-H ) :   0.9757
B(  0-C ,  8-H ) :   0.9791 B(  1-C ,  2-C ) :   0.9976 B(  1-C ,  9-H ) :   0.9543
B(  1-C , 10-H ) :   0.9638 B(  2-C ,  3-H ) :   0.9635 B(  2-C ,  4-C ) :   0.9969
B(  2-C ,  5-Cl) :   0.9294 B(  4-C , 11-H ) :   0.9628 B(  4-C , 12-H ) :   0.9745
B(  4-C , 13-H ) :   0.9679

FINAL SINGLE POINT ENERGY      -618.006630020771

DIPOLE MOMENT
-------------

Method             : SCF
Type of density    : Electron Density
Multiplicity       :   1
Irrep              :   0
Energy             :  -618.0162919070705811 Eh
Relativity type    :
Basis              : AO
                                X                 Y                 Z
Electronic contribution:     -6.796600079       6.349024840       0.153347418
Nuclear contribution   :      7.440411316      -7.496348839       0.043262037
                        -----------------------------------------
Total Dipole Moment    :      0.643811237      -1.147323999       0.196609455
                        -----------------------------------------
Magnitude (a.u.)       :      1.330225750
Magnitude (Debye)      :      3.381165151

Rotational constants in cm-1:             0.148972             0.103152             0.065918
Rotational constants in MHz :          4466.078410          3092.425552          1976.178624

                             ****ORCA TERMINATED NORMALLY****
TOTAL RUN TIME: 0 days 0 hours 1 minutes 8 seconds 356 msec
