                         Program Version 6.0.0  -   RELEASE  -
|  1> ! r2scan-3c def2/J RI DEFGRID2 scfconv6 printgap
|  2> %output
|  3>     printlevel normal
|  4> end
|  5> * xyz 0 1
|  6> C 0.4071244437 -1.287039687 5.414e-07
|  7> C 1.7584740216 -0.9776341353 6.53139e-05
|  8> N 2.2216146939 0.2626116874 -2.82561e-05
|  9> C 1.3524920809 1.2615098145 1.64399e-05
| 10> C -0.0202834323 1.0736190874 7.27019e-05
| 11> C -0.5084652609 -0.2343963664 5.16703e-05
| 12> C -1.953567098 -0.4947697025 -5.15662e-05
| 13> O -2.8125815014 0.3575645737 2.4657e-06
| 14> H 0.0714189132 -2.3116402807 -0.0001936674
| 15> H 2.5104526281 -1.754038208 -0.0005068619
| 16> H 1.7819751239 2.2533216327 -0.0002858179
| 17> H -0.7104972776 1.9023346974 -0.0005672466
| 18> H -2.2229918863 -1.5657993486 5.89078e-05
| 19> *
| 20>
| 21>                          ****END OF INPUT****

CARTESIAN COORDINATES (ANGSTROEM)
---------------------------------
  C      0.407124   -1.287040    0.000001
  C      1.758474   -0.977634    0.000065
  N      2.221615    0.262612   -0.000028
  C      1.352492    1.261510    0.000016
  C     -0.020283    1.073619    0.000073
  C     -0.508465   -0.234396    0.000052
  C     -1.953567   -0.494770   -0.000052
  O     -2.812582    0.357565    0.000002
  H      0.071419   -2.311640   -0.000194
  H      2.510453   -1.754038   -0.000507
  H      1.781975    2.253322   -0.000286
  H     -0.710497    1.902335   -0.000567
  H     -2.222992   -1.565799    0.000059

 Total Charge           Charge          ....    0
 Multiplicity           Mult            ....    1
 Number of Electrons    NEL             ....   56
 Basis Dimension        Dim             ....  187

ORBITAL ENERGIES
----------------

  NO   OCC          E(Eh)            E(eV)
   0   2.0000     -18.965041      -516.0650
   1   2.0000     -14.176100      -385.7513
   2   2.0000     -10.135373      -275.7975
   3   2.0000     -10.087595      -274.4974
   4   2.0000     -10.085788      -274.4482
   5   2.0000     -10.077665      -274.2272
   6   2.0000     -10.071364      -274.0557
   7   2.0000     -10.065327      -273.8915
   8   2.0000      -1.027892       -27.9704
   9   2.0000      -0.935508       -25.4565
  10   2.0000      -0.806536       -21.9469
  11   2.0000      -0.753983       -20.5169
  12   2.0000      -0.659688       -17.9510
  13   2.0000      -0.625543       -17.0219
  14   2.0000      -0.568029       -15.4568
  15   2.0000      -0.506649       -13.7866
  16   2.0000      -0.476877       -12.9765
  17   2.0000      -0.458397       -12.4736
  18   2.0000      -0.424642       -11.5551
  19   2.0000      -0.417498       -11.3607
  20   2.0000      -0.409986       -11.1563
  21   2.0000      -0.406972       -11.0743
  22   2.0000      -0.377661       -10.2767
  23   2.0000      -0.350202        -9.5295
  24   2.0000      -0.290455        -7.9037
  25   2.0000      -0.269318        -7.3285
  26   2.0000      -0.246720        -6.7136
  27   2.0000      -0.238831        -6.4989
  28   0.0000      -0.120278        -3.2729
  29   0.0000      -0.061407        -1.6710
  30   0.0000      -0.015679        -0.4266
  31   0.0000       0.073646         2.0040
  32   0.0000       0.088597         2.4108

MULLIKEN ATOMIC CHARGES
-----------------------
   0 C :   -0.151890
   1 C :   -0.100041
   2 N :   -0.158051
   3 C :   -0.111505
   4 C :   -0.090938
   5 C :    0.205178
   6 C :    0.014228
   7 O :   -0.328175
   8 H :    0.157490
   9 H :    0.137000
  10 H :    0.137799
  11 H :    0.181353
  12 H :    0.107551
Sum of atomic charges:   -0.0000000

LOEWDIN ATOMIC CHARGES
----------------------
   0 C :   -0.116361
   1 C :    0.087948
   2 N :   -0.595487
   3 C :    0.089980
   4 C :   -0.085035
   5 C :   -0.068926
   6 C :    0.222753
   7 O :   -0.436229
   8 H :    0.176288
   9 H :    0.187894
  10 H :    0.188459
  11 H :    0.189412
  12 H :    0.159304

  Mayer bond orders larger than 0.100000
B(  0-C ,  1-C ) :   1.3514 B(  0-C ,  5-C ) :   1.3400 B(  0-C ,  8-H ) :   0.9247
B(  1-C ,  2-N ) :   1.4727 B(  1-C ,  9-H ) :   0.9911 B(  2-N ,  3-C ) :   1.4367
B(  3-C ,  4-C ) :   1.3419 B(  3-C , 10-H ) :   0.9929 B(  4-C ,  5-C ) :   1.3146
B(  4-C , 11-H ) :   0.9500 B(  5-C ,  6-C ) :   0.8268 B(  5-C ,  7-O ) :  -0.1103
B(  5-C , 12-H ) :  -0.1097 B(  6-C ,  7-O ) :   1.9682 B(  6-C , 12-H ) :   1.0321

Dispersion correction           -0.004112404
FINAL SINGLE POINT ENERGY      -361.521130893334

DIPOLE MOMENT
-------------

Method             : SCF
Type of density    : Electron Density
Multiplicity       :   1
Irrep              :   0
Energy             :  -361.5229594888946849 Eh
Relativity type    :
Basis              : AO
                                X                 Y                 Z
Electronic contribution:     -1.011355389       0.753690798       0.001040452
Nuclear contribution   :      1.312470380      -1.377832255      -0.001402396
                        -----------------------------------------
Total Dipole Moment    :      0.301114991      -0.624141456      -0.000361944
                        -----------------------------------------
Magnitude (a.u.)       :      0.692981187
Magnitude (Debye)      :      1.761418196

Rotational constants in cm-1:             0.185921             0.052550             0.040970
Rotational constants in MHz :          5573.760867          1575.396128          1228.240103

                             ****ORCA TERMINATED NORMALLY****
TOTAL RUN TIME: 0 days 0 hours 0 minutes 23 seconds 896 msec
