                         Program Version 6.0.0  -   RELEASE  -
|  1> ! r2scan-3c def2/J RI DEFGRID2 scfconv6 printgap
|  2> %output
|  3>     printlevel normal
|  4> end
|  5> %cpcm
|  6>     smd true
|  7>     smdsolvent "water"
|  8> end
|  9> * xyz 0 1
| 10> C 0.4071244437 -1.287039687 5.414e-07
| 11> C 1.7584740216 -0.9776341353 6.53139e-05
| 12> N 2.2216146939 0.2626116874 -2.82561e-05
| 13> C 1.3524920809 1.2615098145 1.64399e-05
| 14> C -0.0202834323 1.0736190874 7.27019e-05
| 15> C -0.5084652609 -0.2343963664 5.16703e-05
| 16> C -1.953567098 -0.4947697025 -5.15662e-05
| 17> O -2.8125815014 0.3575645737 2.4657e-06
| 18> H 0.0714189132 -2.3116402807 -0.0001936674
| 19> H 2.5104526281 -1.754038208 -0.0005068619
| 20> H 1.7819751239 2.2533216327 -0.0002858179
| 21> H -0.7104972776 1.9023346974 -0.0005672466
| 22> H -2.2229918863 -1.5657993486 5.89078e-05
| 23> *
| 24>
| 25>                          ****END OF INPUT****

CARTESIAN COORDINATES (ANGSTROEM)
---------------------------------
  C      0.407124   -1.287040    0.000001
  C      1.758474   -0.977634    0.000065
  N      2.221615    0.262612   -0.000028
  C      1.352492    1.261510    0.000016
  C     -0.020283    1.073619    0.000073
  C     -0.508465   -0.234396    0.000052
  C     -1.953567   -0.494770   -0.000052
  O     -2.812582    0.357565    0.000002
  H      0.071419   -2.311640   -0.000194
  H      2.510453   -1.754038   -0.000507
  H      1.781975    2.253322   -0.000286
  H     -0.710497    1.902335   -0.000567
  H     -2.222992   -1.565799    0.000059

 Total Charge           Charge          ....    0
 Multiplicity           Mult            ....    1
 Number of Electrons    NEL             ....   56
 Basis Dimension        Dim             ....  187

ORBITAL ENERGIES
----------------

  NO   OCC          E(Eh)            E(eV)
   0   2.0000     -18.966097      -516.0937
   1   2.0000     -14.171323      -385.6213
   2   2.0000     -10.132086      -275.7081
   3   2.0000     -10.075308      -274.1631
   4   2.0000     -10.075051      -274.1561
   5   2.0000     -10.067096      -273.9396
   6   2.0000     -10.056824      -273.6601
   7   2.0000     -10.054652      -273.6010
   8   2.0000      -1.030744       -28.0480
   9   2.0000      -0.928291       -25.2601
  10   2.0000      -0.796511       -21.6742
  11   2.0000      -0.742393       -20.2015
  12   2.0000      -0.650088       -17.6898
  13   2.0000      -0.614561       -16.7231
  14   2.0000      -0.556619       -15.1464
  15   2.0000      -0.497466       -13.5367
  16   2.0000      -0.469011       -12.7624
  17   2.0000      -0.443253       -12.0615
  18   2.0000      -0.421549       -11.4709
  19   2.0000      -0.406496       -11.0613
  20   2.0000      -0.404464       -11.0060
  21   2.0000      -0.402826       -10.9615
  22   2.0000      -0.376014       -10.2319
  23   2.0000      -0.336296        -9.1511
  24   2.0000      -0.284499        -7.7416
  25   2.0000      -0.258484        -7.0337
  26   2.0000      -0.247972        -6.7477
  27   2.0000      -0.237203        -6.4546
  28   0.0000      -0.114664        -3.1202
  29   0.0000      -0.050426        -1.3722
  30   0.0000      -0.008763        -0.2385
  31   0.0000       0.087539         2.3821
  32   0.0000       0.108750         2.9593

MULLIKEN ATOMIC CHARGES
-----------------------
   0 C :   -0.154131
   1 C :   -0.111785
   2 N :   -0.209694
   3 C :   -0.134672
   4 C :   -0.113457
   5 C :    0.196378
   6 C :    0.059871
   7 O :   -0.416537
   8 H :    0.200127
   9 H :    0.167362
  10 H :    0.167021
  11 H :    0.201349
  12 H :    0.148168
Sum of atomic charges:   -0.0000000

LOEWDIN ATOMIC CHARGES
----------------------
   0 C :   -0.095902
   1 C :    0.087311
   2 N :   -0.635831
   3 C :    0.086638
   4 C :   -0.084945
   5 C :   -0.068721
   6 C :    0.246160
   7 O :   -0.500891
   8 H :    0.193493
   9 H :    0.198663
  10 H :    0.198400
  11 H :    0.195272
  12 H :    0.180352

  Mayer bond orders larger than 0.100000
B(  0-C ,  1-C ) :   1.3570 B(  0-C ,  5-C ) :   1.3548 B(  0-C ,  8-H ) :   0.9192
B(  1-C ,  2-N ) :   1.4659 B(  1-C ,  9-H ) :   0.9755 B(  2-N ,  3-C ) :   1.4398
B(  3-C ,  4-C ) :   1.3691 B(  3-C , 10-H ) :   0.9779 B(  4-C ,  5-C ) :   1.2641
B(  4-C , 11-H ) :   0.9490 B(  5-C ,  6-C ) :   0.8729 B(  5-C ,  7-O ) :  -0.1060
B(  6-C ,  7-O ) :   1.9121 B(  6-C , 12-H ) :   1.0007

Dispersion correction           -0.004112404
FINAL SINGLE POINT ENERGY      -361.531355801091

DIPOLE MOMENT
-------------

Method             : SCF
Type of density    : Electron Density
Multiplicity       :   1
Irrep              :   0
Energy             :  -361.5331843966521319 Eh
Relativity type    :
Basis              : AO
                                X                 Y                 Z
Electronic contribution:     -0.941933898       0.367075787       0.000899042
Nuclear contribution   :      1.312470380      -1.377832255      -0.001402396
                        -----------------------------------------
Total Dipole Moment    :      0.370536482      -1.010756467      -0.000503354
                        -----------------------------------------
Magnitude (a.u.)       :      1.076534335
Magnitude (Debye)      :      2.736332819

Rotational constants in cm-1:             0.185921             0.052550             0.040970
Rotational constants in MHz :          5573.760867          1575.396128          1228.240103

                             ****ORCA TERMINATED NORMALLY****
TOTAL RUN TIME: 0 days 0 hours 0 minutes 24 seconds 747 msec
