                         Program Version 6.0.0  -   RELEASE  -
|  1> ! pbe def2-sv(p) def2/J RI DEFGRID1 loosescf d4 GCP(DFT/SV(P)) printgap
|  2> %output
|  3>     printlevel normal
|  4> end
|  5> * xyz 0 1
|  6> C -2.8643505989 1.2522636804 0.7067416685
|  7> C -1.7034594378 0.5676028727 0.06257577
|  8> C -0.8839042887 1.1243140742 -0.8191260995
|  9> C 0.2333281057 0.3313517755 -1.4162846776
| 10> C 0.9964103166 -0.5088172514 -0.366816097
| 11> H 1.3938596178 -1.3860753397 -0.8846673938
| 12> C 0.077364743 -0.9877394083 0.7788081927
| 13> C -1.4193140714 -0.8626982451 0.4552526168
| 14> H -1.995571051 -1.1204409748 1.359294173
| 15> O -1.8270313347 -1.7148985552 -0.6049637683
| 16> C 2.1665489468 0.2554012831 0.2155999651
| 17> C 2.0586017226 1.5120423068 0.6166068978
| 18> C 3.4435550683 -0.519052374 0.3346886694
| 19> H -2.7355994403 1.2770208865 1.7886304339
| 20> H -3.7822343741 0.7069776859 0.4908593915
| 21> H -2.9621020939 2.2697963538 0.3386779125
| 22> H -1.023057742 2.1435294225 -1.1496314769
| 23> H -0.1994834818 -0.3529555048 -2.1509985845
| 24> H 0.9360816684 0.9832129867 -1.9358167037
| 25> H 0.3106850704 -2.0232064832 1.0343800349
| 26> H 0.2587830715 -0.3775725828 1.6656343224
| 27> H -1.5934357048 -2.6257219198 -0.3804142431
| 28> H 2.8904958979 2.0454024603 1.0448591799
| 29> H 1.1328412391 2.0556597831 0.5321243445
| 30> H 4.2192110202 0.0752939133 0.8096152408
| 31> H 3.279565663 -1.4206074905 0.9234631754
| 32> H 3.7898797549 -0.8240685073 -0.6521513631
| 33> *
| 34>
| 35>                          ****END OF INPUT****

CARTESIAN COORDINATES (ANGSTROEM)
---------------------------------
  C     -2.864351    1.252264    0.706742
  C     -1.703459    0.567603    0.062576
  C     -0.883904    1.124314   -0.819126
  C      0.233328    0.331352   -1.416285
  C      0.996410   -0.508817   -0.366816
  H      1.393860   -1.386075   -0.884667
  C      0.077365   -0.987739    0.778808
  C     -1.419314   -0.862698    0.455253
  H     -1.995571   -1.120441    1.359294
  O     -1.827031   -1.714899   -0.604964
  C      2.166549    0.255401    0.215600
  C      2.058602    1.512042    0.616607
  C      3.443555   -0.519052    0.334689
  H     -2.735599    1.277021    1.788630
  H     -3.782234    0.706978    0.490859
  H     -2.962102    2.269796    0.338678
  H     -1.023058    2.143529   -1.149631
  H     -0.199483   -0.352956   -2.150999
  H      0.936082    0.983213   -1.935817
  H      0.310685   -2.023206    1.034380
  H      0.258783   -0.377573    1.665634
  H     -1.593436   -2.625722   -0.380414
  H      2.890496    2.045402    1.044859
  H      1.132841    2.055660    0.532124
  H      4.219211    0.075294    0.809615
  H      3.279566   -1.420607    0.923463
  H      3.789880   -0.824069   -0.652151

 Total Charge           Charge          ....    0
 Multiplicity           Mult            ....    1
 Number of Electrons    NEL             ....   84
 Basis Dimension        Dim             ....  186

ORBITAL ENERGIES
----------------

  NO   OCC          E(Eh)            E(eV)
   0   2.0000     -18.741628      -509.9856
   1   2.0000      -9.937083      -270.4018
   2   2.0000      -9.896446      -269.2960
   3   2.0000      -9.893449      -269.2144
   4   2.0000      -9.887049      -269.0403
   5   2.0000      -9.884703      -268.9765
   6   2.0000      -9.878942      -268.8197
   7   2.0000      -9.878147      -268.7980
   8   2.0000      -9.877035      -268.7678
   9   2.0000      -9.876224      -268.7457
  10   2.0000      -9.862356      -268.3683
  11   2.0000      -0.919140       -25.0111
  12   2.0000      -0.760638       -20.6980
  13   2.0000      -0.719291       -19.5729
  14   2.0000      -0.671044       -18.2600
  15   2.0000      -0.657589       -17.8939
  16   2.0000      -0.610068       -16.6008
  17   2.0000      -0.606517       -16.5042
  18   2.0000      -0.553971       -15.0743
  19   2.0000      -0.532974       -14.5030
  20   2.0000      -0.470117       -12.7925
  21   2.0000      -0.459855       -12.5133
  22   2.0000      -0.440437       -11.9849
  23   2.0000      -0.425441       -11.5768
  24   2.0000      -0.411778       -11.2050
  25   2.0000      -0.391120       -10.6429
  26   2.0000      -0.379404       -10.3241
  27   2.0000      -0.369978       -10.0676
  28   2.0000      -0.366440        -9.9713
  29   2.0000      -0.360486        -9.8093
  30   2.0000      -0.353300        -9.6138
  31   2.0000      -0.344018        -9.3612
  32   2.0000      -0.330487        -8.9930
  33   2.0000      -0.320944        -8.7333
  34   2.0000      -0.316245        -8.6055
  35   2.0000      -0.301702        -8.2097
  36   2.0000      -0.280951        -7.6451
  37   2.0000      -0.276411        -7.5215
  38   2.0000      -0.256091        -6.9686
  39   2.0000      -0.218516        -5.9461
  40   2.0000      -0.208601        -5.6763
  41   2.0000      -0.199576        -5.4307
  42   0.0000      -0.018626        -0.5068
  43   0.0000      -0.005482        -0.1492
  44   0.0000       0.024050         0.6544
  45   0.0000       0.050259         1.3676
  46   0.0000       0.053915         1.4671

MULLIKEN ATOMIC CHARGES
-----------------------
   0 C :   -0.209591
   1 C :   -0.018727
   2 C :   -0.256754
   3 C :    0.041861
   4 C :   -0.136578
   5 H :    0.045873
   6 C :   -0.080863
   7 C :    0.061197
   8 H :    0.040514
   9 O :   -0.423798
  10 C :   -0.084999
  11 C :   -0.233109
  12 C :   -0.207553
  13 H :    0.104278
  14 H :    0.114950
  15 H :    0.096005
  16 H :    0.043338
  17 H :    0.091629
  18 H :    0.082503
  19 H :    0.063300
  20 H :    0.089840
  21 H :    0.292063
  22 H :    0.077897
  23 H :    0.098458
  24 H :    0.095758
  25 H :    0.103408
  26 H :    0.109103
Sum of atomic charges:    0.0000000

LOEWDIN ATOMIC CHARGES
----------------------
   0 C :   -0.321485
   1 C :   -0.070530
   2 C :   -0.138093
   3 C :   -0.212118
   4 C :   -0.124750
   5 H :    0.116404
   6 C :   -0.217902
   7 C :   -0.038806
   8 H :    0.095571
   9 O :   -0.329128
  10 C :   -0.048786
  11 C :   -0.272791
  12 C :   -0.321927
  13 H :    0.125201
  14 H :    0.130836
  15 H :    0.122938
  16 H :    0.116413
  17 H :    0.133601
  18 H :    0.121385
  19 H :    0.111322
  20 H :    0.128926
  21 H :    0.279928
  22 H :    0.116304
  23 H :    0.121340
  24 H :    0.122199
  25 H :    0.125846
  26 H :    0.128101

  Mayer bond orders larger than 0.100000
B(  0-C ,  1-C ) :   1.1505 B(  0-C , 13-H ) :   0.9274 B(  0-C , 14-H ) :   0.9282
B(  0-C , 15-H ) :   0.9442 B(  1-C ,  2-C ) :   1.8754 B(  1-C ,  7-C ) :   0.9963
B(  2-C ,  3-C ) :   1.0905 B(  2-C , 16-H ) :   0.9374 B(  3-C ,  4-C ) :   1.1011
B(  3-C , 17-H ) :   0.8581 B(  3-C , 18-H ) :   0.9107 B(  4-C ,  5-H ) :   0.8734
B(  4-C ,  6-C ) :   1.0697 B(  4-C , 10-C ) :   1.0014 B(  6-C ,  7-C ) :   1.0932
B(  6-C , 19-H ) :   0.8976 B(  6-C , 20-H ) :   0.8978 B(  7-C ,  8-H ) :   0.8948
B(  7-C ,  9-O ) :   1.0429 B(  9-O , 21-H ) :   0.8512 B( 10-C , 11-C ) :   2.0530
B( 10-C , 12-C ) :   1.1326 B( 11-C , 22-H ) :   0.9028 B( 11-C , 23-H ) :   0.8939
B( 12-C , 24-H ) :   0.9415 B( 12-C , 25-H ) :   0.9311 B( 12-C , 26-H ) :   0.9278

Dispersion correction           -0.029222356
FINAL SINGLE POINT ENERGY      -464.782396929521

DIPOLE MOMENT
-------------

Method             : SCF
Type of density    : Electron Density
Multiplicity       :   1
Irrep              :   0
Energy             :  -464.8707779552606780 Eh
Relativity type    :
Basis              : AO
                                X                 Y                 Z
Electronic contribution:     -3.455637816      -1.790812314      -2.279481755
Nuclear contribution   :      3.650444338       1.312625205       2.649660316
                        -----------------------------------------
Total Dipole Moment    :      0.194806522      -0.478187109       0.370178561
                        -----------------------------------------
Magnitude (a.u.)       :      0.635330354
Magnitude (Debye)      :      1.614881423

Rotational constants in cm-1:             0.063659             0.025477             0.022214
Rotational constants in MHz :          1908.461385           763.773136           665.971755

                             ****ORCA TERMINATED NORMALLY****
TOTAL RUN TIME: 0 days 0 hours 0 minutes 12 seconds 307 msec
