                         Program Version 6.0.0  -   RELEASE  -
|  1> ! wb97x-v def2-tzvp def2/J RIJCOSX DEFGRID2 scfconv7 GCP(DFT/TZ) printgap
|  2> %output
|  3>     printlevel normal
|  4> end
|  5> * xyz 0 1
|  6> C 1.2623703965436268 1.4763458881302958 -0.21568252544657204
|  7> C 0.7172689684122106 0.0696891488556546 -0.4177288449296228
|  8> C 1.507285181887313 -0.9650537974879355 0.4076459788495797
|  9> C -0.7432167740932588 -0.05216033526374597 -0.04855668591975432
| 10> O -1.3275724547110603 0.8177309489393865 0.5917080302354445
| 11> C -1.4700634580700014 -1.3003656163959612 -0.4714278566306147
| 12> H 1.2338947453702573 1.758576103065207 0.8413718719322231
| 13> H 2.3021742980848083 1.5249245914115077 -0.5517759477354378
| 14> H 0.6841744487704141 2.2137647057670837 -0.7802041616615427
| 15> H 0.7943813945114665 -0.21885586870875887 -1.4753826971780781
| 16> H 1.1350439619673591 -1.9824599155503309 0.25903491037150506
| 17> H 1.4452536592214769 -0.7245021885140539 1.4742792090558379
| 18> H 2.5597740624551895 -0.9405595739172338 0.11102227781069116
| 19> H -0.8510270063644676 -1.973544393986756 -1.0659395604411208
| 20> H -2.3517880533409494 -1.0071679022941065 -1.0509754212410138
| 21> H -1.829294994712452 -1.8261828194284513 0.4197572301904824
| 22> *
| 23>
| 24>                          ****END OF INPUT****

CARTESIAN COORDINATES (ANGSTROEM)
---------------------------------
  C      1.262370    1.476346   -0.215683
  C      0.717269    0.069689   -0.417729
  C      1.507285   -0.965054    0.407646
  C     -0.743217   -0.052160   -0.048557
  O     -1.327572    0.817731    0.591708
  C     -1.470063   -1.300366   -0.471428
  H      1.233895    1.758576    0.841372
  H      2.302174    1.524925   -0.551776
  H      0.684174    2.213765   -0.780204
  H      0.794381   -0.218856   -1.475383
  H      1.135044   -1.982460    0.259035
  H      1.445254   -0.724502    1.474279
  H      2.559774   -0.940560    0.111022
  H     -0.851027   -1.973544   -1.065940
  H     -2.351788   -1.007168   -1.050975
  H     -1.829295   -1.826183    0.419757

 Total Charge           Charge          ....    0
 Multiplicity           Mult            ....    1
 Number of Electrons    NEL             ....   48
 Basis Dimension        Dim             ....  246

ORBITAL ENERGIES
----------------

  NO   OCC          E(Eh)            E(eV)
   0   2.0000     -21.656418      -589.3011
   1   2.0000     -12.135412      -330.2213
   2   2.0000     -12.063844      -328.2739
   3   2.0000     -12.051885      -327.9485
   4   2.0000     -12.051672      -327.9427
   5   2.0000     -12.035795      -327.5106
   6   2.0000      -1.699848       -46.2552
   7   2.0000      -1.327569       -36.1250
   8   2.0000      -1.250765       -34.0350
   9   2.0000      -1.185870       -32.2692
  10   2.0000      -1.126146       -30.6440
  11   2.0000      -1.062191       -28.9037
  12   2.0000      -0.964249       -26.2386
  13   2.0000      -0.954385       -25.9701
  14   2.0000      -0.914320       -24.8799
  15   2.0000      -0.881724       -23.9929
  16   2.0000      -0.849752       -23.1229
  17   2.0000      -0.841436       -22.8966
  18   2.0000      -0.834538       -22.7089
  19   2.0000      -0.828987       -22.5579
  20   2.0000      -0.816123       -22.2078
  21   2.0000      -0.794052       -21.6073
  22   2.0000      -0.778641       -21.1879
  23   2.0000      -0.768585       -20.9143
  24   0.0000      -0.307573        -8.3695
  25   0.0000      -0.052305        -1.4233
  26   0.0000      -0.039098        -1.0639
  27   0.0000      -0.023011        -0.6262
  28   0.0000      -0.018082        -0.4920

MULLIKEN ATOMIC CHARGES
-----------------------
   0 C :   -0.331869
   1 C :   -0.027463
   2 C :   -0.362627
   3 C :    0.213712
   4 O :   -0.321290
   5 C :   -0.368516
   6 H :    0.118313
   7 H :    0.109360
   8 H :    0.119570
   9 H :    0.087209
  10 H :    0.116267
  11 H :    0.125192
  12 H :    0.119882
  13 H :    0.119226
  14 H :    0.142338
  15 H :    0.140698
Sum of atomic charges:    0.0000000

LOEWDIN ATOMIC CHARGES
----------------------
   0 C :   -0.272806
   1 C :   -0.282783
   2 C :   -0.264753
   3 C :   -0.317945
   4 O :    0.108563
   5 C :   -0.263094
   6 H :    0.126077
   7 H :    0.118568
   8 H :    0.124034
   9 H :    0.157057
  10 H :    0.119052
  11 H :    0.125552
  12 H :    0.122584
  13 H :    0.122151
  14 H :    0.138970
  15 H :    0.138775

  Mayer bond orders larger than 0.100000
B(  0-C ,  1-C ) :   0.9982 B(  0-C ,  6-H ) :   0.9685 B(  0-C ,  7-H ) :   0.9798
B(  0-C ,  8-H ) :   0.9779 B(  1-C ,  2-C ) :   0.9467 B(  1-C ,  3-C ) :   0.9505
B(  1-C ,  9-H ) :   0.9525 B(  2-C , 10-H ) :   0.9741 B(  2-C , 11-H ) :   0.9745
B(  2-C , 12-H ) :   0.9776 B(  3-C ,  4-O ) :   2.1137 B(  3-C ,  5-C ) :   0.9540
B(  5-C , 13-H ) :   0.9793 B(  5-C , 14-H ) :   0.9637 B(  5-C , 15-H ) :   0.9610

FINAL SINGLE POINT ENERGY      -271.793632619881

DIPOLE MOMENT
-------------

Method             : SCF
Type of density    : Electron Density
Multiplicity       :   1
Irrep              :   0
Energy             :  -271.8043897330813934 Eh
Relativity type    :
Basis              : AO
                                X                 Y                 Z
Electronic contribution:     -4.282221412       2.197589651       0.973893069
Nuclear contribution   :      4.871186795      -3.034591945      -1.553196398
                        -----------------------------------------
Total Dipole Moment    :      0.588965384      -0.837002294      -0.579303329
                        -----------------------------------------
Magnitude (a.u.)       :      1.176029510
Magnitude (Debye)      :      2.989229458

Rotational constants in cm-1:             0.158116             0.099502             0.071973
Rotational constants in MHz :          4740.209560          2982.990591          2157.692273

                             ****ORCA TERMINATED NORMALLY****
TOTAL RUN TIME: 0 days 0 hours 1 minutes 34 seconds 933 msec
