                         Program Version 6.0.0  -   RELEASE  -
|  1> ! wb97x-v def2-tzvp def2/J RIJCOSX DEFGRID2 scfconv7 GCP(DFT/TZ) printgap
|  2> %output
|  3>     printlevel normal
|  4> end
|  5> %cpcm
|  6>     smd true
|  7>     smdsolvent "water"
|  8> end
|  9> * xyz 0 1
| 10> C 1.2623703965436268 1.4763458881302958 -0.21568252544657204
| 11> C 0.7172689684122106 0.0696891488556546 -0.4177288449296228
| 12> C 1.507285181887313 -0.9650537974879355 0.4076459788495797
| 13> C -0.7432167740932588 -0.05216033526374597 -0.04855668591975432
| 14> O -1.3275724547110603 0.8177309489393865 0.5917080302354445
| 15> C -1.4700634580700014 -1.3003656163959612 -0.4714278566306147
| 16> H 1.2338947453702573 1.758576103065207 0.8413718719322231
| 17> H 2.3021742980848083 1.5249245914115077 -0.5517759477354378
| 18> H 0.6841744487704141 2.2137647057670837 -0.7802041616615427
| 19> H 0.7943813945114665 -0.21885586870875887 -1.4753826971780781
| 20> H 1.1350439619673591 -1.9824599155503309 0.25903491037150506
| 21> H 1.4452536592214769 -0.7245021885140539 1.4742792090558379
| 22> H 2.5597740624551895 -0.9405595739172338 0.11102227781069116
| 23> H -0.8510270063644676 -1.973544393986756 -1.0659395604411208
| 24> H -2.3517880533409494 -1.0071679022941065 -1.0509754212410138
| 25> H -1.829294994712452 -1.8261828194284513 0.4197572301904824
| 26> *
| 27>
| 28>                          ****END OF INPUT****

CARTESIAN COORDINATES (ANGSTROEM)
---------------------------------
  C      1.262370    1.476346   -0.215683
  C      0.717269    0.069689   -0.417729
  C      1.507285   -0.965054    0.407646
  C     -0.743217   -0.052160   -0.048557
  O     -1.327572    0.817731    0.591708
  C     -1.470063   -1.300366   -0.471428
  H      1.233895    1.758576    0.841372
  H      2.302174    1.524925   -0.551776
  H      0.684174    2.213765   -0.780204
  H      0.794381   -0.218856   -1.475383
  H      1.135044   -1.982460    0.259035
  H      1.445254   -0.724502    1.474279
  H      2.559774   -0.940560    0.111022
  H     -0.851027   -1.973544   -1.065940
  H     -2.351788   -1.007168   -1.050975
  H     -1.829295   -1.826183    0.419757

 Total Charge           Charge          ....    0
 Multiplicity           Mult            ....    1
 Number of Electrons    NEL             ....   48
 Basis Dimension        Dim             ....  246

ORBITAL ENERGIES
----------------

  NO   OCC          E(Eh)            E(eV)
   0   2.0000     -21.666476      -589.5748
   1   2.0000     -12.141873      -330.3971
   2   2.0000     -12.053508      -327.9926
   3   2.0000     -12.038563      -327.5860
   4   2.0000     -12.035659      -327.5069
   5   2.0000     -12.028169      -327.3031
   6   2.0000      -1.713306       -46.6214
   7   2.0000      -1.318801       -35.8864
   8   2.0000      -1.242235       -33.8029
   9   2.0000      -1.174412       -31.9574
  10   2.0000      -1.122937       -30.5567
  11   2.0000      -1.069319       -29.0976
  12   2.0000      -0.967705       -26.3326
  13   2.0000      -0.948139       -25.8002
  14   2.0000      -0.922412       -25.1001
  15   2.0000      -0.873588       -23.7715
  16   2.0000      -0.840872       -22.8813
  17   2.0000      -0.835269       -22.7288
  18   2.0000      -0.822668       -22.3859
  19   2.0000      -0.819031       -22.2870
  20   2.0000      -0.805546       -21.9200
  21   2.0000      -0.782338       -21.2885
  22   2.0000      -0.770952       -20.9787
  23   2.0000      -0.761096       -20.7105
  24   0.0000      -0.304757        -8.2929
  25   0.0000      -0.045260        -1.2316
  26   0.0000      -0.029166        -0.7936
  27   0.0000      -0.010371        -0.2822
  28   0.0000      -0.002296        -0.0625

MULLIKEN ATOMIC CHARGES
-----------------------
   0 C :   -0.405193
   1 C :   -0.006188
   2 C :   -0.408771
   3 C :    0.299536
   4 O :   -0.464523
   5 C :   -0.417075
   6 H :    0.123900
   7 H :    0.135543
   8 H :    0.133829
   9 H :    0.117729
  10 H :    0.141974
  11 H :    0.132542
  12 H :    0.139426
  13 H :    0.152416
  14 H :    0.162694
  15 H :    0.162159
Sum of atomic charges:   -0.0000000

LOEWDIN ATOMIC CHARGES
----------------------
   0 C :   -0.282716
   1 C :   -0.274536
   2 C :   -0.263911
   3 C :   -0.294873
   4 O :    0.028018
   5 C :   -0.256864
   6 H :    0.123270
   7 H :    0.125667
   8 H :    0.123250
   9 H :    0.169567
  10 H :    0.125712
  11 H :    0.126529
  12 H :    0.127346
  13 H :    0.134002
  14 H :    0.144481
  15 H :    0.145057

  Mayer bond orders larger than 0.100000
B(  0-C ,  1-C ) :   0.9757 B(  0-C ,  6-H ) :   0.9677 B(  0-C ,  7-H ) :   0.9775
B(  0-C ,  8-H ) :   0.9795 B(  1-C ,  2-C ) :   0.9410 B(  1-C ,  3-C ) :   0.9652
B(  1-C ,  9-H ) :   0.9439 B(  2-C , 10-H ) :   0.9704 B(  2-C , 11-H ) :   0.9708
B(  2-C , 12-H ) :   0.9739 B(  3-C ,  4-O ) :   1.9507 B(  3-C ,  5-C ) :   0.9770
B(  5-C , 13-H ) :   0.9709 B(  5-C , 14-H ) :   0.9540 B(  5-C , 15-H ) :   0.9515

FINAL SINGLE POINT ENERGY      -271.800765796702

DIPOLE MOMENT
-------------

Method             : SCF
Type of density    : Electron Density
Multiplicity       :   1
Irrep              :   0
Energy             :  -271.8115229099021803 Eh
Relativity type    :
Basis              : AO
                                X                 Y                 Z
Electronic contribution:     -4.012371149       1.764632756       0.661923012
Nuclear contribution   :      4.871186795      -3.034591945      -1.553196398
                        -----------------------------------------
Total Dipole Moment    :      0.858815646      -1.269959189      -0.891273386
                        -----------------------------------------
Magnitude (a.u.)       :      1.773338351
Magnitude (Debye)      :      4.507467874

Rotational constants in cm-1:             0.158116             0.099502             0.071973
Rotational constants in MHz :          4740.209560          2982.990591          2157.692273

                             ****ORCA TERMINATED NORMALLY****
TOTAL RUN TIME: 0 days 0 hours 1 minutes 38 seconds 873 msec
