                         Program Version 6.0.0  -   RELEASE  -
|  1> ! r2scan-3c def2/J RI DEFGRID2 scfconv6 printgap
|  2> %output
|  3>     printlevel normal
|  4> end
|  5> * xyz 0 1
|  6> C -1.8943868358 -0.6552582221 0.1720355106
|  7> C -0.9502214586 0.4787192732 -0.2046863041
|  8> C 0.5068507116 0.0946574642 -0.0172592617
|  9> O 0.8724089629 -1.0032405665 0.3878108781
| 10> N 1.3806853228 1.0626983583 -0.3327588903
| 11> H -1.7489815351 -0.9355182876 1.212539072
| 12> H -2.9279781981 -0.354269433 0.0265043228
| 13> H -1.6905780288 -1.5321121959 -0.437817481
| 14> H -1.1527146971 1.3557862931 0.4125865476
| 15> H -1.0969441967 0.7559105226 -1.2500952635
| 16> H 1.0729361758 1.9591835456 -0.6664605864
| 17> H 2.3666894053 0.8838913902 -0.2342479602
| 18> *
| 19>
| 20>                          ****END OF INPUT****

CARTESIAN COORDINATES (ANGSTROEM)
---------------------------------
  C     -1.894387   -0.655258    0.172036
  C     -0.950221    0.478719   -0.204686
  C      0.506851    0.094657   -0.017259
  O      0.872409   -1.003241    0.387811
  N      1.380685    1.062698   -0.332759
  H     -1.748982   -0.935518    1.212539
  H     -2.927978   -0.354269    0.026504
  H     -1.690578   -1.532112   -0.437817
  H     -1.152715    1.355786    0.412587
  H     -1.096944    0.755911   -1.250095
  H      1.072936    1.959184   -0.666461
  H      2.366689    0.883891   -0.234248

 Total Charge           Charge          ....    0
 Multiplicity           Mult            ....    1
 Number of Electrons    NEL             ....   40
 Basis Dimension        Dim             ....  140

ORBITAL ENERGIES
----------------

  NO   OCC          E(Eh)            E(eV)
   0   2.0000     -18.909857      -514.5634
   1   2.0000     -14.182666      -385.9300
   2   2.0000     -10.127734      -275.5896
   3   2.0000     -10.042254      -273.2636
   4   2.0000     -10.017602      -272.5928
   5   2.0000      -0.994812       -27.0702
   6   2.0000      -0.876627       -23.8542
   7   2.0000      -0.743214       -20.2239
   8   2.0000      -0.623805       -16.9746
   9   2.0000      -0.547282       -14.8923
  10   2.0000      -0.506417       -13.7803
  11   2.0000      -0.448003       -12.1908
  12   2.0000      -0.438541       -11.9333
  13   2.0000      -0.378625       -10.3029
  14   2.0000      -0.360887        -9.8202
  15   2.0000      -0.343497        -9.3470
  16   2.0000      -0.329130        -8.9561
  17   2.0000      -0.315285        -8.5794
  18   2.0000      -0.245051        -6.6682
  19   2.0000      -0.216771        -5.8986
  20   0.0000       0.000734         0.0200
  21   0.0000       0.064008         1.7417
  22   0.0000       0.097804         2.6614
  23   0.0000       0.127659         3.4738
  24   0.0000       0.150589         4.0977

MULLIKEN ATOMIC CHARGES
-----------------------
   0 C :   -0.475630
   1 C :   -0.275101
   2 C :    0.286621
   3 O :   -0.416202
   4 N :   -0.374023
   5 H :    0.158828
   6 H :    0.139911
   7 H :    0.159076
   8 H :    0.149923
   9 H :    0.150100
  10 H :    0.252053
  11 H :    0.244444
Sum of atomic charges:   -0.0000000

LOEWDIN ATOMIC CHARGES
----------------------
   0 C :   -0.402716
   1 C :   -0.261386
   2 C :    0.301032
   3 O :   -0.465773
   4 N :   -0.506934
   5 H :    0.162713
   6 H :    0.148492
   7 H :    0.162856
   8 H :    0.170604
   9 H :    0.170670
  10 H :    0.258424
  11 H :    0.262019

  Mayer bond orders larger than 0.100000
B(  0-C ,  1-C ) :   0.9460 B(  0-C ,  5-H ) :   0.9761 B(  0-C ,  6-H ) :   0.9696
B(  0-C ,  7-H ) :   0.9760 B(  1-C ,  2-C ) :   0.9551 B(  1-C ,  8-H ) :   0.9387
B(  1-C ,  9-H ) :   0.9383 B(  2-C ,  3-O ) :   1.9526 B(  2-C ,  4-N ) :   1.1347
B(  4-N , 10-H ) :   0.9212 B(  4-N , 11-H ) :   0.9175

Dispersion correction           -0.002419488
FINAL SINGLE POINT ENERGY      -248.472901550236

DIPOLE MOMENT
-------------

Method             : SCF
Type of density    : Electron Density
Multiplicity       :   1
Irrep              :   0
Energy             :  -248.4788022608121025 Eh
Relativity type    :
Basis              : AO
                                X                 Y                 Z
Electronic contribution:      4.720069520      -0.574652441       0.363217844
Nuclear contribution   :     -4.836891609       1.991950267      -0.875130879
                        -----------------------------------------
Total Dipole Moment    :     -0.116822089       1.417297826      -0.511913035
                        -----------------------------------------
Magnitude (a.u.)       :      1.511434908
Magnitude (Debye)      :      3.841762227

Rotational constants in cm-1:             0.329737             0.128658             0.095841
Rotational constants in MHz :          9885.255094          3857.058035          2873.246589

                             ****ORCA TERMINATED NORMALLY****
TOTAL RUN TIME: 0 days 0 hours 0 minutes 11 seconds 555 msec
