                         Program Version 6.0.0  -   RELEASE  -
|  1> ! r2scan-3c def2/J RI DEFGRID2 scfconv6 printgap
|  2> %output
|  3>     printlevel normal
|  4> end
|  5> %cpcm
|  6>     smd true
|  7>     smdsolvent "water"
|  8> end
|  9> * xyz 0 1
| 10> C -1.8943868358 -0.6552582221 0.1720355106
| 11> C -0.9502214586 0.4787192732 -0.2046863041
| 12> C 0.5068507116 0.0946574642 -0.0172592617
| 13> O 0.8724089629 -1.0032405665 0.3878108781
| 14> N 1.3806853228 1.0626983583 -0.3327588903
| 15> H -1.7489815351 -0.9355182876 1.212539072
| 16> H -2.9279781981 -0.354269433 0.0265043228
| 17> H -1.6905780288 -1.5321121959 -0.437817481
| 18> H -1.1527146971 1.3557862931 0.4125865476
| 19> H -1.0969441967 0.7559105226 -1.2500952635
| 20> H 1.0729361758 1.9591835456 -0.6664605864
| 21> H 2.3666894053 0.8838913902 -0.2342479602
| 22> *
| 23>
| 24>                          ****END OF INPUT****

CARTESIAN COORDINATES (ANGSTROEM)
---------------------------------
  C     -1.894387   -0.655258    0.172036
  C     -0.950221    0.478719   -0.204686
  C      0.506851    0.094657   -0.017259
  O      0.872409   -1.003241    0.387811
  N      1.380685    1.062698   -0.332759
  H     -1.748982   -0.935518    1.212539
  H     -2.927978   -0.354269    0.026504
  H     -1.690578   -1.532112   -0.437817
  H     -1.152715    1.355786    0.412587
  H     -1.096944    0.755911   -1.250095
  H      1.072936    1.959184   -0.666461
  H      2.366689    0.883891   -0.234248

 Total Charge           Charge          ....    0
 Multiplicity           Mult            ....    1
 Number of Electrons    NEL             ....   40
 Basis Dimension        Dim             ....  140

ORBITAL ENERGIES
----------------

  NO   OCC          E(Eh)            E(eV)
   0   2.0000     -18.924732      -514.9681
   1   2.0000     -14.174401      -385.7051
   2   2.0000     -10.134105      -275.7630
   3   2.0000     -10.032051      -272.9860
   4   2.0000     -10.013823      -272.4900
   5   2.0000      -1.008770       -27.4500
   6   2.0000      -0.871584       -23.7170
   7   2.0000      -0.736808       -20.0496
   8   2.0000      -0.618159       -16.8210
   9   2.0000      -0.539846       -14.6900
  10   2.0000      -0.493320       -13.4239
  11   2.0000      -0.450529       -12.2595
  12   2.0000      -0.432860       -11.7787
  13   2.0000      -0.394040       -10.7224
  14   2.0000      -0.364644        -9.9225
  15   2.0000      -0.337132        -9.1738
  16   2.0000      -0.327280        -8.9057
  17   2.0000      -0.310842        -8.4584
  18   2.0000      -0.248947        -6.7742
  19   2.0000      -0.234871        -6.3912
  20   0.0000      -0.003739        -0.1017
  21   0.0000       0.080574         2.1925
  22   0.0000       0.108962         2.9650
  23   0.0000       0.146788         3.9943
  24   0.0000       0.161534         4.3956

MULLIKEN ATOMIC CHARGES
-----------------------
   0 C :   -0.534989
   1 C :   -0.252005
   2 C :    0.301527
   3 O :   -0.537061
   4 N :   -0.431725
   5 H :    0.162339
   6 H :    0.161367
   7 H :    0.162327
   8 H :    0.179633
   9 H :    0.179814
  10 H :    0.315353
  11 H :    0.293419
Sum of atomic charges:   -0.0000000

LOEWDIN ATOMIC CHARGES
----------------------
   0 C :   -0.414092
   1 C :   -0.253333
   2 C :    0.306357
   3 O :   -0.561791
   4 N :   -0.472441
   5 H :    0.158980
   6 H :    0.157115
   7 H :    0.159024
   8 H :    0.184373
   9 H :    0.184429
  10 H :    0.277592
  11 H :    0.273787

  Mayer bond orders larger than 0.100000
B(  0-C ,  1-C ) :   0.8952 B(  0-C ,  5-H ) :   0.9801 B(  0-C ,  6-H ) :   0.9632
B(  0-C ,  7-H ) :   0.9800 B(  1-C ,  2-C ) :   0.9822 B(  1-C ,  8-H ) :   0.9267
B(  1-C ,  9-H ) :   0.9262 B(  2-C ,  3-O ) :   1.8454 B(  2-C ,  4-N ) :   1.2072
B(  4-N , 10-H ) :   0.8942 B(  4-N , 11-H ) :   0.8952

Dispersion correction           -0.002419488
FINAL SINGLE POINT ENERGY      -248.488055161214

DIPOLE MOMENT
-------------

Method             : SCF
Type of density    : Electron Density
Multiplicity       :   1
Irrep              :   0
Energy             :  -248.4939558717906039 Eh
Relativity type    :
Basis              : AO
                                X                 Y                 Z
Electronic contribution:      4.639260366       0.107657388       0.115676496
Nuclear contribution   :     -4.836891609       1.991950267      -0.875130879
                        -----------------------------------------
Total Dipole Moment    :     -0.197631242       2.099607655      -0.759454383
                        -----------------------------------------
Magnitude (a.u.)       :      2.241468575
Magnitude (Debye)      :      5.697360341

Rotational constants in cm-1:             0.329737             0.128658             0.095841
Rotational constants in MHz :          9885.255094          3857.058035          2873.246589

                             ****ORCA TERMINATED NORMALLY****
TOTAL RUN TIME: 0 days 0 hours 0 minutes 12 seconds 516 msec
