                         Program Version 6.0.0  -   RELEASE  -
|  1> ! pbe def2-sv(p) def2/J RI DEFGRID1 loosescf d4 GCP(DFT/SV(P)) printgap
|  2> %output
|  3>     printlevel normal
|  4> end
|  5> * xyz 0 1
|  6> C 2.0900840524 0.0837283314 -0.1274562229
|  7> C 0.7591480873 0.6689804881 0.3346528299
|  8> C -0.4558879207 0.0035171352 -0.3263349053
|  9> H -0.3122828411 0.0011249705 -1.4201222525
| 10> C -1.7400614343 0.7597387324 0.0020127215
| 11> O -0.6391224472 -1.3325285238 0.1167864187
| 12> H 2.1921407286 -0.9553545016 0.1771988093
| 13> H 2.9134388459 0.6416718207 0.3108191584
| 14> H 2.1755239325 0.1402301287 -1.2107807202
| 15> H 0.7315399411 1.7326347524 0.0950780487
| 16> H 0.6631517616 0.5614942694 1.4169716389
| 17> H -1.6930616788 1.7707495373 -0.3899283311
| 18> H -2.5889507635 0.2427693024 -0.4368666901
| 19> H -1.878192597 0.7947434969 1.0793783552
| 20> H 0.1571209303 -1.8427672978 -0.079859104
| 21> *
| 22>
| 23>                          ****END OF INPUT****

CARTESIAN COORDINATES (ANGSTROEM)
---------------------------------
  C      2.090084    0.083728   -0.127456
  C      0.759148    0.668980    0.334653
  C     -0.455888    0.003517   -0.326335
  H     -0.312283    0.001125   -1.420122
  C     -1.740061    0.759739    0.002013
  O     -0.639122   -1.332529    0.116786
  H      2.192141   -0.955355    0.177199
  H      2.913439    0.641672    0.310819
  H      2.175524    0.140230   -1.210781
  H      0.731540    1.732635    0.095078
  H      0.663152    0.561494    1.416972
  H     -1.693062    1.770750   -0.389928
  H     -2.588951    0.242769   -0.436867
  H     -1.878193    0.794743    1.079378
  H      0.157121   -1.842767   -0.079859

 Total Charge           Charge          ....    0
 Multiplicity           Mult            ....    1
 Number of Electrons    NEL             ....   42
 Basis Dimension        Dim             ....   90

ORBITAL ENERGIES
----------------

  NO   OCC          E(Eh)            E(eV)
   0   2.0000     -18.737257      -509.8667
   1   2.0000      -9.934066      -270.3197
   2   2.0000      -9.883392      -268.9408
   3   2.0000      -9.881692      -268.8945
   4   2.0000      -9.868537      -268.5365
   5   2.0000      -0.914352       -24.8808
   6   2.0000      -0.706228       -19.2174
   7   2.0000      -0.654688       -17.8150
   8   2.0000      -0.563096       -15.3226
   9   2.0000      -0.516358       -14.0508
  10   2.0000      -0.462181       -12.5766
  11   2.0000      -0.411765       -11.2047
  12   2.0000      -0.386027       -10.5043
  13   2.0000      -0.376183       -10.2365
  14   2.0000      -0.340014        -9.2522
  15   2.0000      -0.334147        -9.0926
  16   2.0000      -0.313430        -8.5289
  17   2.0000      -0.309765        -8.4291
  18   2.0000      -0.297872        -8.1055
  19   2.0000      -0.265963        -7.2372
  20   2.0000      -0.210208        -5.7201
  21   0.0000       0.021997         0.5986
  22   0.0000       0.059603         1.6219
  23   0.0000       0.072684         1.9778
  24   0.0000       0.075431         2.0526
  25   0.0000       0.092982         2.5302

MULLIKEN ATOMIC CHARGES
-----------------------
   0 C :   -0.280580
   1 C :   -0.179452
   2 C :    0.000691
   3 H :    0.053922
   4 C :   -0.228939
   5 O :   -0.429996
   6 H :    0.087730
   7 H :    0.110628
   8 H :    0.100997
   9 H :    0.080898
  10 H :    0.088242
  11 H :    0.095022
  12 H :    0.107521
  13 H :    0.099206
  14 H :    0.294110
Sum of atomic charges:   -0.0000000

LOEWDIN ATOMIC CHARGES
----------------------
   0 C :   -0.347152
   1 C :   -0.249765
   2 C :   -0.056291
   3 H :    0.092460
   4 C :   -0.339335
   5 O :   -0.336041
   6 H :    0.109557
   7 H :    0.124564
   8 H :    0.117763
   9 H :    0.118920
  10 H :    0.119431
  11 H :    0.120637
  12 H :    0.124003
  13 H :    0.122396
  14 H :    0.278853

  Mayer bond orders larger than 0.100000
B(  0-C ,  1-C ) :   1.1487 B(  0-C ,  6-H ) :   0.9443 B(  0-C ,  7-H ) :   0.9517
B(  0-C ,  8-H ) :   0.9534 B(  1-C ,  2-C ) :   1.0655 B(  1-C ,  9-H ) :   0.9151
B(  1-C , 10-H ) :   0.9135 B(  2-C ,  3-H ) :   0.9074 B(  2-C ,  4-C ) :   1.1226
B(  2-C ,  5-O ) :   1.0579 B(  4-C , 11-H ) :   0.9466 B(  4-C , 12-H ) :   0.9455
B(  4-C , 13-H ) :   0.9445 B(  5-O , 14-H ) :   0.8494

Dispersion correction           -0.009477149
FINAL SINGLE POINT ENERGY      -233.092874048813

DIPOLE MOMENT
-------------

Method             : SCF
Type of density    : Electron Density
Multiplicity       :   1
Irrep              :   0
Energy             :  -233.1524897479000344 Eh
Relativity type    :
Basis              : AO
                                X                 Y                 Z
Electronic contribution:     -1.673563720      -2.701821135       0.201130333
Nuclear contribution   :      2.204973545       2.876579241      -0.428048472
                        -----------------------------------------
Total Dipole Moment    :      0.531409825       0.174758107      -0.226918139
                        -----------------------------------------
Magnitude (a.u.)       :      0.603679253
Magnitude (Debye)      :      1.534430717

Rotational constants in cm-1:             0.267763             0.114263             0.088689
Rotational constants in MHz :          8027.327975          3425.510824          2658.817904

                             ****ORCA TERMINATED NORMALLY****
TOTAL RUN TIME: 0 days 0 hours 0 minutes 5 seconds 374 msec
