                         Program Version 6.0.0  -   RELEASE  -
|  1> ! pbe def2-sv(p) def2/J RI DEFGRID1 loosescf d4 GCP(DFT/SV(P)) printgap
|  2> %output
|  3>     printlevel normal
|  4> end
|  5> * xyz 0 1
|  6> C -2.3882525892 -1.1250017152 -0.3930538562
|  7> C -1.0721302558 -0.6204274585 0.2223827221
|  8> H -1.1378822516 -0.6434631988 1.3235872222
|  9> C -0.7880936819 0.8384935628 -0.194121837
| 10> H -0.8739495513 0.9329098609 -1.2870782628
| 11> C 0.6379357628 1.2505278778 0.1945139
| 12> H 0.666953609 1.3762150724 1.2899186414
| 13> C 1.6555749962 0.1754791296 -0.2287350539
| 14> H 1.6825640208 0.1376881449 -1.3239068583
| 15> C 1.2143064152 -1.1989488794 0.3078985727
| 16> H 1.1737184387 -1.1655486748 1.4112020725
| 17> O -0.0629980559 -1.5089308955 -0.2099676356
| 18> O 2.082273649 -2.2188326909 -0.0084280961
| 19> O 2.9554202378 0.5248986889 0.1711987971
| 20> O 0.931318594 2.4738679202 -0.4324283315
| 21> O -1.6789188626 1.7110191121 0.4514787324
| 22> O -3.5068829187 -0.4003463476 0.050377446
| 23> H -2.4806732321 -2.1940440903 -0.178855477
| 24> H -2.3410843437 -0.9945774773 -1.4765798403
| 25> H 2.0749812774 -2.3772132572 -0.9654949341
| 26> H 3.0731653518 0.3580178572 1.117643097
| 27> H 1.8800386717 2.6500733519 -0.3283830416
| 28> H -2.5858617359 1.4596996458 0.2005283342
| 29> H -3.7382910023 -0.6712733977 0.9503366376
| 30> *
| 31>
| 32>                          ****END OF INPUT****

CARTESIAN COORDINATES (ANGSTROEM)
---------------------------------
  C     -2.388253   -1.125002   -0.393054
  C     -1.072130   -0.620427    0.222383
  H     -1.137882   -0.643463    1.323587
  C     -0.788094    0.838494   -0.194122
  H     -0.873950    0.932910   -1.287078
  C      0.637936    1.250528    0.194514
  H      0.666954    1.376215    1.289919
  C      1.655575    0.175479   -0.228735
  H      1.682564    0.137688   -1.323907
  C      1.214306   -1.198949    0.307899
  H      1.173718   -1.165549    1.411202
  O     -0.062998   -1.508931   -0.209968
  O      2.082274   -2.218833   -0.008428
  O      2.955420    0.524899    0.171199
  O      0.931319    2.473868   -0.432428
  O     -1.678919    1.711019    0.451479
  O     -3.506883   -0.400346    0.050377
  H     -2.480673   -2.194044   -0.178855
  H     -2.341084   -0.994577   -1.476580
  H      2.074981   -2.377213   -0.965495
  H      3.073165    0.358018    1.117643
  H      1.880039    2.650073   -0.328383
  H     -2.585862    1.459700    0.200528
  H     -3.738291   -0.671273    0.950337

 Total Charge           Charge          ....    0
 Multiplicity           Mult            ....    1
 Number of Electrons    NEL             ....   96
 Basis Dimension        Dim             ....  192

ORBITAL ENERGIES
----------------

  NO   OCC          E(Eh)            E(eV)
   0   2.0000     -18.779400      -511.0134
   1   2.0000     -18.779049      -511.0039
   2   2.0000     -18.764858      -510.6177
   3   2.0000     -18.763635      -510.5845
   4   2.0000     -18.740411      -509.9525
   5   2.0000     -18.737523      -509.8739
   6   2.0000      -9.994052      -271.9520
   7   2.0000      -9.948730      -270.7187
   8   2.0000      -9.947521      -270.6858
   9   2.0000      -9.942584      -270.5515
  10   2.0000      -9.939165      -270.4584
  11   2.0000      -9.938425      -270.4383
  12   2.0000      -0.989870       -26.9357
  13   2.0000      -0.954111       -25.9627
  14   2.0000      -0.944443       -25.6996
  15   2.0000      -0.928842       -25.2751
  16   2.0000      -0.917968       -24.9792
  17   2.0000      -0.906865       -24.6771
  18   2.0000      -0.700992       -19.0749
  19   2.0000      -0.695820       -18.9342
  20   2.0000      -0.624088       -16.9823
  21   2.0000      -0.587309       -15.9815
  22   2.0000      -0.570199       -15.5159
  23   2.0000      -0.536948       -14.6111
  24   2.0000      -0.507954       -13.8221
  25   2.0000      -0.487812       -13.2740
  26   2.0000      -0.479028       -13.0350
  27   2.0000      -0.467450       -12.7200
  28   2.0000      -0.454445       -12.3661
  29   2.0000      -0.438842       -11.9415
  30   2.0000      -0.425876       -11.5887
  31   2.0000      -0.406958       -11.0739
  32   2.0000      -0.392641       -10.6843
  33   2.0000      -0.365252        -9.9390
  34   2.0000      -0.359593        -9.7850
  35   2.0000      -0.351647        -9.5688
  36   2.0000      -0.330267        -8.9870
  37   2.0000      -0.317803        -8.6479
  38   2.0000      -0.307396        -8.3647
  39   2.0000      -0.295242        -8.0339
  40   2.0000      -0.292327        -7.9546
  41   2.0000      -0.284174        -7.7328
  42   2.0000      -0.254864        -6.9352
  43   2.0000      -0.248602        -6.7648
  44   2.0000      -0.234803        -6.3893
  45   2.0000      -0.231730        -6.3057
  46   2.0000      -0.214044        -5.8244
  47   2.0000      -0.195879        -5.3301
  48   0.0000       0.006095         0.1659
  49   0.0000       0.017316         0.4712
  50   0.0000       0.025626         0.6973
  51   0.0000       0.036949         1.0054
  52   0.0000       0.058034         1.5792

MULLIKEN ATOMIC CHARGES
-----------------------
   0 C :    0.068979
   1 C :   -0.020868
   2 H :    0.045255
   3 C :    0.062534
   4 H :    0.053807
   5 C :    0.097022
   6 H :    0.037376
   7 C :    0.021542
   8 H :    0.056318
   9 C :    0.174980
  10 H :    0.038457
  11 O :   -0.303738
  12 O :   -0.364471
  13 O :   -0.409849
  14 O :   -0.405671
  15 O :   -0.418525
  16 O :   -0.434136
  17 H :    0.097175
  18 H :    0.089965
  19 H :    0.306594
  20 H :    0.301006
  21 H :    0.299268
  22 H :    0.297150
  23 H :    0.309828
Sum of atomic charges:   -0.0000000

LOEWDIN ATOMIC CHARGES
----------------------
   0 C :   -0.125621
   1 C :   -0.081619
   2 H :    0.096692
   3 C :   -0.064566
   4 H :    0.105960
   5 C :   -0.071714
   6 H :    0.097609
   7 C :   -0.104693
   8 H :    0.115422
   9 C :   -0.007017
  10 H :    0.091181
  11 O :   -0.153798
  12 O :   -0.283643
  13 O :   -0.308108
  14 O :   -0.316917
  15 O :   -0.321943
  16 O :   -0.318235
  17 H :    0.107780
  18 H :    0.118630
  19 H :    0.291957
  20 H :    0.287073
  21 H :    0.281430
  22 H :    0.271704
  23 H :    0.292436

  Mayer bond orders larger than 0.100000
B(  0-C ,  1-C ) :   1.0288 B(  0-C , 16-O ) :   1.0466 B(  0-C , 17-H ) :   0.9255
B(  0-C , 18-H ) :   0.9139 B(  1-C ,  2-H ) :   0.8729 B(  1-C ,  3-C ) :   0.9911
B(  1-C , 11-O ) :   0.9836 B(  3-C ,  4-H ) :   0.8732 B(  3-C ,  5-C ) :   1.0060
B(  3-C , 15-O ) :   1.1030 B(  5-C ,  6-H ) :   0.8688 B(  5-C ,  7-C ) :   0.9911
B(  5-C , 14-O ) :   1.1074 B(  7-C ,  8-H ) :   0.8557 B(  7-C ,  9-C ) :   0.9725
B(  7-C , 13-O ) :   1.0415 B(  9-C , 10-H ) :   0.8757 B(  9-C , 11-O ) :   0.9980
B(  9-C , 12-O ) :   1.1691 B( 12-O , 19-H ) :   0.8419 B( 13-O , 20-H ) :   0.8454
B( 14-O , 21-H ) :   0.8347 B( 15-O , 22-H ) :   0.8103 B( 16-O , 22-H ) :   0.1006
B( 16-O , 23-H ) :   0.8430

Dispersion correction           -0.023784472
FINAL SINGLE POINT ENERGY      -685.697024742053

DIPOLE MOMENT
-------------

Method             : SCF
Type of density    : Electron Density
Multiplicity       :   1
Irrep              :   0
Energy             :  -685.8273395686469485 Eh
Relativity type    :
Basis              : AO
                                X                 Y                 Z
Electronic contribution:      2.217022713       0.217602845      -0.238646372
Nuclear contribution   :     -2.434502659      -1.052937421       0.687930722
                        -----------------------------------------
Total Dipole Moment    :     -0.217479946      -0.835334577       0.449284350
                        -----------------------------------------
Magnitude (a.u.)       :      0.973107296
Magnitude (Debye)      :      2.473442179

Rotational constants in cm-1:             0.043841             0.024294             0.016454
Rotational constants in MHz :          1314.321149           728.320802           493.281360

                             ****ORCA TERMINATED NORMALLY****
TOTAL RUN TIME: 0 days 0 hours 0 minutes 11 seconds 674 msec
