                         Program Version 6.0.0  -   RELEASE  -
|  1> ! r2scan-3c def2/J RI DEFGRID2 scfconv6 printgap
|  2> %output
|  3>     printlevel normal
|  4> end
|  5> * xyz 0 1
|  6> C 5.1524370067 0.6916788594 0.0013990174
|  7> C 5.1524446921 -0.6916836111 0.000993812
|  8> C 3.9545762381 -1.3902522278 9.52582e-05
|  9> C 2.7582836242 -0.695652633 -0.0004654011
| 10> C 2.7582829469 0.6956522774 -0.0001968198
| 11> C 3.954568688 1.3902510199 0.0007919319
| 12> O 1.5776511378 1.4250172485 -0.0009183808
| 13> C 0.4305721447 0.7002390532 -0.0006814861
| 14> C 0.4305839825 -0.7002481909 -0.000734838
| 15> C -0.7792574976 -1.3868370191 -0.0002945979
| 16> C -1.9902154923 -0.6945766562 0.000122007
| 17> C -1.9902311008 0.6945967946 6.49267e-05
| 18> C -0.7792586296 1.3868400477 -0.0003190487
| 19> Cl -0.7526912802 3.103723727 -0.00041679
| 20> Cl -3.4711640543 1.5604276448 0.0005285486
| 21> Cl -3.471167196 -1.5604371168 0.0007183693
| 22> Cl -0.7526958706 -3.1037119667 -0.0002552391
| 23> O 1.5776470894 -1.4250282049 -0.0012453172
| 24> H 6.0823942716 1.2356837337 0.0023460206
| 25> H 6.0824023063 -1.2356818029 0.0015840627
| 26> H 3.9240780087 -2.4669403421 -0.0001355482
| 27> H 3.9240851618 2.4669399184 0.0010974964
| 28> *
| 29>
| 30>                          ****END OF INPUT****

CARTESIAN COORDINATES (ANGSTROEM)
---------------------------------
  C      5.152437    0.691679    0.001399
  C      5.152445   -0.691684    0.000994
  C      3.954576   -1.390252    0.000095
  C      2.758284   -0.695653   -0.000465
  C      2.758283    0.695652   -0.000197
  C      3.954569    1.390251    0.000792
  O      1.577651    1.425017   -0.000918
  C      0.430572    0.700239   -0.000681
  C      0.430584   -0.700248   -0.000735
  C     -0.779257   -1.386837   -0.000295
  C     -1.990215   -0.694577    0.000122
  C     -1.990231    0.694597    0.000065
  C     -0.779259    1.386840   -0.000319
  Cl    -0.752691    3.103724   -0.000417
  Cl    -3.471164    1.560428    0.000529
  Cl    -3.471167   -1.560437    0.000718
  Cl    -0.752696   -3.103712   -0.000255
  O      1.577647   -1.425028   -0.001245
  H      6.082394    1.235684    0.002346
  H      6.082402   -1.235682    0.001584
  H      3.924078   -2.466940   -0.000136
  H      3.924085    2.466940    0.001097

 Total Charge           Charge          ....    0
 Multiplicity           Mult            ....    1
 Number of Electrons    NEL             ....  160
 Basis Dimension        Dim             ....  404

ORBITAL ENERGIES
----------------

  NO   OCC          E(Eh)            E(eV)
   0   2.0000    -101.239729     -2754.8731
   1   2.0000    -101.239728     -2754.8731
   2   2.0000    -101.238633     -2754.8433
   3   2.0000    -101.238628     -2754.8431
   4   2.0000     -19.038597      -518.0666
   5   2.0000     -19.038590      -518.0664
   6   2.0000     -10.143740      -276.0252
   7   2.0000     -10.143339      -276.0143
   8   2.0000     -10.131454      -275.6909
   9   2.0000     -10.131027      -275.6793
  10   2.0000     -10.130001      -275.6513
  11   2.0000     -10.129997      -275.6512
  12   2.0000     -10.128669      -275.6151
  13   2.0000     -10.128234      -275.6033
  14   2.0000     -10.061220      -273.7797
  15   2.0000     -10.061209      -273.7794
  16   2.0000     -10.056880      -273.6616
  17   2.0000     -10.056412      -273.6489
  18   2.0000      -9.395325      -255.6598
  19   2.0000      -9.395324      -255.6598
  20   2.0000      -9.394364      -255.6336
  21   2.0000      -9.394358      -255.6335
  22   2.0000      -7.142071      -194.3456
  23   2.0000      -7.142071      -194.3456
  24   2.0000      -7.141098      -194.3192
  25   2.0000      -7.141095      -194.3191
  26   2.0000      -7.131567      -194.0598
  27   2.0000      -7.131567      -194.0598
  28   2.0000      -7.130624      -194.0341
  29   2.0000      -7.130624      -194.0341
  30   2.0000      -7.130590      -194.0332
  31   2.0000      -7.130586      -194.0331
  32   2.0000      -7.129655      -194.0078
  33   2.0000      -7.129652      -194.0077
  34   2.0000      -1.110008       -30.2048
  35   2.0000      -1.076287       -29.2873
  36   2.0000      -0.923106       -25.1190
  37   2.0000      -0.877949       -23.8902
  38   2.0000      -0.865201       -23.5433
  39   2.0000      -0.844980       -22.9931
  40   2.0000      -0.825218       -22.4553
  41   2.0000      -0.807106       -21.9625
  42   2.0000      -0.758200       -20.6317
  43   2.0000      -0.750706       -20.4278
  44   2.0000      -0.709834       -19.3156
  45   2.0000      -0.708529       -19.2800
  46   2.0000      -0.652821       -17.7642
  47   2.0000      -0.626607       -17.0509
  48   2.0000      -0.597361       -16.2550
  49   2.0000      -0.579550       -15.7704
  50   2.0000      -0.568442       -15.4681
  51   2.0000      -0.529594       -14.4110
  52   2.0000      -0.502792       -13.6817
  53   2.0000      -0.486275       -13.2322
  54   2.0000      -0.477650       -12.9975
  55   2.0000      -0.472222       -12.8498
  56   2.0000      -0.447553       -12.1785
  57   2.0000      -0.446054       -12.1377
  58   2.0000      -0.433172       -11.7872
  59   2.0000      -0.422476       -11.4962
  60   2.0000      -0.419891       -11.4258
  61   2.0000      -0.416474       -11.3328
  62   2.0000      -0.414010       -11.2658
  63   2.0000      -0.407817       -11.0973
  64   2.0000      -0.369868       -10.0646
  65   2.0000      -0.365621        -9.9490
  66   2.0000      -0.364505        -9.9187
  67   2.0000      -0.362748        -9.8709
  68   2.0000      -0.333483        -9.0745
  69   2.0000      -0.329604        -8.9690
  70   2.0000      -0.320623        -8.7246
  71   2.0000      -0.317998        -8.6532
  72   2.0000      -0.314731        -8.5643
  73   2.0000      -0.300813        -8.1856
  74   2.0000      -0.295474        -8.0403
  75   2.0000      -0.278873        -7.5885
  76   2.0000      -0.259621        -7.0646
  77   2.0000      -0.256303        -6.9743
  78   2.0000      -0.230018        -6.2591
  79   2.0000      -0.203355        -5.5336
  80   0.0000      -0.071400        -1.9429
  81   0.0000      -0.065453        -1.7811
  82   0.0000      -0.061806        -1.6818
  83   0.0000      -0.054423        -1.4809
  84   0.0000      -0.026613        -0.7242

MULLIKEN ATOMIC CHARGES
-----------------------
   0 C :   -0.122789
   1 C :   -0.122786
   2 C :   -0.318790
   3 C :    0.202761
   4 C :    0.202756
   5 C :   -0.318787
   6 O :   -0.078943
   7 C :    0.494938
   8 C :    0.494915
   9 C :   -0.386527
  10 C :    0.035757
  11 C :    0.035778
  12 C :   -0.386555
  13 Cl:   -0.075219
  14 Cl:   -0.065123
  15 Cl:   -0.065144
  16 Cl:   -0.075215
  17 O :   -0.078935
  18 H :    0.153065
  19 H :    0.153066
  20 H :    0.160888
  21 H :    0.160889
Sum of atomic charges:   -0.0000000

LOEWDIN ATOMIC CHARGES
----------------------
   0 C :   -0.157867
   1 C :   -0.157869
   2 C :   -0.113619
   3 C :    0.223880
   4 C :    0.223880
   5 C :   -0.113621
   6 O :   -0.568706
   7 C :    0.210759
   8 C :    0.210759
   9 C :   -0.150820
  10 C :   -0.201223
  11 C :   -0.201236
  12 C :   -0.150816
  13 Cl:    0.213368
  14 Cl:    0.185208
  15 Cl:    0.185185
  16 Cl:    0.213375
  17 O :   -0.568702
  18 H :    0.172282
  19 H :    0.172282
  20 H :    0.186750
  21 H :    0.186751

  Mayer bond orders larger than 0.100000
B(  0-C ,  1-C ) :   1.4126 B(  0-C ,  5-C ) :   1.3347 B(  0-C , 18-H ) :   0.9512
B(  1-C ,  2-C ) :   1.3347 B(  1-C , 19-H ) :   0.9512 B(  2-C ,  3-C ) :   1.3436
B(  2-C , 20-H ) :   0.9655 B(  3-C ,  4-C ) :   1.4911 B(  3-C , 17-O ) :   0.8800
B(  4-C ,  5-C ) :   1.3436 B(  4-C ,  6-O ) :   0.8800 B(  5-C , 21-H ) :   0.9655
B(  6-O ,  7-C ) :   1.1377 B(  7-C ,  8-C ) :   1.3291 B(  7-C ,  9-C ) :  -0.1867
B(  7-C , 12-C ) :   0.7723 B(  7-C , 13-Cl) :  -0.2486 B(  8-C ,  9-C ) :   0.7724
B(  8-C , 12-C ) :  -0.1867 B(  8-C , 16-Cl) :  -0.2486 B(  8-C , 17-O ) :   1.1377
B(  9-C , 10-C ) :   0.9480 B(  9-C , 12-C ) :   0.1491 B(  9-C , 16-Cl) :   1.4395
B( 10-C , 11-C ) :   1.0736 B( 10-C , 15-Cl) :   1.2478 B( 11-C , 12-C ) :   0.9480
B( 11-C , 14-Cl) :   1.2478 B( 12-C , 13-Cl) :   1.4395

Dispersion correction           -0.012968687
FINAL SINGLE POINT ENERGY     -2450.697120970088

DIPOLE MOMENT
-------------

Method             : SCF
Type of density    : Electron Density
Multiplicity       :   1
Irrep              :   0
Energy             : -2450.6962666940662530 Eh
Relativity type    :
Basis              : AO
                                X                 Y                 Z
Electronic contribution:    -28.844921487       0.000016186      -0.003268126
Nuclear contribution   :     30.160945695      -0.000001819       0.003785976
                        -----------------------------------------
Total Dipole Moment    :      1.316024208       0.000014367       0.000517850
                        -----------------------------------------
Magnitude (a.u.)       :      1.316024310
Magnitude (Debye)      :      3.345067959

Rotational constants in cm-1:             0.015680             0.007053             0.004865
Rotational constants in MHz :           470.060198           211.443532           145.841017

                             ****ORCA TERMINATED NORMALLY****
TOTAL RUN TIME: 0 days 0 hours 0 minutes 48 seconds 63 msec
