                         Program Version 6.0.0  -   RELEASE  -
|  1> ! r2scan-3c def2/J RI DEFGRID2 scfconv6 printgap
|  2> %output
|  3>     printlevel normal
|  4> end
|  5> %cpcm
|  6>     smd true
|  7>     smdsolvent "water"
|  8> end
|  9> * xyz 0 1
| 10> C 5.1524370067 0.6916788594 0.0013990174
| 11> C 5.1524446921 -0.6916836111 0.000993812
| 12> C 3.9545762381 -1.3902522278 9.52582e-05
| 13> C 2.7582836242 -0.695652633 -0.0004654011
| 14> C 2.7582829469 0.6956522774 -0.0001968198
| 15> C 3.954568688 1.3902510199 0.0007919319
| 16> O 1.5776511378 1.4250172485 -0.0009183808
| 17> C 0.4305721447 0.7002390532 -0.0006814861
| 18> C 0.4305839825 -0.7002481909 -0.000734838
| 19> C -0.7792574976 -1.3868370191 -0.0002945979
| 20> C -1.9902154923 -0.6945766562 0.000122007
| 21> C -1.9902311008 0.6945967946 6.49267e-05
| 22> C -0.7792586296 1.3868400477 -0.0003190487
| 23> Cl -0.7526912802 3.103723727 -0.00041679
| 24> Cl -3.4711640543 1.5604276448 0.0005285486
| 25> Cl -3.471167196 -1.5604371168 0.0007183693
| 26> Cl -0.7526958706 -3.1037119667 -0.0002552391
| 27> O 1.5776470894 -1.4250282049 -0.0012453172
| 28> H 6.0823942716 1.2356837337 0.0023460206
| 29> H 6.0824023063 -1.2356818029 0.0015840627
| 30> H 3.9240780087 -2.4669403421 -0.0001355482
| 31> H 3.9240851618 2.4669399184 0.0010974964
| 32> *
| 33>
| 34>                          ****END OF INPUT****

CARTESIAN COORDINATES (ANGSTROEM)
---------------------------------
  C      5.152437    0.691679    0.001399
  C      5.152445   -0.691684    0.000994
  C      3.954576   -1.390252    0.000095
  C      2.758284   -0.695653   -0.000465
  C      2.758283    0.695652   -0.000197
  C      3.954569    1.390251    0.000792
  O      1.577651    1.425017   -0.000918
  C      0.430572    0.700239   -0.000681
  C      0.430584   -0.700248   -0.000735
  C     -0.779257   -1.386837   -0.000295
  C     -1.990215   -0.694577    0.000122
  C     -1.990231    0.694597    0.000065
  C     -0.779259    1.386840   -0.000319
  Cl    -0.752691    3.103724   -0.000417
  Cl    -3.471164    1.560428    0.000529
  Cl    -3.471167   -1.560437    0.000718
  Cl    -0.752696   -3.103712   -0.000255
  O      1.577647   -1.425028   -0.001245
  H      6.082394    1.235684    0.002346
  H      6.082402   -1.235682    0.001584
  H      3.924078   -2.466940   -0.000136
  H      3.924085    2.466940    0.001097

 Total Charge           Charge          ....    0
 Multiplicity           Mult            ....    1
 Number of Electrons    NEL             ....  160
 Basis Dimension        Dim             ....  404

ORBITAL ENERGIES
----------------

  NO   OCC          E(Eh)            E(eV)
   0   2.0000    -101.242606     -2754.9514
   1   2.0000    -101.242605     -2754.9513
   2   2.0000    -101.242360     -2754.9447
   3   2.0000    -101.242355     -2754.9445
   4   2.0000     -19.034342      -517.9508
   5   2.0000     -19.034335      -517.9506
   6   2.0000     -10.140985      -275.9502
   7   2.0000     -10.140584      -275.9393
   8   2.0000     -10.131104      -275.6813
   9   2.0000     -10.130667      -275.6695
  10   2.0000     -10.128781      -275.6181
  11   2.0000     -10.128775      -275.6180
  12   2.0000     -10.119547      -275.3669
  13   2.0000     -10.119112      -275.3550
  14   2.0000     -10.048620      -273.4369
  15   2.0000     -10.048609      -273.4365
  16   2.0000     -10.043020      -273.2845
  17   2.0000     -10.042551      -273.2717
  18   2.0000      -9.398231      -255.7389
  19   2.0000      -9.398230      -255.7388
  20   2.0000      -9.398143      -255.7365
  21   2.0000      -9.398138      -255.7363
  22   2.0000      -7.144883      -194.4222
  23   2.0000      -7.144883      -194.4222
  24   2.0000      -7.144784      -194.4195
  25   2.0000      -7.144782      -194.4194
  26   2.0000      -7.134487      -194.1393
  27   2.0000      -7.134487      -194.1393
  28   2.0000      -7.134379      -194.1363
  29   2.0000      -7.134376      -194.1362
  30   2.0000      -7.133607      -194.1153
  31   2.0000      -7.133607      -194.1153
  32   2.0000      -7.133509      -194.1126
  33   2.0000      -7.133506      -194.1126
  34   2.0000      -1.104937       -30.0669
  35   2.0000      -1.071606       -29.1599
  36   2.0000      -0.923176       -25.1209
  37   2.0000      -0.879492       -23.9322
  38   2.0000      -0.862067       -23.4580
  39   2.0000      -0.840419       -22.8690
  40   2.0000      -0.828307       -22.5394
  41   2.0000      -0.805924       -21.9303
  42   2.0000      -0.749573       -20.3969
  43   2.0000      -0.744093       -20.2478
  44   2.0000      -0.706449       -19.2235
  45   2.0000      -0.703886       -19.1537
  46   2.0000      -0.647870       -17.6295
  47   2.0000      -0.619263       -16.8510
  48   2.0000      -0.592735       -16.1291
  49   2.0000      -0.573470       -15.6049
  50   2.0000      -0.562033       -15.2937
  51   2.0000      -0.526678       -14.3316
  52   2.0000      -0.495691       -13.4884
  53   2.0000      -0.480837       -13.0842
  54   2.0000      -0.472435       -12.8556
  55   2.0000      -0.467295       -12.7158
  56   2.0000      -0.448415       -12.2020
  57   2.0000      -0.434884       -11.8338
  58   2.0000      -0.423902       -11.5350
  59   2.0000      -0.420986       -11.4556
  60   2.0000      -0.418140       -11.3782
  61   2.0000      -0.415194       -11.2980
  62   2.0000      -0.410132       -11.1603
  63   2.0000      -0.402330       -10.9480
  64   2.0000      -0.365247        -9.9389
  65   2.0000      -0.360921        -9.8212
  66   2.0000      -0.359871        -9.7926
  67   2.0000      -0.347810        -9.4644
  68   2.0000      -0.333324        -9.0702
  69   2.0000      -0.324503        -8.8302
  70   2.0000      -0.322039        -8.7631
  71   2.0000      -0.321364        -8.7447
  72   2.0000      -0.318211        -8.6590
  73   2.0000      -0.304343        -8.2816
  74   2.0000      -0.293612        -7.9896
  75   2.0000      -0.283111        -7.7038
  76   2.0000      -0.253111        -6.8875
  77   2.0000      -0.251770        -6.8510
  78   2.0000      -0.228409        -6.2153
  79   2.0000      -0.198402        -5.3988
  80   0.0000      -0.067017        -1.8236
  81   0.0000      -0.063890        -1.7385
  82   0.0000      -0.062768        -1.7080
  83   0.0000      -0.043852        -1.1933
  84   0.0000      -0.019647        -0.5346

MULLIKEN ATOMIC CHARGES
-----------------------
   0 C :   -0.161357
   1 C :   -0.161353
   2 C :   -0.343081
   3 C :    0.205486
   4 C :    0.205481
   5 C :   -0.343079
   6 O :   -0.086690
   7 C :    0.518976
   8 C :    0.518957
   9 C :   -0.386981
  10 C :    0.042726
  11 C :    0.042744
  12 C :   -0.387005
  13 Cl:   -0.090403
  14 Cl:   -0.081287
  15 Cl:   -0.081310
  16 Cl:   -0.090399
  17 O :   -0.086680
  18 H :    0.188364
  19 H :    0.188365
  20 H :    0.194262
  21 H :    0.194263
Sum of atomic charges:   -0.0000000

LOEWDIN ATOMIC CHARGES
----------------------
   0 C :   -0.162274
   1 C :   -0.162275
   2 C :   -0.116675
   3 C :    0.221391
   4 C :    0.221391
   5 C :   -0.116677
   6 O :   -0.573318
   7 C :    0.221352
   8 C :    0.221352
   9 C :   -0.149290
  10 C :   -0.200291
  11 C :   -0.200304
  12 C :   -0.149286
  13 Cl:    0.203388
  14 Cl:    0.174275
  15 Cl:    0.174251
  16 Cl:    0.203395
  17 O :   -0.573313
  18 H :    0.183729
  19 H :    0.183729
  20 H :    0.197724
  21 H :    0.197725

  Mayer bond orders larger than 0.100000
B(  0-C ,  1-C ) :   1.3821 B(  0-C ,  5-C ) :   1.3187 B(  0-C , 18-H ) :   0.9554
B(  1-C ,  2-C ) :   1.3187 B(  1-C , 19-H ) :   0.9554 B(  2-C ,  3-C ) :   1.2920
B(  2-C , 20-H ) :   0.9734 B(  3-C ,  4-C ) :   1.4758 B(  3-C , 17-O ) :   0.8765
B(  4-C ,  5-C ) :   1.2920 B(  4-C ,  6-O ) :   0.8765 B(  5-C , 21-H ) :   0.9734
B(  6-O ,  7-C ) :   1.1469 B(  7-C ,  8-C ) :   1.3373 B(  7-C ,  9-C ) :  -0.1913
B(  7-C , 12-C ) :   0.7667 B(  7-C , 13-Cl) :  -0.2370 B(  8-C ,  9-C ) :   0.7667
B(  8-C , 12-C ) :  -0.1913 B(  8-C , 16-Cl) :  -0.2370 B(  8-C , 17-O ) :   1.1469
B(  9-C , 10-C ) :   0.9490 B(  9-C , 12-C ) :   0.1528 B(  9-C , 16-Cl) :   1.4147
B( 10-C , 11-C ) :   1.0809 B( 10-C , 15-Cl) :   1.2304 B( 11-C , 12-C ) :   0.9490
B( 11-C , 14-Cl) :   1.2304 B( 12-C , 13-Cl) :   1.4147

Dispersion correction           -0.012968687
FINAL SINGLE POINT ENERGY     -2450.697974596264

DIPOLE MOMENT
-------------

Method             : SCF
Type of density    : Electron Density
Multiplicity       :   1
Irrep              :   0
Energy             : -2450.6971203202415381 Eh
Relativity type    :
Basis              : AO
                                X                 Y                 Z
Electronic contribution:    -28.365386787       0.000017594      -0.003097179
Nuclear contribution   :     30.160945695      -0.000001819       0.003785976
                        -----------------------------------------
Total Dipole Moment    :      1.795558908       0.000015774       0.000688797
                        -----------------------------------------
Magnitude (a.u.)       :      1.795559040
Magnitude (Debye)      :      4.563948377

Rotational constants in cm-1:             0.015680             0.007053             0.004865
Rotational constants in MHz :           470.060198           211.443532           145.841017

                             ****ORCA TERMINATED NORMALLY****
TOTAL RUN TIME: 0 days 0 hours 1 minutes 0 seconds 336 msec
