                         Program Version 6.0.0  -   RELEASE  -
|  1> ! pbe def2-sv(p) def2/J RI DEFGRID1 loosescf d4 GCP(DFT/SV(P)) printgap
|  2> %output
|  3>     printlevel normal
|  4> end
|  5> * xyz 0 1
|  6> C -3.5848262522 0.2843593024 -0.3294600629
|  7> O -2.1945081214 0.3728106369 -0.6608857339
|  8> C -1.3063091627 -0.205808272 0.1384431127
|  9> O -1.604099159 -0.8179047294 1.1430738327
| 10> C 0.1045943542 0.0330150795 -0.3411768444
| 11> C 0.9276234249 -1.254307518 -0.2490947958
| 12> C 2.3760452067 -0.9943806465 -0.6496662372
| 13> C 2.990810283 0.0882226807 0.2315714999
| 14> C 2.1771352666 1.3745919045 0.1330797297
| 15> C 0.7290605263 1.1245662319 0.5418635943
| 16> H -3.698301788 0.0313696204 0.7252169611
| 17> H -4.0430606593 -0.4872152876 -0.9472062781
| 18> H -4.0200191474 1.2558693812 -0.5486158823
| 19> H 0.0582850386 0.3850552569 -1.3749771508
| 20> H 0.8807826937 -1.6231068219 0.7777390501
| 21> H 0.4890296491 -2.015933353 -0.8971442166
| 22> H 2.948189874 -1.9188745401 -0.5606762882
| 23> H 2.4100208962 -0.6756630523 -1.6934724429
| 24> H 3.0035362121 -0.2537098767 1.268506185
| 25> H 4.0210182955 0.2759676172 -0.0746842032
| 26> H 2.6076698285 2.1403179535 0.7799266101
| 27> H 2.2041007142 1.7445049409 -0.893673725
| 28> H 0.6875750607 0.7967843213 1.5831528496
| 29> H 0.147649264 2.0443862242 0.4513332914
| 30> *
| 31>
| 32>                          ****END OF INPUT****

CARTESIAN COORDINATES (ANGSTROEM)
---------------------------------
  C     -3.584826    0.284359   -0.329460
  O     -2.194508    0.372811   -0.660886
  C     -1.306309   -0.205808    0.138443
  O     -1.604099   -0.817905    1.143074
  C      0.104594    0.033015   -0.341177
  C      0.927623   -1.254308   -0.249095
  C      2.376045   -0.994381   -0.649666
  C      2.990810    0.088223    0.231571
  C      2.177135    1.374592    0.133080
  C      0.729061    1.124566    0.541864
  H     -3.698302    0.031370    0.725217
  H     -4.043061   -0.487215   -0.947206
  H     -4.020019    1.255869   -0.548616
  H      0.058285    0.385055   -1.374977
  H      0.880783   -1.623107    0.777739
  H      0.489030   -2.015933   -0.897144
  H      2.948190   -1.918875   -0.560676
  H      2.410021   -0.675663   -1.693472
  H      3.003536   -0.253710    1.268506
  H      4.021018    0.275968   -0.074684
  H      2.607670    2.140318    0.779927
  H      2.204101    1.744505   -0.893674
  H      0.687575    0.796784    1.583153
  H      0.147649    2.044386    0.451333

 Total Charge           Charge          ....    0
 Multiplicity           Mult            ....    1
 Number of Electrons    NEL             ....   78
 Basis Dimension        Dim             ....  168

ORBITAL ENERGIES
----------------

  NO   OCC          E(Eh)            E(eV)
   0   2.0000     -18.796383      -511.4756
   1   2.0000     -18.731666      -509.7145
   2   2.0000     -10.000581      -272.1296
   3   2.0000      -9.938257      -270.4337
   4   2.0000      -9.900739      -269.4128
   5   2.0000      -9.889493      -269.1068
   6   2.0000      -9.885123      -268.9879
   7   2.0000      -9.884273      -268.9647
   8   2.0000      -9.883423      -268.9416
   9   2.0000      -9.882846      -268.9259
  10   2.0000      -1.002342       -27.2751
  11   2.0000      -0.907485       -24.6939
  12   2.0000      -0.761933       -20.7333
  13   2.0000      -0.693789       -18.8790
  14   2.0000      -0.669041       -18.2055
  15   2.0000      -0.652050       -17.7432
  16   2.0000      -0.558688       -15.2027
  17   2.0000      -0.545712       -14.8496
  18   2.0000      -0.508538       -13.8380
  19   2.0000      -0.491178       -13.3656
  20   2.0000      -0.455773       -12.4022
  21   2.0000      -0.431494       -11.7415
  22   2.0000      -0.421292       -11.4639
  23   2.0000      -0.413573       -11.2539
  24   2.0000      -0.395822       -10.7709
  25   2.0000      -0.391314       -10.6482
  26   2.0000      -0.376829       -10.2540
  27   2.0000      -0.363895        -9.9021
  28   2.0000      -0.344796        -9.3824
  29   2.0000      -0.337880        -9.1942
  30   2.0000      -0.321079        -8.7370
  31   2.0000      -0.308003        -8.3812
  32   2.0000      -0.304029        -8.2730
  33   2.0000      -0.299932        -8.1616
  34   2.0000      -0.283757        -7.7214
  35   2.0000      -0.267427        -7.2771
  36   2.0000      -0.262136        -7.1331
  37   2.0000      -0.253560        -6.8997
  38   2.0000      -0.216470        -5.8904
  39   0.0000      -0.015619        -0.4250
  40   0.0000       0.034918         0.9502
  41   0.0000       0.051596         1.4040
  42   0.0000       0.057502         1.5647
  43   0.0000       0.071132         1.9356

MULLIKEN ATOMIC CHARGES
-----------------------
   0 C :   -0.126135
   1 O :   -0.239025
   2 C :    0.162588
   3 O :   -0.208845
   4 C :   -0.177995
   5 C :   -0.132859
   6 C :   -0.128978
   7 C :   -0.164326
   8 C :   -0.119544
   9 C :   -0.151067
  10 H :    0.131362
  11 H :    0.120607
  12 H :    0.121567
  13 H :    0.070623
  14 H :    0.093165
  15 H :    0.086226
  16 H :    0.086669
  17 H :    0.071752
  18 H :    0.078281
  19 H :    0.085732
  20 H :    0.087128
  21 H :    0.073030
  22 H :    0.091386
  23 H :    0.088657
Sum of atomic charges:   -0.0000000

LOEWDIN ATOMIC CHARGES
----------------------
   0 C :   -0.208626
   1 O :   -0.072450
   2 C :    0.047285
   3 O :   -0.170895
   4 C :   -0.164423
   5 C :   -0.212325
   6 C :   -0.225141
   7 C :   -0.227257
   8 C :   -0.224887
   9 C :   -0.208568
  10 H :    0.123596
  11 H :    0.119785
  12 H :    0.120400
  13 H :    0.124225
  14 H :    0.123247
  15 H :    0.118399
  16 H :    0.118096
  17 H :    0.113646
  18 H :    0.116046
  19 H :    0.116485
  20 H :    0.118270
  21 H :    0.114645
  22 H :    0.122184
  23 H :    0.118261

  Mayer bond orders larger than 0.100000
B(  0-C ,  1-O ) :   0.9355 B(  0-C , 10-H ) :   0.9319 B(  0-C , 11-H ) :   0.9603
B(  0-C , 12-H ) :   0.9611 B(  1-O ,  2-C ) :   1.2260 B(  2-C ,  3-O ) :   2.0624
B(  2-C ,  4-C ) :   0.9365 B(  4-C ,  5-C ) :   1.0779 B(  4-C ,  9-C ) :   1.0808
B(  4-C , 13-H ) :   0.8803 B(  5-C ,  6-C ) :   1.1389 B(  5-C , 14-H ) :   0.9011
B(  5-C , 15-H ) :   0.9214 B(  6-C ,  7-C ) :   1.1355 B(  6-C , 16-H ) :   0.9193
B(  6-C , 17-H ) :   0.9109 B(  7-C ,  8-C ) :   1.1359 B(  7-C , 18-H ) :   0.9153
B(  7-C , 19-H ) :   0.9196 B(  8-C ,  9-C ) :   1.1373 B(  8-C , 20-H ) :   0.9179
B(  8-C , 21-H ) :   0.9111 B(  9-C , 22-H ) :   0.9070 B(  9-C , 23-H ) :   0.9164

Dispersion correction           -0.022487654
FINAL SINGLE POINT ENERGY      -462.707150978589

DIPOLE MOMENT
-------------

Method             : SCF
Type of density    : Electron Density
Multiplicity       :   1
Irrep              :   0
Energy             :  -462.7951093485171441 Eh
Relativity type    :
Basis              : AO
                                X                 Y                 Z
Electronic contribution:     -7.243283209      -1.182942663       0.783074774
Nuclear contribution   :      7.164261560       1.588052754      -1.310577283
                        -----------------------------------------
Total Dipole Moment    :     -0.079021649       0.405110090      -0.527502509
                        -----------------------------------------
Magnitude (a.u.)       :      0.669789148
Magnitude (Debye)      :      1.702468718

Rotational constants in cm-1:             0.102923             0.024200             0.022443
Rotational constants in MHz :          3085.565274           725.489678           672.830941

                             ****ORCA TERMINATED NORMALLY****
TOTAL RUN TIME: 0 days 0 hours 0 minutes 11 seconds 929 msec
