                         Program Version 6.0.0  -   RELEASE  -
|  1> ! pbe def2-sv(p) def2/J RI DEFGRID1 loosescf d4 GCP(DFT/SV(P)) printgap
|  2> %output
|  3>     printlevel normal
|  4> end
|  5> * xyz 0 1
|  6> C -2.0066964102 -1.4198245384 -0.1559782897
|  7> C -1.0263109614 -0.522826275 0.6129414607
|  8> H -1.5059654608 -0.2000406323 1.545207158
|  9> C -0.6894298892 0.7334043053 -0.205185661
| 10> H -0.6302027481 0.479580168 -1.2756532716
| 11> C 0.6811249875 1.2493449102 0.2388991921
| 12> H 0.6820242197 1.3586611931 1.335249476
| 13> C 1.7326432874 0.2102732023 -0.1606928751
| 14> H 1.8784209389 0.2769034303 -1.2493994191
| 15> C 1.2358413386 -1.2146811828 0.1580245409
| 16> H 2.0282406736 -1.7146602601 0.7308575857
| 17> O 0.1308678856 -1.2402125517 1.0271737376
| 18> O 0.9712613315 -1.8686885142 -1.0436425843
| 19> O 2.9491948222 0.4022527685 0.5113693281
| 20> O 1.0112454047 2.4703018485 -0.3721618362
| 21> O -1.6325282127 1.7554881487 -0.0016647804
| 22> O -3.1728380675 -0.661914249 -0.3933071035
| 23> H -2.2233983552 -2.3050023645 0.4531312953
| 24> H -1.5425213237 -1.7301757909 -1.0999426132
| 25> H 0.9471972545 -2.8281269306 -0.9049620507
| 26> H 3.2531219856 1.3073941147 0.3428014364
| 27> H 0.2356852954 3.0499866847 -0.3163647931
| 28> H -2.5129524199 1.3996102861 -0.2029440089
| 29> H -3.824615264 -1.2102153528 -0.8520774567
| 30> *
| 31>
| 32>                          ****END OF INPUT****

CARTESIAN COORDINATES (ANGSTROEM)
---------------------------------
  C     -2.006696   -1.419825   -0.155978
  C     -1.026311   -0.522826    0.612941
  H     -1.505965   -0.200041    1.545207
  C     -0.689430    0.733404   -0.205186
  H     -0.630203    0.479580   -1.275653
  C      0.681125    1.249345    0.238899
  H      0.682024    1.358661    1.335249
  C      1.732643    0.210273   -0.160693
  H      1.878421    0.276903   -1.249399
  C      1.235841   -1.214681    0.158025
  H      2.028241   -1.714660    0.730858
  O      0.130868   -1.240213    1.027174
  O      0.971261   -1.868689   -1.043643
  O      2.949195    0.402253    0.511369
  O      1.011245    2.470302   -0.372162
  O     -1.632528    1.755488   -0.001665
  O     -3.172838   -0.661914   -0.393307
  H     -2.223398   -2.305002    0.453131
  H     -1.542521   -1.730176   -1.099943
  H      0.947197   -2.828127   -0.904962
  H      3.253122    1.307394    0.342801
  H      0.235685    3.049987   -0.316365
  H     -2.512952    1.399610   -0.202944
  H     -3.824615   -1.210215   -0.852077

 Total Charge           Charge          ....    0
 Multiplicity           Mult            ....    1
 Number of Electrons    NEL             ....   96
 Basis Dimension        Dim             ....  192

ORBITAL ENERGIES
----------------

  NO   OCC          E(Eh)            E(eV)
   0   2.0000     -18.772387      -510.8226
   1   2.0000     -18.765741      -510.6418
   2   2.0000     -18.765438      -510.6335
   3   2.0000     -18.747277      -510.1393
   4   2.0000     -18.742915      -510.0206
   5   2.0000     -18.742132      -509.9994
   6   2.0000      -9.982783      -271.6453
   7   2.0000      -9.941526      -270.5227
   8   2.0000      -9.937149      -270.4036
   9   2.0000      -9.935398      -270.3559
  10   2.0000      -9.932511      -270.2774
  11   2.0000      -9.930307      -270.2174
  12   2.0000      -0.979018       -26.6404
  13   2.0000      -0.945734       -25.7347
  14   2.0000      -0.935854       -25.4659
  15   2.0000      -0.922035       -25.0898
  16   2.0000      -0.912210       -24.8225
  17   2.0000      -0.905621       -24.6432
  18   2.0000      -0.700601       -19.0643
  19   2.0000      -0.690650       -18.7935
  20   2.0000      -0.622237       -16.9319
  21   2.0000      -0.573904       -15.6167
  22   2.0000      -0.560233       -15.2447
  23   2.0000      -0.513836       -13.9822
  24   2.0000      -0.503637       -13.7047
  25   2.0000      -0.494215       -13.4483
  26   2.0000      -0.470456       -12.8018
  27   2.0000      -0.465644       -12.6708
  28   2.0000      -0.437003       -11.8915
  29   2.0000      -0.423614       -11.5271
  30   2.0000      -0.404625       -11.0104
  31   2.0000      -0.392611       -10.6835
  32   2.0000      -0.383288       -10.4298
  33   2.0000      -0.377853       -10.2819
  34   2.0000      -0.363936        -9.9032
  35   2.0000      -0.353478        -9.6186
  36   2.0000      -0.326947        -8.8967
  37   2.0000      -0.317022        -8.6266
  38   2.0000      -0.304763        -8.2930
  39   2.0000      -0.295969        -8.0537
  40   2.0000      -0.270287        -7.3549
  41   2.0000      -0.262232        -7.1357
  42   2.0000      -0.258080        -7.0227
  43   2.0000      -0.239786        -6.5249
  44   2.0000      -0.227712        -6.1964
  45   2.0000      -0.213799        -5.8178
  46   2.0000      -0.212041        -5.7699
  47   2.0000      -0.205757        -5.5989
  48   0.0000       0.005371         0.1462
  49   0.0000       0.019247         0.5237
  50   0.0000       0.044273         1.2047
  51   0.0000       0.061480         1.6730
  52   0.0000       0.063037         1.7153

MULLIKEN ATOMIC CHARGES
-----------------------
   0 C :    0.039151
   1 C :    0.054051
   2 H :    0.076732
   3 C :   -0.011196
   4 H :    0.062666
   5 C :    0.066767
   6 H :    0.054213
   7 C :    0.078701
   8 H :    0.069129
   9 C :    0.170381
  10 H :    0.076734
  11 O :   -0.315293
  12 O :   -0.395621
  13 O :   -0.419854
  14 O :   -0.430247
  15 O :   -0.433257
  16 O :   -0.450025
  17 H :    0.078369
  18 H :    0.078430
  19 H :    0.306036
  20 H :    0.309814
  21 H :    0.310023
  22 H :    0.311414
  23 H :    0.312884
Sum of atomic charges:    0.0000000

LOEWDIN ATOMIC CHARGES
----------------------
   0 C :   -0.138025
   1 C :   -0.064867
   2 H :    0.119213
   3 C :   -0.079372
   4 H :    0.104846
   5 C :   -0.073892
   6 H :    0.105570
   7 C :   -0.071499
   8 H :    0.110423
   9 C :    0.001800
  10 H :    0.107970
  11 O :   -0.142692
  12 O :   -0.305953
  13 O :   -0.318164
  14 O :   -0.326933
  15 O :   -0.327549
  16 O :   -0.340564
  17 H :    0.098813
  18 H :    0.099152
  19 H :    0.287763
  20 H :    0.290894
  21 H :    0.287564
  22 H :    0.281556
  23 H :    0.293948

  Mayer bond orders larger than 0.100000
B(  0-C ,  1-C ) :   1.0760 B(  0-C , 16-O ) :   1.0470 B(  0-C , 17-H ) :   0.9166
B(  0-C , 18-H ) :   0.9021 B(  1-C ,  2-H ) :   0.8830 B(  1-C ,  3-C ) :   0.9819
B(  1-C , 11-O ) :   0.9865 B(  3-C ,  4-H ) :   0.8859 B(  3-C ,  5-C ) :   1.0298
B(  3-C , 15-O ) :   1.0746 B(  5-C ,  6-H ) :   0.8576 B(  5-C ,  7-C ) :   1.0491
B(  5-C , 14-O ) :   1.0914 B(  7-C ,  8-H ) :   0.8814 B(  7-C ,  9-C ) :   0.9899
B(  7-C , 13-O ) :   1.0871 B(  9-C , 10-H ) :   0.8940 B(  9-C , 11-O ) :   1.0722
B(  9-C , 12-O ) :   1.1060 B( 12-O , 19-H ) :   0.8388 B( 13-O , 20-H ) :   0.8428
B( 14-O , 21-H ) :   0.8304 B( 15-O , 22-H ) :   0.8166 B( 16-O , 23-H ) :   0.8438

Dispersion correction           -0.024552459
FINAL SINGLE POINT ENERGY      -685.697717952831

DIPOLE MOMENT
-------------

Method             : SCF
Type of density    : Electron Density
Multiplicity       :   1
Irrep              :   0
Energy             :  -685.8286677424410982 Eh
Relativity type    :
Basis              : AO
                                X                 Y                 Z
Electronic contribution:      1.980503491       1.085987392       0.912121336
Nuclear contribution   :     -3.012373951      -1.972548752      -1.405749839
                        -----------------------------------------
Total Dipole Moment    :     -1.031870460      -0.886561360      -0.493628503
                        -----------------------------------------
Magnitude (a.u.)       :      1.447210002
Magnitude (Debye)      :      3.678515489

Rotational constants in cm-1:             0.043237             0.026882             0.018777
Rotational constants in MHz :          1296.220280           805.912930           562.920905

                             ****ORCA TERMINATED NORMALLY****
TOTAL RUN TIME: 0 days 0 hours 0 minutes 12 seconds 517 msec
