                         Program Version 6.0.0  -   RELEASE  -
|  1> ! wb97x-v def2-tzvp def2/J RIJCOSX DEFGRID2 scfconv7 GCP(DFT/TZ) printgap
|  2> %output
|  3>     printlevel normal
|  4> end
|  5> * xyz 0 1
|  6> C 1.5886427749837213 1.5150624851722319 1.388867289226706
|  7> C 0.25982060841120924 0.7845479269559772 1.4059076095555783
|  8> H -0.21353621134567166 1.1250307410419271 2.33289893217271
|  9> C 0.2587075389986824 -0.783110188377255 1.406980290092071
| 10> H -0.21471704221493818 -1.121681153583757 2.334636796240687
| 11> C 1.586530876000924 -1.5155431925463174 1.390193102728439
| 12> O 2.384836008484809 -1.2813247693872538 0.19651126247982714
| 13> S 3.4536673740857995 -0.0019280028377484095 0.2093528583237385
| 14> O 4.1221648132993804 -0.0018285853739270406 1.5382252602175817
| 15> O 2.3866962838332317 1.2789802496107243 0.19541704672754237
| 16> C -0.7191303119844691 -1.124945003309492 0.23826735966635085
| 17> C -0.1148938523452272 -0.6701499030012386 -1.0845463546740797
| 18> C -0.113597440736277 0.668028446076501 -1.085614246356601
| 19> C -0.7171190879672327 1.1261517613962637 0.2363924826393099
| 20> C -1.7933613643210327 0.001680387746462822 0.3998647171853862
| 21> Cl -3.043226552178224 0.001716735551589006 -0.8845059004796837
| 22> Cl -2.6383600276001764 0.0036901207677014886 1.9764001326650118
| 23> Cl -1.3357339341910952 2.7871982263785404 0.2596137297231214
| 24> Cl 0.4294775697806332 1.7090543891647774 -2.322084803821302
| 25> Cl 0.42618639582524154 -1.7142826384522165 -2.3192651996081732
| 26> Cl -1.340716920829145 -2.7848416707865282 0.26445751340962376
| 27> H 2.1627615868679473 1.2552881328767171 2.284127839526255
| 28> H 1.4199879265900235 2.59506892921605 1.4015834813210437
| 29> H 2.161138580475718 -1.2560837657438637 2.285224746402122
| 30> H 1.4163426796768863 -2.5953041082110437 1.4035368921543334
| 31> *
| 32>
| 33>                          ****END OF INPUT****

CARTESIAN COORDINATES (ANGSTROEM)
---------------------------------
  C      1.588643    1.515062    1.388867
  C      0.259821    0.784548    1.405908
  H     -0.213536    1.125031    2.332899
  C      0.258708   -0.783110    1.406980
  H     -0.214717   -1.121681    2.334637
  C      1.586531   -1.515543    1.390193
  O      2.384836   -1.281325    0.196511
  S      3.453667   -0.001928    0.209353
  O      4.122165   -0.001829    1.538225
  O      2.386696    1.278980    0.195417
  C     -0.719130   -1.124945    0.238267
  C     -0.114894   -0.670150   -1.084546
  C     -0.113597    0.668028   -1.085614
  C     -0.717119    1.126152    0.236392
  C     -1.793361    0.001680    0.399865
  Cl    -3.043227    0.001717   -0.884506
  Cl    -2.638360    0.003690    1.976400
  Cl    -1.335734    2.787198    0.259614
  Cl     0.429478    1.709054   -2.322085
  Cl     0.426186   -1.714283   -2.319265
  Cl    -1.340717   -2.784842    0.264458
  H      2.162762    1.255288    2.284128
  H      1.419988    2.595069    1.401583
  H      2.161139   -1.256084    2.285225
  H      1.416343   -2.595304    1.403537

 Total Charge           Charge          ....    0
 Multiplicity           Mult            ....    1
 Number of Electrons    NEL             ....  202
 Basis Dimension        Dim             ....  667

ORBITAL ENERGIES
----------------

  NO   OCC          E(Eh)            E(eV)
   0   2.0000    -107.174036     -2916.3538
   1   2.0000    -107.172252     -2916.3052
   2   2.0000    -107.172223     -2916.3045
   3   2.0000    -107.167270     -2916.1697
   4   2.0000    -107.167255     -2916.1693
   5   2.0000    -107.165696     -2916.1268
   6   2.0000     -94.320239     -2566.5842
   7   2.0000     -21.735764      -591.4602
   8   2.0000     -21.735641      -591.4569
   9   2.0000     -21.686341      -590.1153
  10   2.0000     -12.221398      -332.5612
  11   2.0000     -12.181463      -331.4745
  12   2.0000     -12.180941      -331.4603
  13   2.0000     -12.148758      -330.5845
  14   2.0000     -12.146197      -330.5148
  15   2.0000     -12.139051      -330.3204
  16   2.0000     -12.138910      -330.3165
  17   2.0000     -12.113968      -329.6378
  18   2.0000     -12.112855      -329.6075
  19   2.0000     -11.327412      -308.2345
  20   2.0000     -11.324942      -308.1673
  21   2.0000     -11.324925      -308.1669
  22   2.0000     -11.320423      -308.0444
  23   2.0000     -11.320388      -308.0434
  24   2.0000     -11.318855      -308.0017
  25   2.0000      -9.808010      -266.8895
  26   2.0000      -9.119109      -248.1436
  27   2.0000      -9.117034      -248.0871
  28   2.0000      -9.116485      -248.0722
  29   2.0000      -9.116166      -248.0635
  30   2.0000      -9.116083      -248.0612
  31   2.0000      -9.114083      -248.0068
  32   2.0000      -9.114012      -248.0049
  33   2.0000      -9.113515      -247.9913
  34   2.0000      -9.113449      -247.9895
  35   2.0000      -9.112292      -247.9581
  36   2.0000      -9.111814      -247.9451
  37   2.0000      -9.110344      -247.9051
  38   2.0000      -9.109298      -247.8766
  39   2.0000      -9.109172      -247.8732
  40   2.0000      -9.109135      -247.8722
  41   2.0000      -9.109045      -247.8697
  42   2.0000      -9.107410      -247.8252
  43   2.0000      -9.107362      -247.8239
  44   2.0000      -7.786950      -211.8937
  45   2.0000      -7.786505      -211.8816
  46   2.0000      -7.781872      -211.7555
  47   2.0000      -1.763015       -47.9741
  48   2.0000      -1.714606       -46.6568
  49   2.0000      -1.693533       -46.0834
  50   2.0000      -1.526306       -41.5329
  51   2.0000      -1.467933       -39.9445
  52   2.0000      -1.453460       -39.5507
  53   2.0000      -1.438066       -39.1318
  54   2.0000      -1.433886       -39.0180
  55   2.0000      -1.410010       -38.3683
  56   2.0000      -1.400340       -38.1052
  57   2.0000      -1.355971       -36.8978
  58   2.0000      -1.310426       -35.6585
  59   2.0000      -1.303167       -35.4610
  60   2.0000      -1.248603       -33.9762
  61   2.0000      -1.240503       -33.7558
  62   2.0000      -1.170547       -31.8522
  63   2.0000      -1.144383       -31.1403
  64   2.0000      -1.099946       -29.9311
  65   2.0000      -1.076753       -29.2999
  66   2.0000      -1.072954       -29.1966
  67   2.0000      -1.046654       -28.4809
  68   2.0000      -1.039158       -28.2769
  69   2.0000      -1.016714       -27.6662
  70   2.0000      -1.013042       -27.5663
  71   2.0000      -0.993358       -27.0306
  72   2.0000      -0.988301       -26.8930
  73   2.0000      -0.970456       -26.4074
  74   2.0000      -0.962261       -26.1844
  75   2.0000      -0.960323       -26.1317
  76   2.0000      -0.944592       -25.7037
  77   2.0000      -0.941144       -25.6098
  78   2.0000      -0.927001       -25.2250
  79   2.0000      -0.924656       -25.1612
  80   2.0000      -0.916513       -24.9396
  81   2.0000      -0.907838       -24.7035
  82   2.0000      -0.887529       -24.1509
  83   2.0000      -0.882102       -24.0032
  84   2.0000      -0.861828       -23.4515
  85   2.0000      -0.859307       -23.3829
  86   2.0000      -0.851398       -23.1677
  87   2.0000      -0.840043       -22.8587
  88   2.0000      -0.832639       -22.6573
  89   2.0000      -0.829451       -22.5705
  90   2.0000      -0.824969       -22.4486
  91   2.0000      -0.823340       -22.4042
  92   2.0000      -0.817554       -22.2468
  93   2.0000      -0.815831       -22.1999
  94   2.0000      -0.815570       -22.1928
  95   2.0000      -0.808888       -22.0109
  96   2.0000      -0.805149       -21.9092
  97   2.0000      -0.803404       -21.8617
  98   2.0000      -0.800919       -21.7941
  99   2.0000      -0.785092       -21.3634
 100   2.0000      -0.707787       -19.2599
 101   0.0000      -0.370771       -10.0892
 102   0.0000      -0.363369        -9.8878
 103   0.0000      -0.356181        -9.6922
 104   0.0000      -0.320280        -8.7153
 105   0.0000      -0.304824        -8.2947

MULLIKEN ATOMIC CHARGES
-----------------------
   0 C :   -0.139521
   1 C :   -0.153968
   2 H :    0.143919
   3 C :   -0.153960
   4 H :    0.143889
   5 C :   -0.139459
   6 O :   -0.289195
   7 S :    0.671051
   8 O :   -0.465748
   9 O :   -0.289178
  10 C :    0.240518
  11 C :   -0.139440
  12 C :   -0.139823
  13 C :    0.240813
  14 C :    0.064069
  15 Cl:   -0.047722
  16 Cl:   -0.061972
  17 Cl:   -0.059610
  18 Cl:    0.000894
  19 Cl:    0.000885
  20 Cl:   -0.059581
  21 H :    0.172739
  22 H :    0.143835
  23 H :    0.172721
  24 H :    0.143843
Sum of atomic charges:    0.0000000

LOEWDIN ATOMIC CHARGES
----------------------
   0 C :   -0.296438
   1 C :   -0.204921
   2 H :    0.169067
   3 C :   -0.204875
   4 H :    0.169065
   5 C :   -0.296394
   6 O :   -0.056902
   7 S :    0.641896
   8 O :   -0.363842
   9 O :   -0.056875
  10 C :   -0.477168
  11 C :   -0.482344
  12 C :   -0.482346
  13 C :   -0.477137
  14 C :   -0.688554
  15 Cl:    0.397499
  16 Cl:    0.394047
  17 Cl:    0.408106
  18 Cl:    0.473612
  19 Cl:    0.473627
  20 Cl:    0.408091
  21 H :    0.135197
  22 H :    0.141198
  23 H :    0.135189
  24 H :    0.141202

  Mayer bond orders larger than 0.100000
B(  0-C ,  1-C ) :   0.9378 B(  0-C ,  9-O ) :   0.8974 B(  0-C , 21-H ) :   0.9820
B(  0-C , 22-H ) :   0.9602 B(  1-C ,  2-H ) :   0.9479 B(  1-C ,  3-C ) :   0.9575
B(  1-C , 13-C ) :   0.9244 B(  3-C ,  4-H ) :   0.9479 B(  3-C ,  5-C ) :   0.9378
B(  3-C , 10-C ) :   0.9245 B(  5-C ,  6-O ) :   0.8974 B(  5-C , 23-H ) :   0.9820
B(  5-C , 24-H ) :   0.9602 B(  6-O ,  7-S ) :   1.0325 B(  7-S ,  8-O ) :   1.8095
B(  7-S ,  9-O ) :   1.0325 B( 10-C , 11-C ) :   0.9056 B( 10-C , 14-C ) :   1.0294
B( 10-C , 20-Cl) :   1.1251 B( 11-C , 12-C ) :   1.7068 B( 11-C , 19-Cl) :   1.2110
B( 12-C , 13-C ) :   0.9055 B( 12-C , 18-Cl) :   1.2111 B( 13-C , 14-C ) :   1.0294
B( 13-C , 17-Cl) :   1.1248 B( 14-C , 15-Cl) :   1.1373 B( 14-C , 16-Cl) :   1.1131

FINAL SINGLE POINT ENERGY     -3731.263503174981

DIPOLE MOMENT
-------------

Method             : SCF
Type of density    : Electron Density
Multiplicity       :   1
Irrep              :   0
Energy             : -3731.2826367464813302 Eh
Relativity type    :
Basis              : AO
                                X                 Y                 Z
Electronic contribution:    -16.529024791       0.001772962     -14.529290788
Nuclear contribution   :     16.397237192      -0.001325950      15.345632930
                        -----------------------------------------
Total Dipole Moment    :     -0.131787599       0.000447012       0.816342142
                        -----------------------------------------
Magnitude (a.u.)       :      0.826911521
Magnitude (Debye)      :      2.101842051

Rotational constants in cm-1:             0.010006             0.006958             0.006435
Rotational constants in MHz :           299.961273           208.593226           192.901501

                             ****ORCA TERMINATED NORMALLY****
TOTAL RUN TIME: 0 days 0 hours 14 minutes 17 seconds 148 msec
