                         Program Version 6.0.0  -   RELEASE  -
|  1> ! wb97x-v def2-tzvp def2/J RIJCOSX DEFGRID2 scfconv7 GCP(DFT/TZ) printgap
|  2> %output
|  3>     printlevel normal
|  4> end
|  5> %cpcm
|  6>     smd true
|  7>     smdsolvent "water"
|  8> end
|  9> * xyz 0 1
| 10> C 1.5886427749837213 1.5150624851722319 1.388867289226706
| 11> C 0.25982060841120924 0.7845479269559772 1.4059076095555783
| 12> H -0.21353621134567166 1.1250307410419271 2.33289893217271
| 13> C 0.2587075389986824 -0.783110188377255 1.406980290092071
| 14> H -0.21471704221493818 -1.121681153583757 2.334636796240687
| 15> C 1.586530876000924 -1.5155431925463174 1.390193102728439
| 16> O 2.384836008484809 -1.2813247693872538 0.19651126247982714
| 17> S 3.4536673740857995 -0.0019280028377484095 0.2093528583237385
| 18> O 4.1221648132993804 -0.0018285853739270406 1.5382252602175817
| 19> O 2.3866962838332317 1.2789802496107243 0.19541704672754237
| 20> C -0.7191303119844691 -1.124945003309492 0.23826735966635085
| 21> C -0.1148938523452272 -0.6701499030012386 -1.0845463546740797
| 22> C -0.113597440736277 0.668028446076501 -1.085614246356601
| 23> C -0.7171190879672327 1.1261517613962637 0.2363924826393099
| 24> C -1.7933613643210327 0.001680387746462822 0.3998647171853862
| 25> Cl -3.043226552178224 0.001716735551589006 -0.8845059004796837
| 26> Cl -2.6383600276001764 0.0036901207677014886 1.9764001326650118
| 27> Cl -1.3357339341910952 2.7871982263785404 0.2596137297231214
| 28> Cl 0.4294775697806332 1.7090543891647774 -2.322084803821302
| 29> Cl 0.42618639582524154 -1.7142826384522165 -2.3192651996081732
| 30> Cl -1.340716920829145 -2.7848416707865282 0.26445751340962376
| 31> H 2.1627615868679473 1.2552881328767171 2.284127839526255
| 32> H 1.4199879265900235 2.59506892921605 1.4015834813210437
| 33> H 2.161138580475718 -1.2560837657438637 2.285224746402122
| 34> H 1.4163426796768863 -2.5953041082110437 1.4035368921543334
| 35> *
| 36>
| 37>                          ****END OF INPUT****

CARTESIAN COORDINATES (ANGSTROEM)
---------------------------------
  C      1.588643    1.515062    1.388867
  C      0.259821    0.784548    1.405908
  H     -0.213536    1.125031    2.332899
  C      0.258708   -0.783110    1.406980
  H     -0.214717   -1.121681    2.334637
  C      1.586531   -1.515543    1.390193
  O      2.384836   -1.281325    0.196511
  S      3.453667   -0.001928    0.209353
  O      4.122165   -0.001829    1.538225
  O      2.386696    1.278980    0.195417
  C     -0.719130   -1.124945    0.238267
  C     -0.114894   -0.670150   -1.084546
  C     -0.113597    0.668028   -1.085614
  C     -0.717119    1.126152    0.236392
  C     -1.793361    0.001680    0.399865
  Cl    -3.043227    0.001717   -0.884506
  Cl    -2.638360    0.003690    1.976400
  Cl    -1.335734    2.787198    0.259614
  Cl     0.429478    1.709054   -2.322085
  Cl     0.426186   -1.714283   -2.319265
  Cl    -1.340717   -2.784842    0.264458
  H      2.162762    1.255288    2.284128
  H      1.419988    2.595069    1.401583
  H      2.161139   -1.256084    2.285225
  H      1.416343   -2.595304    1.403537

 Total Charge           Charge          ....    0
 Multiplicity           Mult            ....    1
 Number of Electrons    NEL             ....  202
 Basis Dimension        Dim             ....  667

ORBITAL ENERGIES
----------------

  NO   OCC          E(Eh)            E(eV)
   0   2.0000    -107.173350     -2916.3351
   1   2.0000    -107.173321     -2916.3343
   2   2.0000    -107.168953     -2916.2155
   3   2.0000    -107.165788     -2916.1293
   4   2.0000    -107.162848     -2916.0494
   5   2.0000    -107.162834     -2916.0490
   6   2.0000     -94.320645     -2566.5952
   7   2.0000     -21.731165      -591.3351
   8   2.0000     -21.731048      -591.3319
   9   2.0000     -21.689354      -590.1973
  10   2.0000     -12.217028      -332.4422
  11   2.0000     -12.174502      -331.2850
  12   2.0000     -12.173978      -331.2708
  13   2.0000     -12.146255      -330.5164
  14   2.0000     -12.143693      -330.4467
  15   2.0000     -12.119647      -329.7924
  16   2.0000     -12.119505      -329.7885
  17   2.0000     -12.095841      -329.1446
  18   2.0000     -12.094731      -329.1144
  19   2.0000     -11.326078      -308.1983
  20   2.0000     -11.326064      -308.1979
  21   2.0000     -11.322298      -308.0954
  22   2.0000     -11.319028      -308.0064
  23   2.0000     -11.316046      -307.9253
  24   2.0000     -11.316013      -307.9244
  25   2.0000      -9.808270      -266.8966
  26   2.0000      -9.118149      -248.1175
  27   2.0000      -9.117606      -248.1027
  28   2.0000      -9.115235      -248.0382
  29   2.0000      -9.115174      -248.0365
  30   2.0000      -9.114679      -248.0230
  31   2.0000      -9.114642      -248.0220
  32   2.0000      -9.114001      -248.0046
  33   2.0000      -9.111403      -247.9339
  34   2.0000      -9.110971      -247.9221
  35   2.0000      -9.110165      -247.9002
  36   2.0000      -9.107911      -247.8389
  37   2.0000      -9.107695      -247.8330
  38   2.0000      -9.107559      -247.8293
  39   2.0000      -9.107410      -247.8252
  40   2.0000      -9.104867      -247.7560
  41   2.0000      -9.104788      -247.7539
  42   2.0000      -9.104787      -247.7539
  43   2.0000      -9.104697      -247.7514
  44   2.0000      -7.787141      -211.8989
  45   2.0000      -7.786772      -211.8888
  46   2.0000      -7.782294      -211.7670
  47   2.0000      -1.760896       -47.9164
  48   2.0000      -1.709100       -46.5070
  49   2.0000      -1.695207       -46.1289
  50   2.0000      -1.521490       -41.4018
  51   2.0000      -1.466782       -39.9132
  52   2.0000      -1.451279       -39.4913
  53   2.0000      -1.434176       -39.0259
  54   2.0000      -1.432019       -38.9672
  55   2.0000      -1.407636       -38.3037
  56   2.0000      -1.393705       -37.9246
  57   2.0000      -1.346454       -36.6389
  58   2.0000      -1.297231       -35.2995
  59   2.0000      -1.295950       -35.2646
  60   2.0000      -1.242988       -33.8234
  61   2.0000      -1.232580       -33.5402
  62   2.0000      -1.161843       -31.6154
  63   2.0000      -1.134476       -30.8707
  64   2.0000      -1.095230       -29.8027
  65   2.0000      -1.071736       -29.1634
  66   2.0000      -1.068976       -29.0883
  67   2.0000      -1.041346       -28.3365
  68   2.0000      -1.031626       -28.0720
  69   2.0000      -1.012935       -27.5634
  70   2.0000      -1.005543       -27.3622
  71   2.0000      -0.984066       -26.7778
  72   2.0000      -0.980258       -26.6742
  73   2.0000      -0.963226       -26.2107
  74   2.0000      -0.959369       -26.1058
  75   2.0000      -0.954229       -25.9659
  76   2.0000      -0.943631       -25.6775
  77   2.0000      -0.940194       -25.5840
  78   2.0000      -0.921395       -25.0724
  79   2.0000      -0.920701       -25.0536
  80   2.0000      -0.919942       -25.0329
  81   2.0000      -0.892970       -24.2989
  82   2.0000      -0.874013       -23.7831
  83   2.0000      -0.869772       -23.6677
  84   2.0000      -0.854476       -23.2515
  85   2.0000      -0.849003       -23.1025
  86   2.0000      -0.843238       -22.9457
  87   2.0000      -0.831630       -22.6298
  88   2.0000      -0.828940       -22.5566
  89   2.0000      -0.827452       -22.5161
  90   2.0000      -0.819124       -22.2895
  91   2.0000      -0.819044       -22.2873
  92   2.0000      -0.814554       -22.1651
  93   2.0000      -0.813923       -22.1480
  94   2.0000      -0.813512       -22.1368
  95   2.0000      -0.805975       -21.9317
  96   2.0000      -0.803844       -21.8737
  97   2.0000      -0.796679       -21.6787
  98   2.0000      -0.792297       -21.5595
  99   2.0000      -0.780706       -21.2441
 100   2.0000      -0.705748       -19.2044
 101   0.0000      -0.368673       -10.0321
 102   0.0000      -0.359766        -9.7897
 103   0.0000      -0.354702        -9.6519
 104   0.0000      -0.316966        -8.6251
 105   0.0000      -0.301842        -8.2135

MULLIKEN ATOMIC CHARGES
-----------------------
   0 C :   -0.147758
   1 C :   -0.132675
   2 H :    0.179495
   3 C :   -0.132642
   4 H :    0.179480
   5 C :   -0.147669
   6 O :   -0.312857
   7 S :    0.689648
   8 O :   -0.531233
   9 O :   -0.312834
  10 C :    0.241576
  11 C :   -0.146589
  12 C :   -0.147016
  13 C :    0.241913
  14 C :    0.053189
  15 Cl:   -0.066057
  16 Cl:   -0.061802
  17 Cl:   -0.074988
  18 Cl:   -0.010791
  19 Cl:   -0.010796
  20 Cl:   -0.074963
  21 H :    0.194652
  22 H :    0.168045
  23 H :    0.194629
  24 H :    0.168042
Sum of atomic charges:   -0.0000000

LOEWDIN ATOMIC CHARGES
----------------------
   0 C :   -0.283392
   1 C :   -0.193560
   2 H :    0.181606
   3 C :   -0.193509
   4 H :    0.181609
   5 C :   -0.283349
   6 O :   -0.064117
   7 S :    0.642071
   8 O :   -0.404594
   9 O :   -0.064090
  10 C :   -0.476680
  11 C :   -0.483474
  12 C :   -0.483479
  13 C :   -0.476652
  14 C :   -0.689563
  15 Cl:    0.383363
  16 Cl:    0.394885
  17 Cl:    0.399434
  18 Cl:    0.463959
  19 Cl:    0.463977
  20 Cl:    0.399422
  21 H :    0.143957
  22 H :    0.149113
  23 H :    0.143949
  24 H :    0.149114

  Mayer bond orders larger than 0.100000
B(  0-C ,  1-C ) :   0.9379 B(  0-C ,  9-O ) :   0.8673 B(  0-C , 21-H ) :   0.9782
B(  0-C , 22-H ) :   0.9526 B(  1-C ,  2-H ) :   0.9390 B(  1-C ,  3-C ) :   0.9452
B(  1-C , 13-C ) :   0.9184 B(  3-C ,  4-H ) :   0.9390 B(  3-C ,  5-C ) :   0.9380
B(  3-C , 10-C ) :   0.9185 B(  5-C ,  6-O ) :   0.8672 B(  5-C , 23-H ) :   0.9782
B(  5-C , 24-H ) :   0.9526 B(  6-O ,  7-S ) :   1.0526 B(  7-S ,  8-O ) :   1.7666
B(  7-S ,  9-O ) :   1.0526 B( 10-C , 11-C ) :   0.8988 B( 10-C , 14-C ) :   1.0330
B( 10-C , 20-Cl) :   1.1025 B( 11-C , 12-C ) :   1.7083 B( 11-C , 19-Cl) :   1.2016
B( 12-C , 13-C ) :   0.8987 B( 12-C , 18-Cl) :   1.2017 B( 13-C , 14-C ) :   1.0330
B( 13-C , 17-Cl) :   1.1024 B( 14-C , 15-Cl) :   1.1239 B( 14-C , 16-Cl) :   1.1327

FINAL SINGLE POINT ENERGY     -3731.275637190927

DIPOLE MOMENT
-------------

Method             : SCF
Type of density    : Electron Density
Multiplicity       :   1
Irrep              :   0
Energy             : -3731.2947707624266513 Eh
Relativity type    :
Basis              : AO
                                X                 Y                 Z
Electronic contribution:    -16.568943624       0.002141303     -13.847946963
Nuclear contribution   :     16.397237192      -0.001325950      15.345632930
                        -----------------------------------------
Total Dipole Moment    :     -0.171706432       0.000815353       1.497685968
                        -----------------------------------------
Magnitude (a.u.)       :      1.507496939
Magnitude (Debye)      :      3.831752704

Rotational constants in cm-1:             0.010006             0.006958             0.006435
Rotational constants in MHz :           299.961273           208.593226           192.901501

                             ****ORCA TERMINATED NORMALLY****
TOTAL RUN TIME: 0 days 0 hours 15 minutes 37 seconds 335 msec
