                         Program Version 6.0.0  -   RELEASE  -
|  1> ! wb97x-v def2-tzvp def2/J RIJCOSX DEFGRID2 scfconv7 GCP(DFT/TZ) printgap
|  2> %output
|  3>     printlevel normal
|  4> end
|  5> * xyz 0 1
|  6> C -3.61661096191221 -1.0338265370038184 0.033518857322599654
|  7> C -2.1218876573099186 -1.327270526208351 -0.007299441448923246
|  8> C -1.2119289229736476 -0.12210692143239858 0.020277426701070994
|  9> C -1.705618105815032 1.1649605076045495 0.08131318392412686
| 10> C -0.8523341307430553 2.290184291425642 0.10771882110604429
| 11> C 0.5095461525144049 2.133475003780908 0.07300036557426985
| 12> C 1.0723810895948553 0.8345964692276708 0.010170639591270717
| 13> C 0.2087361375643969 -0.30909165464000193 -0.016577778613528046
| 14> C 0.8056462608655646 -1.5943944212471006 -0.07908884236427165
| 15> C 2.173746708436228 -1.7434827454214057 -0.11365705457874993
| 16> C 3.0189129523214255 -0.6150889768821527 -0.08758718679168925
| 17> C 2.476191986790525 0.6462400337148555 -0.026559333728314937
| 18> H -3.9017198605226575 -0.5018006505052427 0.9469137906845608
| 19> H -4.176176280558538 -1.9733994913315507 0.007649207705221294
| 20> H -3.9360387438517956 -0.4326471273336775 -0.8239516862117846
| 21> H -1.8960653315587135 -1.9142337519785784 -0.9074143744223097
| 22> H -1.8610237156781706 -1.97999907972518 0.8362782941664726
| 23> H -2.7767368905691465 1.331546896352555 0.1101109781933655
| 24> H -1.2877074303070246 3.283717233962065 0.15588708048865574
| 25> H 1.1732865924963525 2.9932659088405145 0.09271738304324992
| 26> H 0.17706485340052372 -2.4774293366907827 -0.10009063659955789
| 27> H 2.6071058796138957 -2.737758129527641 -0.1612574164515463
| 28> H 4.096046128034968 -0.7469664475559482 -0.11532141823823419
| 29> H 3.1169636231540623 1.5236179841992314 -0.005759177945657753
| 30> *
| 31>
| 32>                          ****END OF INPUT****

CARTESIAN COORDINATES (ANGSTROEM)
---------------------------------
  C     -3.616611   -1.033827    0.033519
  C     -2.121888   -1.327271   -0.007299
  C     -1.211929   -0.122107    0.020277
  C     -1.705618    1.164961    0.081313
  C     -0.852334    2.290184    0.107719
  C      0.509546    2.133475    0.073000
  C      1.072381    0.834596    0.010171
  C      0.208736   -0.309092   -0.016578
  C      0.805646   -1.594394   -0.079089
  C      2.173747   -1.743483   -0.113657
  C      3.018913   -0.615089   -0.087587
  C      2.476192    0.646240   -0.026559
  H     -3.901720   -0.501801    0.946914
  H     -4.176176   -1.973399    0.007649
  H     -3.936039   -0.432647   -0.823952
  H     -1.896065   -1.914234   -0.907414
  H     -1.861024   -1.979999    0.836278
  H     -2.776737    1.331547    0.110111
  H     -1.287707    3.283717    0.155887
  H      1.173287    2.993266    0.092717
  H      0.177065   -2.477429   -0.100091
  H      2.607106   -2.737758   -0.161257
  H      4.096046   -0.746966   -0.115321
  H      3.116964    1.523618   -0.005759

 Total Charge           Charge          ....    0
 Multiplicity           Mult            ....    1
 Number of Electrons    NEL             ....   84
 Basis Dimension        Dim             ....  444

ORBITAL ENERGIES
----------------

  NO   OCC          E(Eh)            E(eV)
   0   2.0000     -12.061057      -328.1980
   1   2.0000     -12.059931      -328.1674
   2   2.0000     -12.058159      -328.1192
   3   2.0000     -12.052843      -327.9745
   4   2.0000     -12.052267      -327.9588
   5   2.0000     -12.051929      -327.9497
   6   2.0000     -12.050628      -327.9143
   7   2.0000     -12.050281      -327.9048
   8   2.0000     -12.049535      -327.8845
   9   2.0000     -12.047810      -327.8376
  10   2.0000     -12.045859      -327.7845
  11   2.0000     -12.039723      -327.6175
  12   2.0000      -1.400844       -38.1189
  13   2.0000      -1.349685       -36.7268
  14   2.0000      -1.315548       -35.7979
  15   2.0000      -1.271135       -34.5893
  16   2.0000      -1.267576       -34.4925
  17   2.0000      -1.232131       -33.5280
  18   2.0000      -1.143518       -31.1167
  19   2.0000      -1.122814       -30.5533
  20   2.0000      -1.113111       -30.2893
  21   2.0000      -1.060469       -28.8568
  22   2.0000      -0.996126       -27.1060
  23   2.0000      -0.977956       -26.6115
  24   2.0000      -0.969485       -26.3810
  25   2.0000      -0.913947       -24.8698
  26   2.0000      -0.905373       -24.6365
  27   2.0000      -0.897224       -24.4147
  28   2.0000      -0.882431       -24.0122
  29   2.0000      -0.875692       -23.8288
  30   2.0000      -0.861317       -23.4376
  31   2.0000      -0.834161       -22.6987
  32   2.0000      -0.831704       -22.6318
  33   2.0000      -0.814537       -22.1647
  34   2.0000      -0.803152       -21.8549
  35   2.0000      -0.798336       -21.7238
  36   2.0000      -0.783443       -21.3186
  37   2.0000      -0.774273       -21.0690
  38   2.0000      -0.722483       -19.6598
  39   2.0000      -0.673187       -18.3183
  40   2.0000      -0.626626       -17.0514
  41   2.0000      -0.594339       -16.1728
  42   0.0000      -0.281153        -7.6506
  43   0.0000      -0.254508        -6.9255
  44   0.0000      -0.196475        -5.3464
  45   0.0000      -0.127745        -3.4761
  46   0.0000      -0.056157        -1.5281

MULLIKEN ATOMIC CHARGES
-----------------------
   0 C :   -0.369355
   1 C :   -0.167813
   2 C :    0.103199
   3 C :   -0.202888
   4 C :   -0.121783
   5 C :   -0.228026
   6 C :    0.189297
   7 C :    0.065836
   8 C :   -0.240062
   9 C :   -0.132875
  10 C :   -0.104565
  11 C :   -0.198814
  12 H :    0.119404
  13 H :    0.121838
  14 H :    0.119471
  15 H :    0.110876
  16 H :    0.110943
  17 H :    0.127798
  18 H :    0.114144
  19 H :    0.109931
  20 H :    0.129021
  21 H :    0.116052
  22 H :    0.116461
  23 H :    0.111909
Sum of atomic charges:   -0.0000000

LOEWDIN ATOMIC CHARGES
----------------------
   0 C :   -0.301719
   1 C :   -0.243716
   2 C :   -0.102799
   3 C :   -0.118309
   4 C :   -0.140424
   5 C :   -0.107321
   6 C :   -0.090016
   7 C :   -0.061229
   8 C :   -0.103483
   9 C :   -0.140681
  10 C :   -0.142442
  11 C :   -0.099923
  12 H :    0.118922
  13 H :    0.118970
  14 H :    0.118971
  15 H :    0.144027
  16 H :    0.144060
  17 H :    0.146342
  18 H :    0.141800
  19 H :    0.144246
  20 H :    0.146524
  21 H :    0.141594
  22 H :    0.141511
  23 H :    0.145092

  Mayer bond orders larger than 0.100000
B(  0-C ,  1-C ) :   0.9951 B(  0-C , 12-H ) :   0.9819 B(  0-C , 13-H ) :   0.9812
B(  0-C , 14-H ) :   0.9820 B(  1-C ,  2-C ) :   0.9499 B(  1-C , 15-H ) :   0.9688
B(  1-C , 16-H ) :   0.9687 B(  2-C ,  3-C ) :   1.5207 B(  2-C ,  7-C ) :   1.1685
B(  3-C ,  4-C ) :   1.2820 B(  3-C , 17-H ) :   0.9669 B(  4-C ,  5-C ) :   1.5862
B(  4-C , 18-H ) :   0.9810 B(  5-C ,  6-C ) :   1.1944 B(  5-C , 19-H ) :   0.9850
B(  6-C ,  7-C ) :   1.2946 B(  6-C , 11-C ) :   1.2278 B(  7-C ,  8-C ) :   1.2241
B(  8-C ,  9-C ) :   1.6010 B(  8-C , 20-H ) :   0.9648 B(  9-C , 10-C ) :   1.2805
B(  9-C , 21-H ) :   0.9746 B( 10-C , 11-C ) :   1.5611 B( 10-C , 22-H ) :   0.9770
B( 11-C , 23-H ) :   0.9822

FINAL SINGLE POINT ENERGY      -464.535078539253

DIPOLE MOMENT
-------------

Method             : SCF
Type of density    : Electron Density
Multiplicity       :   1
Irrep              :   0
Energy             :  -464.5485234926528619 Eh
Relativity type    :
Basis              : AO
                                X                 Y                 Z
Electronic contribution:      8.022775962       3.285312353      -0.037459161
Nuclear contribution   :     -8.154909288      -3.424310429       0.035082297
                        -----------------------------------------
Total Dipole Moment    :     -0.132133326      -0.138998076      -0.002376864
                        -----------------------------------------
Magnitude (a.u.)       :      0.191795022
Magnitude (Debye)      :      0.487504202

Rotational constants in cm-1:             0.054700             0.026296             0.017876
Rotational constants in MHz :          1639.851394           788.331282           535.913909

                             ****ORCA TERMINATED NORMALLY****
TOTAL RUN TIME: 0 days 0 hours 5 minutes 49 seconds 162 msec
