                         Program Version 6.0.0  -   RELEASE  -
|  1> ! wb97x-v def2-tzvp def2/J RIJCOSX DEFGRID2 scfconv7 GCP(DFT/TZ) printgap
|  2> %output
|  3>     printlevel normal
|  4> end
|  5> %cpcm
|  6>     smd true
|  7>     smdsolvent "water"
|  8> end
|  9> * xyz 0 1
| 10> C -3.61661096191221 -1.0338265370038184 0.033518857322599654
| 11> C -2.1218876573099186 -1.327270526208351 -0.007299441448923246
| 12> C -1.2119289229736476 -0.12210692143239858 0.020277426701070994
| 13> C -1.705618105815032 1.1649605076045495 0.08131318392412686
| 14> C -0.8523341307430553 2.290184291425642 0.10771882110604429
| 15> C 0.5095461525144049 2.133475003780908 0.07300036557426985
| 16> C 1.0723810895948553 0.8345964692276708 0.010170639591270717
| 17> C 0.2087361375643969 -0.30909165464000193 -0.016577778613528046
| 18> C 0.8056462608655646 -1.5943944212471006 -0.07908884236427165
| 19> C 2.173746708436228 -1.7434827454214057 -0.11365705457874993
| 20> C 3.0189129523214255 -0.6150889768821527 -0.08758718679168925
| 21> C 2.476191986790525 0.6462400337148555 -0.026559333728314937
| 22> H -3.9017198605226575 -0.5018006505052427 0.9469137906845608
| 23> H -4.176176280558538 -1.9733994913315507 0.007649207705221294
| 24> H -3.9360387438517956 -0.4326471273336775 -0.8239516862117846
| 25> H -1.8960653315587135 -1.9142337519785784 -0.9074143744223097
| 26> H -1.8610237156781706 -1.97999907972518 0.8362782941664726
| 27> H -2.7767368905691465 1.331546896352555 0.1101109781933655
| 28> H -1.2877074303070246 3.283717233962065 0.15588708048865574
| 29> H 1.1732865924963525 2.9932659088405145 0.09271738304324992
| 30> H 0.17706485340052372 -2.4774293366907827 -0.10009063659955789
| 31> H 2.6071058796138957 -2.737758129527641 -0.1612574164515463
| 32> H 4.096046128034968 -0.7469664475559482 -0.11532141823823419
| 33> H 3.1169636231540623 1.5236179841992314 -0.005759177945657753
| 34> *
| 35>
| 36>                          ****END OF INPUT****

CARTESIAN COORDINATES (ANGSTROEM)
---------------------------------
  C     -3.616611   -1.033827    0.033519
  C     -2.121888   -1.327271   -0.007299
  C     -1.211929   -0.122107    0.020277
  C     -1.705618    1.164961    0.081313
  C     -0.852334    2.290184    0.107719
  C      0.509546    2.133475    0.073000
  C      1.072381    0.834596    0.010171
  C      0.208736   -0.309092   -0.016578
  C      0.805646   -1.594394   -0.079089
  C      2.173747   -1.743483   -0.113657
  C      3.018913   -0.615089   -0.087587
  C      2.476192    0.646240   -0.026559
  H     -3.901720   -0.501801    0.946914
  H     -4.176176   -1.973399    0.007649
  H     -3.936039   -0.432647   -0.823952
  H     -1.896065   -1.914234   -0.907414
  H     -1.861024   -1.979999    0.836278
  H     -2.776737    1.331547    0.110111
  H     -1.287707    3.283717    0.155887
  H      1.173287    2.993266    0.092717
  H      0.177065   -2.477429   -0.100091
  H      2.607106   -2.737758   -0.161257
  H      4.096046   -0.746966   -0.115321
  H      3.116964    1.523618   -0.005759

 Total Charge           Charge          ....    0
 Multiplicity           Mult            ....    1
 Number of Electrons    NEL             ....   84
 Basis Dimension        Dim             ....  444

ORBITAL ENERGIES
----------------

  NO   OCC          E(Eh)            E(eV)
   0   2.0000     -12.061232      -328.2028
   1   2.0000     -12.060234      -328.1756
   2   2.0000     -12.058644      -328.1324
   3   2.0000     -12.051130      -327.9279
   4   2.0000     -12.050557      -327.9123
   5   2.0000     -12.049005      -327.8701
   6   2.0000     -12.048848      -327.8658
   7   2.0000     -12.047816      -327.8377
   8   2.0000     -12.046225      -327.7944
   9   2.0000     -12.043725      -327.7264
  10   2.0000     -12.041784      -327.6736
  11   2.0000     -12.027800      -327.2931
  12   2.0000      -1.401768       -38.1441
  13   2.0000      -1.349410       -36.7193
  14   2.0000      -1.313711       -35.7479
  15   2.0000      -1.268544       -34.5188
  16   2.0000      -1.266525       -34.4639
  17   2.0000      -1.227957       -33.4144
  18   2.0000      -1.139632       -31.0110
  19   2.0000      -1.121876       -30.5278
  20   2.0000      -1.109366       -30.1874
  21   2.0000      -1.056718       -28.7548
  22   2.0000      -0.994142       -27.0520
  23   2.0000      -0.976486       -26.5715
  24   2.0000      -0.967891       -26.3377
  25   2.0000      -0.911469       -24.8023
  26   2.0000      -0.903204       -24.5774
  27   2.0000      -0.892141       -24.2764
  28   2.0000      -0.878201       -23.8971
  29   2.0000      -0.865692       -23.5567
  30   2.0000      -0.857654       -23.3379
  31   2.0000      -0.830016       -22.5859
  32   2.0000      -0.824615       -22.4389
  33   2.0000      -0.809491       -22.0274
  34   2.0000      -0.797874       -21.7113
  35   2.0000      -0.797848       -21.7106
  36   2.0000      -0.775381       -21.0992
  37   2.0000      -0.766338       -20.8531
  38   2.0000      -0.723510       -19.6877
  39   2.0000      -0.674118       -18.3437
  40   2.0000      -0.628754       -17.1093
  41   2.0000      -0.594987       -16.1904
  42   0.0000      -0.281573        -7.6620
  43   0.0000      -0.256300        -6.9743
  44   0.0000      -0.197504        -5.3744
  45   0.0000      -0.127729        -3.4757
  46   0.0000      -0.050549        -1.3755

MULLIKEN ATOMIC CHARGES
-----------------------
   0 C :   -0.401213
   1 C :   -0.161279
   2 C :    0.072677
   3 C :   -0.240509
   4 C :   -0.160480
   5 C :   -0.276428
   6 C :    0.166715
   7 C :    0.053416
   8 C :   -0.276583
   9 C :   -0.176935
  10 C :   -0.143816
  11 C :   -0.240977
  12 H :    0.129728
  13 H :    0.138942
  14 H :    0.129789
  15 H :    0.127709
  16 H :    0.127676
  17 H :    0.166394
  18 H :    0.158557
  19 H :    0.156621
  20 H :    0.169683
  21 H :    0.160712
  22 H :    0.161247
  23 H :    0.158353
Sum of atomic charges:   -0.0000000

LOEWDIN ATOMIC CHARGES
----------------------
   0 C :   -0.304999
   1 C :   -0.241509
   2 C :   -0.108609
   3 C :   -0.125799
   4 C :   -0.149492
   5 C :   -0.117645
   6 C :   -0.104452
   7 C :   -0.073267
   8 C :   -0.108565
   9 C :   -0.148665
  10 C :   -0.150090
  11 C :   -0.107940
  12 H :    0.121150
  13 H :    0.121939
  14 H :    0.121191
  15 H :    0.149655
  16 H :    0.149662
  17 H :    0.155403
  18 H :    0.151424
  19 H :    0.154754
  20 H :    0.156996
  21 H :    0.151508
  22 H :    0.151410
  23 H :    0.155939

  Mayer bond orders larger than 0.100000
B(  0-C ,  1-C ) :   0.9887 B(  0-C , 12-H ) :   0.9784 B(  0-C , 13-H ) :   0.9785
B(  0-C , 14-H ) :   0.9784 B(  1-C ,  2-C ) :   0.9723 B(  1-C , 15-H ) :   0.9639
B(  1-C , 16-H ) :   0.9638 B(  2-C ,  3-C ) :   1.5010 B(  2-C ,  7-C ) :   1.1580
B(  3-C ,  4-C ) :   1.2610 B(  3-C , 17-H ) :   0.9748 B(  4-C ,  5-C ) :   1.5630
B(  4-C , 18-H ) :   0.9861 B(  5-C ,  6-C ) :   1.1806 B(  5-C , 19-H ) :   0.9918
B(  6-C ,  7-C ) :   1.2647 B(  6-C , 11-C ) :   1.2166 B(  7-C ,  8-C ) :   1.2122
B(  8-C ,  9-C ) :   1.5746 B(  8-C , 20-H ) :   0.9737 B(  9-C , 10-C ) :   1.2604
B(  9-C , 21-H ) :   0.9797 B( 10-C , 11-C ) :   1.5396 B( 10-C , 22-H ) :   0.9797
B( 11-C , 23-H ) :   0.9879

FINAL SINGLE POINT ENERGY      -464.538207067144

DIPOLE MOMENT
-------------

Method             : SCF
Type of density    : Electron Density
Multiplicity       :   1
Irrep              :   0
Energy             :  -464.5516520205443953 Eh
Relativity type    :
Basis              : AO
                                X                 Y                 Z
Electronic contribution:      7.982986867       3.199730235      -0.039846495
Nuclear contribution   :     -8.154909288      -3.424310429       0.035082297
                        -----------------------------------------
Total Dipole Moment    :     -0.171922422      -0.224580194      -0.004764197
                        -----------------------------------------
Magnitude (a.u.)       :      0.282871491
Magnitude (Debye)      :      0.719002189

Rotational constants in cm-1:             0.054700             0.026296             0.017876
Rotational constants in MHz :          1639.851394           788.331282           535.913909

                             ****ORCA TERMINATED NORMALLY****
TOTAL RUN TIME: 0 days 0 hours 6 minutes 0 seconds 168 msec
