                         Program Version 6.0.0  -   RELEASE  -
|  1> ! pbe def2-sv(p) def2/J RI DEFGRID1 loosescf d4 GCP(DFT/SV(P)) printgap
|  2> %output
|  3>     printlevel normal
|  4> end
|  5> * xyz 0 1
|  6> C -1.4500933721 0.5574230034 1.3694021012
|  7> C -0.9845575589 -0.3289755458 0.2176231686
|  8> H -1.0784839778 -1.3950515011 0.4779887314
|  9> C 0.5034736001 -0.0970090955 -0.0432093518
| 10> F 0.7948807913 1.1741397932 -0.3512447207
| 11> F 1.256319947 -0.4047537921 1.0306984513
| 12> F 0.9751867442 -0.8506616212 -1.0502505528
| 13> O -1.6182408074 -0.0513764096 -1.0035491551
| 14> H -0.8443459062 0.3674284466 2.2506878011
| 15> H -2.487614709 0.3405085784 1.6022664124
| 16> H -1.3554146317 1.6035688992 1.0882484374
| 17> H -2.5786577297 -0.1352304008 -0.8967315657
| 18> *
| 19>
| 20>                          ****END OF INPUT****

CARTESIAN COORDINATES (ANGSTROEM)
---------------------------------
  C     -1.450093    0.557423    1.369402
  C     -0.984558   -0.328976    0.217623
  H     -1.078484   -1.395052    0.477989
  C      0.503474   -0.097009   -0.043209
  F      0.794881    1.174140   -0.351245
  F      1.256320   -0.404754    1.030698
  F      0.975187   -0.850662   -1.050251
  O     -1.618241   -0.051376   -1.003549
  H     -0.844346    0.367428    2.250688
  H     -2.487615    0.340509    1.602266
  H     -1.355415    1.603569    1.088248
  H     -2.578658   -0.135230   -0.896732

 Total Charge           Charge          ....    0
 Multiplicity           Mult            ....    1
 Number of Electrons    NEL             ....   58
 Basis Dimension        Dim             ....  108

ORBITAL ENERGIES
----------------

  NO   OCC          E(Eh)            E(eV)
   0   2.0000     -24.282348      -660.7563
   1   2.0000     -24.280068      -660.6942
   2   2.0000     -24.274902      -660.5537
   3   2.0000     -18.770260      -510.7647
   4   2.0000     -10.116027      -275.2711
   5   2.0000      -9.969137      -271.2740
   6   2.0000      -9.898113      -269.3414
   7   2.0000      -1.184183       -32.2232
   8   2.0000      -1.091585       -29.7035
   9   2.0000      -1.087883       -29.6028
  10   2.0000      -0.949240       -25.8301
  11   2.0000      -0.715936       -19.4816
  12   2.0000      -0.632246       -17.2043
  13   2.0000      -0.574602       -15.6357
  14   2.0000      -0.526032       -14.3141
  15   2.0000      -0.517125       -14.0717
  16   2.0000      -0.485245       -13.2042
  17   2.0000      -0.472170       -12.8484
  18   2.0000      -0.412674       -11.2294
  19   2.0000      -0.391790       -10.6611
  20   2.0000      -0.390599       -10.6287
  21   2.0000      -0.381666       -10.3857
  22   2.0000      -0.355780        -9.6813
  23   2.0000      -0.350192        -9.5292
  24   2.0000      -0.344533        -9.3752
  25   2.0000      -0.331390        -9.0176
  26   2.0000      -0.327876        -8.9220
  27   2.0000      -0.295289        -8.0352
  28   2.0000      -0.241148        -6.5620
  29   0.0000       0.008468         0.2304
  30   0.0000       0.055930         1.5219
  31   0.0000       0.075186         2.0459
  32   0.0000       0.088292         2.4025
  33   0.0000       0.104301         2.8382

MULLIKEN ATOMIC CHARGES
-----------------------
   0 C :   -0.280017
   1 C :   -0.031482
   2 H :    0.088333
   3 C :    0.405673
   4 F :   -0.138726
   5 F :   -0.148454
   6 F :   -0.137356
   7 O :   -0.416410
   8 H :    0.119355
   9 H :    0.107824
  10 H :    0.122871
  11 H :    0.308389
Sum of atomic charges:   -0.0000000

LOEWDIN ATOMIC CHARGES
----------------------
   0 C :   -0.354700
   1 C :   -0.097696
   2 H :    0.115002
   3 C :    0.108784
   4 F :   -0.041121
   5 F :   -0.053353
   6 F :   -0.043935
   7 O :   -0.313835
   8 H :    0.133699
   9 H :    0.123246
  10 H :    0.131298
  11 H :    0.292611

  Mayer bond orders larger than 0.100000
B(  0-C ,  1-C ) :   1.0876 B(  0-C ,  8-H ) :   0.9322 B(  0-C ,  9-H ) :   0.9436
B(  0-C , 10-H ) :   0.9386 B(  1-C ,  2-H ) :   0.8865 B(  1-C ,  3-C ) :   0.9654
B(  1-C ,  7-O ) :   1.0740 B(  3-C ,  4-F ) :   1.1644 B(  3-C ,  5-F ) :   1.1424
B(  3-C ,  6-F ) :   1.1814 B(  7-O , 11-H ) :   0.8461

Dispersion correction           -0.008175218
FINAL SINGLE POINT ENERGY      -491.113386499243

DIPOLE MOMENT
-------------

Method             : SCF
Type of density    : Electron Density
Multiplicity       :   1
Irrep              :   0
Energy             :  -491.1837322580258842 Eh
Relativity type    :
Basis              : AO
                                X                 Y                 Z
Electronic contribution:      9.489844551      -0.987619882      -3.979143305
Nuclear contribution   :    -10.656585386       0.807468468       4.571558342
                        -----------------------------------------
Total Dipole Moment    :     -1.166740835      -0.180151414       0.592415036
                        -----------------------------------------
Magnitude (a.u.)       :      1.320868761
Magnitude (Debye)      :      3.357381575

Rotational constants in cm-1:             0.118025             0.080525             0.065752
Rotational constants in MHz :          3538.310037          2414.082945          1971.185738

                             ****ORCA TERMINATED NORMALLY****
TOTAL RUN TIME: 0 days 0 hours 0 minutes 5 seconds 880 msec
