                         Program Version 6.0.0  -   RELEASE  -
|  1> ! wb97x-v def2-tzvp def2/J RIJCOSX DEFGRID2 scfconv7 GCP(DFT/TZ) printgap
|  2> %output
|  3>     printlevel normal
|  4> end
|  5> * xyz 0 1
|  6> C -3.8311898153274266 -0.7089612153086721 0.00022474788738347158
|  7> O -2.3874567300232012 -0.8256064653544091 -0.000976344051232822
|  8> C -1.7062865736316124 0.3390132947997214 0.0004613666308332237
|  9> O -2.2633165468653136 1.4296965916174253 0.0028640616035610724
| 10> C -0.24651103358629828 0.14760652899171914 9.369210602256191e-06
| 11> C 0.5762422447411368 1.2814519989224022 0.0011917390642913338
| 12> C 1.9545555497143319 1.1570562019093256 0.0010219429799236785
| 13> C 2.529277987418333 -0.11770515654531222 -0.00013038514341347004
| 14> C 1.7229728276074687 -1.2593999634489528 -0.0013350059333909017
| 15> C 0.34599184262058885 -1.1240546772852262 -0.0012623474617900316
| 16> O 3.8808293833111804 -0.30669794355718877 -7.323178405890559e-05
| 17> H -4.202083610406993 -1.733189598705435 -0.008790708420933413
| 18> H -4.168754654821416 -0.17335482508637237 -0.8903723157043736
| 19> H -4.168113449474357 -0.18939021929619132 0.9005598584161227
| 20> H 0.12626797338821305 2.268128409923283 0.0020731780701612732
| 21> H 2.591068479641025 2.0369555232988295 0.0018306598253870637
| 22> H 2.187108361880085 -2.2398179077216063 -0.002252513000172835
| 23> H -0.2727412320091788 -2.013337817126229 -0.0021641243034247635
| 24> H 4.329806920266053 0.5514906420536161 0.001016854367880666
| 25> *
| 26>
| 27>                          ****END OF INPUT****

CARTESIAN COORDINATES (ANGSTROEM)
---------------------------------
  C     -3.831190   -0.708961    0.000225
  O     -2.387457   -0.825606   -0.000976
  C     -1.706287    0.339013    0.000461
  O     -2.263317    1.429697    0.002864
  C     -0.246511    0.147607    0.000009
  C      0.576242    1.281452    0.001192
  C      1.954556    1.157056    0.001022
  C      2.529278   -0.117705   -0.000130
  C      1.722973   -1.259400   -0.001335
  C      0.345992   -1.124055   -0.001262
  O      3.880829   -0.306698   -0.000073
  H     -4.202084   -1.733190   -0.008791
  H     -4.168755   -0.173355   -0.890372
  H     -4.168113   -0.189390    0.900560
  H      0.126268    2.268128    0.002073
  H      2.591068    2.036956    0.001831
  H      2.187108   -2.239818   -0.002253
  H     -0.272741   -2.013338   -0.002164
  H      4.329807    0.551491    0.001017

 Total Charge           Charge          ....    0
 Multiplicity           Mult            ....    1
 Number of Electrons    NEL             ....   80
 Basis Dimension        Dim             ....  389

ORBITAL ENERGIES
----------------

  NO   OCC          E(Eh)            E(eV)
   0   2.0000     -21.718691      -590.9956
   1   2.0000     -21.717729      -590.9695
   2   2.0000     -21.651529      -589.1681
   3   2.0000     -12.176412      -331.3370
   4   2.0000     -12.131686      -330.1199
   5   2.0000     -12.102130      -329.3157
   6   2.0000     -12.069323      -328.4230
   7   2.0000     -12.069296      -328.4222
   8   2.0000     -12.063693      -328.2698
   9   2.0000     -12.062729      -328.2436
  10   2.0000     -12.057174      -328.0924
  11   2.0000      -1.755359       -47.7658
  12   2.0000      -1.735407       -47.2228
  13   2.0000      -1.686459       -45.8909
  14   2.0000      -1.401861       -38.1466
  15   2.0000      -1.319034       -35.8927
  16   2.0000      -1.293780       -35.2055
  17   2.0000      -1.268042       -34.5052
  18   2.0000      -1.186086       -32.2750
  19   2.0000      -1.137461       -30.9519
  20   2.0000      -1.123041       -30.5595
  21   2.0000      -1.087660       -29.5967
  22   2.0000      -1.055561       -28.7233
  23   2.0000      -1.037235       -28.2246
  24   2.0000      -1.018623       -27.7181
  25   2.0000      -0.994114       -27.0512
  26   2.0000      -0.967177       -26.3182
  27   2.0000      -0.963827       -26.2271
  28   2.0000      -0.952586       -25.9212
  29   2.0000      -0.913147       -24.8480
  30   2.0000      -0.901476       -24.5304
  31   2.0000      -0.895271       -24.3616
  32   2.0000      -0.890823       -24.2405
  33   2.0000      -0.858688       -23.3661
  34   2.0000      -0.839375       -22.8405
  35   2.0000      -0.823478       -22.4080
  36   2.0000      -0.820779       -22.3345
  37   2.0000      -0.782788       -21.3007
  38   2.0000      -0.659679       -17.9508
  39   2.0000      -0.656003       -17.8507
  40   0.0000      -0.341403        -9.2901
  41   0.0000      -0.248074        -6.7504
  42   0.0000      -0.218201        -5.9376
  43   0.0000      -0.182334        -4.9616
  44   0.0000      -0.148672        -4.0456

MULLIKEN ATOMIC CHARGES
-----------------------
   0 C :   -0.192027
   1 O :   -0.244794
   2 C :    0.343379
   3 O :   -0.371085
   4 C :    0.069872
   5 C :   -0.197506
   6 C :   -0.170003
   7 C :    0.255712
   8 C :   -0.180697
   9 C :   -0.177836
  10 O :   -0.378646
  11 H :    0.126708
  12 H :    0.130682
  13 H :    0.130294
  14 H :    0.154446
  15 H :    0.116572
  16 H :    0.127518
  17 H :    0.139946
  18 H :    0.317465
Sum of atomic charges:    0.0000000

LOEWDIN ATOMIC CHARGES
----------------------
   0 C :   -0.287942
   1 O :    0.227466
   2 C :   -0.425273
   3 O :    0.077648
   4 C :   -0.141222
   5 C :   -0.068602
   6 C :   -0.141783
   7 C :   -0.251837
   8 C :   -0.118641
   9 C :   -0.079034
  10 O :    0.084134
  11 H :    0.109269
  12 H :    0.111824
  13 H :    0.111716
  14 H :    0.158044
  15 H :    0.142096
  16 H :    0.149714
  17 H :    0.153004
  18 H :    0.189418

  Mayer bond orders larger than 0.100000
B(  0-C ,  1-O ) :   0.9071 B(  0-C , 11-H ) :   0.9738 B(  0-C , 12-H ) :   0.9779
B(  0-C , 13-H ) :   0.9780 B(  1-O ,  2-C ) :   1.2284 B(  1-O ,  4-C ) :  -0.1238
B(  2-C ,  3-O ) :   2.0295 B(  2-C ,  4-C ) :   0.9767 B(  4-C ,  5-C ) :   1.4112
B(  4-C ,  9-C ) :   1.3750 B(  5-C ,  6-C ) :   1.4408 B(  5-C , 14-H ) :   0.9376
B(  6-C ,  7-C ) :   1.3448 B(  6-C , 15-H ) :   0.9579 B(  7-C ,  8-C ) :   1.3831
B(  7-C , 10-O ) :   1.1736 B(  8-C ,  9-C ) :   1.4631 B(  8-C , 16-H ) :   0.9793
B(  9-C , 17-H ) :   0.9606 B( 10-O , 18-H ) :   0.8857

FINAL SINGLE POINT ENERGY      -535.388280395964

DIPOLE MOMENT
-------------

Method             : SCF
Type of density    : Electron Density
Multiplicity       :   1
Irrep              :   0
Energy             :  -535.3991625092639879 Eh
Relativity type    :
Basis              : AO
                                X                 Y                 Z
Electronic contribution:      3.846320536       1.151627551      -0.000917898
Nuclear contribution   :     -3.379122274      -1.387432696       0.000166501
                        -----------------------------------------
Total Dipole Moment    :      0.467198262      -0.235805145      -0.000751397
                        -----------------------------------------
Magnitude (a.u.)       :      0.523334355
Magnitude (Debye)      :      1.330210217

Rotational constants in cm-1:             0.115056             0.019267             0.016556
Rotational constants in MHz :          3449.295077           577.621255           496.338376

                             ****ORCA TERMINATED NORMALLY****
TOTAL RUN TIME: 0 days 0 hours 3 minutes 38 seconds 174 msec
