                         Program Version 6.0.0  -   RELEASE  -
|  1> ! wb97x-v def2-tzvp def2/J RIJCOSX DEFGRID2 scfconv7 GCP(DFT/TZ) printgap
|  2> %output
|  3>     printlevel normal
|  4> end
|  5> %cpcm
|  6>     smd true
|  7>     smdsolvent "water"
|  8> end
|  9> * xyz 0 1
| 10> C -3.8311898153274266 -0.7089612153086721 0.00022474788738347158
| 11> O -2.3874567300232012 -0.8256064653544091 -0.000976344051232822
| 12> C -1.7062865736316124 0.3390132947997214 0.0004613666308332237
| 13> O -2.2633165468653136 1.4296965916174253 0.0028640616035610724
| 14> C -0.24651103358629828 0.14760652899171914 9.369210602256191e-06
| 15> C 0.5762422447411368 1.2814519989224022 0.0011917390642913338
| 16> C 1.9545555497143319 1.1570562019093256 0.0010219429799236785
| 17> C 2.529277987418333 -0.11770515654531222 -0.00013038514341347004
| 18> C 1.7229728276074687 -1.2593999634489528 -0.0013350059333909017
| 19> C 0.34599184262058885 -1.1240546772852262 -0.0012623474617900316
| 20> O 3.8808293833111804 -0.30669794355718877 -7.323178405890559e-05
| 21> H -4.202083610406993 -1.733189598705435 -0.008790708420933413
| 22> H -4.168754654821416 -0.17335482508637237 -0.8903723157043736
| 23> H -4.168113449474357 -0.18939021929619132 0.9005598584161227
| 24> H 0.12626797338821305 2.268128409923283 0.0020731780701612732
| 25> H 2.591068479641025 2.0369555232988295 0.0018306598253870637
| 26> H 2.187108361880085 -2.2398179077216063 -0.002252513000172835
| 27> H -0.2727412320091788 -2.013337817126229 -0.0021641243034247635
| 28> H 4.329806920266053 0.5514906420536161 0.001016854367880666
| 29> *
| 30>
| 31>                          ****END OF INPUT****

CARTESIAN COORDINATES (ANGSTROEM)
---------------------------------
  C     -3.831190   -0.708961    0.000225
  O     -2.387457   -0.825606   -0.000976
  C     -1.706287    0.339013    0.000461
  O     -2.263317    1.429697    0.002864
  C     -0.246511    0.147607    0.000009
  C      0.576242    1.281452    0.001192
  C      1.954556    1.157056    0.001022
  C      2.529278   -0.117705   -0.000130
  C      1.722973   -1.259400   -0.001335
  C      0.345992   -1.124055   -0.001262
  O      3.880829   -0.306698   -0.000073
  H     -4.202084   -1.733190   -0.008791
  H     -4.168755   -0.173355   -0.890372
  H     -4.168113   -0.189390    0.900560
  H      0.126268    2.268128    0.002073
  H      2.591068    2.036956    0.001831
  H      2.187108   -2.239818   -0.002253
  H     -0.272741   -2.013338   -0.002164
  H      4.329807    0.551491    0.001017

 Total Charge           Charge          ....    0
 Multiplicity           Mult            ....    1
 Number of Electrons    NEL             ....   80
 Basis Dimension        Dim             ....  389

ORBITAL ENERGIES
----------------

  NO   OCC          E(Eh)            E(eV)
   0   2.0000     -21.723630      -591.1300
   1   2.0000     -21.710076      -590.7612
   2   2.0000     -21.666991      -589.5888
   3   2.0000     -12.189261      -331.6866
   4   2.0000     -12.127651      -330.0102
   5   2.0000     -12.092808      -329.0620
   6   2.0000     -12.067182      -328.3647
   7   2.0000     -12.066786      -328.3540
   8   2.0000     -12.063604      -328.2674
   9   2.0000     -12.054913      -328.0309
  10   2.0000     -12.052974      -327.9781
  11   2.0000      -1.764046       -48.0021
  12   2.0000      -1.726794       -46.9885
  13   2.0000      -1.700631       -46.2765
  14   2.0000      -1.399944       -38.0944
  15   2.0000      -1.318796       -35.8863
  16   2.0000      -1.290118       -35.1059
  17   2.0000      -1.266444       -34.4617
  18   2.0000      -1.182206       -32.1695
  19   2.0000      -1.135982       -30.9116
  20   2.0000      -1.125635       -30.6301
  21   2.0000      -1.087525       -29.5930
  22   2.0000      -1.065667       -28.9983
  23   2.0000      -1.037534       -28.2327
  24   2.0000      -1.015276       -27.6271
  25   2.0000      -0.999001       -27.1842
  26   2.0000      -0.968785       -26.3620
  27   2.0000      -0.957128       -26.0448
  28   2.0000      -0.949386       -25.8341
  29   2.0000      -0.913464       -24.8566
  30   2.0000      -0.910696       -24.7813
  31   2.0000      -0.903417       -24.5832
  32   2.0000      -0.884737       -24.0749
  33   2.0000      -0.866118       -23.5683
  34   2.0000      -0.832020       -22.6404
  35   2.0000      -0.817532       -22.2462
  36   2.0000      -0.815160       -22.1816
  37   2.0000      -0.781567       -21.2675
  38   2.0000      -0.658332       -17.9141
  39   2.0000      -0.653702       -17.7881
  40   0.0000      -0.346819        -9.4374
  41   0.0000      -0.244793        -6.6611
  42   0.0000      -0.219369        -5.9693
  43   0.0000      -0.178689        -4.8624
  44   0.0000      -0.140849        -3.8327

MULLIKEN ATOMIC CHARGES
-----------------------
   0 C :   -0.233227
   1 O :   -0.259903
   2 C :    0.423234
   3 O :   -0.482967
   4 C :    0.100187
   5 C :   -0.207016
   6 C :   -0.236442
   7 C :    0.285316
   8 C :   -0.235351
   9 C :   -0.219105
  10 O :   -0.448456
  11 H :    0.156894
  12 H :    0.149797
  13 H :    0.149942
  14 H :    0.167201
  15 H :    0.175848
  16 H :    0.161959
  17 H :    0.168811
  18 H :    0.383279
Sum of atomic charges:    0.0000000

LOEWDIN ATOMIC CHARGES
----------------------
   0 C :   -0.284590
   1 O :    0.226562
   2 C :   -0.413575
   3 O :    0.017691
   4 C :   -0.152774
   5 C :   -0.077767
   6 C :   -0.128860
   7 C :   -0.252121
   8 C :   -0.124006
   9 C :   -0.083422
  10 O :    0.066543
  11 H :    0.119537
  12 H :    0.116194
  13 H :    0.116215
  14 H :    0.160450
  15 H :    0.160070
  16 H :    0.158066
  17 H :    0.159765
  18 H :    0.216021

  Mayer bond orders larger than 0.100000
B(  0-C ,  1-O ) :   0.8806 B(  0-C , 11-H ) :   0.9684 B(  0-C , 12-H ) :   0.9725
B(  0-C , 13-H ) :   0.9726 B(  1-O ,  2-C ) :   1.2519 B(  1-O ,  4-C ) :  -0.1196
B(  2-C ,  3-O ) :   1.9134 B(  2-C ,  4-C ) :   0.9969 B(  4-C ,  5-C ) :   1.3359
B(  4-C ,  9-C ) :   1.3368 B(  5-C ,  6-C ) :   1.4310 B(  5-C , 14-H ) :   0.9537
B(  6-C ,  7-C ) :   1.3448 B(  6-C , 15-H ) :   0.9680 B(  7-C ,  8-C ) :   1.3539
B(  7-C , 10-O ) :   1.1399 B(  8-C ,  9-C ) :   1.4801 B(  8-C , 16-H ) :   0.9815
B(  9-C , 17-H ) :   0.9682 B( 10-O , 18-H ) :   0.8436

FINAL SINGLE POINT ENERGY      -535.401921569079

DIPOLE MOMENT
-------------

Method             : SCF
Type of density    : Electron Density
Multiplicity       :   1
Irrep              :   0
Energy             :  -535.4128036823794901 Eh
Relativity type    :
Basis              : AO
                                X                 Y                 Z
Electronic contribution:      4.173386319       1.042791909      -0.001208229
Nuclear contribution   :     -3.379122274      -1.387432696       0.000166501
                        -----------------------------------------
Total Dipole Moment    :      0.794264045      -0.344640787      -0.001041728
                        -----------------------------------------
Magnitude (a.u.)       :      0.865813912
Magnitude (Debye)      :      2.200724069

Rotational constants in cm-1:             0.115056             0.019267             0.016556
Rotational constants in MHz :          3449.295077           577.621255           496.338376

                             ****ORCA TERMINATED NORMALLY****
TOTAL RUN TIME: 0 days 0 hours 3 minutes 44 seconds 807 msec
