                         Program Version 6.0.0  -   RELEASE  -
|  1> ! pbe def2-sv(p) def2/J RI DEFGRID1 loosescf d4 GCP(DFT/SV(P)) printgap
|  2> %output
|  3>     printlevel normal
|  4> end
|  5> * xyz 0 1
|  6> C -3.0949823347 0.0111913695 -0.6892117899
|  7> O -2.3266613551 -0.1865328663 0.4844847181
|  8> C -0.9490588626 -0.0899695499 0.2744841368
|  9> C -0.2038114249 -1.231598267 0.0099253782
| 10> C 1.1615291153 -1.144849982 -0.1655720887
| 11> C 1.8173299706 0.0876772714 -0.0848956379
| 12> C 1.0537917912 1.2291792917 0.1793296714
| 13> C -0.3114193304 1.1412884496 0.3551841707
| 14> N 3.1824613171 0.1652617137 -0.1936637723
| 15> H -4.1354314361 -0.0803808398 -0.3858862231
| 16> H -2.8593397429 -0.7470157864 -1.4432368356
| 17> H -2.9170259413 1.0047723379 -1.1129037897
| 18> H -0.7056905276 -2.1859423293 -0.0493597761
| 19> H 1.7341461329 -2.0381702515 -0.3655683705
| 20> H 1.5424167213 2.189546728 0.2494188615
| 21> H -0.8952479218 2.025665349 0.5636399581
| 22> H 3.5714248803 1.0727532152 -0.3849983412
| 23> H 3.6474350993 -0.6116147781 -0.6314509633
| 24> *
| 25>
| 26>                          ****END OF INPUT****

CARTESIAN COORDINATES (ANGSTROEM)
---------------------------------
  C     -3.094982    0.011191   -0.689212
  O     -2.326661   -0.186533    0.484485
  C     -0.949059   -0.089970    0.274484
  C     -0.203811   -1.231598    0.009925
  C      1.161529   -1.144850   -0.165572
  C      1.817330    0.087677   -0.084896
  C      1.053792    1.229179    0.179330
  C     -0.311419    1.141288    0.355184
  N      3.182461    0.165262   -0.193664
  H     -4.135431   -0.080381   -0.385886
  H     -2.859340   -0.747016   -1.443237
  H     -2.917026    1.004772   -1.112904
  H     -0.705691   -2.185942   -0.049360
  H      1.734146   -2.038170   -0.365568
  H      1.542417    2.189547    0.249419
  H     -0.895248    2.025665    0.563640
  H      3.571425    1.072753   -0.384998
  H      3.647435   -0.611615   -0.631451

 Total Charge           Charge          ....    0
 Multiplicity           Mult            ....    1
 Number of Electrons    NEL             ....   66
 Basis Dimension        Dim             ....  144

ORBITAL ENERGIES
----------------

  NO   OCC          E(Eh)            E(eV)
   0   2.0000     -18.749995      -510.2133
   1   2.0000     -13.996044      -380.8517
   2   2.0000      -9.928352      -270.1642
   3   2.0000      -9.922688      -270.0101
   4   2.0000      -9.922168      -269.9959
   5   2.0000      -9.882745      -268.9232
   6   2.0000      -9.882614      -268.9196
   7   2.0000      -9.882227      -268.9091
   8   2.0000      -9.881934      -268.9011
   9   2.0000      -0.931089       -25.3362
  10   2.0000      -0.837505       -22.7897
  11   2.0000      -0.751109       -20.4387
  12   2.0000      -0.666092       -18.1253
  13   2.0000      -0.652549       -17.7568
  14   2.0000      -0.599545       -16.3144
  15   2.0000      -0.553164       -15.0524
  16   2.0000      -0.523488       -14.2448
  17   2.0000      -0.474981       -12.9249
  18   2.0000      -0.471097       -12.8192
  19   2.0000      -0.446248       -12.1430
  20   2.0000      -0.401596       -10.9280
  21   2.0000      -0.396025       -10.7764
  22   2.0000      -0.386220       -10.5096
  23   2.0000      -0.373812       -10.1720
  24   2.0000      -0.365513        -9.9461
  25   2.0000      -0.353358        -9.6154
  26   2.0000      -0.335123        -9.1192
  27   2.0000      -0.300638        -8.1808
  28   2.0000      -0.291791        -7.9400
  29   2.0000      -0.254899        -6.9362
  30   2.0000      -0.223026        -6.0688
  31   2.0000      -0.206227        -5.6117
  32   2.0000      -0.165656        -4.5077
  33   0.0000      -0.027205        -0.7403
  34   0.0000      -0.004468        -0.1216
  35   0.0000       0.031861         0.8670
  36   0.0000       0.054899         1.4939
  37   0.0000       0.064471         1.7543

MULLIKEN ATOMIC CHARGES
-----------------------
   0 C :   -0.073673
   1 O :   -0.318709
   2 C :    0.218567
   3 C :   -0.119903
   4 C :   -0.136377
   5 C :    0.180593
   6 C :   -0.136607
   7 C :   -0.121750
   8 N :   -0.334125
   9 H :    0.112380
  10 H :    0.085518
  11 H :    0.086098
  12 H :    0.036513
  13 H :    0.020933
  14 H :    0.020572
  15 H :    0.037008
  16 H :    0.221460
  17 H :    0.221501
Sum of atomic charges:   -0.0000000

LOEWDIN ATOMIC CHARGES
----------------------
   0 C :   -0.197666
   1 O :   -0.145643
   2 C :    0.001745
   3 C :   -0.131071
   4 C :   -0.160205
   5 C :   -0.013222
   6 C :   -0.160063
   7 C :   -0.131483
   8 N :   -0.314400
   9 H :    0.113817
  10 H :    0.098054
  11 H :    0.097751
  12 H :    0.127472
  13 H :    0.118247
  14 H :    0.118157
  15 H :    0.127293
  16 H :    0.225587
  17 H :    0.225630

  Mayer bond orders larger than 0.100000
B(  0-C ,  1-O ) :   0.9966 B(  0-C ,  9-H ) :   0.9623 B(  0-C , 10-H ) :   0.9436
B(  0-C , 11-H ) :   0.9438 B(  1-O ,  2-C ) :   1.0169 B(  2-C ,  3-C ) :   1.3721
B(  2-C ,  7-C ) :   1.3685 B(  3-C ,  4-C ) :   1.3443 B(  3-C , 12-H ) :   0.9621
B(  4-C ,  5-C ) :   1.3143 B(  4-C , 13-H ) :   0.9611 B(  5-C ,  6-C ) :   1.3131
B(  5-C ,  8-N ) :   1.2399 B(  6-C ,  7-C ) :   1.3464 B(  6-C , 14-H ) :   0.9612
B(  7-C , 15-H ) :   0.9609 B(  8-N , 16-H ) :   0.8825 B(  8-N , 17-H ) :   0.8825

Dispersion correction           -0.017625978
FINAL SINGLE POINT ENERGY      -401.243830470959

DIPOLE MOMENT
-------------

Method             : SCF
Type of density    : Electron Density
Multiplicity       :   1
Irrep              :   0
Energy             :  -401.3034832286845131 Eh
Relativity type    :
Basis              : AO
                                X                 Y                 Z
Electronic contribution:      1.762618192      -0.406404401       2.485070076
Nuclear contribution   :     -0.971426377       0.588827160      -3.334091634
                        -----------------------------------------
Total Dipole Moment    :      0.791191816       0.182422759      -0.849021557
                        -----------------------------------------
Magnitude (a.u.)       :      1.174776641
Magnitude (Debye)      :      2.986044917

Rotational constants in cm-1:             0.157371             0.033097             0.028885
Rotational constants in MHz :          4717.851010           992.220174           865.942499

                             ****ORCA TERMINATED NORMALLY****
TOTAL RUN TIME: 0 days 0 hours 0 minutes 8 seconds 702 msec
