                         Program Version 6.0.0  -   RELEASE  -
|  1> ! wb97x-v def2-tzvp def2/J RIJCOSX DEFGRID2 scfconv7 GCP(DFT/TZ) printgap
|  2> %output
|  3>     printlevel normal
|  4> end
|  5> * xyz 0 1
|  6> C -0.6276217164775859 0.9603597717577145 0.0012288431651054203
|  7> C 0.41835368944066215 0.13581092896776878 0.00023783267039879312
|  8> Cl 2.0339491054530088 0.7731689691060029 0.0002189739613774708
|  9> Cl 0.30538308713660134 -1.5871481131240268 -0.00014585335802203838
| 10> Cl -2.2627704210802557 0.3964156820073278 0.0002292754723095291
| 11> H -0.5094616740899235 2.0377080434567625 0.0008124088808308433
| 12> *
| 13>
| 14>                          ****END OF INPUT****

CARTESIAN COORDINATES (ANGSTROEM)
---------------------------------
  C     -0.627622    0.960360    0.001229
  C      0.418354    0.135811    0.000238
  Cl     2.033949    0.773169    0.000219
  Cl     0.305383   -1.587148   -0.000146
  Cl    -2.262770    0.396416    0.000229
  H     -0.509462    2.037708    0.000812

 Total Charge           Charge          ....    0
 Multiplicity           Mult            ....    1
 Number of Electrons    NEL             ....   64
 Basis Dimension        Dim             ....  179

ORBITAL ENERGIES
----------------

  NO   OCC          E(Eh)            E(eV)
   0   2.0000    -107.174442     -2916.3648
   1   2.0000    -107.174301     -2916.3610
   2   2.0000    -107.166513     -2916.1491
   3   2.0000     -12.187905      -331.6498
   4   2.0000     -12.137621      -330.2815
   5   2.0000     -11.327472      -308.2362
   6   2.0000     -11.327262      -308.2305
   7   2.0000     -11.319470      -308.0184
   8   2.0000      -9.119905      -248.1652
   9   2.0000      -9.118291      -248.1213
  10   2.0000      -9.116354      -248.0686
  11   2.0000      -9.116312      -248.0675
  12   2.0000      -9.115680      -248.0503
  13   2.0000      -9.115503      -248.0454
  14   2.0000      -9.110937      -247.9212
  15   2.0000      -9.108164      -247.8457
  16   2.0000      -9.108107      -247.8442
  17   2.0000      -1.488444       -40.5026
  18   2.0000      -1.438585       -39.1459
  19   2.0000      -1.418604       -38.6022
  20   2.0000      -1.293609       -35.2009
  21   2.0000      -1.079528       -29.3755
  22   2.0000      -0.990503       -26.9530
  23   2.0000      -0.984602       -26.7924
  24   2.0000      -0.906187       -24.6586
  25   2.0000      -0.875524       -23.8242
  26   2.0000      -0.829352       -22.5678
  27   2.0000      -0.828353       -22.5406
  28   2.0000      -0.818667       -22.2771
  29   2.0000      -0.813005       -22.1230
  30   2.0000      -0.805455       -21.9175
  31   2.0000      -0.700411       -19.0591
  32   0.0000      -0.330267        -8.9870
  33   0.0000      -0.306632        -8.3439
  34   0.0000      -0.284430        -7.7397
  35   0.0000      -0.190912        -5.1950
  36   0.0000       0.014251         0.3878

MULLIKEN ATOMIC CHARGES
-----------------------
   0 C :   -0.099998
   1 C :    0.031602
   2 Cl:   -0.039537
   3 Cl:   -0.016312
   4 Cl:   -0.045867
   5 H :    0.170113
Sum of atomic charges:    0.0000000

LOEWDIN ATOMIC CHARGES
----------------------
   0 C :   -0.511424
   1 C :   -0.820851
   2 Cl:    0.399066
   3 Cl:    0.415037
   4 Cl:    0.383809
   5 H :    0.134363

  Mayer bond orders larger than 0.100000
B(  0-C ,  1-C ) :   1.8247 B(  0-C ,  4-Cl) :   1.1606 B(  0-C ,  5-H ) :   0.9462
B(  1-C ,  2-Cl) :   1.1314 B(  1-C ,  3-Cl) :   1.1938

FINAL SINGLE POINT ENERGY     -1457.220149023444

DIPOLE MOMENT
-------------

Method             : SCF
Type of density    : Electron Density
Multiplicity       :   1
Irrep              :   0
Energy             : -1457.2230338735434998 Eh
Relativity type    :
Basis              : AO
                                X                 Y                 Z
Electronic contribution:      0.622070522      -2.119160650      -0.001078671
Nuclear contribution   :     -0.588077334       2.481970573       0.001041649
                        -----------------------------------------
Total Dipole Moment    :      0.033993187       0.362809924      -0.000037022
                        -----------------------------------------
Magnitude (a.u.)       :      0.364398928
Magnitude (Debye)      :      0.926228467

Rotational constants in cm-1:             0.128144             0.049787             0.035856
Rotational constants in MHz :          3841.664740          1492.577276          1074.938422

                             ****ORCA TERMINATED NORMALLY****
TOTAL RUN TIME: 0 days 0 hours 0 minutes 46 seconds 628 msec
