                         Program Version 6.0.0  -   RELEASE  -
|  1> ! wb97x-v def2-tzvp def2/J RIJCOSX DEFGRID2 scfconv7 GCP(DFT/TZ) printgap
|  2> %output
|  3>     printlevel normal
|  4> end
|  5> %cpcm
|  6>     smd true
|  7>     smdsolvent "water"
|  8> end
|  9> * xyz 0 1
| 10> C -0.6276217164775859 0.9603597717577145 0.0012288431651054203
| 11> C 0.41835368944066215 0.13581092896776878 0.00023783267039879312
| 12> Cl 2.0339491054530088 0.7731689691060029 0.0002189739613774708
| 13> Cl 0.30538308713660134 -1.5871481131240268 -0.00014585335802203838
| 14> Cl -2.2627704210802557 0.3964156820073278 0.0002292754723095291
| 15> H -0.5094616740899235 2.0377080434567625 0.0008124088808308433
| 16> *
| 17>
| 18>                          ****END OF INPUT****

CARTESIAN COORDINATES (ANGSTROEM)
---------------------------------
  C     -0.627622    0.960360    0.001229
  C      0.418354    0.135811    0.000238
  Cl     2.033949    0.773169    0.000219
  Cl     0.305383   -1.587148   -0.000146
  Cl    -2.262770    0.396416    0.000229
  H     -0.509462    2.037708    0.000812

 Total Charge           Charge          ....    0
 Multiplicity           Mult            ....    1
 Number of Electrons    NEL             ....   64
 Basis Dimension        Dim             ....  179

ORBITAL ENERGIES
----------------

  NO   OCC          E(Eh)            E(eV)
   0   2.0000    -107.172804     -2916.3202
   1   2.0000    -107.171078     -2916.2733
   2   2.0000    -107.164151     -2916.0848
   3   2.0000     -12.181882      -331.4859
   4   2.0000     -12.130101      -330.0768
   5   2.0000     -11.325844      -308.1919
   6   2.0000     -11.324097      -308.1443
   7   2.0000     -11.317166      -307.9558
   8   2.0000      -9.117845      -248.1092
   9   2.0000      -9.115659      -248.0497
  10   2.0000      -9.114564      -248.0199
  11   2.0000      -9.114355      -248.0142
  12   2.0000      -9.112659      -247.9681
  13   2.0000      -9.112654      -247.9679
  14   2.0000      -9.108604      -247.8577
  15   2.0000      -9.105908      -247.7844
  16   2.0000      -9.105834      -247.7824
  17   2.0000      -1.485086       -40.4112
  18   2.0000      -1.435648       -39.0660
  19   2.0000      -1.416239       -38.5378
  20   2.0000      -1.288209       -35.0539
  21   2.0000      -1.074080       -29.2272
  22   2.0000      -0.983847       -26.7718
  23   2.0000      -0.981146       -26.6983
  24   2.0000      -0.900029       -24.4910
  25   2.0000      -0.872396       -23.7391
  26   2.0000      -0.827187       -22.5089
  27   2.0000      -0.826085       -22.4789
  28   2.0000      -0.816918       -22.2295
  29   2.0000      -0.810688       -22.0599
  30   2.0000      -0.802852       -21.8467
  31   2.0000      -0.695581       -18.9277
  32   0.0000      -0.326706        -8.8901
  33   0.0000      -0.302582        -8.2337
  34   0.0000      -0.277640        -7.5550
  35   0.0000      -0.184392        -5.0176
  36   0.0000       0.025938         0.7058

MULLIKEN ATOMIC CHARGES
-----------------------
   0 C :   -0.102389
   1 C :    0.021677
   2 Cl:   -0.044691
   3 Cl:   -0.031962
   4 Cl:   -0.064718
   5 H :    0.222083
Sum of atomic charges:   -0.0000000

LOEWDIN ATOMIC CHARGES
----------------------
   0 C :   -0.495602
   1 C :   -0.824960
   2 Cl:    0.393782
   3 Cl:    0.403051
   4 Cl:    0.373170
   5 H :    0.150560

  Mayer bond orders larger than 0.100000
B(  0-C ,  1-C ) :   1.8251 B(  0-C ,  4-Cl) :   1.1384 B(  0-C ,  5-H ) :   0.9293
B(  1-C ,  2-Cl) :   1.1362 B(  1-C ,  3-Cl) :   1.1799

FINAL SINGLE POINT ENERGY     -1457.219460734990

DIPOLE MOMENT
-------------

Method             : SCF
Type of density    : Electron Density
Multiplicity       :   1
Irrep              :   0
Energy             : -1457.2223455850896698 Eh
Relativity type    :
Basis              : AO
                                X                 Y                 Z
Electronic contribution:      0.608084655      -1.914466012      -0.001033285
Nuclear contribution   :     -0.588077334       2.481970573       0.001041649
                        -----------------------------------------
Total Dipole Moment    :      0.020007321       0.567504562       0.000008364
                        -----------------------------------------
Magnitude (a.u.)       :      0.567857130
Magnitude (Debye)      :      1.443378118

Rotational constants in cm-1:             0.128144             0.049787             0.035856
Rotational constants in MHz :          3841.664740          1492.577276          1074.938422

                             ****ORCA TERMINATED NORMALLY****
TOTAL RUN TIME: 0 days 0 hours 0 minutes 48 seconds 626 msec
