                         Program Version 6.0.0  -   RELEASE  -
|  1> ! wb97x-v def2-tzvp def2/J RIJCOSX DEFGRID2 scfconv7 GCP(DFT/TZ) printgap
|  2> %output
|  3>     printlevel normal
|  4> end
|  5> * xyz 0 1
|  6> C -2.467644742894758 -0.736982798703896 -1.2558526979727898
|  7> C -1.971818212498473 0.0032267531711785494 -0.0002333552829795182
|  8> C -2.579933106106814 1.409264193838014 0.0016566449274767483
|  9> C -2.469107591585936 -0.7408612463216397 1.2524959650940384
| 10> C -0.4415112739978624 0.03310652110342863 0.0003920219135037472
| 11> C 0.28102967731392653 -1.1698879756510814 0.00029716893358499116
| 12> C 1.669480702675344 -1.1954349752952038 0.0002685740844044474
| 13> C 2.3792419898277357 0.004616681346312208 0.00026894418079597104
| 14> C 1.6930914031150441 1.2139089215968735 0.00041909857001533747
| 15> C 0.29812456239814655 1.2185252970087477 0.0004883068470445364
| 16> O 3.7574358016328637 -0.06454071922303103 0.00011625632218360456
| 17> H -2.106401222161772 -1.769558393059188 -1.2823935948314542
| 18> H -3.56313389287701 -0.7624095616295126 -1.2689332527805408
| 19> H -2.125324206285023 -0.23159246373616732 -2.1654879998899834
| 20> H -2.2872762520358663 1.9805466238912106 -0.8857325043326247
| 21> H -3.671735377590203 1.3287166813062534 0.001445457156993175
| 22> H -2.2873657027429353 1.9780058683634132 0.8907111907141768
| 23> H -3.5646099030969904 -0.766181685207739 1.2641611113541606
| 24> H -2.1081288878419775 -1.7735806323524659 1.2762476717197038
| 25> H -2.1278449353678504 -0.2383746988367139 2.164133413405865
| 26> H -0.24811468674980938 -2.1180638996010392 0.0001700237845058941
| 27> H 2.208559539640618 -2.1377869588080767 0.00019927084445571085
| 28> H 2.246287700810982 2.149600226457166 0.00044267863505741036
| 29> H -0.20447351684847256 2.1788855020056173 0.0005772930240649021
| 30> H 4.113575000309502 0.8349107632137246 -5.409106915703755e-05
| 31> *
| 32>
| 33>                          ****END OF INPUT****

CARTESIAN COORDINATES (ANGSTROEM)
---------------------------------
  C     -2.467645   -0.736983   -1.255853
  C     -1.971818    0.003227   -0.000233
  C     -2.579933    1.409264    0.001657
  C     -2.469108   -0.740861    1.252496
  C     -0.441511    0.033107    0.000392
  C      0.281030   -1.169888    0.000297
  C      1.669481   -1.195435    0.000269
  C      2.379242    0.004617    0.000269
  C      1.693091    1.213909    0.000419
  C      0.298125    1.218525    0.000488
  O      3.757436   -0.064541    0.000116
  H     -2.106401   -1.769558   -1.282394
  H     -3.563134   -0.762410   -1.268933
  H     -2.125324   -0.231592   -2.165488
  H     -2.287276    1.980547   -0.885733
  H     -3.671735    1.328717    0.001445
  H     -2.287366    1.978006    0.890711
  H     -3.564610   -0.766182    1.264161
  H     -2.108129   -1.773581    1.276248
  H     -2.127845   -0.238375    2.164133
  H     -0.248115   -2.118064    0.000170
  H      2.208560   -2.137787    0.000199
  H      2.246288    2.149600    0.000443
  H     -0.204474    2.178886    0.000577
  H      4.113575    0.834911   -0.000054

 Total Charge           Charge          ....    0
 Multiplicity           Mult            ....    1
 Number of Electrons    NEL             ....   82
 Basis Dimension        Dim             ....  425

ORBITAL ENERGIES
----------------

  NO   OCC          E(Eh)            E(eV)
   0   2.0000     -21.700738      -590.5071
   1   2.0000     -12.109867      -329.5262
   2   2.0000     -12.064161      -328.2825
   3   2.0000     -12.052093      -327.9541
   4   2.0000     -12.051230      -327.9306
   5   2.0000     -12.049497      -327.8835
   6   2.0000     -12.048646      -327.8603
   7   2.0000     -12.045116      -327.7643
   8   2.0000     -12.034792      -327.4833
   9   2.0000     -12.033716      -327.4541
  10   2.0000     -12.033347      -327.4440
  11   2.0000      -1.712567       -46.6013
  12   2.0000      -1.387032       -37.7431
  13   2.0000      -1.332172       -36.2503
  14   2.0000      -1.275239       -34.7010
  15   2.0000      -1.264657       -34.4131
  16   2.0000      -1.180000       -32.1094
  17   2.0000      -1.177018       -32.0283
  18   2.0000      -1.153610       -31.3913
  19   2.0000      -1.116509       -30.3817
  20   2.0000      -1.067960       -29.0607
  21   2.0000      -1.028909       -27.9980
  22   2.0000      -1.002120       -27.2691
  23   2.0000      -0.944410       -25.6987
  24   2.0000      -0.942494       -25.6466
  25   2.0000      -0.935437       -25.4545
  26   2.0000      -0.902236       -24.5511
  27   2.0000      -0.875595       -23.8262
  28   2.0000      -0.873784       -23.7769
  29   2.0000      -0.869641       -23.6641
  30   2.0000      -0.862677       -23.4746
  31   2.0000      -0.817039       -22.2328
  32   2.0000      -0.811512       -22.0824
  33   2.0000      -0.808126       -21.9902
  34   2.0000      -0.795939       -21.6586
  35   2.0000      -0.778704       -21.1896
  36   2.0000      -0.776605       -21.1325
  37   2.0000      -0.769599       -20.9418
  38   2.0000      -0.758305       -20.6345
  39   2.0000      -0.640446       -17.4274
  40   2.0000      -0.633594       -17.2410
  41   0.0000      -0.246759        -6.7147
  42   0.0000      -0.238293        -6.4843
  43   0.0000      -0.143602        -3.9076
  44   0.0000      -0.077555        -2.1104
  45   0.0000      -0.071580        -1.9478

MULLIKEN ATOMIC CHARGES
-----------------------
   0 C :   -0.344334
   1 C :    0.103441
   2 C :   -0.396466
   3 C :   -0.344315
   4 C :    0.171036
   5 C :   -0.210467
   6 C :   -0.220592
   7 C :    0.252949
   8 C :   -0.197039
   9 C :   -0.239071
  10 O :   -0.393781
  11 H :    0.108172
  12 H :    0.109423
  13 H :    0.117403
  14 H :    0.122583
  15 H :    0.118441
  16 H :    0.122662
  17 H :    0.109458
  18 H :    0.108128
  19 H :    0.117401
  20 H :    0.120535
  21 H :    0.119765
  22 H :    0.103885
  23 H :    0.129240
  24 H :    0.311542
Sum of atomic charges:   -0.0000000

LOEWDIN ATOMIC CHARGES
----------------------
   0 C :   -0.247531
   1 C :   -0.314322
   2 C :   -0.258063
   3 C :   -0.247548
   4 C :   -0.107592
   5 C :   -0.099770
   6 C :   -0.120274
   7 C :   -0.262754
   8 C :   -0.147371
   9 C :   -0.109008
  10 O :    0.058789
  11 H :    0.119083
  12 H :    0.120016
  13 H :    0.123417
  14 H :    0.121521
  15 H :    0.123219
  16 H :    0.121547
  17 H :    0.120027
  18 H :    0.119055
  19 H :    0.123418
  20 H :    0.145439
  21 H :    0.147501
  22 H :    0.139053
  23 H :    0.148272
  24 H :    0.183877

  Mayer bond orders larger than 0.100000
B(  0-C ,  1-C ) :   0.9851 B(  0-C , 11-H ) :   0.9714 B(  0-C , 12-H ) :   0.9765
B(  0-C , 13-H ) :   0.9791 B(  1-C ,  2-C ) :   0.9573 B(  1-C ,  3-C ) :   0.9855
B(  1-C ,  4-C ) :   0.9057 B(  2-C , 14-H ) :   0.9799 B(  2-C , 15-H ) :   0.9826
B(  2-C , 16-H ) :   0.9800 B(  3-C , 17-H ) :   0.9764 B(  3-C , 18-H ) :   0.9714
B(  3-C , 19-H ) :   0.9791 B(  4-C ,  5-C ) :   1.3398 B(  4-C ,  9-C ) :   1.3811
B(  5-C ,  6-C ) :   1.5106 B(  5-C , 20-H ) :   0.9649 B(  6-C ,  7-C ) :   1.3966
B(  6-C , 21-H ) :   0.9792 B(  7-C ,  8-C ) :   1.3784 B(  7-C , 10-O ) :   1.1383
B(  8-C ,  9-C ) :   1.4609 B(  8-C , 22-H ) :   0.9514 B(  9-C , 23-H ) :   0.9464
B( 10-O , 24-H ) :   0.8919

FINAL SINGLE POINT ENERGY      -464.748735748560

DIPOLE MOMENT
-------------

Method             : SCF
Type of density    : Electron Density
Multiplicity       :   1
Irrep              :   0
Energy             :  -464.7646715735600083 Eh
Relativity type    :
Basis              : AO
                                X                 Y                 Z
Electronic contribution:     14.599921962      -0.091831800       0.003947955
Nuclear contribution   :    -14.778286379       0.603034494      -0.004208144
                        -----------------------------------------
Total Dipole Moment    :     -0.178364417       0.511202695      -0.000260189
                        -----------------------------------------
Magnitude (a.u.)       :      0.541426013
Magnitude (Debye)      :      1.376195558

Rotational constants in cm-1:             0.085092             0.021353             0.019225
Rotational constants in MHz :          2550.991392           640.148100           576.345482

                             ****ORCA TERMINATED NORMALLY****
TOTAL RUN TIME: 0 days 0 hours 5 minutes 56 seconds 966 msec
