                         Program Version 6.0.0  -   RELEASE  -
|  1> ! wb97x-v def2-tzvp def2/J RIJCOSX DEFGRID2 scfconv7 GCP(DFT/TZ) printgap
|  2> %output
|  3>     printlevel normal
|  4> end
|  5> %cpcm
|  6>     smd true
|  7>     smdsolvent "water"
|  8> end
|  9> * xyz 0 1
| 10> C -2.467644742894758 -0.736982798703896 -1.2558526979727898
| 11> C -1.971818212498473 0.0032267531711785494 -0.0002333552829795182
| 12> C -2.579933106106814 1.409264193838014 0.0016566449274767483
| 13> C -2.469107591585936 -0.7408612463216397 1.2524959650940384
| 14> C -0.4415112739978624 0.03310652110342863 0.0003920219135037472
| 15> C 0.28102967731392653 -1.1698879756510814 0.00029716893358499116
| 16> C 1.669480702675344 -1.1954349752952038 0.0002685740844044474
| 17> C 2.3792419898277357 0.004616681346312208 0.00026894418079597104
| 18> C 1.6930914031150441 1.2139089215968735 0.00041909857001533747
| 19> C 0.29812456239814655 1.2185252970087477 0.0004883068470445364
| 20> O 3.7574358016328637 -0.06454071922303103 0.00011625632218360456
| 21> H -2.106401222161772 -1.769558393059188 -1.2823935948314542
| 22> H -3.56313389287701 -0.7624095616295126 -1.2689332527805408
| 23> H -2.125324206285023 -0.23159246373616732 -2.1654879998899834
| 24> H -2.2872762520358663 1.9805466238912106 -0.8857325043326247
| 25> H -3.671735377590203 1.3287166813062534 0.001445457156993175
| 26> H -2.2873657027429353 1.9780058683634132 0.8907111907141768
| 27> H -3.5646099030969904 -0.766181685207739 1.2641611113541606
| 28> H -2.1081288878419775 -1.7735806323524659 1.2762476717197038
| 29> H -2.1278449353678504 -0.2383746988367139 2.164133413405865
| 30> H -0.24811468674980938 -2.1180638996010392 0.0001700237845058941
| 31> H 2.208559539640618 -2.1377869588080767 0.00019927084445571085
| 32> H 2.246287700810982 2.149600226457166 0.00044267863505741036
| 33> H -0.20447351684847256 2.1788855020056173 0.0005772930240649021
| 34> H 4.113575000309502 0.8349107632137246 -5.409106915703755e-05
| 35> *
| 36>
| 37>                          ****END OF INPUT****

CARTESIAN COORDINATES (ANGSTROEM)
---------------------------------
  C     -2.467645   -0.736983   -1.255853
  C     -1.971818    0.003227   -0.000233
  C     -2.579933    1.409264    0.001657
  C     -2.469108   -0.740861    1.252496
  C     -0.441511    0.033107    0.000392
  C      0.281030   -1.169888    0.000297
  C      1.669481   -1.195435    0.000269
  C      2.379242    0.004617    0.000269
  C      1.693091    1.213909    0.000419
  C      0.298125    1.218525    0.000488
  O      3.757436   -0.064541    0.000116
  H     -2.106401   -1.769558   -1.282394
  H     -3.563134   -0.762410   -1.268933
  H     -2.125324   -0.231592   -2.165488
  H     -2.287276    1.980547   -0.885733
  H     -3.671735    1.328717    0.001445
  H     -2.287366    1.978006    0.890711
  H     -3.564610   -0.766182    1.264161
  H     -2.108129   -1.773581    1.276248
  H     -2.127845   -0.238375    2.164133
  H     -0.248115   -2.118064    0.000170
  H      2.208560   -2.137787    0.000199
  H      2.246288    2.149600    0.000443
  H     -0.204474    2.178886    0.000577
  H      4.113575    0.834911   -0.000054

 Total Charge           Charge          ....    0
 Multiplicity           Mult            ....    1
 Number of Electrons    NEL             ....   82
 Basis Dimension        Dim             ....  425

ORBITAL ENERGIES
----------------

  NO   OCC          E(Eh)            E(eV)
   0   2.0000     -21.699098      -590.4625
   1   2.0000     -12.108925      -329.5006
   2   2.0000     -12.056834      -328.0831
   3   2.0000     -12.049127      -327.8734
   4   2.0000     -12.047877      -327.8394
   5   2.0000     -12.046450      -327.8006
   6   2.0000     -12.044593      -327.7500
   7   2.0000     -12.043929      -327.7320
   8   2.0000     -12.024634      -327.2069
   9   2.0000     -12.024360      -327.1995
  10   2.0000     -12.023406      -327.1735
  11   2.0000      -1.711479       -46.5717
  12   2.0000      -1.385661       -37.7058
  13   2.0000      -1.326278       -36.0899
  14   2.0000      -1.273360       -34.6499
  15   2.0000      -1.261457       -34.3260
  16   2.0000      -1.170444       -31.8494
  17   2.0000      -1.168764       -31.8037
  18   2.0000      -1.151228       -31.3265
  19   2.0000      -1.113723       -30.3060
  20   2.0000      -1.064764       -28.9737
  21   2.0000      -1.023395       -27.8480
  22   2.0000      -1.003075       -27.2951
  23   2.0000      -0.945956       -25.7408
  24   2.0000      -0.940575       -25.5943
  25   2.0000      -0.929661       -25.2974
  26   2.0000      -0.896592       -24.3975
  27   2.0000      -0.871127       -23.7046
  28   2.0000      -0.865014       -23.5382
  29   2.0000      -0.863411       -23.4946
  30   2.0000      -0.854516       -23.2526
  31   2.0000      -0.808414       -21.9981
  32   2.0000      -0.804169       -21.8825
  33   2.0000      -0.800317       -21.7777
  34   2.0000      -0.786349       -21.3977
  35   2.0000      -0.771199       -20.9854
  36   2.0000      -0.770877       -20.9766
  37   2.0000      -0.760585       -20.6966
  38   2.0000      -0.755231       -20.5509
  39   2.0000      -0.640016       -17.4157
  40   2.0000      -0.633794       -17.2464
  41   0.0000      -0.246413        -6.7053
  42   0.0000      -0.237476        -6.4620
  43   0.0000      -0.141063        -3.8385
  44   0.0000      -0.075756        -2.0614
  45   0.0000      -0.051384        -1.3982

MULLIKEN ATOMIC CHARGES
-----------------------
   0 C :   -0.418517
   1 C :    0.196672
   2 C :   -0.443806
   3 C :   -0.418487
   4 C :    0.104217
   5 C :   -0.257904
   6 C :   -0.266539
   7 C :    0.263439
   8 C :   -0.259474
   9 C :   -0.247489
  10 O :   -0.475429
  11 H :    0.131681
  12 H :    0.129924
  13 H :    0.128966
  14 H :    0.136230
  15 H :    0.138207
  16 H :    0.136237
  17 H :    0.129958
  18 H :    0.131674
  19 H :    0.128946
  20 H :    0.167724
  21 H :    0.152945
  22 H :    0.165908
  23 H :    0.167722
  24 H :    0.377198
Sum of atomic charges:   -0.0000000

LOEWDIN ATOMIC CHARGES
----------------------
   0 C :   -0.254378
   1 C :   -0.312090
   2 C :   -0.261181
   3 C :   -0.254392
   4 C :   -0.115771
   5 C :   -0.108506
   6 C :   -0.137880
   7 C :   -0.276147
   8 C :   -0.144885
   9 C :   -0.115670
  10 O :    0.031776
  11 H :    0.123055
  12 H :    0.124086
  13 H :    0.123865
  14 H :    0.124352
  15 H :    0.126346
  16 H :    0.124361
  17 H :    0.124096
  18 H :    0.123040
  19 H :    0.123862
  20 H :    0.156619
  21 H :    0.153618
  22 H :    0.155384
  23 H :    0.157286
  24 H :    0.209153

  Mayer bond orders larger than 0.100000
B(  0-C ,  1-C ) :   0.9524 B(  0-C , 11-H ) :   0.9721 B(  0-C , 12-H ) :   0.9757
B(  0-C , 13-H ) :   0.9783 B(  1-C ,  2-C ) :   0.9547 B(  1-C ,  3-C ) :   0.9528
B(  1-C ,  4-C ) :   0.9143 B(  2-C , 14-H ) :   0.9763 B(  2-C , 15-H ) :   0.9799
B(  2-C , 16-H ) :   0.9764 B(  3-C , 17-H ) :   0.9756 B(  3-C , 18-H ) :   0.9721
B(  3-C , 19-H ) :   0.9783 B(  4-C ,  5-C ) :   1.3369 B(  4-C ,  9-C ) :   1.3491
B(  5-C ,  6-C ) :   1.4980 B(  5-C , 20-H ) :   0.9673 B(  6-C ,  7-C ) :   1.3682
B(  6-C , 21-H ) :   0.9857 B(  7-C ,  8-C ) :   1.3817 B(  7-C , 10-O ) :   1.0930
B(  8-C ,  9-C ) :   1.4027 B(  8-C , 22-H ) :   0.9709 B(  9-C , 23-H ) :   0.9564
B( 10-O , 24-H ) :   0.8506

FINAL SINGLE POINT ENERGY      -464.756791666369

DIPOLE MOMENT
-------------

Method             : SCF
Type of density    : Electron Density
Multiplicity       :   1
Irrep              :   0
Energy             :  -464.7727274913685278 Eh
Relativity type    :
Basis              : AO
                                X                 Y                 Z
Electronic contribution:     14.486048400       0.142984819       0.003720372
Nuclear contribution   :    -14.778286379       0.603034494      -0.004208144
                        -----------------------------------------
Total Dipole Moment    :     -0.292237978       0.746019313      -0.000487772
                        -----------------------------------------
Magnitude (a.u.)       :      0.801216631
Magnitude (Debye)      :      2.036530830

Rotational constants in cm-1:             0.085092             0.021353             0.019225
Rotational constants in MHz :          2550.991392           640.148100           576.345482

                             ****ORCA TERMINATED NORMALLY****
TOTAL RUN TIME: 0 days 0 hours 5 minutes 24 seconds 328 msec
