                         Program Version 6.0.0  -   RELEASE  -
|  1> ! pbe def2-sv(p) def2/J RI DEFGRID1 loosescf d4 GCP(DFT/SV(P)) printgap
|  2> %output
|  3>     printlevel normal
|  4> end
|  5> * xyz 0 1
|  6> C -2.9707055972 0.0400094574 0.5666067881
|  7> C -2.0599712853 -0.5608911405 -0.502286043
|  8> H -2.6925684899 -1.0449719694 -1.2541571121
|  9> C -1.0935960004 -1.6020469232 0.0587545037
| 10> C -0.140480067 -1.0002270143 1.086854204
| 11> C 0.5811078871 0.2749538408 0.6308056969
| 12> H 0.7761437507 0.8940064371 1.5157805832
| 13> C -0.2210432277 1.1631591487 -0.2937314157
| 14> O 0.0056072079 2.3613384831 -0.3365938396
| 15> C -1.2506809841 0.5387140879 -1.1917104245
| 16> C 1.9856812747 0.0560198626 -0.0038265712
| 17> C 3.0026109013 -0.3145453272 1.0755206187
| 18> C 2.013454043 -0.9848949485 -1.1178848428
| 19> H -3.473878133 -0.7455483394 1.1248193105
| 20> H -2.4032905595 0.6563430861 1.2600847325
| 21> H -3.7269257561 0.6700745799 0.1039061235
| 22> H -1.6581628618 -2.4054923932 0.5355725506
| 23> H -0.5338979529 -2.0378090297 -0.7685529393
| 24> H -0.7110746012 -0.7620814801 1.9860791077
| 25> H 0.5994582293 -1.7481860673 1.372026452
| 26> H -1.8976433686 1.3303608317 -1.5758231715
| 27> H -0.7102520632 0.112813626 -2.0413793098
| 28> H 2.2825759262 1.02439002 -0.4264453434
| 29> H 3.0442564847 0.4502394872 1.8470563546
| 30> H 3.9914649 -0.4073795258 0.633502666
| 31> H 2.7488689762 -1.2629013015 1.5416860345
| 32> H 1.7745051912 -1.9720456343 -0.7328396019
| 33> H 3.012426256 -1.0238472217 -1.546716325
| 34> H 1.3196892389 -0.733545235 -1.9150414457
| 35> *
| 36>
| 37>                          ****END OF INPUT****

CARTESIAN COORDINATES (ANGSTROEM)
---------------------------------
  C     -2.970706    0.040009    0.566607
  C     -2.059971   -0.560891   -0.502286
  H     -2.692568   -1.044972   -1.254157
  C     -1.093596   -1.602047    0.058755
  C     -0.140480   -1.000227    1.086854
  C      0.581108    0.274954    0.630806
  H      0.776144    0.894006    1.515781
  C     -0.221043    1.163159   -0.293731
  O      0.005607    2.361338   -0.336594
  C     -1.250681    0.538714   -1.191710
  C      1.985681    0.056020   -0.003827
  C      3.002611   -0.314545    1.075521
  C      2.013454   -0.984895   -1.117885
  H     -3.473878   -0.745548    1.124819
  H     -2.403291    0.656343    1.260085
  H     -3.726926    0.670075    0.103906
  H     -1.658163   -2.405492    0.535573
  H     -0.533898   -2.037809   -0.768553
  H     -0.711075   -0.762081    1.986079
  H      0.599458   -1.748186    1.372026
  H     -1.897643    1.330361   -1.575823
  H     -0.710252    0.112814   -2.041379
  H      2.282576    1.024390   -0.426445
  H      3.044256    0.450239    1.847056
  H      3.991465   -0.407380    0.633503
  H      2.748869   -1.262901    1.541686
  H      1.774505   -1.972046   -0.732840
  H      3.012426   -1.023847   -1.546716
  H      1.319689   -0.733545   -1.915041

 Total Charge           Charge          ....    0
 Multiplicity           Mult            ....    1
 Number of Electrons    NEL             ....   86
 Basis Dimension        Dim             ....  190

ORBITAL ENERGIES
----------------

  NO   OCC          E(Eh)            E(eV)
   0   2.0000     -18.728329      -509.6237
   1   2.0000      -9.965609      -271.1780
   2   2.0000      -9.904451      -269.5138
   3   2.0000      -9.903867      -269.4979
   4   2.0000      -9.896632      -269.3010
   5   2.0000      -9.891418      -269.1592
   6   2.0000      -9.888846      -269.0892
   7   2.0000      -9.888529      -269.0805
   8   2.0000      -9.880122      -268.8518
   9   2.0000      -9.879296      -268.8293
  10   2.0000      -9.876745      -268.7599
  11   2.0000      -0.926159       -25.2021
  12   2.0000      -0.766684       -20.8625
  13   2.0000      -0.731437       -19.9034
  14   2.0000      -0.675531       -18.3821
  15   2.0000      -0.650730       -17.7073
  16   2.0000      -0.624058       -16.9815
  17   2.0000      -0.614011       -16.7081
  18   2.0000      -0.563822       -15.3424
  19   2.0000      -0.514778       -14.0078
  20   2.0000      -0.505377       -13.7520
  21   2.0000      -0.457832       -12.4583
  22   2.0000      -0.434031       -11.8106
  23   2.0000      -0.418330       -11.3834
  24   2.0000      -0.417338       -11.3563
  25   2.0000      -0.406417       -11.0592
  26   2.0000      -0.394500       -10.7349
  27   2.0000      -0.379402       -10.3241
  28   2.0000      -0.370632       -10.0854
  29   2.0000      -0.356960        -9.7134
  30   2.0000      -0.350070        -9.5259
  31   2.0000      -0.344740        -9.3809
  32   2.0000      -0.341430        -9.2908
  33   2.0000      -0.335670        -9.1340
  34   2.0000      -0.321183        -8.7398
  35   2.0000      -0.315197        -8.5770
  36   2.0000      -0.300164        -8.1679
  37   2.0000      -0.295928        -8.0526
  38   2.0000      -0.289317        -7.8727
  39   2.0000      -0.278266        -7.5720
  40   2.0000      -0.272958        -7.4276
  41   2.0000      -0.267110        -7.2684
  42   2.0000      -0.185239        -5.0406
  43   0.0000      -0.050792        -1.3821
  44   0.0000       0.019795         0.5387
  45   0.0000       0.045843         1.2475
  46   0.0000       0.049169         1.3379
  47   0.0000       0.058053         1.5797

MULLIKEN ATOMIC CHARGES
-----------------------
   0 C :   -0.256324
   1 C :   -0.175877
   2 H :    0.069833
   3 C :   -0.124496
   4 C :   -0.136430
   5 C :   -0.074344
   6 H :    0.070432
   7 C :   -0.031737
   8 O :   -0.167167
   9 C :   -0.072691
  10 C :   -0.190666
  11 C :   -0.232368
  12 C :   -0.252740
  13 H :    0.102708
  14 H :    0.117678
  15 H :    0.105338
  16 H :    0.085041
  17 H :    0.082696
  18 H :    0.088732
  19 H :    0.086883
  20 H :    0.085828
  21 H :    0.111260
  22 H :    0.086710
  23 H :    0.104698
  24 H :    0.101650
  25 H :    0.098233
  26 H :    0.107397
  27 H :    0.103341
  28 H :    0.106382
Sum of atomic charges:    0.0000000

LOEWDIN ATOMIC CHARGES
----------------------
   0 C :   -0.331583
   1 C :   -0.148960
   2 H :    0.117807
   3 C :   -0.219550
   4 C :   -0.220619
   5 C :   -0.157573
   6 H :    0.134040
   7 C :    0.053208
   8 O :   -0.135625
   9 C :   -0.236279
  10 C :   -0.136936
  11 C :   -0.328606
  12 C :   -0.333235
  13 H :    0.120153
  14 H :    0.120229
  15 H :    0.123798
  16 H :    0.119207
  17 H :    0.115336
  18 H :    0.121972
  19 H :    0.118210
  20 H :    0.129694
  21 H :    0.138620
  22 H :    0.122978
  23 H :    0.120336
  24 H :    0.120631
  25 H :    0.115871
  26 H :    0.118691
  27 H :    0.123244
  28 H :    0.114941

  Mayer bond orders larger than 0.100000
B(  0-C ,  1-C ) :   1.1029 B(  0-C , 13-H ) :   0.9499 B(  0-C , 14-H ) :   0.9391
B(  0-C , 15-H ) :   0.9469 B(  1-C ,  2-H ) :   0.8937 B(  1-C ,  3-C ) :   1.0806
B(  1-C ,  9-C ) :   1.0530 B(  3-C ,  4-C ) :   1.1284 B(  3-C , 16-H ) :   0.9102
B(  3-C , 17-H ) :   0.9111 B(  4-C ,  5-C ) :   1.0385 B(  4-C , 18-H ) :   0.9070
B(  4-C , 19-H ) :   0.9040 B(  5-C ,  6-H ) :   0.8580 B(  5-C ,  7-C ) :   0.9540
B(  5-C , 10-C ) :   1.0388 B(  7-C ,  8-O ) :   2.1729 B(  7-C ,  9-C ) :   1.0449
B(  9-C , 20-H ) :   0.8864 B(  9-C , 21-H ) :   0.8753 B( 10-C , 11-C ) :   1.1125
B( 10-C , 12-C ) :   1.1232 B( 10-C , 22-H ) :   0.8915 B( 11-C , 23-H ) :   0.9471
B( 11-C , 24-H ) :   0.9469 B( 11-C , 25-H ) :   0.9403 B( 12-C , 26-H ) :   0.9332
B( 12-C , 27-H ) :   0.9412 B( 12-C , 28-H ) :   0.9375

Dispersion correction           -0.031341366
FINAL SINGLE POINT ENERGY      -466.030224900059

DIPOLE MOMENT
-------------

Method             : SCF
Type of density    : Electron Density
Multiplicity       :   1
Irrep              :   0
Energy             :  -466.1257438140380600 Eh
Relativity type    :
Basis              : AO
                                X                 Y                 Z
Electronic contribution:     -1.738066058       7.359050935      -1.517502202
Nuclear contribution   :      1.634081418      -8.413698182       1.551947879
                        -----------------------------------------
Total Dipole Moment    :     -0.103984640      -1.054647247       0.034445677
                        -----------------------------------------
Magnitude (a.u.)       :      1.060320765
Magnitude (Debye)      :      2.695121200

Rotational constants in cm-1:             0.055795             0.027974             0.023941
Rotational constants in MHz :          1672.695970           838.643291           717.725483

                             ****ORCA TERMINATED NORMALLY****
TOTAL RUN TIME: 0 days 0 hours 0 minutes 13 seconds 145 msec
