                         Program Version 6.0.0  -   RELEASE  -
|  1> ! pbe def2-sv(p) def2/J RI DEFGRID1 loosescf d4 GCP(DFT/SV(P)) printgap
|  2> %output
|  3>     printlevel normal
|  4> end
|  5> * xyz 0 1
|  6> C -2.4699942485 -0.4925834268 -0.5682090713
|  7> C -1.7547706483 0.1945349746 0.5904090293
|  8> C -0.4452169998 0.9026858004 0.2246536076
|  9> C 0.8279185707 0.0589381189 0.0055544692
| 10> C 0.7871508582 -0.7250702448 -1.3084221289
| 11> C 2.0085339987 1.038131112 -0.0620351739
| 12> C 1.0615981326 -0.9075769667 1.1687880201
| 13> H -3.4776567521 -0.7715154383 -0.2667577002
| 14> H -2.5423437368 0.1766405092 -1.4224125318
| 15> H -1.9554235672 -1.3951261777 -0.8820369275
| 16> H -2.4267651827 0.9604147956 0.987765099
| 17> H -1.5818337481 -0.5238224131 1.391980864
| 18> H -0.2252633758 1.5989962484 1.0388684334
| 19> H -0.616864993 1.5033605796 -0.6723729393
| 20> H 1.766706964 -1.1509917709 -1.516543906
| 21> H 0.0742248526 -1.5417418446 -1.2607626353
| 22> H 0.5150535404 -0.0749337519 -2.1364143852
| 23> H 2.1067744333 1.5888528619 0.8708161738
| 24> H 1.8652015665 1.753879054 -0.8684634933
| 25> H 2.9386403816 0.5034136984 -0.2407647523
| 26> H 2.0356219577 -1.3816171957 1.0686994787
| 27> H 1.034167804 -0.3778332196 2.1185109288
| 28> H 0.3083893042 -1.6909465324 1.1852418492
| 29> *
| 30>
| 31>                          ****END OF INPUT****

CARTESIAN COORDINATES (ANGSTROEM)
---------------------------------
  C     -2.469994   -0.492583   -0.568209
  C     -1.754771    0.194535    0.590409
  C     -0.445217    0.902686    0.224654
  C      0.827919    0.058938    0.005554
  C      0.787151   -0.725070   -1.308422
  C      2.008534    1.038131   -0.062035
  C      1.061598   -0.907577    1.168788
  H     -3.477657   -0.771515   -0.266758
  H     -2.542344    0.176641   -1.422413
  H     -1.955424   -1.395126   -0.882037
  H     -2.426765    0.960415    0.987765
  H     -1.581834   -0.523822    1.391981
  H     -0.225263    1.598996    1.038868
  H     -0.616865    1.503361   -0.672373
  H      1.766707   -1.150992   -1.516544
  H      0.074225   -1.541742   -1.260763
  H      0.515054   -0.074934   -2.136414
  H      2.106774    1.588853    0.870816
  H      1.865202    1.753879   -0.868463
  H      2.938640    0.503414   -0.240765
  H      2.035622   -1.381617    1.068699
  H      1.034168   -0.377833    2.118511
  H      0.308389   -1.690947    1.185242

 Total Charge           Charge          ....    0
 Multiplicity           Mult            ....    1
 Number of Electrons    NEL             ....   58
 Basis Dimension        Dim             ....  130

ORBITAL ENERGIES
----------------

  NO   OCC          E(Eh)            E(eV)
   0   2.0000      -9.901386      -269.4304
   1   2.0000      -9.878905      -268.8187
   2   2.0000      -9.876516      -268.7537
   3   2.0000      -9.868674      -268.5403
   4   2.0000      -9.868493      -268.5354
   5   2.0000      -9.867139      -268.4985
   6   2.0000      -9.867019      -268.4952
   7   2.0000      -0.744183       -20.2503
   8   2.0000      -0.685967       -18.6661
   9   2.0000      -0.611862       -16.6496
  10   2.0000      -0.609611       -16.5884
  11   2.0000      -0.600259       -16.3339
  12   2.0000      -0.523417       -14.2429
  13   2.0000      -0.463751       -12.6193
  14   2.0000      -0.418791       -11.3959
  15   2.0000      -0.406412       -11.0590
  16   2.0000      -0.394467       -10.7340
  17   2.0000      -0.372972       -10.1491
  18   2.0000      -0.369603       -10.0574
  19   2.0000      -0.351914        -9.5761
  20   2.0000      -0.334966        -9.1149
  21   2.0000      -0.330907        -9.0044
  22   2.0000      -0.318981        -8.6799
  23   2.0000      -0.307106        -8.3568
  24   2.0000      -0.295065        -8.0291
  25   2.0000      -0.292603        -7.9621
  26   2.0000      -0.273610        -7.4453
  27   2.0000      -0.266478        -7.2512
  28   2.0000      -0.259196        -7.0531
  29   0.0000       0.027492         0.7481
  30   0.0000       0.061958         1.6860
  31   0.0000       0.067680         1.8417
  32   0.0000       0.070078         1.9069
  33   0.0000       0.084153         2.2899

MULLIKEN ATOMIC CHARGES
-----------------------
   0 C :   -0.281752
   1 C :   -0.162141
   2 C :   -0.116845
   3 C :   -0.252452
   4 C :   -0.208422
   5 C :   -0.208067
   6 C :   -0.223406
   7 H :    0.098758
   8 H :    0.094304
   9 H :    0.107100
  10 H :    0.079764
  11 H :    0.086133
  12 H :    0.071624
  13 H :    0.071206
  14 H :    0.089139
  15 H :    0.101679
  16 H :    0.089754
  17 H :    0.091565
  18 H :    0.092064
  19 H :    0.091783
  20 H :    0.091801
  21 H :    0.093139
  22 H :    0.103272
Sum of atomic charges:   -0.0000000

LOEWDIN ATOMIC CHARGES
----------------------
   0 C :   -0.343124
   1 C :   -0.234914
   2 C :   -0.209130
   3 C :   -0.106080
   4 C :   -0.317374
   5 C :   -0.315637
   6 C :   -0.317718
   7 H :    0.118208
   8 H :    0.116196
   9 H :    0.114905
  10 H :    0.117282
  11 H :    0.115462
  12 H :    0.113933
  13 H :    0.111653
  14 H :    0.115440
  15 H :    0.114251
  16 H :    0.115632
  17 H :    0.113973
  18 H :    0.115283
  19 H :    0.113543
  20 H :    0.117053
  21 H :    0.116091
  22 H :    0.115070

  Mayer bond orders larger than 0.100000
B(  0-C ,  1-C ) :   1.1650 B(  0-C ,  7-H ) :   0.9488 B(  0-C ,  8-H ) :   0.9526
B(  0-C ,  9-H ) :   0.9456 B(  1-C ,  2-C ) :   1.1320 B(  1-C , 10-H ) :   0.9221
B(  1-C , 11-H ) :   0.9150 B(  2-C ,  3-C ) :   1.0507 B(  2-C , 12-H ) :   0.9123
B(  2-C , 13-H ) :   0.9155 B(  3-C ,  4-C ) :   1.0827 B(  3-C ,  5-C ) :   1.0725
B(  3-C ,  6-C ) :   1.0750 B(  4-C , 14-H ) :   0.9445 B(  4-C , 15-H ) :   0.9372
B(  4-C , 16-H ) :   0.9464 B(  5-C , 17-H ) :   0.9464 B(  5-C , 18-H ) :   0.9493
B(  5-C , 19-H ) :   0.9458 B(  6-C , 20-H ) :   0.9467 B(  6-C , 21-H ) :   0.9479
B(  6-C , 22-H ) :   0.9396

Dispersion correction           -0.019601720
FINAL SINGLE POINT ENERGY      -275.659245799018

DIPOLE MOMENT
-------------

Method             : SCF
Type of density    : Electron Density
Multiplicity       :   1
Irrep              :   0
Energy             :  -275.7361317006619288 Eh
Relativity type    :
Basis              : AO
                                X                 Y                 Z
Electronic contribution:      0.148442096       0.769500902       0.595292782
Nuclear contribution   :     -0.170154857      -0.772079277      -0.567255976
                        -----------------------------------------
Total Dipole Moment    :     -0.021712761      -0.002578375       0.028036806
                        -----------------------------------------
Magnitude (a.u.)       :      0.035554950
Magnitude (Debye)      :      0.090373502

Rotational constants in cm-1:             0.125861             0.054454             0.052252
Rotational constants in MHz :          3773.203739          1632.475098          1566.470376

                             ****ORCA TERMINATED NORMALLY****
TOTAL RUN TIME: 0 days 0 hours 0 minutes 7 seconds 977 msec
