                         Program Version 6.0.0  -   RELEASE  -
|  1> ! r2scan-3c def2/J RI DEFGRID2 scfconv6 printgap
|  2> %output
|  3>     printlevel normal
|  4> end
|  5> * xyz 0 1
|  6> C -1.3537762043 -0.8870309531 0.390584227
|  7> C -0.5900458744 0.0818459039 -0.5089279315
|  8> C -0.7112528666 1.5140887667 0.0111088831
|  9> C 0.881421374 -0.3478487011 -0.6307983929
| 10> O 1.5783045413 -0.3797921356 0.5956254866
| 11> H -2.3818054615 -0.5586597045 0.5192866458
| 12> H -0.877678064 -0.9411542499 1.3671065301
| 13> H -1.3582465187 -1.8847885549 -0.0414308716
| 14> H -1.010797309 0.0397273969 -1.5190989773
| 15> H -1.7477242819 1.8385743585 -0.032162051
| 16> H -0.114595972 2.1949642158 -0.5922041355
| 17> H -0.3852728483 1.5763323288 1.0469392871
| 18> H 0.9326370653 -1.3700552442 -1.0144778211
| 19> H 1.3990811184 0.3117506934 -1.3413342362
| 20> H 1.6264648132 0.5195131193 0.9472859196
| 21> *
| 22>
| 23>                          ****END OF INPUT****

CARTESIAN COORDINATES (ANGSTROEM)
---------------------------------
  C     -1.353776   -0.887031    0.390584
  C     -0.590046    0.081846   -0.508928
  C     -0.711253    1.514089    0.011109
  C      0.881421   -0.347849   -0.630798
  O      1.578305   -0.379792    0.595625
  H     -2.381805   -0.558660    0.519287
  H     -0.877678   -0.941154    1.367107
  H     -1.358247   -1.884789   -0.041431
  H     -1.010797    0.039727   -1.519099
  H     -1.747724    1.838574   -0.032162
  H     -0.114596    2.194964   -0.592204
  H     -0.385273    1.576332    1.046939
  H      0.932637   -1.370055   -1.014478
  H      1.399081    0.311751   -1.341334
  H      1.626465    0.519513    0.947286

 Total Charge           Charge          ....    0
 Multiplicity           Mult            ....    1
 Number of Electrons    NEL             ....   42
 Basis Dimension        Dim             ....  150

ORBITAL ENERGIES
----------------

  NO   OCC          E(Eh)            E(eV)
   0   2.0000     -18.947602      -515.5905
   1   2.0000     -10.071394      -274.0566
   2   2.0000     -10.035792      -273.0878
   3   2.0000     -10.023390      -272.7503
   4   2.0000     -10.012795      -272.4620
   5   2.0000      -0.984900       -26.8005
   6   2.0000      -0.765998       -20.8439
   7   2.0000      -0.655218       -17.8294
   8   2.0000      -0.641994       -17.4696
   9   2.0000      -0.536592       -14.6014
  10   2.0000      -0.464142       -12.6299
  11   2.0000      -0.442757       -12.0480
  12   2.0000      -0.415681       -11.3113
  13   2.0000      -0.396686       -10.7944
  14   2.0000      -0.361979        -9.8499
  15   2.0000      -0.351191        -9.5564
  16   2.0000      -0.331187        -9.0121
  17   2.0000      -0.312421        -8.5014
  18   2.0000      -0.303412        -8.2563
  19   2.0000      -0.284299        -7.7362
  20   2.0000      -0.234709        -6.3868
  21   0.0000       0.052078         1.4171
  22   0.0000       0.097441         2.6515
  23   0.0000       0.127776         3.4770
  24   0.0000       0.134136         3.6500
  25   0.0000       0.136888         3.7249

MULLIKEN ATOMIC CHARGES
-----------------------
   0 C :   -0.505536
   1 C :    0.031663
   2 C :   -0.527098
   3 C :   -0.184895
   4 O :   -0.432388
   5 H :    0.141377
   6 H :    0.169477
   7 H :    0.143596
   8 H :    0.139753
   9 H :    0.153512
  10 H :    0.151224
  11 H :    0.143402
  12 H :    0.141776
  13 H :    0.134162
  14 H :    0.299974
Sum of atomic charges:   -0.0000000

LOEWDIN ATOMIC CHARGES
----------------------
   0 C :   -0.414069
   1 C :   -0.241791
   2 C :   -0.421684
   3 C :    0.003487
   4 O :   -0.619902
   5 H :    0.151556
   6 H :    0.163111
   7 H :    0.154894
   8 H :    0.159200
   9 H :    0.157701
  10 H :    0.154676
  11 H :    0.150982
  12 H :    0.178598
  13 H :    0.157757
  14 H :    0.265482

  Mayer bond orders larger than 0.100000
B(  0-C ,  1-C ) :   0.9148 B(  0-C ,  5-H ) :   0.9748 B(  0-C ,  6-H ) :   0.9802
B(  0-C ,  7-H ) :   0.9714 B(  1-C ,  2-C ) :   0.8838 B(  1-C ,  3-C ) :   0.9109
B(  1-C ,  8-H ) :   0.9396 B(  2-C ,  9-H ) :   0.9687 B(  2-C , 10-H ) :   0.9755
B(  2-C , 11-H ) :   0.9851 B(  3-C ,  4-O ) :   0.9499 B(  3-C , 12-H ) :   0.9786
B(  3-C , 13-H ) :   0.9795 B(  4-O , 14-H ) :   0.8936

Dispersion correction           -0.003291158
FINAL SINGLE POINT ENERGY      -233.600181388199

DIPOLE MOMENT
-------------

Method             : SCF
Type of density    : Electron Density
Multiplicity       :   1
Irrep              :   0
Energy             :  -233.6054453598816281 Eh
Relativity type    :
Basis              : AO
                                X                 Y                 Z
Electronic contribution:      3.360474054      -1.114181234       0.355763946
Nuclear contribution   :     -3.652204682       1.613822811      -0.610411474
                        -----------------------------------------
Total Dipole Moment    :     -0.291730628       0.499641577      -0.254647529
                        -----------------------------------------
Magnitude (a.u.)       :      0.632134344
Magnitude (Debye)      :      1.606757811

Rotational constants in cm-1:             0.209752             0.132478             0.105976
Rotational constants in MHz :          6288.191799          3971.577722          3177.080573

                             ****ORCA TERMINATED NORMALLY****
TOTAL RUN TIME: 0 days 0 hours 0 minutes 14 seconds 800 msec
