                         Program Version 6.0.0  -   RELEASE  -
|  1> ! r2scan-3c def2/J RI DEFGRID2 scfconv6 printgap
|  2> %output
|  3>     printlevel normal
|  4> end
|  5> %cpcm
|  6>     smd true
|  7>     smdsolvent "water"
|  8> end
|  9> * xyz 0 1
| 10> C -1.3537762043 -0.8870309531 0.390584227
| 11> C -0.5900458744 0.0818459039 -0.5089279315
| 12> C -0.7112528666 1.5140887667 0.0111088831
| 13> C 0.881421374 -0.3478487011 -0.6307983929
| 14> O 1.5783045413 -0.3797921356 0.5956254866
| 15> H -2.3818054615 -0.5586597045 0.5192866458
| 16> H -0.877678064 -0.9411542499 1.3671065301
| 17> H -1.3582465187 -1.8847885549 -0.0414308716
| 18> H -1.010797309 0.0397273969 -1.5190989773
| 19> H -1.7477242819 1.8385743585 -0.032162051
| 20> H -0.114595972 2.1949642158 -0.5922041355
| 21> H -0.3852728483 1.5763323288 1.0469392871
| 22> H 0.9326370653 -1.3700552442 -1.0144778211
| 23> H 1.3990811184 0.3117506934 -1.3413342362
| 24> H 1.6264648132 0.5195131193 0.9472859196
| 25> *
| 26>
| 27>                          ****END OF INPUT****

CARTESIAN COORDINATES (ANGSTROEM)
---------------------------------
  C     -1.353776   -0.887031    0.390584
  C     -0.590046    0.081846   -0.508928
  C     -0.711253    1.514089    0.011109
  C      0.881421   -0.347849   -0.630798
  O      1.578305   -0.379792    0.595625
  H     -2.381805   -0.558660    0.519287
  H     -0.877678   -0.941154    1.367107
  H     -1.358247   -1.884789   -0.041431
  H     -1.010797    0.039727   -1.519099
  H     -1.747724    1.838574   -0.032162
  H     -0.114596    2.194964   -0.592204
  H     -0.385273    1.576332    1.046939
  H      0.932637   -1.370055   -1.014478
  H      1.399081    0.311751   -1.341334
  H      1.626465    0.519513    0.947286

 Total Charge           Charge          ....    0
 Multiplicity           Mult            ....    1
 Number of Electrons    NEL             ....   42
 Basis Dimension        Dim             ....  150

ORBITAL ENERGIES
----------------

  NO   OCC          E(Eh)            E(eV)
   0   2.0000     -18.950285      -515.6635
   1   2.0000     -10.064705      -273.8745
   2   2.0000     -10.026255      -272.8283
   3   2.0000     -10.008718      -272.3511
   4   2.0000     -10.006456      -272.2895
   5   2.0000      -0.986456       -26.8428
   6   2.0000      -0.756708       -20.5911
   7   2.0000      -0.644479       -17.5372
   8   2.0000      -0.636338       -17.3157
   9   2.0000      -0.529325       -14.4037
  10   2.0000      -0.459121       -12.4933
  11   2.0000      -0.435187       -11.8420
  12   2.0000      -0.409486       -11.1427
  13   2.0000      -0.386464       -10.5162
  14   2.0000      -0.358112        -9.7447
  15   2.0000      -0.341355        -9.2888
  16   2.0000      -0.327354        -8.9078
  17   2.0000      -0.304211        -8.2780
  18   2.0000      -0.293782        -7.9942
  19   2.0000      -0.280556        -7.6343
  20   2.0000      -0.236887        -6.4460
  21   0.0000       0.067542         1.8379
  22   0.0000       0.110049         2.9946
  23   0.0000       0.136486         3.7140
  24   0.0000       0.141393         3.8475
  25   0.0000       0.146320         3.9816

MULLIKEN ATOMIC CHARGES
-----------------------
   0 C :   -0.554255
   1 C :    0.037883
   2 C :   -0.549536
   3 C :   -0.183218
   4 O :   -0.519509
   5 H :    0.156851
   6 H :    0.163421
   7 H :    0.158072
   8 H :    0.152824
   9 H :    0.162905
  10 H :    0.160993
  11 H :    0.158545
  12 H :    0.153292
  13 H :    0.146861
  14 H :    0.354869
Sum of atomic charges:   -0.0000000

LOEWDIN ATOMIC CHARGES
----------------------
   0 C :   -0.423903
   1 C :   -0.236976
   2 C :   -0.425625
   3 C :    0.002109
   4 O :   -0.657404
   5 H :    0.156298
   6 H :    0.158708
   7 H :    0.157361
   8 H :    0.164676
   9 H :    0.158756
  10 H :    0.158922
  11 H :    0.156753
  12 H :    0.181112
  13 H :    0.165599
  14 H :    0.283613

  Mayer bond orders larger than 0.100000
B(  0-C ,  1-C ) :   0.8986 B(  0-C ,  5-H ) :   0.9716 B(  0-C ,  6-H ) :   0.9833
B(  0-C ,  7-H ) :   0.9707 B(  1-C ,  2-C ) :   0.8937 B(  1-C ,  3-C ) :   0.9202
B(  1-C ,  8-H ) :   0.9384 B(  2-C ,  9-H ) :   0.9686 B(  2-C , 10-H ) :   0.9705
B(  2-C , 11-H ) :   0.9784 B(  3-C ,  4-O ) :   0.9354 B(  3-C , 12-H ) :   0.9761
B(  3-C , 13-H ) :   0.9704 B(  4-O , 14-H ) :   0.8663

Dispersion correction           -0.003291158
FINAL SINGLE POINT ENERGY      -233.606261781562

DIPOLE MOMENT
-------------

Method             : SCF
Type of density    : Electron Density
Multiplicity       :   1
Irrep              :   0
Energy             :  -233.6115257532439955 Eh
Relativity type    :
Basis              : AO
                                X                 Y                 Z
Electronic contribution:      3.275984618      -0.887938215       0.232487407
Nuclear contribution   :     -3.652204682       1.613822811      -0.610411474
                        -----------------------------------------
Total Dipole Moment    :     -0.376220064       0.725884596      -0.377924067
                        -----------------------------------------
Magnitude (a.u.)       :      0.900708934
Magnitude (Debye)      :      2.289420167

Rotational constants in cm-1:             0.209752             0.132478             0.105976
Rotational constants in MHz :          6288.191799          3971.577722          3177.080573

                             ****ORCA TERMINATED NORMALLY****
TOTAL RUN TIME: 0 days 0 hours 0 minutes 17 seconds 926 msec
