                         Program Version 6.0.0  -   RELEASE  -
|  1> ! pbe def2-sv(p) def2/J RI DEFGRID1 loosescf d4 GCP(DFT/SV(P)) printgap
|  2> %output
|  3>     printlevel normal
|  4> end
|  5> * xyz 0 1
|  6> C -3.4154501912 -0.4081361076 1.7478068598
|  7> N -2.3421904391 -0.0667302274 0.8400993454
|  8> C -2.3956522525 -0.320322339 -0.4725331573
|  9> O -3.3331809112 -0.8547991946 -1.0381343307
| 10> O -1.3251233145 0.0451124509 -1.2132601347
| 11> C -0.2118645349 0.6614317354 -0.6261878446
| 12> C -0.1858252772 2.0240489764 -0.4782218977
| 13> C 0.9538574907 2.6502518259 0.0487522061
| 14> C 2.0413559582 1.9101423201 0.4192478879
| 15> C 2.0438137648 0.5065002136 0.274815279
| 16> C 0.8979929978 -0.1417220874 -0.2593068548
| 17> C 0.902364008 -1.5439446764 -0.4089520933
| 18> C 1.9971889813 -2.276011547 -0.042458474
| 19> C 3.1308188186 -1.6403790106 0.4883275606
| 20> C 3.1542038028 -0.2823407 0.6430276666
| 21> H -3.7851846877 0.4890246291 2.2422831649
| 22> H -3.0639858226 -1.1200863085 2.4935069026
| 23> H -4.2153531341 -0.8582648229 1.1636871703
| 24> H -1.518120056 0.3683536114 1.2292239028
| 25> H -1.043411468 2.6066165594 -0.7774055886
| 26> H 0.9563468935 3.7231585546 0.1551583802
| 27> H 2.9188368174 2.3893418833 0.8249557603
| 28> H 0.0280801509 -2.0231305173 -0.8259249789
| 29> H 1.9950643097 -3.3485499109 -0.161530533
| 30> H 3.9852006145 -2.2358451731 0.7709299185
| 31> H 4.025042321 0.2102093718 1.0480863947
| 32> *
| 33>
| 34>                          ****END OF INPUT****

CARTESIAN COORDINATES (ANGSTROEM)
---------------------------------
  C     -3.415450   -0.408136    1.747807
  N     -2.342190   -0.066730    0.840099
  C     -2.395652   -0.320322   -0.472533
  O     -3.333181   -0.854799   -1.038134
  O     -1.325123    0.045112   -1.213260
  C     -0.211865    0.661432   -0.626188
  C     -0.185825    2.024049   -0.478222
  C      0.953857    2.650252    0.048752
  C      2.041356    1.910142    0.419248
  C      2.043814    0.506500    0.274815
  C      0.897993   -0.141722   -0.259307
  C      0.902364   -1.543945   -0.408952
  C      1.997189   -2.276012   -0.042458
  C      3.130819   -1.640379    0.488328
  C      3.154204   -0.282341    0.643028
  H     -3.785185    0.489025    2.242283
  H     -3.063986   -1.120086    2.493507
  H     -4.215353   -0.858265    1.163687
  H     -1.518120    0.368354    1.229224
  H     -1.043411    2.606617   -0.777406
  H      0.956347    3.723159    0.155158
  H      2.918837    2.389342    0.824956
  H      0.028080   -2.023131   -0.825925
  H      1.995064   -3.348550   -0.161531
  H      3.985201   -2.235845    0.770930
  H      4.025042    0.210209    1.048086

 Total Charge           Charge          ....    0
 Multiplicity           Mult            ....    1
 Number of Electrons    NEL             ....  106
 Basis Dimension        Dim             ....  232

ORBITAL ENERGIES
----------------

  NO   OCC          E(Eh)            E(eV)
   0   2.0000     -18.803139      -511.6594
   1   2.0000     -18.707600      -509.0597
   2   2.0000     -14.022321      -381.5667
   3   2.0000     -10.021114      -272.6884
   4   2.0000      -9.967758      -271.2365
   5   2.0000      -9.921792      -269.9857
   6   2.0000      -9.919223      -269.9158
   7   2.0000      -9.918567      -269.8979
   8   2.0000      -9.910285      -269.6726
   9   2.0000      -9.909704      -269.6567
  10   2.0000      -9.907163      -269.5876
  11   2.0000      -9.906235      -269.5623
  12   2.0000      -9.905701      -269.5478
  13   2.0000      -9.905144      -269.5327
  14   2.0000      -9.904722      -269.5212
  15   2.0000      -1.010175       -27.4883
  16   2.0000      -0.909731       -24.7550
  17   2.0000      -0.840782       -22.8788
  18   2.0000      -0.808339       -21.9960
  19   2.0000      -0.759168       -20.6580
  20   2.0000      -0.710087       -19.3224
  21   2.0000      -0.683375       -18.5956
  22   2.0000      -0.663892       -18.0654
  23   2.0000      -0.644676       -17.5425
  24   2.0000      -0.588682       -16.0189
  25   2.0000      -0.568559       -15.4713
  26   2.0000      -0.567053       -15.4303
  27   2.0000      -0.536352       -14.5949
  28   2.0000      -0.515199       -14.0193
  29   2.0000      -0.478060       -13.0087
  30   2.0000      -0.463410       -12.6100
  31   2.0000      -0.457632       -12.4528
  32   2.0000      -0.438250       -11.9254
  33   2.0000      -0.425477       -11.5778
  34   2.0000      -0.409547       -11.1443
  35   2.0000      -0.394383       -10.7317
  36   2.0000      -0.392072       -10.6688
  37   2.0000      -0.382561       -10.4100
  38   2.0000      -0.372535       -10.1372
  39   2.0000      -0.365552        -9.9472
  40   2.0000      -0.362284        -9.8583
  41   2.0000      -0.354590        -9.6489
  42   2.0000      -0.349820        -9.5191
  43   2.0000      -0.335131        -9.1194
  44   2.0000      -0.315006        -8.5717
  45   2.0000      -0.311626        -8.4798
  46   2.0000      -0.305233        -8.3058
  47   2.0000      -0.266630        -7.2554
  48   2.0000      -0.257038        -6.9944
  49   2.0000      -0.241451        -6.5702
  50   2.0000      -0.218035        -5.9330
  51   2.0000      -0.215799        -5.8722
  52   2.0000      -0.205933        -5.6037
  53   0.0000      -0.083545        -2.2734
  54   0.0000      -0.055227        -1.5028
  55   0.0000      -0.017566        -0.4780
  56   0.0000       0.028597         0.7782
  57   0.0000       0.034539         0.9398

MULLIKEN ATOMIC CHARGES
-----------------------
   0 C :   -0.175564
   1 N :   -0.318607
   2 C :    0.192924
   3 O :   -0.217992
   4 O :   -0.210322
   5 C :    0.067279
   6 C :   -0.116601
   7 C :   -0.039045
   8 C :   -0.108797
   9 C :    0.137458
  10 C :    0.121859
  11 C :   -0.140932
  12 C :   -0.036233
  13 C :   -0.033228
  14 C :   -0.129602
  15 H :    0.113654
  16 H :    0.115174
  17 H :    0.141562
  18 H :    0.247698
  19 H :    0.052782
  20 H :    0.060717
  21 H :    0.042686
  22 H :    0.070788
  23 H :    0.060147
  24 H :    0.058545
  25 H :    0.043649
Sum of atomic charges:   -0.0000000

LOEWDIN ATOMIC CHARGES
----------------------
   0 C :   -0.255258
   1 N :   -0.185112
   2 C :    0.024331
   3 O :   -0.204723
   4 O :   -0.041538
   5 C :    0.027434
   6 C :   -0.140240
   7 C :   -0.120643
   8 C :   -0.113594
   9 C :   -0.023320
  10 C :   -0.040487
  11 C :   -0.108805
  12 C :   -0.116777
  13 C :   -0.118668
  14 C :   -0.108741
  15 H :    0.117799
  16 H :    0.118254
  17 H :    0.139668
  18 H :    0.238727
  19 H :    0.136409
  20 H :    0.129298
  21 H :    0.127104
  22 H :    0.136718
  23 H :    0.128477
  24 H :    0.127222
  25 H :    0.126465

  Mayer bond orders larger than 0.100000
B(  0-C ,  1-N ) :   1.0205 B(  0-C , 15-H ) :   0.9590 B(  0-C , 16-H ) :   0.9593
B(  0-C , 17-H ) :   0.9350 B(  1-N ,  2-C ) :   1.2103 B(  1-N , 18-H ) :   0.8363
B(  2-C ,  3-O ) :   2.0742 B(  2-C ,  4-O ) :   1.0484 B(  4-O ,  5-C ) :   1.0499
B(  5-C ,  6-C ) :   1.4681 B(  5-C , 10-C ) :   1.2208 B(  6-C ,  7-C ) :   1.2103
B(  6-C , 19-H ) :   0.9647 B(  7-C ,  8-C ) :   1.4401 B(  7-C , 20-H ) :   0.9623
B(  8-C ,  9-C ) :   1.2359 B(  8-C , 21-H ) :   0.9679 B(  9-C , 10-C ) :   1.2484
B(  9-C , 14-C ) :   1.2403 B( 10-C , 11-C ) :   1.2649 B( 11-C , 12-C ) :   1.4430
B( 11-C , 22-H ) :   0.9589 B( 12-C , 13-C ) :   1.2546 B( 12-C , 23-H ) :   0.9634
B( 13-C , 14-C ) :   1.4608 B( 13-C , 24-H ) :   0.9624 B( 14-C , 25-H ) :   0.9657

Dispersion correction           -0.033058182
FINAL SINGLE POINT ENERGY      -667.731444553849

DIPOLE MOMENT
-------------

Method             : SCF
Type of density    : Electron Density
Multiplicity       :   1
Irrep              :   0
Energy             :  -667.8066850467902213 Eh
Relativity type    :
Basis              : AO
                                X                 Y                 Z
Electronic contribution:      0.939670449       0.415206594      -6.124243340
Nuclear contribution   :      0.183197930       0.176053149       7.629534678
                        -----------------------------------------
Total Dipole Moment    :      1.122868378       0.591259743       1.505291338
                        -----------------------------------------
Magnitude (a.u.)       :      1.968838107
Magnitude (Debye)      :      5.004388763

Rotational constants in cm-1:             0.033577             0.014934             0.012253
Rotational constants in MHz :          1006.625845           447.703771           367.347499

                             ****ORCA TERMINATED NORMALLY****
TOTAL RUN TIME: 0 days 0 hours 0 minutes 13 seconds 647 msec
