                         Program Version 6.0.0  -   RELEASE  -
|  1> ! r2scan-3c def2/J RI DEFGRID2 scfconv6 printgap
|  2> %output
|  3>     printlevel normal
|  4> end
|  5> * xyz 0 1
|  6> C -1.8158084144 -0.020315866 -0.9904731348
|  7> C -0.9781180269 0.338633917 0.2317893214
|  8> H -1.0656404317 1.4114956363 0.4562227447
|  9> C 0.5085053637 0.0942913704 -0.0762627998
| 10> F 1.2917898033 0.355893733 0.9915281292
| 11> F 0.7815472051 -1.1670404497 -0.4366275899
| 12> F 0.9610402439 0.8825648943 -1.0679170541
| 13> O -1.3752821726 -0.454173049 1.3128994624
| 14> H -1.7060793863 -1.0797044372 -1.2063486188
| 15> H -1.4986955658 0.5644798734 -1.8481686815
| 16> H -2.8579249713 0.1855870541 -0.7707515974
| 17> H -1.0021346124 -0.1354489323 2.1479502919
| 18> *
| 19>
| 20>                          ****END OF INPUT****

CARTESIAN COORDINATES (ANGSTROEM)
---------------------------------
  C     -1.815808   -0.020316   -0.990473
  C     -0.978118    0.338634    0.231789
  H     -1.065640    1.411496    0.456223
  C      0.508505    0.094291   -0.076263
  F      1.291790    0.355894    0.991528
  F      0.781547   -1.167040   -0.436628
  F      0.961040    0.882565   -1.067917
  O     -1.375282   -0.454173    1.312899
  H     -1.706079   -1.079704   -1.206349
  H     -1.498696    0.564480   -1.848169
  H     -2.857925    0.185587   -0.770752
  H     -1.002135   -0.135449    2.147950

 Total Charge           Charge          ....    0
 Multiplicity           Mult            ....    1
 Number of Electrons    NEL             ....   58
 Basis Dimension        Dim             ....  178

ORBITAL ENERGIES
----------------

  NO   OCC          E(Eh)            E(eV)
   0   2.0000     -24.518756      -667.1893
   1   2.0000     -24.517658      -667.1594
   2   2.0000     -24.516418      -667.1257
   3   2.0000     -18.977755      -516.4110
   4   2.0000     -10.275430      -279.6087
   5   2.0000     -10.122208      -275.4393
   6   2.0000     -10.040529      -273.2167
   7   2.0000      -1.275258       -34.7015
   8   2.0000      -1.185868       -32.2691
   9   2.0000      -1.184465       -32.2309
  10   2.0000      -1.019706       -27.7476
  11   2.0000      -0.764534       -20.8040
  12   2.0000      -0.675909       -18.3924
  13   2.0000      -0.607662       -16.5353
  14   2.0000      -0.559336       -15.2203
  15   2.0000      -0.554297       -15.0832
  16   2.0000      -0.540603       -14.7105
  17   2.0000      -0.496936       -13.5223
  18   2.0000      -0.430318       -11.7095
  19   2.0000      -0.427907       -11.6439
  20   2.0000      -0.411367       -11.1939
  21   2.0000      -0.399233       -10.8637
  22   2.0000      -0.387884       -10.5548
  23   2.0000      -0.380477       -10.3533
  24   2.0000      -0.374840       -10.1999
  25   2.0000      -0.365481        -9.9452
  26   2.0000      -0.352934        -9.6038
  27   2.0000      -0.322108        -8.7650
  28   2.0000      -0.269929        -7.3451
  29   0.0000       0.039786         1.0826
  30   0.0000       0.080475         2.1898
  31   0.0000       0.097004         2.6396
  32   0.0000       0.121367         3.3026
  33   0.0000       0.129402         3.5212

MULLIKEN ATOMIC CHARGES
-----------------------
   0 C :   -0.488149
   1 C :   -0.000326
   2 H :    0.153688
   3 C :    0.566099
   4 F :   -0.223210
   5 F :   -0.205760
   6 F :   -0.215329
   7 O :   -0.397758
   8 H :    0.172847
   9 H :    0.163598
  10 H :    0.162757
  11 H :    0.311543
Sum of atomic charges:   -0.0000000

LOEWDIN ATOMIC CHARGES
----------------------
   0 C :   -0.365225
   1 C :    0.077271
   2 H :    0.182154
   3 C :    0.513221
   4 F :   -0.217520
   5 F :   -0.200395
   6 F :   -0.216209
   7 O :   -0.562848
   8 H :    0.173627
   9 H :    0.169646
  10 H :    0.166709
  11 H :    0.279569

  Mayer bond orders larger than 0.100000
B(  0-C ,  1-C ) :   0.9426 B(  0-C ,  8-H ) :   0.9708 B(  0-C ,  9-H ) :   0.9621
B(  0-C , 10-H ) :   0.9629 B(  1-C ,  2-H ) :   0.9370 B(  1-C ,  3-C ) :   0.9588
B(  1-C ,  7-O ) :   0.9406 B(  3-C ,  4-F ) :   1.0075 B(  3-C ,  5-F ) :   1.0337
B(  3-C ,  6-F ) :   1.0078 B(  7-O , 11-H ) :   0.8860

Dispersion correction           -0.002546277
FINAL SINGLE POINT ENERGY      -492.057661819851

DIPOLE MOMENT
-------------

Method             : SCF
Type of density    : Electron Density
Multiplicity       :   1
Irrep              :   0
Energy             :  -492.0669368982418064 Eh
Relativity type    :
Basis              : AO
                                X                 Y                 Z
Electronic contribution:      9.875355805      -0.298547594       0.851574809
Nuclear contribution   :    -10.459582764       0.815005126      -0.650848919
                        -----------------------------------------
Total Dipole Moment    :     -0.584226960       0.516457532       0.200725890
                        -----------------------------------------
Magnitude (a.u.)       :      0.805195881
Magnitude (Debye)      :      2.046645279

Rotational constants in cm-1:             0.117856             0.079564             0.065197
Rotational constants in MHz :          3533.239751          2385.278017          1954.552902

                             ****ORCA TERMINATED NORMALLY****
TOTAL RUN TIME: 0 days 0 hours 0 minutes 20 seconds 603 msec
