                         Program Version 6.0.0  -   RELEASE  -
|  1> ! r2scan-3c def2/J RI DEFGRID2 scfconv6 printgap
|  2> %output
|  3>     printlevel normal
|  4> end
|  5> %cpcm
|  6>     smd true
|  7>     smdsolvent "water"
|  8> end
|  9> * xyz 0 1
| 10> C -1.8158084144 -0.020315866 -0.9904731348
| 11> C -0.9781180269 0.338633917 0.2317893214
| 12> H -1.0656404317 1.4114956363 0.4562227447
| 13> C 0.5085053637 0.0942913704 -0.0762627998
| 14> F 1.2917898033 0.355893733 0.9915281292
| 15> F 0.7815472051 -1.1670404497 -0.4366275899
| 16> F 0.9610402439 0.8825648943 -1.0679170541
| 17> O -1.3752821726 -0.454173049 1.3128994624
| 18> H -1.7060793863 -1.0797044372 -1.2063486188
| 19> H -1.4986955658 0.5644798734 -1.8481686815
| 20> H -2.8579249713 0.1855870541 -0.7707515974
| 21> H -1.0021346124 -0.1354489323 2.1479502919
| 22> *
| 23>
| 24>                          ****END OF INPUT****

CARTESIAN COORDINATES (ANGSTROEM)
---------------------------------
  C     -1.815808   -0.020316   -0.990473
  C     -0.978118    0.338634    0.231789
  H     -1.065640    1.411496    0.456223
  C      0.508505    0.094291   -0.076263
  F      1.291790    0.355894    0.991528
  F      0.781547   -1.167040   -0.436628
  F      0.961040    0.882565   -1.067917
  O     -1.375282   -0.454173    1.312899
  H     -1.706079   -1.079704   -1.206349
  H     -1.498696    0.564480   -1.848169
  H     -2.857925    0.185587   -0.770752
  H     -1.002135   -0.135449    2.147950

 Total Charge           Charge          ....    0
 Multiplicity           Mult            ....    1
 Number of Electrons    NEL             ....   58
 Basis Dimension        Dim             ....  178

ORBITAL ENERGIES
----------------

  NO   OCC          E(Eh)            E(eV)
   0   2.0000     -24.520261      -667.2302
   1   2.0000     -24.519699      -667.2149
   2   2.0000     -24.517396      -667.1523
   3   2.0000     -18.968908      -516.1702
   4   2.0000     -10.275157      -279.6012
   5   2.0000     -10.109549      -275.0948
   6   2.0000     -10.025129      -272.7976
   7   2.0000      -1.277442       -34.7610
   8   2.0000      -1.189030       -32.3552
   9   2.0000      -1.185888       -32.2697
  10   2.0000      -1.010442       -27.4955
  11   2.0000      -0.754031       -20.5182
  12   2.0000      -0.671317       -18.2675
  13   2.0000      -0.601424       -16.3656
  14   2.0000      -0.560316       -15.2470
  15   2.0000      -0.555383       -15.1127
  16   2.0000      -0.533035       -14.5046
  17   2.0000      -0.486086       -13.2271
  18   2.0000      -0.432550       -11.7703
  19   2.0000      -0.430115       -11.7040
  20   2.0000      -0.405219       -11.0266
  21   2.0000      -0.397195       -10.8082
  22   2.0000      -0.386174       -10.5083
  23   2.0000      -0.378398       -10.2967
  24   2.0000      -0.371173       -10.1001
  25   2.0000      -0.359278        -9.7764
  26   2.0000      -0.342487        -9.3195
  27   2.0000      -0.313705        -8.5363
  28   2.0000      -0.264408        -7.1949
  29   0.0000       0.059094         1.6080
  30   0.0000       0.090626         2.4661
  31   0.0000       0.107148         2.9157
  32   0.0000       0.134659         3.6643
  33   0.0000       0.145194         3.9509

MULLIKEN ATOMIC CHARGES
-----------------------
   0 C :   -0.524747
   1 C :    0.017303
   2 H :    0.189999
   3 C :    0.543353
   4 F :   -0.224555
   5 F :   -0.216520
   6 F :   -0.220223
   7 O :   -0.463131
   8 H :    0.178151
   9 H :    0.180778
  10 H :    0.180480
  11 H :    0.359110
Sum of atomic charges:   -0.0000000

LOEWDIN ATOMIC CHARGES
----------------------
   0 C :   -0.370989
   1 C :    0.081443
   2 H :    0.198415
   3 C :    0.511534
   4 F :   -0.220221
   5 F :   -0.210923
   6 F :   -0.219808
   7 O :   -0.587412
   8 H :    0.172525
   9 H :    0.175940
  10 H :    0.172300
  11 H :    0.297198

  Mayer bond orders larger than 0.100000
B(  0-C ,  1-C ) :   0.9285 B(  0-C ,  8-H ) :   0.9657 B(  0-C ,  9-H ) :   0.9577
B(  0-C , 10-H ) :   0.9590 B(  1-C ,  2-H ) :   0.9255 B(  1-C ,  3-C ) :   0.9698
B(  1-C ,  7-O ) :   0.9284 B(  3-C ,  4-F ) :   1.0121 B(  3-C ,  5-F ) :   1.0251
B(  3-C ,  6-F ) :   1.0097 B(  7-O , 11-H ) :   0.8612

Dispersion correction           -0.002546277
FINAL SINGLE POINT ENERGY      -492.063682601455

DIPOLE MOMENT
-------------

Method             : SCF
Type of density    : Electron Density
Multiplicity       :   1
Irrep              :   0
Energy             :  -492.0729576798462972 Eh
Relativity type    :
Basis              : AO
                                X                 Y                 Z
Electronic contribution:      9.798548156      -0.041580041       0.923171466
Nuclear contribution   :    -10.459582764       0.815005126      -0.650848919
                        -----------------------------------------
Total Dipole Moment    :     -0.661034608       0.773425085       0.272322547
                        -----------------------------------------
Magnitude (a.u.)       :      1.053239139
Magnitude (Debye)      :      2.677121138

Rotational constants in cm-1:             0.117856             0.079564             0.065197
Rotational constants in MHz :          3533.239751          2385.278017          1954.552902

                             ****ORCA TERMINATED NORMALLY****
TOTAL RUN TIME: 0 days 0 hours 0 minutes 24 seconds 411 msec
