                         Program Version 6.0.0  -   RELEASE  -
|  1> ! wb97x-v def2-tzvp def2/J RIJCOSX DEFGRID2 scfconv7 GCP(DFT/TZ) printgap
|  2> %output
|  3>     printlevel normal
|  4> end
|  5> * xyz 0 1
|  6> C -2.5748142568561185 -0.8693543075659099 0.328023003614157
|  7> C -1.1456126253497905 -0.42563848919482483 0.5784741884360456
|  8> H -0.9901228158180826 -0.36913322074460414 1.668772649475145
|  9> C -0.8062253554766818 0.9253107471890386 -0.04971626409340057
| 10> H -0.9997214305425286 0.8789874463861554 -1.1314635229774337
| 11> C 0.6645910860030692 1.2375603340844166 0.17609406651744797
| 12> H 0.8331216495133672 1.371555218313682 1.2582067034464253
| 13> C 1.5522082618471422 0.09634141764296252 -0.31597583953149155
| 14> H 1.4681499748240658 0.0020987353598708068 -1.4052165584275247
| 15> C 1.0969294396110256 -1.2154682964616126 0.3172604132120517
| 16> H 1.2237621005271213 -1.186936066390164 1.4133738514932885
| 17> O -0.287551550736248 -1.4316052304471267 0.012390899058209877
| 18> O 1.8272675121229303 -2.2690655588398547 -0.250308627890172
| 19> O 2.929152551252442 0.36886197062080334 -0.04271706425154223
| 20> O 0.9564930444927571 2.4563125644586306 -0.5170997217948803
| 21> O -1.6459303314311415 1.907610276898438 0.5663217067638
| 22> O -2.916868634634188 -0.9097243689557144 -1.0617397560969295
| 23> H -3.258880655561489 -0.16068581889189024 0.8009408927864172
| 24> H -2.7219682450415434 -1.8536894087890639 0.7925143113256132
| 25> H 1.7464930765958881 -3.03796560388629 0.33027832980111826
| 26> H 3.027566139670554 0.463639967867689 0.9160686451514756
| 27> H 1.8791911662019984 2.678032548075003 -0.3327451044568482
| 28> H -1.4128375975382745 2.7640549557354976 0.18361012712319788
| 29> H -2.3519886970941797 -1.5731809544654856 -1.479480007378499
| 30> *
| 31>
| 32>                          ****END OF INPUT****

CARTESIAN COORDINATES (ANGSTROEM)
---------------------------------
  C     -2.574814   -0.869354    0.328023
  C     -1.145613   -0.425638    0.578474
  H     -0.990123   -0.369133    1.668773
  C     -0.806225    0.925311   -0.049716
  H     -0.999721    0.878987   -1.131464
  C      0.664591    1.237560    0.176094
  H      0.833122    1.371555    1.258207
  C      1.552208    0.096341   -0.315976
  H      1.468150    0.002099   -1.405217
  C      1.096929   -1.215468    0.317260
  H      1.223762   -1.186936    1.413374
  O     -0.287552   -1.431605    0.012391
  O      1.827268   -2.269066   -0.250309
  O      2.929153    0.368862   -0.042717
  O      0.956493    2.456313   -0.517100
  O     -1.645930    1.907610    0.566322
  O     -2.916869   -0.909724   -1.061740
  H     -3.258881   -0.160686    0.800941
  H     -2.721968   -1.853689    0.792514
  H      1.746493   -3.037966    0.330278
  H      3.027566    0.463640    0.916069
  H      1.879191    2.678033   -0.332745
  H     -1.412838    2.764055    0.183610
  H     -2.351989   -1.573181   -1.479480

 Total Charge           Charge          ....    0
 Multiplicity           Mult            ....    1
 Number of Electrons    NEL             ....   96
 Basis Dimension        Dim             ....  444

ORBITAL ENERGIES
----------------

  NO   OCC          E(Eh)            E(eV)
   0   2.0000     -21.697131      -590.4090
   1   2.0000     -21.696448      -590.3904
   2   2.0000     -21.694276      -590.3313
   3   2.0000     -21.688971      -590.1869
   4   2.0000     -21.678977      -589.9149
   5   2.0000     -21.671328      -589.7068
   6   2.0000     -12.167155      -331.0851
   7   2.0000     -12.114567      -329.6541
   8   2.0000     -12.112883      -329.6083
   9   2.0000     -12.112508      -329.5981
  10   2.0000     -12.106501      -329.4346
  11   2.0000     -12.095329      -329.1306
  12   2.0000      -1.728623       -47.0382
  13   2.0000      -1.698480       -46.2180
  14   2.0000      -1.690985       -46.0140
  15   2.0000      -1.686271       -45.8858
  16   2.0000      -1.679161       -45.6923
  17   2.0000      -1.670826       -45.4655
  18   2.0000      -1.340766       -36.4841
  19   2.0000      -1.327443       -36.1216
  20   2.0000      -1.239797       -33.7366
  21   2.0000      -1.201822       -32.7032
  22   2.0000      -1.173152       -31.9231
  23   2.0000      -1.127157       -30.6715
  24   2.0000      -1.101360       -29.9695
  25   2.0000      -1.070925       -29.1414
  26   2.0000      -1.054691       -28.6996
  27   2.0000      -1.041004       -28.3272
  28   2.0000      -1.034233       -28.1429
  29   2.0000      -1.024009       -27.8647
  30   2.0000      -0.999483       -27.1973
  31   2.0000      -0.984845       -26.7990
  32   2.0000      -0.977564       -26.6009
  33   2.0000      -0.975247       -26.5378
  34   2.0000      -0.963317       -26.2132
  35   2.0000      -0.947242       -25.7758
  36   2.0000      -0.941596       -25.6221
  37   2.0000      -0.934734       -25.4354
  38   2.0000      -0.927409       -25.2361
  39   2.0000      -0.912964       -24.8430
  40   2.0000      -0.900869       -24.5139
  41   2.0000      -0.892156       -24.2768
  42   2.0000      -0.846078       -23.0230
  43   2.0000      -0.837653       -22.7937
  44   2.0000      -0.817467       -22.2444
  45   2.0000      -0.812686       -22.1143
  46   2.0000      -0.801984       -21.8231
  47   2.0000      -0.779812       -21.2198
  48   0.0000      -0.244446        -6.6517
  49   0.0000      -0.199123        -5.4184
  50   0.0000      -0.182062        -4.9542
  51   0.0000      -0.155407        -4.2288
  52   0.0000      -0.133177        -3.6239

MULLIKEN ATOMIC CHARGES
-----------------------
   0 C :    0.006963
   1 C :   -0.021170
   2 H :    0.066641
   3 C :    0.137959
   4 H :    0.084809
   5 C :    0.008837
   6 H :    0.074533
   7 C :    0.082229
   8 H :    0.099198
   9 C :    0.058877
  10 H :    0.061037
  11 O :   -0.270611
  12 O :   -0.379922
  13 O :   -0.421411
  14 O :   -0.444722
  15 O :   -0.451593
  16 O :   -0.458107
  17 H :    0.115568
  18 H :    0.101036
  19 H :    0.310249
  20 H :    0.295206
  21 H :    0.314854
  22 H :    0.318155
  23 H :    0.311386
Sum of atomic charges:   -0.0000000

LOEWDIN ATOMIC CHARGES
----------------------
   0 C :   -0.308001
   1 C :   -0.303095
   2 H :    0.143783
   3 C :   -0.299817
   4 H :    0.148017
   5 C :   -0.324725
   6 H :    0.136986
   7 C :   -0.309645
   8 H :    0.157823
   9 C :   -0.415263
  10 H :    0.117645
  11 O :    0.180606
  12 O :    0.024899
  13 O :   -0.007985
  14 O :   -0.016704
  15 O :   -0.009552
  16 O :   -0.042933
  17 H :    0.136885
  18 H :    0.120341
  19 H :    0.177501
  20 H :    0.169652
  21 H :    0.174587
  22 H :    0.177778
  23 H :    0.171217

  Mayer bond orders larger than 0.100000
B(  0-C ,  1-C ) :   0.9825 B(  0-C , 16-O ) :   0.9934 B(  0-C , 17-H ) :   0.9636
B(  0-C , 18-H ) :   0.9784 B(  1-C ,  2-H ) :   0.9545 B(  1-C ,  3-C ) :   0.9543
B(  1-C , 11-O ) :   0.9954 B(  1-C , 16-O ) :   0.1172 B(  3-C ,  4-H ) :   0.9508
B(  3-C ,  5-C ) :   0.9385 B(  3-C , 15-O ) :   1.0663 B(  5-C ,  6-H ) :   0.9570
B(  5-C ,  7-C ) :   0.9980 B(  5-C , 14-O ) :   1.0718 B(  7-C ,  8-H ) :   0.9299
B(  7-C ,  9-C ) :   0.9449 B(  7-C , 13-O ) :   1.0015 B(  9-C , 10-H ) :   0.9699
B(  9-C , 11-O ) :   1.0213 B(  9-C , 12-O ) :   1.2556 B( 12-O , 19-H ) :   0.8935
B( 13-O , 20-H ) :   0.8946 B( 14-O , 21-H ) :   0.8858 B( 15-O , 22-H ) :   0.8865
B( 16-O , 23-H ) :   0.8915

FINAL SINGLE POINT ENERGY      -687.245715844071

DIPOLE MOMENT
-------------

Method             : SCF
Type of density    : Electron Density
Multiplicity       :   1
Irrep              :   0
Energy             :  -687.2645507951709760 Eh
Relativity type    :
Basis              : AO
                                X                 Y                 Z
Electronic contribution:      2.022505272      -0.306033588      -1.790810751
Nuclear contribution   :     -1.300950775       0.048237344       3.138678997
                        -----------------------------------------
Total Dipole Moment    :      0.721554497      -0.257796244       1.347868246
                        -----------------------------------------
Magnitude (a.u.)       :      1.550434973
Magnitude (Debye)      :      3.940892513

Rotational constants in cm-1:             0.039409             0.026457             0.017486
Rotational constants in MHz :          1181.446997           793.147319           524.216616

                             ****ORCA TERMINATED NORMALLY****
TOTAL RUN TIME: 0 days 0 hours 4 minutes 49 seconds 637 msec
