                         Program Version 6.0.0  -   RELEASE  -
|  1> ! wb97x-v def2-tzvp def2/J RIJCOSX DEFGRID2 scfconv7 GCP(DFT/TZ) printgap
|  2> %output
|  3>     printlevel normal
|  4> end
|  5> %cpcm
|  6>     smd true
|  7>     smdsolvent "water"
|  8> end
|  9> * xyz 0 1
| 10> C -2.5748142568561185 -0.8693543075659099 0.328023003614157
| 11> C -1.1456126253497905 -0.42563848919482483 0.5784741884360456
| 12> H -0.9901228158180826 -0.36913322074460414 1.668772649475145
| 13> C -0.8062253554766818 0.9253107471890386 -0.04971626409340057
| 14> H -0.9997214305425286 0.8789874463861554 -1.1314635229774337
| 15> C 0.6645910860030692 1.2375603340844166 0.17609406651744797
| 16> H 0.8331216495133672 1.371555218313682 1.2582067034464253
| 17> C 1.5522082618471422 0.09634141764296252 -0.31597583953149155
| 18> H 1.4681499748240658 0.0020987353598708068 -1.4052165584275247
| 19> C 1.0969294396110256 -1.2154682964616126 0.3172604132120517
| 20> H 1.2237621005271213 -1.186936066390164 1.4133738514932885
| 21> O -0.287551550736248 -1.4316052304471267 0.012390899058209877
| 22> O 1.8272675121229303 -2.2690655588398547 -0.250308627890172
| 23> O 2.929152551252442 0.36886197062080334 -0.04271706425154223
| 24> O 0.9564930444927571 2.4563125644586306 -0.5170997217948803
| 25> O -1.6459303314311415 1.907610276898438 0.5663217067638
| 26> O -2.916868634634188 -0.9097243689557144 -1.0617397560969295
| 27> H -3.258880655561489 -0.16068581889189024 0.8009408927864172
| 28> H -2.7219682450415434 -1.8536894087890639 0.7925143113256132
| 29> H 1.7464930765958881 -3.03796560388629 0.33027832980111826
| 30> H 3.027566139670554 0.463639967867689 0.9160686451514756
| 31> H 1.8791911662019984 2.678032548075003 -0.3327451044568482
| 32> H -1.4128375975382745 2.7640549557354976 0.18361012712319788
| 33> H -2.3519886970941797 -1.5731809544654856 -1.479480007378499
| 34> *
| 35>
| 36>                          ****END OF INPUT****

CARTESIAN COORDINATES (ANGSTROEM)
---------------------------------
  C     -2.574814   -0.869354    0.328023
  C     -1.145613   -0.425638    0.578474
  H     -0.990123   -0.369133    1.668773
  C     -0.806225    0.925311   -0.049716
  H     -0.999721    0.878987   -1.131464
  C      0.664591    1.237560    0.176094
  H      0.833122    1.371555    1.258207
  C      1.552208    0.096341   -0.315976
  H      1.468150    0.002099   -1.405217
  C      1.096929   -1.215468    0.317260
  H      1.223762   -1.186936    1.413374
  O     -0.287552   -1.431605    0.012391
  O      1.827268   -2.269066   -0.250309
  O      2.929153    0.368862   -0.042717
  O      0.956493    2.456313   -0.517100
  O     -1.645930    1.907610    0.566322
  O     -2.916869   -0.909724   -1.061740
  H     -3.258881   -0.160686    0.800941
  H     -2.721968   -1.853689    0.792514
  H      1.746493   -3.037966    0.330278
  H      3.027566    0.463640    0.916069
  H      1.879191    2.678033   -0.332745
  H     -1.412838    2.764055    0.183610
  H     -2.351989   -1.573181   -1.479480

 Total Charge           Charge          ....    0
 Multiplicity           Mult            ....    1
 Number of Electrons    NEL             ....   96
 Basis Dimension        Dim             ....  444

ORBITAL ENERGIES
----------------

  NO   OCC          E(Eh)            E(eV)
   0   2.0000     -21.691185      -590.2472
   1   2.0000     -21.690952      -590.2408
   2   2.0000     -21.684785      -590.0730
   3   2.0000     -21.681359      -589.9798
   4   2.0000     -21.681078      -589.9721
   5   2.0000     -21.677301      -589.8694
   6   2.0000     -12.152537      -330.6873
   7   2.0000     -12.103760      -329.3600
   8   2.0000     -12.102648      -329.3298
   9   2.0000     -12.101520      -329.2991
  10   2.0000     -12.100239      -329.2642
  11   2.0000     -12.091101      -329.0156
  12   2.0000      -1.722597       -46.8743
  13   2.0000      -1.690614       -46.0040
  14   2.0000      -1.686414       -45.8896
  15   2.0000      -1.681159       -45.7467
  16   2.0000      -1.678101       -45.6634
  17   2.0000      -1.675818       -45.6013
  18   2.0000      -1.332219       -36.2515
  19   2.0000      -1.318918       -35.8896
  20   2.0000      -1.233833       -33.5743
  21   2.0000      -1.194905       -32.5150
  22   2.0000      -1.168620       -31.7998
  23   2.0000      -1.122364       -30.5411
  24   2.0000      -1.093393       -29.7527
  25   2.0000      -1.064372       -28.9630
  26   2.0000      -1.050993       -28.5990
  27   2.0000      -1.037425       -28.2298
  28   2.0000      -1.028345       -27.9827
  29   2.0000      -1.021601       -27.7992
  30   2.0000      -0.995923       -27.1005
  31   2.0000      -0.983502       -26.7625
  32   2.0000      -0.973956       -26.5027
  33   2.0000      -0.971560       -26.4375
  34   2.0000      -0.963730       -26.2244
  35   2.0000      -0.944829       -25.7101
  36   2.0000      -0.943892       -25.6846
  37   2.0000      -0.929884       -25.3034
  38   2.0000      -0.925822       -25.1929
  39   2.0000      -0.910496       -24.7759
  40   2.0000      -0.897388       -24.4192
  41   2.0000      -0.886830       -24.1319
  42   2.0000      -0.840026       -22.8583
  43   2.0000      -0.834916       -22.7192
  44   2.0000      -0.807764       -21.9804
  45   2.0000      -0.802987       -21.8504
  46   2.0000      -0.798256       -21.7216
  47   2.0000      -0.770216       -20.9587
  48   0.0000      -0.235431        -6.4064
  49   0.0000      -0.189775        -5.1640
  50   0.0000      -0.171905        -4.6778
  51   0.0000      -0.149565        -4.0699
  52   0.0000      -0.124413        -3.3855

MULLIKEN ATOMIC CHARGES
-----------------------
   0 C :   -0.013276
   1 C :    0.040040
   2 H :    0.109874
   3 C :    0.099577
   4 H :    0.091304
   5 C :    0.025742
   6 H :    0.114971
   7 C :    0.116857
   8 H :    0.110852
   9 C :    0.066108
  10 H :    0.117029
  11 O :   -0.331608
  12 O :   -0.486827
  13 O :   -0.527837
  14 O :   -0.528650
  15 O :   -0.531809
  16 O :   -0.555218
  17 H :    0.129605
  18 H :    0.131689
  19 H :    0.375416
  20 H :    0.363650
  21 H :    0.361243
  22 H :    0.361516
  23 H :    0.359751
Sum of atomic charges:   -0.0000000

LOEWDIN ATOMIC CHARGES
----------------------
   0 C :   -0.308363
   1 C :   -0.296480
   2 H :    0.158569
   3 C :   -0.301242
   4 H :    0.147568
   5 C :   -0.311140
   6 H :    0.153606
   7 C :   -0.311165
   8 H :    0.157143
   9 C :   -0.402834
  10 H :    0.139603
  11 O :    0.160988
  12 O :   -0.013421
  13 O :   -0.042940
  14 O :   -0.045246
  15 O :   -0.039312
  16 O :   -0.081641
  17 H :    0.137267
  18 H :    0.129810
  19 H :    0.200916
  20 H :    0.197788
  21 H :    0.190937
  22 H :    0.191486
  23 H :    0.188103

  Mayer bond orders larger than 0.100000
B(  0-C ,  1-C ) :   0.9658 B(  0-C , 16-O ) :   0.9620 B(  0-C , 17-H ) :   0.9671
B(  0-C , 18-H ) :   0.9809 B(  1-C ,  2-H ) :   0.9469 B(  1-C ,  3-C ) :   0.9710
B(  1-C , 11-O ) :   0.9671 B(  3-C ,  4-H ) :   0.9484 B(  3-C ,  5-C ) :   0.9749
B(  3-C , 15-O ) :   1.0266 B(  5-C ,  6-H ) :   0.9593 B(  5-C ,  7-C ) :   1.0059
B(  5-C , 14-O ) :   1.0380 B(  7-C ,  8-H ) :   0.9203 B(  7-C ,  9-C ) :   0.9553
B(  7-C , 13-O ) :   0.9874 B(  9-C , 10-H ) :   0.9828 B(  9-C , 11-O ) :   1.0090
B(  9-C , 12-O ) :   1.1995 B( 12-O , 19-H ) :   0.8538 B( 13-O , 20-H ) :   0.8583
B( 14-O , 21-H ) :   0.8589 B( 15-O , 22-H ) :   0.8589 B( 16-O , 23-H ) :   0.8621

FINAL SINGLE POINT ENERGY      -687.287496884560

DIPOLE MOMENT
-------------

Method             : SCF
Type of density    : Electron Density
Multiplicity       :   1
Irrep              :   0
Energy             :  -687.3063318356597620 Eh
Relativity type    :
Basis              : AO
                                X                 Y                 Z
Electronic contribution:      2.314611904      -0.392855378      -1.036511976
Nuclear contribution   :     -1.300950775       0.048237344       3.138678997
                        -----------------------------------------
Total Dipole Moment    :      1.013661130      -0.344618034       2.102167021
                        -----------------------------------------
Magnitude (a.u.)       :      2.359105055
Magnitude (Debye)      :      5.996368510

Rotational constants in cm-1:             0.039409             0.026457             0.017486
Rotational constants in MHz :          1181.446997           793.147319           524.216616

                             ****ORCA TERMINATED NORMALLY****
TOTAL RUN TIME: 0 days 0 hours 5 minutes 24 seconds 676 msec
