                         Program Version 6.0.0  -   RELEASE  -
|  1> ! wb97x-v def2-tzvp def2/J RIJCOSX DEFGRID2 scfconv7 GCP(DFT/TZ) printgap
|  2> %output
|  3>     printlevel normal
|  4> end
|  5> * xyz 0 1
|  6> C -2.41792844701799 0.011751919309248921 -9.556422076571969e-05
|  7> C -0.9939774630991298 -0.5295314355856543 0.00015766552496479681
|  8> C 0.026308816357616414 0.6245087196753616 -0.00020320267078223733
|  9> C 1.3913764454828388 0.14341150461104102 -0.0023638096184852085
| 10> N 2.475185449520507 -0.26640900358872927 0.002511539893216085
| 11> H -2.6039068167921307 0.6275401559268406 -0.8865278804052903
| 12> H -3.141901204860826 -0.8084076226590338 0.0001436570554022635
| 13> H -2.604049582330674 0.6282516638644178 0.8858045346097143
| 14> H -0.8224620510788218 -1.1543765062940716 0.8826053063489443
| 15> H -0.82248774815121 -1.1547733941448484 -0.8820042091689364
| 16> H -0.1085963561148267 1.258827688015433 0.8837369873088886
| 17> H -0.10989810503565725 1.259276536138176 -0.8836280866921286
| 18> *
| 19>
| 20>                          ****END OF INPUT****

CARTESIAN COORDINATES (ANGSTROEM)
---------------------------------
  C     -2.417928    0.011752   -0.000096
  C     -0.993977   -0.529531    0.000158
  C      0.026309    0.624509   -0.000203
  C      1.391376    0.143412   -0.002364
  N      2.475185   -0.266409    0.002512
  H     -2.603907    0.627540   -0.886528
  H     -3.141901   -0.808408    0.000144
  H     -2.604050    0.628252    0.885805
  H     -0.822462   -1.154377    0.882605
  H     -0.822488   -1.154773   -0.882004
  H     -0.108596    1.258828    0.883737
  H     -0.109898    1.259277   -0.883628

 Total Charge           Charge          ....    0
 Multiplicity           Mult            ....    1
 Number of Electrons    NEL             ....   38
 Basis Dimension        Dim             ....  197

ORBITAL ENERGIES
----------------

  NO   OCC          E(Eh)            E(eV)
   0   2.0000     -16.523548      -449.6286
   1   2.0000     -12.099450      -329.2428
   2   2.0000     -12.085171      -328.8542
   3   2.0000     -12.073524      -328.5373
   4   2.0000     -12.055958      -328.0593
   5   2.0000      -1.516630       -41.2696
   6   2.0000      -1.338626       -36.4259
   7   2.0000      -1.242678       -33.8150
   8   2.0000      -1.108831       -30.1728
   9   2.0000      -0.992337       -27.0029
  10   2.0000      -0.927120       -25.2282
  11   2.0000      -0.893269       -24.3071
  12   2.0000      -0.889240       -24.1975
  13   2.0000      -0.859899       -23.3990
  14   2.0000      -0.842967       -22.9383
  15   2.0000      -0.813545       -22.1377
  16   2.0000      -0.794758       -21.6265
  17   2.0000      -0.781159       -21.2564
  18   2.0000      -0.773938       -21.0599
  19   0.0000      -0.226342        -6.1591
  20   0.0000      -0.213669        -5.8142
  21   0.0000      -0.087255        -2.3743
  22   0.0000      -0.030186        -0.8214
  23   0.0000      -0.018302        -0.4980

MULLIKEN ATOMIC CHARGES
-----------------------
   0 C :   -0.336401
   1 C :   -0.170470
   2 C :   -0.072327
   3 C :   -0.259499
   4 N :   -0.010411
   5 H :    0.110813
   6 H :    0.126377
   7 H :    0.110793
   8 H :    0.113371
   9 H :    0.113338
  10 H :    0.137350
  11 H :    0.137065
Sum of atomic charges:   -0.0000000

LOEWDIN ATOMIC CHARGES
----------------------
   0 C :   -0.302178
   1 C :   -0.265695
   2 C :   -0.237556
   3 C :   -0.200870
   4 N :    0.045856
   5 H :    0.118803
   6 H :    0.121738
   7 H :    0.118801
   8 H :    0.139245
   9 H :    0.139243
  10 H :    0.161335
  11 H :    0.161280

  Mayer bond orders larger than 0.100000
B(  0-C ,  1-C ) :   0.9794 B(  0-C ,  5-H ) :   0.9782 B(  0-C ,  6-H ) :   0.9825
B(  0-C ,  7-H ) :   0.9782 B(  1-C ,  2-C ) :   0.9774 B(  1-C ,  8-H ) :   0.9705
B(  1-C ,  9-H ) :   0.9706 B(  2-C ,  3-C ) :   0.9725 B(  2-C , 10-H ) :   0.9455
B(  2-C , 11-H ) :   0.9455 B(  3-C ,  4-N ) :   3.1635

FINAL SINGLE POINT ENERGY      -211.388252272955

DIPOLE MOMENT
-------------

Method             : SCF
Type of density    : Electron Density
Multiplicity       :   1
Irrep              :   0
Energy             :  -211.3955135598552602 Eh
Relativity type    :
Basis              : AO
                                X                 Y                 Z
Electronic contribution:      7.992026098      -0.184827891      -0.001461361
Nuclear contribution   :     -9.608416616       0.620529843      -0.000360770
                        -----------------------------------------
Total Dipole Moment    :     -1.616390518       0.435701952      -0.001822131
                        -----------------------------------------
Magnitude (a.u.)       :      1.674084172
Magnitude (Debye)      :      4.255183801

Rotational constants in cm-1:             0.789270             0.076315             0.072412
Rotational constants in MHz :         23661.706023          2287.864501          2170.870312

                             ****ORCA TERMINATED NORMALLY****
TOTAL RUN TIME: 0 days 0 hours 0 minutes 50 seconds 277 msec
