                         Program Version 6.0.0  -   RELEASE  -
|  1> ! wb97x-v def2-tzvp def2/J RIJCOSX DEFGRID2 scfconv7 GCP(DFT/TZ) printgap
|  2> %output
|  3>     printlevel normal
|  4> end
|  5> %cpcm
|  6>     smd true
|  7>     smdsolvent "water"
|  8> end
|  9> * xyz 0 1
| 10> C -2.41792844701799 0.011751919309248921 -9.556422076571969e-05
| 11> C -0.9939774630991298 -0.5295314355856543 0.00015766552496479681
| 12> C 0.026308816357616414 0.6245087196753616 -0.00020320267078223733
| 13> C 1.3913764454828388 0.14341150461104102 -0.0023638096184852085
| 14> N 2.475185449520507 -0.26640900358872927 0.002511539893216085
| 15> H -2.6039068167921307 0.6275401559268406 -0.8865278804052903
| 16> H -3.141901204860826 -0.8084076226590338 0.0001436570554022635
| 17> H -2.604049582330674 0.6282516638644178 0.8858045346097143
| 18> H -0.8224620510788218 -1.1543765062940716 0.8826053063489443
| 19> H -0.82248774815121 -1.1547733941448484 -0.8820042091689364
| 20> H -0.1085963561148267 1.258827688015433 0.8837369873088886
| 21> H -0.10989810503565725 1.259276536138176 -0.8836280866921286
| 22> *
| 23>
| 24>                          ****END OF INPUT****

CARTESIAN COORDINATES (ANGSTROEM)
---------------------------------
  C     -2.417928    0.011752   -0.000096
  C     -0.993977   -0.529531    0.000158
  C      0.026309    0.624509   -0.000203
  C      1.391376    0.143412   -0.002364
  N      2.475185   -0.266409    0.002512
  H     -2.603907    0.627540   -0.886528
  H     -3.141901   -0.808408    0.000144
  H     -2.604050    0.628252    0.885805
  H     -0.822462   -1.154377    0.882605
  H     -0.822488   -1.154773   -0.882004
  H     -0.108596    1.258828    0.883737
  H     -0.109898    1.259277   -0.883628

 Total Charge           Charge          ....    0
 Multiplicity           Mult            ....    1
 Number of Electrons    NEL             ....   38
 Basis Dimension        Dim             ....  197

ORBITAL ENERGIES
----------------

  NO   OCC          E(Eh)            E(eV)
   0   2.0000     -16.528283      -449.7574
   1   2.0000     -12.096196      -329.1542
   2   2.0000     -12.077639      -328.6493
   3   2.0000     -12.050577      -327.9129
   4   2.0000     -12.030612      -327.3696
   5   2.0000      -1.525770       -41.5183
   6   2.0000      -1.318578       -35.8803
   7   2.0000      -1.222204       -33.2579
   8   2.0000      -1.086590       -29.5676
   9   2.0000      -0.976872       -26.5820
  10   2.0000      -0.904927       -24.6243
  11   2.0000      -0.903397       -24.5827
  12   2.0000      -0.870296       -23.6820
  13   2.0000      -0.841043       -22.8859
  14   2.0000      -0.821225       -22.3467
  15   2.0000      -0.803831       -21.8734
  16   2.0000      -0.790280       -21.5046
  17   2.0000      -0.771382       -20.9904
  18   2.0000      -0.755537       -20.5592
  19   0.0000      -0.227748        -6.1973
  20   0.0000      -0.215511        -5.8644
  21   0.0000      -0.076949        -2.0939
  22   0.0000      -0.006973        -0.1898
  23   0.0000       0.006329         0.1722

MULLIKEN ATOMIC CHARGES
-----------------------
   0 C :   -0.387916
   1 C :   -0.178271
   2 C :   -0.059898
   3 C :   -0.210416
   4 N :   -0.132531
   5 H :    0.126886
   6 H :    0.136635
   7 H :    0.126869
   8 H :    0.121642
   9 H :    0.121675
  10 H :    0.167825
  11 H :    0.167500
Sum of atomic charges:   -0.0000000

LOEWDIN ATOMIC CHARGES
----------------------
   0 C :   -0.305336
   1 C :   -0.263066
   2 C :   -0.222382
   3 C :   -0.175166
   4 N :   -0.031074
   5 H :    0.122018
   6 H :    0.122638
   7 H :    0.122014
   8 H :    0.140921
   9 H :    0.140939
  10 H :    0.174274
  11 H :    0.174220

  Mayer bond orders larger than 0.100000
B(  0-C ,  1-C ) :   0.9772 B(  0-C ,  5-H ) :   0.9769 B(  0-C ,  6-H ) :   0.9787
B(  0-C ,  7-H ) :   0.9769 B(  1-C ,  2-C ) :   0.9721 B(  1-C ,  8-H ) :   0.9688
B(  1-C ,  9-H ) :   0.9689 B(  2-C ,  3-C ) :   0.9819 B(  2-C , 10-H ) :   0.9313
B(  2-C , 11-H ) :   0.9312 B(  3-C ,  4-N ) :   3.1522

FINAL SINGLE POINT ENERGY      -211.394387117166

DIPOLE MOMENT
-------------

Method             : SCF
Type of density    : Electron Density
Multiplicity       :   1
Irrep              :   0
Energy             :  -211.4016484040658099 Eh
Relativity type    :
Basis              : AO
                                X                 Y                 Z
Electronic contribution:      7.555898696       0.023469252      -0.002570602
Nuclear contribution   :     -9.608416616       0.620529843      -0.000360770
                        -----------------------------------------
Total Dipole Moment    :     -2.052517920       0.643999095      -0.002931372
                        -----------------------------------------
Magnitude (a.u.)       :      2.151179499
Magnitude (Debye)      :      5.467863749

Rotational constants in cm-1:             0.789270             0.076315             0.072412
Rotational constants in MHz :         23661.706023          2287.864501          2170.870312

                             ****ORCA TERMINATED NORMALLY****
TOTAL RUN TIME: 0 days 0 hours 0 minutes 52 seconds 748 msec
