                         Program Version 6.0.0  -   RELEASE  -
|  1> ! pbe def2-sv(p) def2/J RI DEFGRID1 loosescf d4 GCP(DFT/SV(P)) printgap
|  2> %output
|  3>     printlevel normal
|  4> end
|  5> * xyz 0 1
|  6> C 1.460593808 -0.3449612943 -0.4954572858
|  7> C 0.6769539432 0.4652786658 0.5289173978
|  8> C -0.8123352565 0.3287531062 0.4416440444
|  9> C -1.489927706 -0.4090604608 -0.4179181331
| 10> H 1.2552219284 -1.4066542644 -0.3826197815
| 11> H 2.5271749549 -0.1852797608 -0.35720892
| 12> H 1.1966216793 -0.0429966307 -1.5060210018
| 13> H 0.9257005893 1.5257404202 0.4215714345
| 14> H 0.984316501 0.1714583236 1.5374585981
| 15> H -1.3492831085 0.9132938888 1.1795499407
| 16> H -2.5661957954 -0.4432189963 -0.4025726366
| 17> H -1.0107916745 -1.009106864 -1.1715927502
| 18> *
| 19>
| 20>                          ****END OF INPUT****

CARTESIAN COORDINATES (ANGSTROEM)
---------------------------------
  C      1.460594   -0.344961   -0.495457
  C      0.676954    0.465279    0.528917
  C     -0.812335    0.328753    0.441644
  C     -1.489928   -0.409060   -0.417918
  H      1.255222   -1.406654   -0.382620
  H      2.527175   -0.185280   -0.357209
  H      1.196622   -0.042997   -1.506021
  H      0.925701    1.525740    0.421571
  H      0.984317    0.171458    1.537459
  H     -1.349283    0.913294    1.179550
  H     -2.566196   -0.443219   -0.402573
  H     -1.010792   -1.009107   -1.171593

 Total Charge           Charge          ....    0
 Multiplicity           Mult            ....    1
 Number of Electrons    NEL             ....   32
 Basis Dimension        Dim             ....   72

ORBITAL ENERGIES
----------------

  NO   OCC          E(Eh)            E(eV)
   0   2.0000      -9.889943      -269.1190
   1   2.0000      -9.888036      -269.0671
   2   2.0000      -9.874850      -268.7083
   3   2.0000      -9.871997      -268.6307
   4   2.0000      -0.719866       -19.5885
   5   2.0000      -0.645714       -17.5708
   6   2.0000      -0.569729       -15.5031
   7   2.0000      -0.474818       -12.9205
   8   2.0000      -0.424158       -11.5419
   9   2.0000      -0.402923       -10.9641
  10   2.0000      -0.375233       -10.2106
  11   2.0000      -0.342248        -9.3131
  12   2.0000      -0.312845        -8.5129
  13   2.0000      -0.304852        -8.2955
  14   2.0000      -0.289910        -7.8889
  15   2.0000      -0.224924        -6.1205
  16   0.0000      -0.008464        -0.2303
  17   0.0000       0.045108         1.2274
  18   0.0000       0.068954         1.8763
  19   0.0000       0.089560         2.4370
  20   0.0000       0.098883         2.6907

MULLIKEN ATOMIC CHARGES
-----------------------
   0 C :   -0.290708
   1 C :   -0.143059
   2 C :   -0.144592
   3 C :   -0.200004
   4 H :    0.110187
   5 H :    0.102355
   6 H :    0.110180
   7 H :    0.098809
   8 H :    0.098815
   9 H :    0.071102
  10 H :    0.094219
  11 H :    0.092696
Sum of atomic charges:    0.0000000

LOEWDIN ATOMIC CHARGES
----------------------
   0 C :   -0.341631
   1 C :   -0.233598
   2 C :   -0.135745
   3 C :   -0.266679
   4 H :    0.121010
   5 H :    0.121167
   6 H :    0.121013
   7 H :    0.128003
   8 H :    0.128021
   9 H :    0.118071
  10 H :    0.121496
  11 H :    0.118871

  Mayer bond orders larger than 0.100000
B(  0-C ,  1-C ) :   1.1852 B(  0-C ,  4-H ) :   0.9482 B(  0-C ,  5-H ) :   0.9492
B(  0-C ,  6-H ) :   0.9482 B(  1-C ,  2-C ) :   1.0831 B(  1-C ,  7-H ) :   0.9073
B(  1-C ,  8-H ) :   0.9073 B(  2-C ,  3-C ) :   2.0872 B(  2-C ,  9-H ) :   0.9339
B(  3-C , 10-H ) :   0.9210 B(  3-C , 11-H ) :   0.9041

Dispersion correction           -0.007127824
FINAL SINGLE POINT ENERGY      -156.813625546456

DIPOLE MOMENT
-------------

Method             : SCF
Type of density    : Electron Density
Multiplicity       :   1
Irrep              :   0
Energy             :  -156.8520718866781181 Eh
Relativity type    :
Basis              : AO
                                X                 Y                 Z
Electronic contribution:     -1.697646352       0.520906392       0.720955406
Nuclear contribution   :      1.841410166      -0.447286267      -0.639302975
                        -----------------------------------------
Total Dipole Moment    :      0.143763814       0.073620126       0.081652431
                        -----------------------------------------
Magnitude (a.u.)       :      0.180983636
Magnitude (Debye)      :      0.460023845

Rotational constants in cm-1:             0.518079             0.187825             0.145283
Rotational constants in MHz :         15531.625140          5630.849798          4355.471908

                             ****ORCA TERMINATED NORMALLY****
TOTAL RUN TIME: 0 days 0 hours 0 minutes 4 seconds 445 msec
