                         Program Version 6.0.0  -   RELEASE  -
|  1> ! r2scan-3c def2/J RI DEFGRID2 scfconv6 printgap
|  2> %output
|  3>     printlevel normal
|  4> end
|  5> * xyz 0 1
|  6> C -2.6353259005 -0.6877812631 -0.7490234712
|  7> C -1.8777452617 -0.4507005523 0.5598966476
|  8> C -0.403805728 -0.2945635029 0.30151123
|  9> C 0.391649913 -1.4326572669 0.2548883131
| 10> C 1.7453471554 -1.3558880228 -0.0165125526
| 11> C 2.3239781836 -0.1205301943 -0.245864223
| 12> C 1.5413731502 1.0190479942 -0.2009036911
| 13> C 0.1796016838 0.9537008789 0.0673046029
| 14> C -0.6262332061 2.2185649207 0.1135897217
| 15> H -3.6993849372 -0.7999769606 -0.5560644662
| 16> H -2.2723585084 -1.5902861424 -1.2355643204
| 17> H -2.4924318322 0.1452723755 -1.4331399884
| 18> H -2.0374289652 -1.3066383361 1.2190223775
| 19> H -2.2765565557 0.4343213043 1.0549508617
| 20> H -0.0618561469 -2.397019389 0.4372248311
| 21> H 2.344497747 -2.2539614376 -0.0472055011
| 22> H 3.3801768281 -0.0434921198 -0.4579927228
| 23> H 1.9973185861 1.9827906194 -0.3796986913
| 24> H -1.4685582618 2.1708335262 -0.5731406736
| 25> H -1.0180890995 2.3844172303 1.1165271544
| 26> H -0.0082935494 3.0708848608 -0.1565000513
| 27> *
| 28>
| 29>                          ****END OF INPUT****

CARTESIAN COORDINATES (ANGSTROEM)
---------------------------------
  C     -2.635326   -0.687781   -0.749023
  C     -1.877745   -0.450701    0.559897
  C     -0.403806   -0.294564    0.301511
  C      0.391650   -1.432657    0.254888
  C      1.745347   -1.355888   -0.016513
  C      2.323978   -0.120530   -0.245864
  C      1.541373    1.019048   -0.200904
  C      0.179602    0.953701    0.067305
  C     -0.626233    2.218565    0.113590
  H     -3.699385   -0.799977   -0.556064
  H     -2.272359   -1.590286   -1.235564
  H     -2.492432    0.145272   -1.433140
  H     -2.037429   -1.306638    1.219022
  H     -2.276557    0.434321    1.054951
  H     -0.061856   -2.397019    0.437225
  H      2.344498   -2.253961   -0.047206
  H      3.380177   -0.043492   -0.457993
  H      1.997319    1.982791   -0.379699
  H     -1.468558    2.170834   -0.573141
  H     -1.018089    2.384417    1.116527
  H     -0.008294    3.070885   -0.156500

 Total Charge           Charge          ....    0
 Multiplicity           Mult            ....    1
 Number of Electrons    NEL             ....   66
 Basis Dimension        Dim             ....  231

ORBITAL ENERGIES
----------------

  NO   OCC          E(Eh)            E(eV)
   0   2.0000     -10.038716      -273.1674
   1   2.0000     -10.035461      -273.0788
   2   2.0000     -10.032404      -272.9956
   3   2.0000     -10.026793      -272.8429
   4   2.0000     -10.026340      -272.8306
   5   2.0000     -10.026057      -272.8229
   6   2.0000     -10.025805      -272.8160
   7   2.0000     -10.025471      -272.8069
   8   2.0000     -10.021608      -272.7018
   9   2.0000      -0.828474       -22.5439
  10   2.0000      -0.755557       -20.5597
  11   2.0000      -0.736136       -20.0313
  12   2.0000      -0.690954       -18.8018
  13   2.0000      -0.651648       -17.7322
  14   2.0000      -0.598277       -16.2800
  15   2.0000      -0.561718       -15.2851
  16   2.0000      -0.534557       -14.5460
  17   2.0000      -0.468360       -12.7447
  18   2.0000      -0.446225       -12.1424
  19   2.0000      -0.420733       -11.4487
  20   2.0000      -0.400018       -10.8850
  21   2.0000      -0.395186       -10.7536
  22   2.0000      -0.385740       -10.4965
  23   2.0000      -0.374757       -10.1977
  24   2.0000      -0.360866        -9.8197
  25   2.0000      -0.350967        -9.5503
  26   2.0000      -0.338819        -9.2197
  27   2.0000      -0.322898        -8.7865
  28   2.0000      -0.317536        -8.6406
  29   2.0000      -0.298088        -8.1114
  30   2.0000      -0.291521        -7.9327
  31   2.0000      -0.226430        -6.1615
  32   2.0000      -0.217448        -5.9171
  33   0.0000      -0.025529        -0.6947
  34   0.0000      -0.022336        -0.6078
  35   0.0000       0.076570         2.0836
  36   0.0000       0.092516         2.5175
  37   0.0000       0.097206         2.6451

MULLIKEN ATOMIC CHARGES
-----------------------
   0 C :   -0.451417
   1 C :   -0.325757
   2 C :    0.201484
   3 C :   -0.232401
   4 C :   -0.162096
   5 C :   -0.157378
   6 C :   -0.213137
   7 C :    0.118678
   8 C :   -0.574457
   9 H :    0.148521
  10 H :    0.151011
  11 H :    0.142449
  12 H :    0.148172
  13 H :    0.147287
  14 H :    0.146294
  15 H :    0.143846
  16 H :    0.143906
  17 H :    0.144236
  18 H :    0.158513
  19 H :    0.172329
  20 H :    0.149916
Sum of atomic charges:    0.0000000

LOEWDIN ATOMIC CHARGES
----------------------
   0 C :   -0.404643
   1 C :   -0.287956
   2 C :   -0.089347
   3 C :   -0.160001
   4 C :   -0.169748
   5 C :   -0.169788
   6 C :   -0.164375
   7 C :   -0.093511
   8 C :   -0.390492
   9 H :    0.149261
  10 H :    0.154376
  11 H :    0.151088
  12 H :    0.162298
  13 H :    0.161399
  14 H :    0.167871
  15 H :    0.165842
  16 H :    0.165939
  17 H :    0.166172
  18 H :    0.162026
  19 H :    0.163950
  20 H :    0.159640

  Mayer bond orders larger than 0.100000
B(  0-C ,  1-C ) :   0.9376 B(  0-C ,  9-H ) :   0.9738 B(  0-C , 10-H ) :   0.9785
B(  0-C , 11-H ) :   0.9789 B(  1-C ,  2-C ) :   0.7998 B(  1-C , 12-H ) :   0.9846
B(  1-C , 13-H ) :   0.9754 B(  2-C ,  3-C ) :   1.3866 B(  2-C ,  7-C ) :   1.4622
B(  3-C ,  4-C ) :   1.4375 B(  3-C , 14-H ) :   0.9365 B(  4-C ,  5-C ) :   1.4331
B(  4-C , 15-H ) :   0.9475 B(  5-C ,  6-C ) :   1.4499 B(  5-C , 16-H ) :   0.9477
B(  6-C ,  7-C ) :   1.4021 B(  6-C , 17-H ) :   0.9279 B(  7-C ,  8-C ) :   0.7870
B(  8-C , 18-H ) :   0.9733 B(  8-C , 19-H ) :   0.9874 B(  8-C , 20-H ) :   0.9886

Dispersion correction           -0.007107740
FINAL SINGLE POINT ENERGY      -350.081956115165

DIPOLE MOMENT
-------------

Method             : SCF
Type of density    : Electron Density
Multiplicity       :   1
Irrep              :   0
Energy             :  -350.0821701815174265 Eh
Relativity type    :
Basis              : AO
                                X                 Y                 Z
Electronic contribution:      6.891672255      -1.585848845       0.963976518
Nuclear contribution   :     -7.142232628       1.686022721      -0.949032141
                        -----------------------------------------
Total Dipole Moment    :     -0.250560373       0.100173876       0.014944377
                        -----------------------------------------
Magnitude (a.u.)       :      0.270256619
Magnitude (Debye)      :      0.686937735

Rotational constants in cm-1:             0.083834             0.048703             0.033567
Rotational constants in MHz :          2513.280194          1460.066166          1006.311681

                             ****ORCA TERMINATED NORMALLY****
TOTAL RUN TIME: 0 days 0 hours 0 minutes 25 seconds 881 msec
