                         Program Version 6.0.0  -   RELEASE  -
|  1> ! r2scan-3c def2/J RI DEFGRID2 scfconv6 printgap
|  2> %output
|  3>     printlevel normal
|  4> end
|  5> %cpcm
|  6>     smd true
|  7>     smdsolvent "water"
|  8> end
|  9> * xyz 0 1
| 10> C -2.6353259005 -0.6877812631 -0.7490234712
| 11> C -1.8777452617 -0.4507005523 0.5598966476
| 12> C -0.403805728 -0.2945635029 0.30151123
| 13> C 0.391649913 -1.4326572669 0.2548883131
| 14> C 1.7453471554 -1.3558880228 -0.0165125526
| 15> C 2.3239781836 -0.1205301943 -0.245864223
| 16> C 1.5413731502 1.0190479942 -0.2009036911
| 17> C 0.1796016838 0.9537008789 0.0673046029
| 18> C -0.6262332061 2.2185649207 0.1135897217
| 19> H -3.6993849372 -0.7999769606 -0.5560644662
| 20> H -2.2723585084 -1.5902861424 -1.2355643204
| 21> H -2.4924318322 0.1452723755 -1.4331399884
| 22> H -2.0374289652 -1.3066383361 1.2190223775
| 23> H -2.2765565557 0.4343213043 1.0549508617
| 24> H -0.0618561469 -2.397019389 0.4372248311
| 25> H 2.344497747 -2.2539614376 -0.0472055011
| 26> H 3.3801768281 -0.0434921198 -0.4579927228
| 27> H 1.9973185861 1.9827906194 -0.3796986913
| 28> H -1.4685582618 2.1708335262 -0.5731406736
| 29> H -1.0180890995 2.3844172303 1.1165271544
| 30> H -0.0082935494 3.0708848608 -0.1565000513
| 31> *
| 32>
| 33>                          ****END OF INPUT****

CARTESIAN COORDINATES (ANGSTROEM)
---------------------------------
  C     -2.635326   -0.687781   -0.749023
  C     -1.877745   -0.450701    0.559897
  C     -0.403806   -0.294564    0.301511
  C      0.391650   -1.432657    0.254888
  C      1.745347   -1.355888   -0.016513
  C      2.323978   -0.120530   -0.245864
  C      1.541373    1.019048   -0.200904
  C      0.179602    0.953701    0.067305
  C     -0.626233    2.218565    0.113590
  H     -3.699385   -0.799977   -0.556064
  H     -2.272359   -1.590286   -1.235564
  H     -2.492432    0.145272   -1.433140
  H     -2.037429   -1.306638    1.219022
  H     -2.276557    0.434321    1.054951
  H     -0.061856   -2.397019    0.437225
  H      2.344498   -2.253961   -0.047206
  H      3.380177   -0.043492   -0.457993
  H      1.997319    1.982791   -0.379699
  H     -1.468558    2.170834   -0.573141
  H     -1.018089    2.384417    1.116527
  H     -0.008294    3.070885   -0.156500

 Total Charge           Charge          ....    0
 Multiplicity           Mult            ....    1
 Number of Electrons    NEL             ....   66
 Basis Dimension        Dim             ....  231

ORBITAL ENERGIES
----------------

  NO   OCC          E(Eh)            E(eV)
   0   2.0000     -10.038444      -273.1600
   1   2.0000     -10.035122      -273.0695
   2   2.0000     -10.026168      -272.8259
   3   2.0000     -10.025750      -272.8145
   4   2.0000     -10.025315      -272.8027
   5   2.0000     -10.025017      -272.7946
   6   2.0000     -10.024204      -272.7725
   7   2.0000     -10.016806      -272.5711
   8   2.0000     -10.013130      -272.4711
   9   2.0000      -0.829167       -22.5628
  10   2.0000      -0.752205       -20.4685
  11   2.0000      -0.733379       -19.9563
  12   2.0000      -0.688008       -18.7217
  13   2.0000      -0.647086       -17.6081
  14   2.0000      -0.593364       -16.1463
  15   2.0000      -0.559241       -15.2177
  16   2.0000      -0.531351       -14.4588
  17   2.0000      -0.465309       -12.6617
  18   2.0000      -0.442162       -12.0318
  19   2.0000      -0.415441       -11.3047
  20   2.0000      -0.395268       -10.7558
  21   2.0000      -0.388659       -10.5760
  22   2.0000      -0.379640       -10.3305
  23   2.0000      -0.371204       -10.1010
  24   2.0000      -0.354928        -9.6581
  25   2.0000      -0.343666        -9.3516
  26   2.0000      -0.333005        -9.0615
  27   2.0000      -0.322128        -8.7656
  28   2.0000      -0.311923        -8.4879
  29   2.0000      -0.292899        -7.9702
  30   2.0000      -0.287151        -7.8138
  31   2.0000      -0.229940        -6.2570
  32   2.0000      -0.219617        -5.9761
  33   0.0000      -0.028014        -0.7623
  34   0.0000      -0.024487        -0.6663
  35   0.0000       0.083556         2.2737
  36   0.0000       0.100028         2.7219
  37   0.0000       0.106128         2.8879

MULLIKEN ATOMIC CHARGES
-----------------------
   0 C :   -0.504516
   1 C :   -0.295001
   2 C :    0.152623
   3 C :   -0.253030
   4 C :   -0.204062
   5 C :   -0.194082
   6 C :   -0.244665
   7 C :    0.095950
   8 C :   -0.595949
   9 H :    0.161995
  10 H :    0.160019
  11 H :    0.159601
  12 H :    0.160796
  13 H :    0.162926
  14 H :    0.176319
  15 H :    0.174609
  16 H :    0.174620
  17 H :    0.175802
  18 H :    0.177994
  19 H :    0.189335
  20 H :    0.168715
Sum of atomic charges:    0.0000000

LOEWDIN ATOMIC CHARGES
----------------------
   0 C :   -0.411411
   1 C :   -0.287713
   2 C :   -0.096386
   3 C :   -0.170912
   4 C :   -0.186437
   5 C :   -0.186193
   6 C :   -0.177600
   7 C :   -0.099150
   8 C :   -0.395463
   9 H :    0.154209
  10 H :    0.155230
  11 H :    0.154849
  12 H :    0.167225
  13 H :    0.167202
  14 H :    0.178708
  15 H :    0.175530
  16 H :    0.175540
  17 H :    0.177084
  18 H :    0.169628
  19 H :    0.170920
  20 H :    0.165140

  Mayer bond orders larger than 0.100000
B(  0-C ,  1-C ) :   0.9137 B(  0-C ,  9-H ) :   0.9694 B(  0-C , 10-H ) :   0.9787
B(  0-C , 11-H ) :   0.9781 B(  1-C ,  2-C ) :   0.8168 B(  1-C , 12-H ) :   0.9769
B(  1-C , 13-H ) :   0.9721 B(  2-C ,  3-C ) :   1.3710 B(  2-C ,  7-C ) :   1.4005
B(  3-C ,  4-C ) :   1.3951 B(  3-C , 14-H ) :   0.9512 B(  4-C ,  5-C ) :   1.3867
B(  4-C , 15-H ) :   0.9603 B(  5-C ,  6-C ) :   1.4043 B(  5-C , 16-H ) :   0.9595
B(  6-C ,  7-C ) :   1.3787 B(  6-C , 17-H ) :   0.9450 B(  7-C ,  8-C ) :   0.8095
B(  8-C , 18-H ) :   0.9650 B(  8-C , 19-H ) :   0.9783 B(  8-C , 20-H ) :   0.9833

Dispersion correction           -0.007107740
FINAL SINGLE POINT ENERGY      -350.083276434200

DIPOLE MOMENT
-------------

Method             : SCF
Type of density    : Electron Density
Multiplicity       :   1
Irrep              :   0
Energy             :  -350.0834905005522728 Eh
Relativity type    :
Basis              : AO
                                X                 Y                 Z
Electronic contribution:      6.728040426      -1.515746286       0.985093827
Nuclear contribution   :     -7.142232628       1.686022721      -0.949032141
                        -----------------------------------------
Total Dipole Moment    :     -0.414192202       0.170276435       0.036061686
                        -----------------------------------------
Magnitude (a.u.)       :      0.449276852
Magnitude (Debye)      :      1.141971003

Rotational constants in cm-1:             0.083834             0.048703             0.033567
Rotational constants in MHz :          2513.280194          1460.066166          1006.311681

                             ****ORCA TERMINATED NORMALLY****
TOTAL RUN TIME: 0 days 0 hours 0 minutes 31 seconds 155 msec
