                         Program Version 6.0.0  -   RELEASE  -
|  1> ! wb97x-v def2-tzvp def2/J RIJCOSX DEFGRID2 scfconv7 GCP(DFT/TZ) printgap
|  2> %output
|  3>     printlevel normal
|  4> end
|  5> * xyz 0 1
|  6> C -2.414193229885037 0.05889415483782688 -0.027010902240356998
|  7> C -0.9513465753649603 0.49679260939767367 -0.04923630942296902
|  8> C -0.003188197914605405 -0.6737282443773741 -0.1212584632644926
|  9> C 1.3276110383347386 -0.6183853188302383 -0.008416399207147934
| 10> C 2.1386802722391596 0.6187140900397592 0.20842380262128074
| 11> H -3.0853131577448223 0.921763657564019 0.020485796653893974
| 12> H -2.6199410707984563 -0.5766602196207182 0.8410697082665164
| 13> H -2.6644745913598133 -0.5134993213913976 -0.9267499589523417
| 14> H -0.7837682026625836 1.1623580280131067 -0.9070913115585191
| 15> H -0.7344046476163146 1.1008483157474847 0.8407250663067604
| 16> H -0.46279305902324885 -1.6487398730155673 -0.2868856040246074
| 17> H 1.8894628598022587 -1.549120052488595 -0.08329719715402896
| 18> H 2.7211178522170534 0.5459173309367904 1.1348146376945496
| 19> H 1.5219769097270146 1.5185742377675568 0.2613919399971821
| 20> H 2.8662427342620314 0.7508658530995027 -0.6013746613302939
| 21> *
| 22>
| 23>                          ****END OF INPUT****

CARTESIAN COORDINATES (ANGSTROEM)
---------------------------------
  C     -2.414193    0.058894   -0.027011
  C     -0.951347    0.496793   -0.049236
  C     -0.003188   -0.673728   -0.121258
  C      1.327611   -0.618385   -0.008416
  C      2.138680    0.618714    0.208424
  H     -3.085313    0.921764    0.020486
  H     -2.619941   -0.576660    0.841070
  H     -2.664475   -0.513499   -0.926750
  H     -0.783768    1.162358   -0.907091
  H     -0.734405    1.100848    0.840725
  H     -0.462793   -1.648740   -0.286886
  H      1.889463   -1.549120   -0.083297
  H      2.721118    0.545917    1.134815
  H      1.521977    1.518574    0.261392
  H      2.866243    0.750866   -0.601375

 Total Charge           Charge          ....    0
 Multiplicity           Mult            ....    1
 Number of Electrons    NEL             ....   40
 Basis Dimension        Dim             ....  215

ORBITAL ENERGIES
----------------

  NO   OCC          E(Eh)            E(eV)
   0   2.0000     -12.044151      -327.7380
   1   2.0000     -12.041292      -327.6602
   2   2.0000     -12.038388      -327.5812
   3   2.0000     -12.037404      -327.5544
   4   2.0000     -12.034747      -327.4821
   5   2.0000      -1.318714       -35.8840
   6   2.0000      -1.256827       -34.2000
   7   2.0000      -1.182029       -32.1647
   8   2.0000      -1.102124       -29.9903
   9   2.0000      -0.991033       -26.9674
  10   2.0000      -0.913153       -24.8481
  11   2.0000      -0.882610       -24.0170
  12   2.0000      -0.866397       -23.5759
  13   2.0000      -0.826656       -22.4945
  14   2.0000      -0.820856       -22.3366
  15   2.0000      -0.810776       -22.0623
  16   2.0000      -0.795876       -21.6569
  17   2.0000      -0.773178       -21.0392
  18   2.0000      -0.762690       -20.7539
  19   2.0000      -0.633946       -17.2505
  20   0.0000      -0.189970        -5.1694
  21   0.0000      -0.036753        -1.0001
  22   0.0000      -0.008896        -0.2421
  23   0.0000       0.003672         0.0999
  24   0.0000       0.010225         0.2782

MULLIKEN ATOMIC CHARGES
-----------------------
   0 C :   -0.355091
   1 C :   -0.127522
   2 C :   -0.190037
   3 C :   -0.118856
   4 C :   -0.314102
   5 H :    0.114218
   6 H :    0.111374
   7 H :    0.109845
   8 H :    0.103609
   9 H :    0.102430
  10 H :    0.109233
  11 H :    0.108322
  12 H :    0.116336
  13 H :    0.113437
  14 H :    0.116806
Sum of atomic charges:    0.0000000

LOEWDIN ATOMIC CHARGES
----------------------
   0 C :   -0.306556
   1 C :   -0.281002
   2 C :   -0.187516
   3 C :   -0.207540
   4 C :   -0.289717
   5 H :    0.115447
   6 H :    0.117300
   7 H :    0.116849
   8 H :    0.138120
   9 H :    0.136909
  10 H :    0.140437
  11 H :    0.136555
  12 H :    0.124452
  13 H :    0.121411
  14 H :    0.124852

  Mayer bond orders larger than 0.100000
B(  0-C ,  1-C ) :   0.9873 B(  0-C ,  5-H ) :   0.9849 B(  0-C ,  6-H ) :   0.9811
B(  0-C ,  7-H ) :   0.9819 B(  1-C ,  2-C ) :   0.9411 B(  1-C ,  8-H ) :   0.9680
B(  1-C ,  9-H ) :   0.9730 B(  2-C ,  3-C ) :   1.9519 B(  2-C , 10-H ) :   0.9676
B(  3-C ,  4-C ) :   0.9529 B(  3-C , 11-H ) :   0.9658 B(  4-C , 12-H ) :   0.9729
B(  4-C , 13-H ) :   0.9868 B(  4-C , 14-H ) :   0.9729

FINAL SINGLE POINT ENERGY      -196.535422529288

DIPOLE MOMENT
-------------

Method             : SCF
Type of density    : Electron Density
Multiplicity       :   1
Irrep              :   0
Energy             :  -196.5450405365877486 Eh
Relativity type    :
Basis              : AO
                                X                 Y                 Z
Electronic contribution:      1.266484887      -1.435262944      -0.221783748
Nuclear contribution   :     -1.242782380       1.564690290       0.231429899
                        -----------------------------------------
Total Dipole Moment    :      0.023702507       0.129427346       0.009646151
                        -----------------------------------------
Magnitude (a.u.)       :      0.131932918
Magnitude (Debye)      :      0.335346828

Rotational constants in cm-1:             0.477025             0.080674             0.071870
Rotational constants in MHz :         14300.838741          2418.535047          2154.613420

                             ****ORCA TERMINATED NORMALLY****
TOTAL RUN TIME: 0 days 0 hours 1 minutes 4 seconds 836 msec
