                         Program Version 6.0.0  -   RELEASE  -
|  1> ! wb97x-v def2-tzvp def2/J RIJCOSX DEFGRID2 scfconv7 GCP(DFT/TZ) printgap
|  2> %output
|  3>     printlevel normal
|  4> end
|  5> %cpcm
|  6>     smd true
|  7>     smdsolvent "water"
|  8> end
|  9> * xyz 0 1
| 10> C -2.414193229885037 0.05889415483782688 -0.027010902240356998
| 11> C -0.9513465753649603 0.49679260939767367 -0.04923630942296902
| 12> C -0.003188197914605405 -0.6737282443773741 -0.1212584632644926
| 13> C 1.3276110383347386 -0.6183853188302383 -0.008416399207147934
| 14> C 2.1386802722391596 0.6187140900397592 0.20842380262128074
| 15> H -3.0853131577448223 0.921763657564019 0.020485796653893974
| 16> H -2.6199410707984563 -0.5766602196207182 0.8410697082665164
| 17> H -2.6644745913598133 -0.5134993213913976 -0.9267499589523417
| 18> H -0.7837682026625836 1.1623580280131067 -0.9070913115585191
| 19> H -0.7344046476163146 1.1008483157474847 0.8407250663067604
| 20> H -0.46279305902324885 -1.6487398730155673 -0.2868856040246074
| 21> H 1.8894628598022587 -1.549120052488595 -0.08329719715402896
| 22> H 2.7211178522170534 0.5459173309367904 1.1348146376945496
| 23> H 1.5219769097270146 1.5185742377675568 0.2613919399971821
| 24> H 2.8662427342620314 0.7508658530995027 -0.6013746613302939
| 25> *
| 26>
| 27>                          ****END OF INPUT****

CARTESIAN COORDINATES (ANGSTROEM)
---------------------------------
  C     -2.414193    0.058894   -0.027011
  C     -0.951347    0.496793   -0.049236
  C     -0.003188   -0.673728   -0.121258
  C      1.327611   -0.618385   -0.008416
  C      2.138680    0.618714    0.208424
  H     -3.085313    0.921764    0.020486
  H     -2.619941   -0.576660    0.841070
  H     -2.664475   -0.513499   -0.926750
  H     -0.783768    1.162358   -0.907091
  H     -0.734405    1.100848    0.840725
  H     -0.462793   -1.648740   -0.286886
  H      1.889463   -1.549120   -0.083297
  H      2.721118    0.545917    1.134815
  H      1.521977    1.518574    0.261392
  H      2.866243    0.750866   -0.601375

 Total Charge           Charge          ....    0
 Multiplicity           Mult            ....    1
 Number of Electrons    NEL             ....   40
 Basis Dimension        Dim             ....  215

ORBITAL ENERGIES
----------------

  NO   OCC          E(Eh)            E(eV)
   0   2.0000     -12.038711      -327.5900
   1   2.0000     -12.036996      -327.5433
   2   2.0000     -12.034953      -327.4877
   3   2.0000     -12.030427      -327.3646
   4   2.0000     -12.026478      -327.2571
   5   2.0000      -1.315435       -35.7948
   6   2.0000      -1.250689       -34.0330
   7   2.0000      -1.176670       -32.0188
   8   2.0000      -1.095952       -29.8224
   9   2.0000      -0.985955       -26.8292
  10   2.0000      -0.909004       -24.7353
  11   2.0000      -0.877463       -23.8770
  12   2.0000      -0.859247       -23.3813
  13   2.0000      -0.819933       -22.3115
  14   2.0000      -0.813683       -22.1414
  15   2.0000      -0.804260       -21.8850
  16   2.0000      -0.789146       -21.4738
  17   2.0000      -0.765728       -20.8365
  18   2.0000      -0.756835       -20.5945
  19   2.0000      -0.632844       -17.2206
  20   0.0000      -0.188574        -5.1314
  21   0.0000      -0.030442        -0.8284
  22   0.0000      -0.002080        -0.0566
  23   0.0000       0.012410         0.3377
  24   0.0000       0.017920         0.4876

MULLIKEN ATOMIC CHARGES
-----------------------
   0 C :   -0.394581
   1 C :   -0.130100
   2 C :   -0.259591
   3 C :   -0.166360
   4 C :   -0.354615
   5 H :    0.131075
   6 H :    0.122820
   7 H :    0.123268
   8 H :    0.117359
   9 H :    0.119052
  10 H :    0.143221
  11 H :    0.144082
  12 H :    0.134401
  13 H :    0.134659
  14 H :    0.135310
Sum of atomic charges:    0.0000000

LOEWDIN ATOMIC CHARGES
----------------------
   0 C :   -0.311976
   1 C :   -0.282139
   2 C :   -0.201323
   3 C :   -0.220547
   4 C :   -0.294418
   5 H :    0.118251
   6 H :    0.118971
   7 H :    0.119153
   8 H :    0.141772
   9 H :    0.141155
  10 H :    0.145512
  11 H :    0.142114
  12 H :    0.128741
  13 H :    0.125596
  14 H :    0.129139

  Mayer bond orders larger than 0.100000
B(  0-C ,  1-C ) :   0.9817 B(  0-C ,  5-H ) :   0.9824 B(  0-C ,  6-H ) :   0.9784
B(  0-C ,  7-H ) :   0.9786 B(  1-C ,  2-C ) :   0.9385 B(  1-C ,  8-H ) :   0.9643
B(  1-C ,  9-H ) :   0.9714 B(  2-C ,  3-C ) :   1.9277 B(  2-C , 10-H ) :   0.9684
B(  3-C ,  4-C ) :   0.9523 B(  3-C , 11-H ) :   0.9667 B(  4-C , 12-H ) :   0.9675
B(  4-C , 13-H ) :   0.9849 B(  4-C , 14-H ) :   0.9677

FINAL SINGLE POINT ENERGY      -196.533965189862

DIPOLE MOMENT
-------------

Method             : SCF
Type of density    : Electron Density
Multiplicity       :   1
Irrep              :   0
Energy             :  -196.5435831971617802 Eh
Relativity type    :
Basis              : AO
                                X                 Y                 Z
Electronic contribution:      1.282333738      -1.372838879      -0.218086877
Nuclear contribution   :     -1.242782380       1.564690290       0.231429899
                        -----------------------------------------
Total Dipole Moment    :      0.039551358       0.191851411       0.013343022
                        -----------------------------------------
Magnitude (a.u.)       :      0.196339782
Magnitude (Debye)      :      0.499056066

Rotational constants in cm-1:             0.477025             0.080674             0.071870
Rotational constants in MHz :         14300.838741          2418.535047          2154.613420

                             ****ORCA TERMINATED NORMALLY****
TOTAL RUN TIME: 0 days 0 hours 1 minutes 3 seconds 604 msec
