                         Program Version 6.0.0  -   RELEASE  -
|  1> ! pbe def2-sv(p) def2/J RI DEFGRID1 loosescf d4 GCP(DFT/SV(P)) printgap
|  2> %output
|  3>     printlevel normal
|  4> end
|  5> * xyz 0 1
|  6> C -2.9129224418 -0.0009313558 -0.0159564907
|  7> C -1.4129909679 0.0015127117 0.0070580634
|  8> C -0.6963826263 1.1917480284 0.0077155055
|  9> C 0.684083947 1.1974483683 0.0105030229
| 10> C 1.4013001836 -0.0002397927 0.0096645609
| 11> C 0.6826582584 -1.1973306065 0.0104674095
| 12> C -0.6974489387 -1.1899348267 0.0076675584
| 13> N 2.7787015938 -0.001257506 -0.0624365716
| 14> H -3.3073053463 0.9198584089 0.407094565
| 15> H -3.2727516455 -0.0838083601 -1.0420680641
| 16> H -3.3060606699 -0.8449193983 0.5465395868
| 17> H -1.2288135325 2.1327622359 0.0104406644
| 18> H 1.2203419167 2.1358459264 0.0128830882
| 19> H 1.2178183883 -2.1363698397 0.0131264446
| 20> H -1.231601798 -2.1299772449 0.010770617
| 21> H 3.2331984177 -0.8492808451 0.2337764565
| 22> H 3.2348132638 0.8462831951 0.2327630151
| 23> *
| 24>
| 25>                          ****END OF INPUT****

CARTESIAN COORDINATES (ANGSTROEM)
---------------------------------
  C     -2.912922   -0.000931   -0.015956
  C     -1.412991    0.001513    0.007058
  C     -0.696383    1.191748    0.007716
  C      0.684084    1.197448    0.010503
  C      1.401300   -0.000240    0.009665
  C      0.682658   -1.197331    0.010467
  C     -0.697449   -1.189935    0.007668
  N      2.778702   -0.001258   -0.062437
  H     -3.307305    0.919858    0.407095
  H     -3.272752   -0.083808   -1.042068
  H     -3.306061   -0.844919    0.546540
  H     -1.228814    2.132762    0.010441
  H      1.220342    2.135846    0.012883
  H      1.217818   -2.136370    0.013126
  H     -1.231602   -2.129977    0.010771
  H      3.233198   -0.849281    0.233776
  H      3.234813    0.846283    0.232763

 Total Charge           Charge          ....    0
 Multiplicity           Mult            ....    1
 Number of Electrons    NEL             ....   58
 Basis Dimension        Dim             ....  130

ORBITAL ENERGIES
----------------

  NO   OCC          E(Eh)            E(eV)
   0   2.0000     -13.991400      -380.7254
   1   2.0000      -9.922291      -269.9993
   2   2.0000      -9.879950      -268.8471
   3   2.0000      -9.878254      -268.8009
   4   2.0000      -9.878232      -268.8004
   5   2.0000      -9.876811      -268.7617
   6   2.0000      -9.876530      -268.7541
   7   2.0000      -9.872934      -268.6562
   8   2.0000      -0.831830       -22.6352
   9   2.0000      -0.753854       -20.5134
  10   2.0000      -0.672683       -18.3046
  11   2.0000      -0.659141       -17.9361
  12   2.0000      -0.595770       -16.2117
  13   2.0000      -0.545668       -14.8484
  14   2.0000      -0.514647       -14.0043
  15   2.0000      -0.465655       -12.6711
  16   2.0000      -0.463107       -12.6018
  17   2.0000      -0.402460       -10.9515
  18   2.0000      -0.388946       -10.5838
  19   2.0000      -0.372536       -10.1372
  20   2.0000      -0.365734        -9.9521
  21   2.0000      -0.363718        -9.8973
  22   2.0000      -0.330357        -8.9895
  23   2.0000      -0.328784        -8.9467
  24   2.0000      -0.300450        -8.1757
  25   2.0000      -0.285681        -7.7738
  26   2.0000      -0.258562        -7.0358
  27   2.0000      -0.216966        -5.9039
  28   2.0000      -0.164553        -4.4777
  29   0.0000      -0.022963        -0.6249
  30   0.0000      -0.004138        -0.1126
  31   0.0000       0.036299         0.9877
  32   0.0000       0.055262         1.5038
  33   0.0000       0.066235         1.8023

MULLIKEN ATOMIC CHARGES
-----------------------
   0 C :   -0.223932
   1 C :    0.058375
   2 C :   -0.126772
   3 C :   -0.126280
   4 C :    0.163584
   5 C :   -0.126235
   6 C :   -0.125345
   7 N :   -0.337059
   8 H :    0.098540
   9 H :    0.112851
  10 H :    0.101014
  11 H :    0.029265
  12 H :    0.016360
  13 H :    0.016734
  14 H :    0.029045
  15 H :    0.219907
  16 H :    0.219947
Sum of atomic charges:    0.0000000

LOEWDIN ATOMIC CHARGES
----------------------
   0 C :   -0.322715
   1 C :   -0.079266
   2 C :   -0.118681
   3 C :   -0.161522
   4 C :   -0.012360
   5 C :   -0.160807
   6 C :   -0.117897
   7 N :   -0.318006
   8 H :    0.122304
   9 H :    0.128527
  10 H :    0.123390
  11 H :    0.118489
  12 H :    0.116358
  13 H :    0.116380
  14 H :    0.118492
  15 H :    0.223641
  16 H :    0.223675

  Mayer bond orders larger than 0.100000
B(  0-C ,  1-C ) :   1.0970 B(  0-C ,  8-H ) :   0.9449 B(  0-C ,  9-H ) :   0.9345
B(  0-C , 10-H ) :   0.9436 B(  1-C ,  2-C ) :   1.3818 B(  1-C ,  6-C ) :   1.3757
B(  2-C ,  3-C ) :   1.3765 B(  2-C , 11-H ) :   0.9592 B(  3-C ,  4-C ) :   1.3244
B(  3-C , 12-H ) :   0.9616 B(  4-C ,  5-C ) :   1.3216 B(  4-C ,  7-N ) :   1.2269
B(  5-C ,  6-C ) :   1.3809 B(  5-C , 13-H ) :   0.9617 B(  6-C , 14-H ) :   0.9612
B(  7-N , 15-H ) :   0.8838 B(  7-N , 16-H ) :   0.8838

Dispersion correction           -0.016463529
FINAL SINGLE POINT ENERGY      -326.180442975868

DIPOLE MOMENT
-------------

Method             : SCF
Type of density    : Electron Density
Multiplicity       :   1
Irrep              :   0
Energy             :  -326.2316464323891978 Eh
Relativity type    :
Basis              : AO
                                X                 Y                 Z
Electronic contribution:      3.818249626       0.002458481      -0.081543070
Nuclear contribution   :     -3.212402815      -0.009018868       0.398685480
                        -----------------------------------------
Total Dipole Moment    :      0.605846811      -0.006560387       0.317142409
                        -----------------------------------------
Magnitude (a.u.)       :      0.683865999
Magnitude (Debye)      :      1.738249230

Rotational constants in cm-1:             0.183977             0.049259             0.039169
Rotational constants in MHz :          5515.485272          1476.746326          1174.259933

                             ****ORCA TERMINATED NORMALLY****
TOTAL RUN TIME: 0 days 0 hours 0 minutes 8 seconds 185 msec
