                         Program Version 6.0.0  -   RELEASE  -
|  1> ! pbe def2-sv(p) def2/J RI DEFGRID1 loosescf d4 GCP(DFT/SV(P)) printgap
|  2> %output
|  3>     printlevel normal
|  4> end
|  5> * xyz 0 1
|  6> C -2.6545985711 -0.4073818133 1.0617899497
|  7> C -1.7587377417 0.0099229699 -0.0711372292
|  8> O -2.1768744766 0.1185517022 -1.2083714993
|  9> C -0.3094886413 0.2548599841 0.2847538279
| 10> C 0.4289501559 1.0069406764 -0.8220995816
| 11> C 1.8956463501 1.2046731194 -0.4547579543
| 12> C 2.5688234594 -0.1405093944 -0.199691732
| 13> C 1.8366313843 -0.8991656354 0.9027951805
| 14> C 0.3694819248 -1.1026502703 0.5352111263
| 15> H -2.1440945983 -0.3839934882 2.0176035172
| 16> H -3.5196167763 0.2520575533 1.0851528909
| 17> H -3.0264414503 -1.4108982894 0.8635913578
| 18> H -0.2741966822 0.8379479849 1.2104873479
| 19> H 0.3489538362 0.4369505669 -1.7504725693
| 20> H -0.0543539184 1.971990403 -0.9905098759
| 21> H 2.4071345913 1.7312827764 -1.2621179421
| 22> H 1.9638467715 1.8217781241 0.4440197442
| 23> H 2.5535578666 -0.73152225 -1.1180640268
| 24> H 3.6114776403 0.0129563684 0.0839003271
| 25> H 2.3079141501 -1.8704137035 1.0623128351
| 26> H 1.9017415341 -0.3349215475 1.835382946
| 27> H 0.2997251252 -1.7035162926 -0.3744627707
| 28> H -0.1428453678 -1.6379582786 1.3353335949
| 29> *
| 30>
| 31>                          ****END OF INPUT****

CARTESIAN COORDINATES (ANGSTROEM)
---------------------------------
  C     -2.654599   -0.407382    1.061790
  C     -1.758738    0.009923   -0.071137
  O     -2.176874    0.118552   -1.208371
  C     -0.309489    0.254860    0.284754
  C      0.428950    1.006941   -0.822100
  C      1.895646    1.204673   -0.454758
  C      2.568823   -0.140509   -0.199692
  C      1.836631   -0.899166    0.902795
  C      0.369482   -1.102650    0.535211
  H     -2.144095   -0.383993    2.017604
  H     -3.519617    0.252058    1.085153
  H     -3.026441   -1.410898    0.863591
  H     -0.274197    0.837948    1.210487
  H      0.348954    0.436951   -1.750473
  H     -0.054354    1.971990   -0.990510
  H      2.407135    1.731283   -1.262118
  H      1.963847    1.821778    0.444020
  H      2.553558   -0.731522   -1.118064
  H      3.611478    0.012956    0.083900
  H      2.307914   -1.870414    1.062313
  H      1.901742   -0.334922    1.835383
  H      0.299725   -1.703516   -0.374463
  H     -0.142845   -1.637958    1.335334

 Total Charge           Charge          ....    0
 Multiplicity           Mult            ....    1
 Number of Electrons    NEL             ....   70
 Basis Dimension        Dim             ....  154

ORBITAL ENERGIES
----------------

  NO   OCC          E(Eh)            E(eV)
   0   2.0000     -18.732704      -509.7428
   1   2.0000      -9.969368      -271.2803
   2   2.0000      -9.898689      -269.3570
   3   2.0000      -9.896171      -269.2885
   4   2.0000      -9.888524      -269.0804
   5   2.0000      -9.885472      -268.9974
   6   2.0000      -9.883737      -268.9502
   7   2.0000      -9.882402      -268.9138
   8   2.0000      -9.879488      -268.8345
   9   2.0000      -0.931009       -25.3340
  10   2.0000      -0.762738       -20.7552
  11   2.0000      -0.693648       -18.8751
  12   2.0000      -0.669778       -18.2256
  13   2.0000      -0.655219       -17.8294
  14   2.0000      -0.560501       -15.2520
  15   2.0000      -0.545542       -14.8450
  16   2.0000      -0.503315       -13.6959
  17   2.0000      -0.469825       -12.7846
  18   2.0000      -0.430459       -11.7134
  19   2.0000      -0.416123       -11.3233
  20   2.0000      -0.403224       -10.9723
  21   2.0000      -0.399401       -10.8683
  22   2.0000      -0.387282       -10.5385
  23   2.0000      -0.377466       -10.2714
  24   2.0000      -0.362915        -9.8754
  25   2.0000      -0.339790        -9.2461
  26   2.0000      -0.337774        -9.1913
  27   2.0000      -0.329573        -8.9681
  28   2.0000      -0.312330        -8.4989
  29   2.0000      -0.304740        -8.2924
  30   2.0000      -0.299312        -8.1447
  31   2.0000      -0.284842        -7.7509
  32   2.0000      -0.271776        -7.3954
  33   2.0000      -0.261858        -7.1255
  34   2.0000      -0.191244        -5.2040
  35   0.0000      -0.048323        -1.3149
  36   0.0000       0.027564         0.7501
  37   0.0000       0.045020         1.2251
  38   0.0000       0.054421         1.4809
  39   0.0000       0.070137         1.9085

MULLIKEN ATOMIC CHARGES
-----------------------
   0 C :   -0.238800
   1 C :    0.033874
   2 O :   -0.174571
   3 C :   -0.209490
   4 C :   -0.111699
   5 C :   -0.132549
   6 C :   -0.164697
   7 C :   -0.120965
   8 C :   -0.154655
   9 H :    0.107705
  10 H :    0.129607
  11 H :    0.131078
  12 H :    0.074062
  13 H :    0.085986
  14 H :    0.086164
  15 H :    0.086670
  16 H :    0.069973
  17 H :    0.078402
  18 H :    0.086491
  19 H :    0.088665
  20 H :    0.072618
  21 H :    0.088622
  22 H :    0.087513
Sum of atomic charges:   -0.0000000

LOEWDIN ATOMIC CHARGES
----------------------
   0 C :   -0.363839
   1 C :    0.051014
   2 O :   -0.133828
   3 C :   -0.172647
   4 C :   -0.215133
   5 C :   -0.225851
   6 C :   -0.227500
   7 C :   -0.223764
   8 C :   -0.208480
   9 H :    0.124172
  10 H :    0.147480
  11 H :    0.148151
  12 H :    0.124311
  13 H :    0.121719
  14 H :    0.119856
  15 H :    0.117825
  16 H :    0.112574
  17 H :    0.115943
  18 H :    0.116803
  19 H :    0.118224
  20 H :    0.114680
  21 H :    0.121834
  22 H :    0.116458

  Mayer bond orders larger than 0.100000
B(  0-C ,  1-C ) :   1.0769 B(  0-C ,  9-H ) :   0.9357 B(  0-C , 10-H ) :   0.9224
B(  0-C , 11-H ) :   0.9231 B(  1-C ,  2-O ) :   2.1760 B(  1-C ,  3-C ) :   0.9449
B(  3-C ,  4-C ) :   1.0917 B(  3-C ,  8-C ) :   1.0671 B(  3-C , 12-H ) :   0.8679
B(  4-C ,  5-C ) :   1.1320 B(  4-C , 13-H ) :   0.9024 B(  4-C , 14-H ) :   0.9189
B(  5-C ,  6-C ) :   1.1335 B(  5-C , 15-H ) :   0.9195 B(  5-C , 16-H ) :   0.9108
B(  6-C ,  7-C ) :   1.1379 B(  6-C , 17-H ) :   0.9152 B(  6-C , 18-H ) :   0.9198
B(  7-C ,  8-C ) :   1.1379 B(  7-C , 19-H ) :   0.9183 B(  7-C , 20-H ) :   0.9110
B(  8-C , 21-H ) :   0.9071 B(  8-C , 22-H ) :   0.9135

Dispersion correction           -0.021800110
FINAL SINGLE POINT ENERGY      -387.609673709115

DIPOLE MOMENT
-------------

Method             : SCF
Type of density    : Electron Density
Multiplicity       :   1
Irrep              :   0
Energy             :  -387.6874711304693619 Eh
Relativity type    :
Basis              : AO
                                X                 Y                 Z
Electronic contribution:     -5.414163264       0.791557576      -3.263770453
Nuclear contribution   :      5.815118407      -0.944157079       4.149559675
                        -----------------------------------------
Total Dipole Moment    :      0.400955143      -0.152599503       0.885789222
                        -----------------------------------------
Magnitude (a.u.)       :      0.984212467
Magnitude (Debye)      :      2.501669281

Rotational constants in cm-1:             0.103415             0.036243             0.030064
Rotational constants in MHz :          3100.303495          1086.540095           901.283797

                             ****ORCA TERMINATED NORMALLY****
TOTAL RUN TIME: 0 days 0 hours 0 minutes 10 seconds 103 msec
