                         Program Version 6.0.0  -   RELEASE  -
|  1> ! wb97x-v def2-tzvp def2/J RIJCOSX DEFGRID2 scfconv7 GCP(DFT/TZ) printgap
|  2> %output
|  3>     printlevel normal
|  4> end
|  5> * xyz 0 1
|  6> C 2.5128746031625857 0.06666978408754162 -0.08079302703672506
|  7> C 1.0038691932588963 0.06937509013172907 -0.0027702643568055106
|  8> C 0.3045165407917159 1.2044837098047811 0.12382091485671835
|  9> C -1.1970896611795208 1.279581083623677 0.1300700810699647
| 10> C -1.8345773207740348 -0.02197966663284982 -0.3577475274110174
| 11> C -1.1545929142566174 -1.2196517081269642 0.30239415816913967
| 12> C 0.32433672740074937 -1.2740043156177485 -0.08025322118384633
| 13> H 2.962217131250341 0.5388176546076242 0.7996110473071677
| 14> H 2.871485467734957 0.6135833780679592 -0.9595820468273816
| 15> H 2.903242253170535 -0.9530844935747455 -0.14485281494175897
| 16> H 0.8458567901308359 2.147834131497738 0.2072284175424124
| 17> H -1.5562065797139226 1.5148747652868892 1.1435669825602126
| 18> H -1.5201543027459867 2.120070739933376 -0.49775154141591565
| 19> H -2.909510424974542 -0.019581974270189456 -0.1467059737893944
| 20> H -1.7178474840326774 -0.09865679610691848 -1.4470840095095072
| 21> H -1.2428527611227564 -1.1223493598158236 1.3928585103755127
| 22> H -1.6505087798212297 -2.1553480924256796 0.0220085266331352
| 23> H 0.8605446028455676 -1.9765120837672534 0.5718693775085542
| 24> H 0.4428829882221508 -1.674620724386081 -1.0991649660522533
| 25> *
| 26>
| 27>                          ****END OF INPUT****

CARTESIAN COORDINATES (ANGSTROEM)
---------------------------------
  C      2.512875    0.066670   -0.080793
  C      1.003869    0.069375   -0.002770
  C      0.304517    1.204484    0.123821
  C     -1.197090    1.279581    0.130070
  C     -1.834577   -0.021980   -0.357748
  C     -1.154593   -1.219652    0.302394
  C      0.324337   -1.274004   -0.080253
  H      2.962217    0.538818    0.799611
  H      2.871485    0.613583   -0.959582
  H      2.903242   -0.953084   -0.144853
  H      0.845857    2.147834    0.207228
  H     -1.556207    1.514875    1.143567
  H     -1.520154    2.120071   -0.497752
  H     -2.909510   -0.019582   -0.146706
  H     -1.717847   -0.098657   -1.447084
  H     -1.242853   -1.122349    1.392859
  H     -1.650509   -2.155348    0.022009
  H      0.860545   -1.976512    0.571869
  H      0.442883   -1.674621   -1.099165

 Total Charge           Charge          ....    0
 Multiplicity           Mult            ....    1
 Number of Electrons    NEL             ....   54
 Basis Dimension        Dim             ....  289

ORBITAL ENERGIES
----------------

  NO   OCC          E(Eh)            E(eV)
   0   2.0000     -12.044446      -327.7460
   1   2.0000     -12.040444      -327.6371
   2   2.0000     -12.038865      -327.5942
   3   2.0000     -12.037061      -327.5451
   4   2.0000     -12.035710      -327.5083
   5   2.0000     -12.034577      -327.4775
   6   2.0000     -12.028942      -327.3241
   7   2.0000      -1.347273       -36.6612
   8   2.0000      -1.272731       -34.6328
   9   2.0000      -1.245861       -33.9016
  10   2.0000      -1.176720       -32.0202
  11   2.0000      -1.111880       -30.2558
  12   2.0000      -1.068103       -29.0646
  13   2.0000      -0.955391       -25.9975
  14   2.0000      -0.915609       -24.9150
  15   2.0000      -0.887760       -24.1572
  16   2.0000      -0.874986       -23.8096
  17   2.0000      -0.852539       -23.1988
  18   2.0000      -0.837193       -22.7812
  19   2.0000      -0.828418       -22.5424
  20   2.0000      -0.817630       -22.2488
  21   2.0000      -0.802907       -21.8482
  22   2.0000      -0.798302       -21.7229
  23   2.0000      -0.768078       -20.9005
  24   2.0000      -0.751152       -20.4399
  25   2.0000      -0.746496       -20.3132
  26   2.0000      -0.626276       -17.0418
  27   0.0000      -0.189841        -5.1658
  28   0.0000      -0.038995        -1.0611
  29   0.0000      -0.028415        -0.7732
  30   0.0000      -0.018450        -0.5021
  31   0.0000      -0.014190        -0.3861

MULLIKEN ATOMIC CHARGES
-----------------------
   0 C :   -0.380829
   1 C :    0.026995
   2 C :   -0.232774
   3 C :   -0.117776
   4 C :   -0.187032
   5 C :   -0.175757
   6 C :   -0.177743
   7 H :    0.124188
   8 H :    0.123522
   9 H :    0.116409
  10 H :    0.105312
  11 H :    0.092549
  12 H :    0.098543
  13 H :    0.100100
  14 H :    0.088824
  15 H :    0.088768
  16 H :    0.102150
  17 H :    0.104695
  18 H :    0.099856
Sum of atomic charges:   -0.0000000

LOEWDIN ATOMIC CHARGES
----------------------
   0 C :   -0.263164
   1 C :   -0.198220
   2 C :   -0.154056
   3 C :   -0.251867
   4 C :   -0.252725
   5 C :   -0.250538
   6 C :   -0.225926
   7 H :    0.126290
   8 H :    0.125502
   9 H :    0.121713
  10 H :    0.137340
  11 H :    0.137210
  12 H :    0.136299
  13 H :    0.129588
  14 H :    0.135404
  15 H :    0.136407
  16 H :    0.129949
  17 H :    0.139755
  18 H :    0.141038

  Mayer bond orders larger than 0.100000
B(  0-C ,  1-C ) :   0.9136 B(  0-C ,  7-H ) :   0.9804 B(  0-C ,  8-H ) :   0.9765
B(  0-C ,  9-H ) :   0.9976 B(  1-C ,  2-C ) :   1.8935 B(  1-C ,  6-C ) :   0.9818
B(  2-C ,  3-C ) :   0.9898 B(  2-C , 10-H ) :   0.9761 B(  3-C ,  4-C ) :   1.0077
B(  3-C , 11-H ) :   0.9590 B(  3-C , 12-H ) :   0.9716 B(  4-C ,  5-C ) :   0.9702
B(  4-C , 13-H ) :   0.9785 B(  4-C , 14-H ) :   0.9767 B(  5-C ,  6-C ) :   1.0104
B(  5-C , 15-H ) :   0.9758 B(  5-C , 16-H ) :   0.9793 B(  6-C , 17-H ) :   0.9690
B(  6-C , 18-H ) :   0.9603

FINAL SINGLE POINT ENERGY      -273.973235535710

DIPOLE MOMENT
-------------

Method             : SCF
Type of density    : Electron Density
Multiplicity       :   1
Irrep              :   0
Energy             :  -273.9856282454098277 Eh
Relativity type    :
Basis              : AO
                                X                 Y                 Z
Electronic contribution:     -0.302676521       0.930220814       0.160649603
Nuclear contribution   :      0.294326596      -1.020360780      -0.178405627
                        -----------------------------------------
Total Dipole Moment    :     -0.008349925      -0.090139966      -0.017756024
                        -----------------------------------------
Magnitude (a.u.)       :      0.092250806
Magnitude (Debye)      :      0.234482914

Rotational constants in cm-1:             0.149997             0.075295             0.053985
Rotational constants in MHz :          4496.807448          2257.290078          1618.418584

                             ****ORCA TERMINATED NORMALLY****
TOTAL RUN TIME: 0 days 0 hours 2 minutes 24 seconds 669 msec
