                         Program Version 6.0.0  -   RELEASE  -
|  1> ! wb97x-v def2-tzvp def2/J RIJCOSX DEFGRID2 scfconv7 GCP(DFT/TZ) printgap
|  2> %output
|  3>     printlevel normal
|  4> end
|  5> %cpcm
|  6>     smd true
|  7>     smdsolvent "water"
|  8> end
|  9> * xyz 0 1
| 10> C 2.5128746031625857 0.06666978408754162 -0.08079302703672506
| 11> C 1.0038691932588963 0.06937509013172907 -0.0027702643568055106
| 12> C 0.3045165407917159 1.2044837098047811 0.12382091485671835
| 13> C -1.1970896611795208 1.279581083623677 0.1300700810699647
| 14> C -1.8345773207740348 -0.02197966663284982 -0.3577475274110174
| 15> C -1.1545929142566174 -1.2196517081269642 0.30239415816913967
| 16> C 0.32433672740074937 -1.2740043156177485 -0.08025322118384633
| 17> H 2.962217131250341 0.5388176546076242 0.7996110473071677
| 18> H 2.871485467734957 0.6135833780679592 -0.9595820468273816
| 19> H 2.903242253170535 -0.9530844935747455 -0.14485281494175897
| 20> H 0.8458567901308359 2.147834131497738 0.2072284175424124
| 21> H -1.5562065797139226 1.5148747652868892 1.1435669825602126
| 22> H -1.5201543027459867 2.120070739933376 -0.49775154141591565
| 23> H -2.909510424974542 -0.019581974270189456 -0.1467059737893944
| 24> H -1.7178474840326774 -0.09865679610691848 -1.4470840095095072
| 25> H -1.2428527611227564 -1.1223493598158236 1.3928585103755127
| 26> H -1.6505087798212297 -2.1553480924256796 0.0220085266331352
| 27> H 0.8605446028455676 -1.9765120837672534 0.5718693775085542
| 28> H 0.4428829882221508 -1.674620724386081 -1.0991649660522533
| 29> *
| 30>
| 31>                          ****END OF INPUT****

CARTESIAN COORDINATES (ANGSTROEM)
---------------------------------
  C      2.512875    0.066670   -0.080793
  C      1.003869    0.069375   -0.002770
  C      0.304517    1.204484    0.123821
  C     -1.197090    1.279581    0.130070
  C     -1.834577   -0.021980   -0.357748
  C     -1.154593   -1.219652    0.302394
  C      0.324337   -1.274004   -0.080253
  H      2.962217    0.538818    0.799611
  H      2.871485    0.613583   -0.959582
  H      2.903242   -0.953084   -0.144853
  H      0.845857    2.147834    0.207228
  H     -1.556207    1.514875    1.143567
  H     -1.520154    2.120071   -0.497752
  H     -2.909510   -0.019582   -0.146706
  H     -1.717847   -0.098657   -1.447084
  H     -1.242853   -1.122349    1.392859
  H     -1.650509   -2.155348    0.022009
  H      0.860545   -1.976512    0.571869
  H      0.442883   -1.674621   -1.099165

 Total Charge           Charge          ....    0
 Multiplicity           Mult            ....    1
 Number of Electrons    NEL             ....   54
 Basis Dimension        Dim             ....  289

ORBITAL ENERGIES
----------------

  NO   OCC          E(Eh)            E(eV)
   0   2.0000     -12.042572      -327.6950
   1   2.0000     -12.033416      -327.4459
   2   2.0000     -12.033151      -327.4387
   3   2.0000     -12.030143      -327.3568
   4   2.0000     -12.028971      -327.3249
   5   2.0000     -12.028206      -327.3041
   6   2.0000     -12.025972      -327.2433
   7   2.0000      -1.343399       -36.5557
   8   2.0000      -1.267937       -34.5023
   9   2.0000      -1.240701       -33.7612
  10   2.0000      -1.171601       -31.8809
  11   2.0000      -1.106859       -30.1192
  12   2.0000      -1.062581       -28.9143
  13   2.0000      -0.950308       -25.8592
  14   2.0000      -0.910725       -24.7821
  15   2.0000      -0.883034       -24.0286
  16   2.0000      -0.868954       -23.6454
  17   2.0000      -0.846500       -23.0344
  18   2.0000      -0.831944       -22.6383
  19   2.0000      -0.823188       -22.4001
  20   2.0000      -0.812136       -22.0993
  21   2.0000      -0.796787       -21.6817
  22   2.0000      -0.792356       -21.5611
  23   2.0000      -0.761811       -20.7299
  24   2.0000      -0.745611       -20.2891
  25   2.0000      -0.739937       -20.1347
  26   2.0000      -0.624916       -17.0048
  27   0.0000      -0.188243        -5.1224
  28   0.0000      -0.033793        -0.9195
  29   0.0000      -0.023210        -0.6316
  30   0.0000      -0.012248        -0.3333
  31   0.0000      -0.006472        -0.1761

MULLIKEN ATOMIC CHARGES
-----------------------
   0 C :   -0.410210
   1 C :   -0.008761
   2 C :   -0.298412
   3 C :   -0.135260
   4 C :   -0.211040
   5 C :   -0.199638
   6 C :   -0.186745
   7 H :    0.138760
   8 H :    0.137679
   9 H :    0.138038
  10 H :    0.139047
  11 H :    0.107656
  12 H :    0.116503
  13 H :    0.114879
  14 H :    0.100597
  15 H :    0.100004
  16 H :    0.117230
  17 H :    0.123845
  18 H :    0.115829
Sum of atomic charges:   -0.0000000

LOEWDIN ATOMIC CHARGES
----------------------
   0 C :   -0.267475
   1 C :   -0.205885
   2 C :   -0.169868
   3 C :   -0.255778
   4 C :   -0.255834
   5 C :   -0.253462
   6 C :   -0.226685
   7 H :    0.129214
   8 H :    0.128300
   9 H :    0.126368
  10 H :    0.142091
  11 H :    0.140093
  12 H :    0.139542
  13 H :    0.132322
  14 H :    0.136870
  15 H :    0.137773
  16 H :    0.132860
  17 H :    0.144361
  18 H :    0.145192

  Mayer bond orders larger than 0.100000
B(  0-C ,  1-C ) :   0.9193 B(  0-C ,  7-H ) :   0.9744 B(  0-C ,  8-H ) :   0.9717
B(  0-C ,  9-H ) :   0.9949 B(  1-C ,  2-C ) :   1.8796 B(  1-C ,  6-C ) :   0.9811
B(  2-C ,  3-C ) :   0.9873 B(  2-C , 10-H ) :   0.9777 B(  3-C ,  4-C ) :   1.0024
B(  3-C , 11-H ) :   0.9556 B(  3-C , 12-H ) :   0.9708 B(  4-C ,  5-C ) :   0.9623
B(  4-C , 13-H ) :   0.9763 B(  4-C , 14-H ) :   0.9773 B(  5-C ,  6-C ) :   1.0037
B(  5-C , 15-H ) :   0.9765 B(  5-C , 16-H ) :   0.9767 B(  6-C , 17-H ) :   0.9677
B(  6-C , 18-H ) :   0.9570

FINAL SINGLE POINT ENERGY      -273.972229945320

DIPOLE MOMENT
-------------

Method             : SCF
Type of density    : Electron Density
Multiplicity       :   1
Irrep              :   0
Energy             :  -273.9846226550200754 Eh
Relativity type    :
Basis              : AO
                                X                 Y                 Z
Electronic contribution:     -0.299937454       0.859816400       0.149735217
Nuclear contribution   :      0.294326596      -1.020360780      -0.178405627
                        -----------------------------------------
Total Dipole Moment    :     -0.005610858      -0.160544380      -0.028670410
                        -----------------------------------------
Magnitude (a.u.)       :      0.163180795
Magnitude (Debye)      :      0.414772620

Rotational constants in cm-1:             0.149997             0.075295             0.053985
Rotational constants in MHz :          4496.807448          2257.290078          1618.418584

                             ****ORCA TERMINATED NORMALLY****
TOTAL RUN TIME: 0 days 0 hours 2 minutes 21 seconds 316 msec
