                         Program Version 6.0.0  -   RELEASE  -
|  1> ! wb97x-v def2-tzvp def2/J RIJCOSX DEFGRID2 scfconv7 GCP(DFT/TZ) printgap
|  2> %output
|  3>     printlevel normal
|  4> end
|  5> * xyz 0 1
|  6> C -3.710965514950128 -0.1548490279150402 0.3053650801745757
|  7> C -2.2800223064829046 -0.11499700393579579 -0.21767408469927496
|  8> H -2.3031619874148204 0.06543514477066985 -1.3020622455722568
|  9> C -1.536401419302494 -1.425688719694707 0.035705424106772646
| 10> C -0.08370924796776334 -1.3767427712190878 -0.4347714717168814
| 11> C 0.703412327265385 -0.2146545738054794 0.22939437186643477
| 12> H 0.635790470751542 -0.37112589266723406 1.317117870398911
| 13> C -0.08639789040059687 1.037896047690933 -0.09005869062136641
| 14> O 0.33925899259556863 1.932050344710942 -0.8173074726840079
| 15> C -1.495266026155454 1.051037775527999 0.43113471585016816
| 16> C 2.1829268729118643 -0.12513502058589557 -0.1707484318738709
| 17> C 2.908642996194891 0.8916760128725826 0.7161817798023308
| 18> C 2.890762259320798 -1.4783912784790498 -0.0757614769195744
| 19> H -3.7197453694975224 -0.33319601922040076 1.3869930355055844
| 20> H -4.230811033062839 0.7894512619716452 0.11299333190458934
| 21> H -4.278186141522458 -0.9585017919614996 -0.17632245248863487
| 22> H -1.5607701167698338 -1.6429932489141312 1.1130501091919363
| 23> H -2.0589476651363623 -2.2466978598786578 -0.469412392333254
| 24> H 0.41121044650882216 -2.3209359037228263 -0.19298894738944472
| 25> H -0.042183958892105064 -1.2549489992312506 -1.525814052175301
| 26> H -1.4832391051767946 0.8958114518810033 1.5178673735485706
| 27> H -1.9653271625949806 2.012806400718189 0.2075477546040587
| 28> H 2.2318857827164664 0.21739877866211366 -1.2127476403146038
| 29> H 3.950181147547656 1.0090949053798302 0.3990254595221754
| 30> H 2.9130495869001143 0.5473430505093699 1.7576579076335332
| 31> H 2.4350057584331783 1.8769654784248337 0.6881308265933638
| 32> H 3.9646278870768175 -1.351170140795702 -0.2489252662168149
| 33> H 2.52174152710916 -2.196476300962824 -0.8131657886696728
| 34> H 2.7635659552559826 -1.9168146588497306 0.9217982260197175
| 35> *
| 36>
| 37>                          ****END OF INPUT****

CARTESIAN COORDINATES (ANGSTROEM)
---------------------------------
  C     -3.710966   -0.154849    0.305365
  C     -2.280022   -0.114997   -0.217674
  H     -2.303162    0.065435   -1.302062
  C     -1.536401   -1.425689    0.035705
  C     -0.083709   -1.376743   -0.434771
  C      0.703412   -0.214655    0.229394
  H      0.635790   -0.371126    1.317118
  C     -0.086398    1.037896   -0.090059
  O      0.339259    1.932050   -0.817307
  C     -1.495266    1.051038    0.431135
  C      2.182927   -0.125135   -0.170748
  C      2.908643    0.891676    0.716182
  C      2.890762   -1.478391   -0.075761
  H     -3.719745   -0.333196    1.386993
  H     -4.230811    0.789451    0.112993
  H     -4.278186   -0.958502   -0.176322
  H     -1.560770   -1.642993    1.113050
  H     -2.058948   -2.246698   -0.469412
  H      0.411210   -2.320936   -0.192989
  H     -0.042184   -1.254949   -1.525814
  H     -1.483239    0.895811    1.517867
  H     -1.965327    2.012806    0.207548
  H      2.231886    0.217399   -1.212748
  H      3.950181    1.009095    0.399025
  H      2.913050    0.547343    1.757658
  H      2.435006    1.876965    0.688131
  H      3.964628   -1.351170   -0.248925
  H      2.521742   -2.196476   -0.813166
  H      2.763566   -1.916815    0.921798

 Total Charge           Charge          ....    0
 Multiplicity           Mult            ....    1
 Number of Electrons    NEL             ....   86
 Basis Dimension        Dim             ....  449

ORBITAL ENERGIES
----------------

  NO   OCC          E(Eh)            E(eV)
   0   2.0000     -21.655609      -589.2791
   1   2.0000     -12.130315      -330.0827
   2   2.0000     -12.063402      -328.2619
   3   2.0000     -12.057455      -328.1000
   4   2.0000     -12.054901      -328.0305
   5   2.0000     -12.050915      -327.9221
   6   2.0000     -12.050493      -327.9106
   7   2.0000     -12.048010      -327.8430
   8   2.0000     -12.042651      -327.6972
   9   2.0000     -12.033857      -327.4579
  10   2.0000     -12.026772      -327.2651
  11   2.0000      -1.697701       -46.1968
  12   2.0000      -1.362491       -37.0753
  13   2.0000      -1.318847       -35.8876
  14   2.0000      -1.262354       -34.3504
  15   2.0000      -1.249615       -34.0038
  16   2.0000      -1.188703       -32.3462
  17   2.0000      -1.172642       -31.9092
  18   2.0000      -1.110190       -30.2098
  19   2.0000      -1.091564       -29.7030
  20   2.0000      -1.043812       -28.4036
  21   2.0000      -1.038633       -28.2626
  22   2.0000      -0.965726       -26.2787
  23   2.0000      -0.960875       -26.1467
  24   2.0000      -0.914327       -24.8801
  25   2.0000      -0.897266       -24.4159
  26   2.0000      -0.892718       -24.2921
  27   2.0000      -0.876962       -23.8634
  28   2.0000      -0.865540       -23.5525
  29   2.0000      -0.860874       -23.4256
  30   2.0000      -0.849295       -23.1105
  31   2.0000      -0.838928       -22.8284
  32   2.0000      -0.828191       -22.5362
  33   2.0000      -0.823443       -22.4070
  34   2.0000      -0.808498       -22.0004
  35   2.0000      -0.804787       -21.8994
  36   2.0000      -0.790744       -21.5172
  37   2.0000      -0.784321       -21.3425
  38   2.0000      -0.778837       -21.1932
  39   2.0000      -0.768417       -20.9097
  40   2.0000      -0.758756       -20.6468
  41   2.0000      -0.754454       -20.5297
  42   2.0000      -0.745160       -20.2768
  43   0.0000      -0.311193        -8.4680
  44   0.0000      -0.070906        -1.9295
  45   0.0000      -0.062740        -1.7072
  46   0.0000      -0.055601        -1.5130
  47   0.0000      -0.042325        -1.1517

MULLIKEN ATOMIC CHARGES
-----------------------
   0 C :   -0.339193
   1 C :   -0.040995
   2 H :    0.086289
   3 C :   -0.200892
   4 C :   -0.213088
   5 C :   -0.084807
   6 H :    0.081852
   7 C :    0.164839
   8 O :   -0.314098
   9 C :   -0.205396
  10 C :    0.056823
  11 C :   -0.386316
  12 C :   -0.373558
  13 H :    0.105210
  14 H :    0.119637
  15 H :    0.115201
  16 H :    0.092814
  17 H :    0.107224
  18 H :    0.116833
  19 H :    0.114225
  20 H :    0.108287
  21 H :    0.114895
  22 H :    0.080797
  23 H :    0.110915
  24 H :    0.095944
  25 H :    0.140634
  26 H :    0.118668
  27 H :    0.121545
  28 H :    0.105709
Sum of atomic charges:    0.0000000

LOEWDIN ATOMIC CHARGES
----------------------
   0 C :   -0.277557
   1 C :   -0.271191
   2 H :    0.153557
   3 C :   -0.234828
   4 C :   -0.215171
   5 C :   -0.198963
   6 H :    0.163296
   7 C :   -0.282206
   8 O :    0.110403
   9 C :   -0.188318
  10 C :   -0.277921
  11 C :   -0.277678
  12 C :   -0.282250
  13 H :    0.119668
  14 H :    0.121039
  15 H :    0.120314
  16 H :    0.138212
  17 H :    0.137806
  18 H :    0.138869
  19 H :    0.142162
  20 H :    0.146871
  21 H :    0.144816
  22 H :    0.155201
  23 H :    0.118375
  24 H :    0.116167
  25 H :    0.123884
  26 H :    0.121039
  27 H :    0.115891
  28 H :    0.118514

  Mayer bond orders larger than 0.100000
B(  0-C ,  1-C ) :   0.9701 B(  0-C , 13-H ) :   0.9730 B(  0-C , 14-H ) :   0.9858
B(  0-C , 15-H ) :   0.9844 B(  1-C ,  2-H ) :   0.9696 B(  1-C ,  3-C ) :   0.9858
B(  1-C ,  9-C ) :   0.9511 B(  3-C ,  4-C ) :   0.9969 B(  3-C , 16-H ) :   0.9644
B(  3-C , 17-H ) :   0.9680 B(  4-C ,  5-C ) :   0.9168 B(  4-C , 18-H ) :   0.9773
B(  4-C , 19-H ) :   0.9682 B(  5-C ,  6-H ) :   0.9421 B(  5-C ,  7-C ) :   0.9317
B(  5-C , 10-C ) :   0.9847 B(  7-C ,  8-O ) :   2.1303 B(  7-C ,  9-C ) :   1.0250
B(  9-C , 20-H ) :   0.9614 B(  9-C , 21-H ) :   0.9548 B( 10-C , 11-C ) :   0.9652
B( 10-C , 12-C ) :   0.9430 B( 10-C , 22-H ) :   0.9500 B( 11-C , 23-H ) :   0.9857
B( 11-C , 24-H ) :   0.9705 B( 11-C , 25-H ) :   0.9840 B( 12-C , 26-H ) :   0.9859
B( 12-C , 27-H ) :   0.9864 B( 12-C , 28-H ) :   0.9749

FINAL SINGLE POINT ENERGY      -467.174751204232

DIPOLE MOMENT
-------------

Method             : SCF
Type of density    : Electron Density
Multiplicity       :   1
Irrep              :   0
Energy             :  -467.1952490078315918 Eh
Relativity type    :
Basis              : AO
                                X                 Y                 Z
Electronic contribution:     -0.737659375       5.827506632      -2.832552641
Nuclear contribution   :      0.230422989      -6.786789541       3.342687914
                        -----------------------------------------
Total Dipole Moment    :     -0.507236386      -0.959282909       0.510135274
                        -----------------------------------------
Magnitude (a.u.)       :      1.199062320
Magnitude (Debye)      :      3.047774208

Rotational constants in cm-1:             0.067529             0.023177             0.018907
Rotational constants in MHz :          2024.454884           694.825556           566.805952

                             ****ORCA TERMINATED NORMALLY****
TOTAL RUN TIME: 0 days 0 hours 6 minutes 18 seconds 858 msec
