                         Program Version 6.0.0  -   RELEASE  -
|  1> ! wb97x-v def2-tzvp def2/J RIJCOSX DEFGRID2 scfconv7 GCP(DFT/TZ) printgap
|  2> %output
|  3>     printlevel normal
|  4> end
|  5> %cpcm
|  6>     smd true
|  7>     smdsolvent "water"
|  8> end
|  9> * xyz 0 1
| 10> C -3.710965514950128 -0.1548490279150402 0.3053650801745757
| 11> C -2.2800223064829046 -0.11499700393579579 -0.21767408469927496
| 12> H -2.3031619874148204 0.06543514477066985 -1.3020622455722568
| 13> C -1.536401419302494 -1.425688719694707 0.035705424106772646
| 14> C -0.08370924796776334 -1.3767427712190878 -0.4347714717168814
| 15> C 0.703412327265385 -0.2146545738054794 0.22939437186643477
| 16> H 0.635790470751542 -0.37112589266723406 1.317117870398911
| 17> C -0.08639789040059687 1.037896047690933 -0.09005869062136641
| 18> O 0.33925899259556863 1.932050344710942 -0.8173074726840079
| 19> C -1.495266026155454 1.051037775527999 0.43113471585016816
| 20> C 2.1829268729118643 -0.12513502058589557 -0.1707484318738709
| 21> C 2.908642996194891 0.8916760128725826 0.7161817798023308
| 22> C 2.890762259320798 -1.4783912784790498 -0.0757614769195744
| 23> H -3.7197453694975224 -0.33319601922040076 1.3869930355055844
| 24> H -4.230811033062839 0.7894512619716452 0.11299333190458934
| 25> H -4.278186141522458 -0.9585017919614996 -0.17632245248863487
| 26> H -1.5607701167698338 -1.6429932489141312 1.1130501091919363
| 27> H -2.0589476651363623 -2.2466978598786578 -0.469412392333254
| 28> H 0.41121044650882216 -2.3209359037228263 -0.19298894738944472
| 29> H -0.042183958892105064 -1.2549489992312506 -1.525814052175301
| 30> H -1.4832391051767946 0.8958114518810033 1.5178673735485706
| 31> H -1.9653271625949806 2.012806400718189 0.2075477546040587
| 32> H 2.2318857827164664 0.21739877866211366 -1.2127476403146038
| 33> H 3.950181147547656 1.0090949053798302 0.3990254595221754
| 34> H 2.9130495869001143 0.5473430505093699 1.7576579076335332
| 35> H 2.4350057584331783 1.8769654784248337 0.6881308265933638
| 36> H 3.9646278870768175 -1.351170140795702 -0.2489252662168149
| 37> H 2.52174152710916 -2.196476300962824 -0.8131657886696728
| 38> H 2.7635659552559826 -1.9168146588497306 0.9217982260197175
| 39> *
| 40>
| 41>                          ****END OF INPUT****

CARTESIAN COORDINATES (ANGSTROEM)
---------------------------------
  C     -3.710966   -0.154849    0.305365
  C     -2.280022   -0.114997   -0.217674
  H     -2.303162    0.065435   -1.302062
  C     -1.536401   -1.425689    0.035705
  C     -0.083709   -1.376743   -0.434771
  C      0.703412   -0.214655    0.229394
  H      0.635790   -0.371126    1.317118
  C     -0.086398    1.037896   -0.090059
  O      0.339259    1.932050   -0.817307
  C     -1.495266    1.051038    0.431135
  C      2.182927   -0.125135   -0.170748
  C      2.908643    0.891676    0.716182
  C      2.890762   -1.478391   -0.075761
  H     -3.719745   -0.333196    1.386993
  H     -4.230811    0.789451    0.112993
  H     -4.278186   -0.958502   -0.176322
  H     -1.560770   -1.642993    1.113050
  H     -2.058948   -2.246698   -0.469412
  H      0.411210   -2.320936   -0.192989
  H     -0.042184   -1.254949   -1.525814
  H     -1.483239    0.895811    1.517867
  H     -1.965327    2.012806    0.207548
  H      2.231886    0.217399   -1.212748
  H      3.950181    1.009095    0.399025
  H      2.913050    0.547343    1.757658
  H      2.435006    1.876965    0.688131
  H      3.964628   -1.351170   -0.248925
  H      2.521742   -2.196476   -0.813166
  H      2.763566   -1.916815    0.921798

 Total Charge           Charge          ....    0
 Multiplicity           Mult            ....    1
 Number of Electrons    NEL             ....   86
 Basis Dimension        Dim             ....  449

ORBITAL ENERGIES
----------------

  NO   OCC          E(Eh)            E(eV)
   0   2.0000     -21.666179      -589.5667
   1   2.0000     -12.137487      -330.2778
   2   2.0000     -12.049176      -327.8747
   3   2.0000     -12.047869      -327.8392
   4   2.0000     -12.042348      -327.6889
   5   2.0000     -12.040193      -327.6303
   6   2.0000     -12.040084      -327.6273
   7   2.0000     -12.032971      -327.4338
   8   2.0000     -12.026269      -327.2514
   9   2.0000     -12.023542      -327.1772
  10   2.0000     -12.022448      -327.1474
  11   2.0000      -1.711599       -46.5750
  12   2.0000      -1.351463       -36.7752
  13   2.0000      -1.309035       -35.6207
  14   2.0000      -1.250771       -34.0352
  15   2.0000      -1.241237       -33.7758
  16   2.0000      -1.176354       -32.0102
  17   2.0000      -1.165923       -31.7264
  18   2.0000      -1.101397       -29.9705
  19   2.0000      -1.093587       -29.7580
  20   2.0000      -1.039779       -28.2938
  21   2.0000      -1.029578       -28.0162
  22   2.0000      -0.965287       -26.2668
  23   2.0000      -0.958505       -26.0822
  24   2.0000      -0.915318       -24.9071
  25   2.0000      -0.894400       -24.3379
  26   2.0000      -0.881729       -23.9931
  27   2.0000      -0.867051       -23.5936
  28   2.0000      -0.855574       -23.2814
  29   2.0000      -0.849118       -23.1057
  30   2.0000      -0.843199       -22.9446
  31   2.0000      -0.830784       -22.6068
  32   2.0000      -0.817609       -22.2483
  33   2.0000      -0.809526       -22.0283
  34   2.0000      -0.798998       -21.7418
  35   2.0000      -0.792669       -21.5696
  36   2.0000      -0.783638       -21.3239
  37   2.0000      -0.772868       -21.0308
  38   2.0000      -0.768328       -20.9073
  39   2.0000      -0.758643       -20.6437
  40   2.0000      -0.750705       -20.4277
  41   2.0000      -0.740884       -20.1605
  42   2.0000      -0.735297       -20.0085
  43   0.0000      -0.309607        -8.4248
  44   0.0000      -0.062358        -1.6969
  45   0.0000      -0.053852        -1.4654
  46   0.0000      -0.044906        -1.2219
  47   0.0000      -0.029662        -0.8072

MULLIKEN ATOMIC CHARGES
-----------------------
   0 C :   -0.402361
   1 C :   -0.012296
   2 H :    0.090998
   3 C :   -0.223706
   4 C :   -0.222795
   5 C :   -0.081905
   6 H :    0.114100
   7 C :    0.251448
   8 O :   -0.455892
   9 C :   -0.234387
  10 C :    0.053811
  11 C :   -0.424004
  12 C :   -0.433090
  13 H :    0.123790
  14 H :    0.132633
  15 H :    0.131548
  16 H :    0.107223
  17 H :    0.120435
  18 H :    0.133130
  19 H :    0.119418
  20 H :    0.137724
  21 H :    0.122154
  22 H :    0.074082
  23 H :    0.130088
  24 H :    0.120295
  25 H :    0.129038
  26 H :    0.133554
  27 H :    0.138966
  28 H :    0.126001
Sum of atomic charges:    0.0000000

LOEWDIN ATOMIC CHARGES
----------------------
   0 C :   -0.282396
   1 C :   -0.266991
   2 H :    0.155440
   3 C :   -0.233085
   4 C :   -0.211622
   5 C :   -0.192384
   6 H :    0.175655
   7 C :   -0.261602
   8 O :    0.032844
   9 C :   -0.184998
  10 C :   -0.280719
  11 C :   -0.285748
  12 C :   -0.285369
  13 H :    0.123195
  14 H :    0.122565
  15 H :    0.122941
  16 H :    0.142944
  17 H :    0.140975
  18 H :    0.143547
  19 H :    0.144085
  20 H :    0.158906
  21 H :    0.144932
  22 H :    0.150267
  23 H :    0.120539
  24 H :    0.122102
  25 H :    0.118632
  26 H :    0.122351
  27 H :    0.119779
  28 H :    0.123216

  Mayer bond orders larger than 0.100000
B(  0-C ,  1-C ) :   0.9517 B(  0-C , 13-H ) :   0.9741 B(  0-C , 14-H ) :   0.9831
B(  0-C , 15-H ) :   0.9819 B(  1-C ,  2-H ) :   0.9675 B(  1-C ,  3-C ) :   0.9957
B(  1-C ,  9-C ) :   0.9400 B(  3-C ,  4-C ) :   1.0059 B(  3-C , 16-H ) :   0.9610
B(  3-C , 17-H ) :   0.9645 B(  4-C ,  5-C ) :   0.9173 B(  4-C , 18-H ) :   0.9730
B(  4-C , 19-H ) :   0.9635 B(  5-C ,  6-H ) :   0.9338 B(  5-C ,  7-C ) :   0.9473
B(  5-C , 10-C ) :   0.9723 B(  7-C ,  8-O ) :   1.9622 B(  7-C ,  9-C ) :   1.0519
B(  9-C , 20-H ) :   0.9490 B(  9-C , 21-H ) :   0.9584 B( 10-C , 11-C ) :   0.9541
B( 10-C , 12-C ) :   0.9489 B( 10-C , 22-H ) :   0.9538 B( 11-C , 23-H ) :   0.9839
B( 11-C , 24-H ) :   0.9711 B( 11-C , 25-H ) :   0.9832 B( 12-C , 26-H ) :   0.9829
B( 12-C , 27-H ) :   0.9821 B( 12-C , 28-H ) :   0.9750

FINAL SINGLE POINT ENERGY      -467.180730867833

DIPOLE MOMENT
-------------

Method             : SCF
Type of density    : Electron Density
Multiplicity       :   1
Irrep              :   0
Energy             :  -467.2012286714329434 Eh
Relativity type    :
Basis              : AO
                                X                 Y                 Z
Electronic contribution:     -0.945005971       5.301975296      -2.454032485
Nuclear contribution   :      0.230422989      -6.786789541       3.342687914
                        -----------------------------------------
Total Dipole Moment    :     -0.714582982      -1.484814245       0.888655430
                        -----------------------------------------
Magnitude (a.u.)       :      1.872167368
Magnitude (Debye)      :      4.758671271

Rotational constants in cm-1:             0.067529             0.023177             0.018907
Rotational constants in MHz :          2024.454884           694.825556           566.805952

                             ****ORCA TERMINATED NORMALLY****
TOTAL RUN TIME: 0 days 0 hours 6 minutes 2 seconds 886 msec
