                         Program Version 6.0.0  -   RELEASE  -
|  1> ! pbe def2-sv(p) def2/J RI DEFGRID1 loosescf d4 GCP(DFT/SV(P)) printgap
|  2> %output
|  3>     printlevel normal
|  4> end
|  5> * xyz 0 1
|  6> C -2.7884879969 -0.2234081133 1.2651847085
|  7> C -2.3370866976 -0.2299905872 -0.1945524091
|  8> H -3.2327797099 -0.3521082915 -0.8126634059
|  9> C -1.3831023169 -1.3829703289 -0.5060936355
| 10> C -0.1195984774 -1.3211504885 0.3473531384
| 11> C 0.4794106839 0.0981014269 0.4286388773
| 12> H 0.1912193927 0.5318354651 1.3955960418
| 13> C -0.1457155159 1.0466405388 -0.5674207994
| 14> O 0.5067851644 1.8077330753 -1.2586970086
| 15> C -1.6529550689 1.082026993 -0.6020241372
| 16> C 2.0198709076 0.1382714229 0.3736803368
| 17> C 2.6226708345 -0.5707171253 1.5847084525
| 18> C 2.5903502002 -0.4326569811 -0.9238700336
| 19> H -3.5594917681 0.5291335826 1.4133142141
| 20> H -3.2041760121 -1.1920550455 1.5315523419
| 21> H -1.966151529 -0.0038444289 1.9387351306
| 22> H -1.8820048791 -2.3390035229 -0.3416542129
| 23> H -1.109835263 -1.323962488 -1.5629172754
| 24> H -0.3411856874 -1.6762869245 1.3533809447
| 25> H 0.6154627665 -2.0001995907 -0.0812792
| 26> H -1.9564516834 1.8943091057 0.0639022601
| 27> H -1.9427898788 1.3830114241 -1.6110750066
| 28> H 2.3021981701 1.197457422 0.4129970478
| 29> H 2.3775391132 -1.6293966084 1.5732711633
| 30> H 2.2501870006 -0.1381081405 2.5103588469
| 31> H 3.7051328789 -0.4713639435 1.5729522736
| 32> H 3.6651721532 -0.2706864341 -0.9526461574
| 33> H 2.1494811701 0.0675254845 -1.7825444763
| 34> H 2.4100720249 -1.5012776699 -1.0077461647
| 35> *
| 36>
| 37>                          ****END OF INPUT****

CARTESIAN COORDINATES (ANGSTROEM)
---------------------------------
  C     -2.788488   -0.223408    1.265185
  C     -2.337087   -0.229991   -0.194552
  H     -3.232780   -0.352108   -0.812663
  C     -1.383102   -1.382970   -0.506094
  C     -0.119598   -1.321150    0.347353
  C      0.479411    0.098101    0.428639
  H      0.191219    0.531835    1.395596
  C     -0.145716    1.046641   -0.567421
  O      0.506785    1.807733   -1.258697
  C     -1.652955    1.082027   -0.602024
  C      2.019871    0.138271    0.373680
  C      2.622671   -0.570717    1.584708
  C      2.590350   -0.432657   -0.923870
  H     -3.559492    0.529134    1.413314
  H     -3.204176   -1.192055    1.531552
  H     -1.966152   -0.003844    1.938735
  H     -1.882005   -2.339004   -0.341654
  H     -1.109835   -1.323962   -1.562917
  H     -0.341186   -1.676287    1.353381
  H      0.615463   -2.000200   -0.081279
  H     -1.956452    1.894309    0.063902
  H     -1.942790    1.383011   -1.611075
  H      2.302198    1.197457    0.412997
  H      2.377539   -1.629397    1.573271
  H      2.250187   -0.138108    2.510359
  H      3.705133   -0.471364    1.572952
  H      3.665172   -0.270686   -0.952646
  H      2.149481    0.067525   -1.782544
  H      2.410072   -1.501278   -1.007746

 Total Charge           Charge          ....    0
 Multiplicity           Mult            ....    1
 Number of Electrons    NEL             ....   86
 Basis Dimension        Dim             ....  190

ORBITAL ENERGIES
----------------

  NO   OCC          E(Eh)            E(eV)
   0   2.0000     -18.732024      -509.7243
   1   2.0000      -9.968967      -271.2694
   2   2.0000      -9.904621      -269.5184
   3   2.0000      -9.900244      -269.3993
   4   2.0000      -9.893673      -269.2205
   5   2.0000      -9.891545      -269.1626
   6   2.0000      -9.890495      -269.1341
   7   2.0000      -9.889342      -269.1027
   8   2.0000      -9.882265      -268.9101
   9   2.0000      -9.871416      -268.6149
  10   2.0000      -9.864166      -268.4176
  11   2.0000      -0.931226       -25.3399
  12   2.0000      -0.767400       -20.8820
  13   2.0000      -0.727161       -19.7871
  14   2.0000      -0.672310       -18.2945
  15   2.0000      -0.654284       -17.8040
  16   2.0000      -0.620999       -16.8982
  17   2.0000      -0.606842       -16.5130
  18   2.0000      -0.562899       -15.3173
  19   2.0000      -0.518607       -14.1120
  20   2.0000      -0.498241       -13.5578
  21   2.0000      -0.448301       -12.1989
  22   2.0000      -0.440511       -11.9869
  23   2.0000      -0.423082       -11.5126
  24   2.0000      -0.421887       -11.4801
  25   2.0000      -0.402648       -10.9566
  26   2.0000      -0.387974       -10.5573
  27   2.0000      -0.375823       -10.2267
  28   2.0000      -0.369441       -10.0530
  29   2.0000      -0.352992        -9.6054
  30   2.0000      -0.351979        -9.5778
  31   2.0000      -0.343096        -9.3361
  32   2.0000      -0.337702        -9.1894
  33   2.0000      -0.328636        -8.9426
  34   2.0000      -0.320547        -8.7225
  35   2.0000      -0.311913        -8.4876
  36   2.0000      -0.301846        -8.2136
  37   2.0000      -0.290274        -7.8988
  38   2.0000      -0.288504        -7.8506
  39   2.0000      -0.276085        -7.5127
  40   2.0000      -0.269864        -7.3434
  41   2.0000      -0.267973        -7.2919
  42   2.0000      -0.188583        -5.1316
  43   0.0000      -0.051035        -1.3887
  44   0.0000       0.023823         0.6483
  45   0.0000       0.038339         1.0432
  46   0.0000       0.051906         1.4124
  47   0.0000       0.063772         1.7353

MULLIKEN ATOMIC CHARGES
-----------------------
   0 C :   -0.267678
   1 C :   -0.173730
   2 H :    0.075040
   3 C :   -0.103341
   4 C :   -0.156015
   5 C :   -0.127862
   6 H :    0.092731
   7 C :   -0.029141
   8 O :   -0.164852
   9 C :   -0.064598
  10 C :   -0.141615
  11 C :   -0.228402
  12 C :   -0.262013
  13 H :    0.105528
  14 H :    0.102766
  15 H :    0.108435
  16 H :    0.085584
  17 H :    0.087176
  18 H :    0.086454
  19 H :    0.100906
  20 H :    0.108887
  21 H :    0.096805
  22 H :    0.075237
  23 H :    0.095162
  24 H :    0.091213
  25 H :    0.100129
  26 H :    0.097735
  27 H :    0.117710
  28 H :    0.091751
Sum of atomic charges:    0.0000000

LOEWDIN ATOMIC CHARGES
----------------------
   0 C :   -0.333411
   1 C :   -0.152501
   2 H :    0.120308
   3 C :   -0.217921
   4 C :   -0.215674
   5 C :   -0.163319
   6 H :    0.139636
   7 C :    0.053471
   8 O :   -0.129425
   9 C :   -0.238551
  10 C :   -0.145338
  11 C :   -0.329115
  12 C :   -0.335441
  13 H :    0.121447
  14 H :    0.120480
  15 H :    0.115824
  16 H :    0.118723
  17 H :    0.119364
  18 H :    0.119883
  19 H :    0.123845
  20 H :    0.144290
  21 H :    0.136724
  22 H :    0.121777
  23 H :    0.115403
  24 H :    0.114619
  25 H :    0.119524
  26 H :    0.120681
  27 H :    0.123685
  28 H :    0.111014

  Mayer bond orders larger than 0.100000
B(  0-C ,  1-C ) :   1.0957 B(  0-C , 13-H ) :   0.9463 B(  0-C , 14-H ) :   0.9480
B(  0-C , 15-H ) :   0.9415 B(  1-C ,  2-H ) :   0.8984 B(  1-C ,  3-C ) :   1.1290
B(  1-C ,  9-C ) :   1.0387 B(  3-C ,  4-C ) :   1.1733 B(  3-C , 16-H ) :   0.9151
B(  3-C , 17-H ) :   0.8991 B(  4-C ,  5-C ) :   1.0497 B(  4-C , 18-H ) :   0.9002
B(  4-C , 19-H ) :   0.9028 B(  5-C ,  6-H ) :   0.8371 B(  5-C ,  7-C ) :   0.9852
B(  5-C , 10-C ) :   1.0526 B(  7-C ,  8-O ) :   2.1553 B(  7-C ,  9-C ) :   1.0473
B(  9-C , 20-H ) :   0.8803 B(  9-C , 21-H ) :   0.8885 B( 10-C , 11-C ) :   1.1117
B( 10-C , 12-C ) :   1.1132 B( 10-C , 22-H ) :   0.8873 B( 11-C , 23-H ) :   0.9419
B( 11-C , 24-H ) :   0.9483 B( 11-C , 25-H ) :   0.9510 B( 12-C , 26-H ) :   0.9480
B( 12-C , 27-H ) :   0.9426 B( 12-C , 28-H ) :   0.9382

Dispersion correction           -0.030677623
FINAL SINGLE POINT ENERGY      -466.027944604653

DIPOLE MOMENT
-------------

Method             : SCF
Type of density    : Electron Density
Multiplicity       :   1
Irrep              :   0
Energy             :  -466.1243550826214914 Eh
Relativity type    :
Basis              : AO
                                X                 Y                 Z
Electronic contribution:     -1.062852745       6.221345924      -4.679766009
Nuclear contribution   :      0.449954406      -6.817122020       5.247753632
                        -----------------------------------------
Total Dipole Moment    :     -0.612898338      -0.595776096       0.567987623
                        -----------------------------------------
Magnitude (a.u.)       :      1.026257019
Magnitude (Debye)      :      2.608538039

Rotational constants in cm-1:             0.056927             0.026892             0.022556
Rotational constants in MHz :          1706.634420           806.198775           676.202594

                             ****ORCA TERMINATED NORMALLY****
TOTAL RUN TIME: 0 days 0 hours 0 minutes 12 seconds 965 msec
