                         Program Version 6.0.0  -   RELEASE  -
|  1> ! r2scan-3c def2/J RI DEFGRID2 scfconv6 printgap
|  2> %output
|  3>     printlevel normal
|  4> end
|  5> * xyz 0 1
|  6> C -1.7757301214 -0.0116591522 0.1864424245
|  7> C -0.9074002721 -1.2530530817 0.3645503593
|  8> C 0.2408577159 -1.2537545098 -0.640472145
|  9> C 1.092752133 0.0107433276 -0.504910457
| 10> C 0.215539059 1.2606666468 -0.6450070227
| 11> C -0.927496772 1.2430784876 0.3663135216
| 12> O 1.7580433448 -0.0420937378 0.7453983848
| 13> H -2.5884465764 -0.019100894 0.9149196673
| 14> H -2.2169474585 -0.0148328671 -0.8131492606
| 15> H -0.4886624054 -1.2616725498 1.3724926844
| 16> H -1.5061798936 -2.1562800443 0.2353929337
| 17> H 0.8791883209 -2.1228612226 -0.4744901063
| 18> H -0.1515014867 -1.2998163343 -1.6574840642
| 19> H 1.8483074972 0.0129317297 -1.3103365156
| 20> H 0.8255391523 2.1562183094 -0.5054009329
| 21> H -0.18781408 1.2829077677 -1.6587482164
| 22> H -0.5122721815 1.2496751085 1.3761623407
| 23> H -1.5413032122 2.1372138135 0.2436217135
| 24> H 2.2992615488 0.751221598 0.8489781172
| 25> *
| 26>
| 27>                          ****END OF INPUT****

CARTESIAN COORDINATES (ANGSTROEM)
---------------------------------
  C     -1.775730   -0.011659    0.186442
  C     -0.907400   -1.253053    0.364550
  C      0.240858   -1.253755   -0.640472
  C      1.092752    0.010743   -0.504910
  C      0.215539    1.260667   -0.645007
  C     -0.927497    1.243078    0.366314
  O      1.758043   -0.042094    0.745398
  H     -2.588447   -0.019101    0.914920
  H     -2.216947   -0.014833   -0.813149
  H     -0.488662   -1.261673    1.372493
  H     -1.506180   -2.156280    0.235393
  H      0.879188   -2.122861   -0.474490
  H     -0.151501   -1.299816   -1.657484
  H      1.848307    0.012932   -1.310337
  H      0.825539    2.156218   -0.505401
  H     -0.187814    1.282908   -1.658748
  H     -0.512272    1.249675    1.376162
  H     -1.541303    2.137214    0.243622
  H      2.299262    0.751222    0.848978

 Total Charge           Charge          ....    0
 Multiplicity           Mult            ....    1
 Number of Electrons    NEL             ....   56
 Basis Dimension        Dim             ....  198

ORBITAL ENERGIES
----------------

  NO   OCC          E(Eh)            E(eV)
   0   2.0000     -18.945095      -515.5222
   1   2.0000     -10.076807      -274.2039
   2   2.0000     -10.023939      -272.7652
   3   2.0000     -10.019966      -272.6571
   4   2.0000     -10.019328      -272.6398
   5   2.0000     -10.018464      -272.6163
   6   2.0000     -10.016105      -272.5521
   7   2.0000      -0.983763       -26.7695
   8   2.0000      -0.788963       -21.4688
   9   2.0000      -0.707337       -19.2476
  10   2.0000      -0.697098       -18.9690
  11   2.0000      -0.576386       -15.6843
  12   2.0000      -0.568552       -15.4711
  13   2.0000      -0.522013       -14.2047
  14   2.0000      -0.461320       -12.5531
  15   2.0000      -0.450752       -12.2656
  16   2.0000      -0.414059       -11.2671
  17   2.0000      -0.409321       -11.1382
  18   2.0000      -0.370178       -10.0731
  19   2.0000      -0.360160        -9.8004
  20   2.0000      -0.345402        -9.3989
  21   2.0000      -0.343641        -9.3510
  22   2.0000      -0.319736        -8.7005
  23   2.0000      -0.303069        -8.2469
  24   2.0000      -0.287992        -7.8367
  25   2.0000      -0.276832        -7.5330
  26   2.0000      -0.260817        -7.0972
  27   2.0000      -0.229793        -6.2530
  28   0.0000       0.059785         1.6268
  29   0.0000       0.105728         2.8770
  30   0.0000       0.114615         3.1188
  31   0.0000       0.116381         3.1669
  32   0.0000       0.124547         3.3891

MULLIKEN ATOMIC CHARGES
-----------------------
   0 C :   -0.312830
   1 C :   -0.285937
   2 C :   -0.314873
   3 C :    0.049161
   4 C :   -0.344068
   5 C :   -0.254881
   6 O :   -0.430528
   7 H :    0.147029
   8 H :    0.139931
   9 H :    0.161622
  10 H :    0.144475
  11 H :    0.150288
  12 H :    0.141300
  13 H :    0.136117
  14 H :    0.140324
  15 H :    0.147088
  16 H :    0.153475
  17 H :    0.146179
  18 H :    0.286126
Sum of atomic charges:    0.0000000

LOEWDIN ATOMIC CHARGES
----------------------
   0 C :   -0.301759
   1 C :   -0.298847
   2 C :   -0.270188
   3 C :    0.055771
   4 C :   -0.287164
   5 C :   -0.300836
   6 O :   -0.615602
   7 H :    0.154777
   8 H :    0.152573
   9 H :    0.165898
  10 H :    0.153345
  11 H :    0.167233
  12 H :    0.160722
  13 H :    0.162317
  14 H :    0.155626
  15 H :    0.162145
  16 H :    0.162417
  17 H :    0.153171
  18 H :    0.268402

  Mayer bond orders larger than 0.100000
B(  0-C ,  1-C ) :   0.9236 B(  0-C ,  5-C ) :   0.9190 B(  0-C ,  7-H ) :   0.9431
B(  0-C ,  8-H ) :   0.9987 B(  1-C ,  2-C ) :   0.9238 B(  1-C ,  9-H ) :   0.9832
B(  1-C , 10-H ) :   0.9408 B(  2-C ,  3-C ) :   0.9777 B(  2-C , 11-H ) :   0.9349
B(  2-C , 12-H ) :   0.9880 B(  3-C ,  4-C ) :   0.9471 B(  3-C ,  6-O ) :   0.8851
B(  3-C , 13-H ) :   0.9306 B(  4-C ,  5-C ) :   0.9083 B(  4-C , 14-H ) :   0.9509
B(  4-C , 15-H ) :   0.9858 B(  5-C , 16-H ) :   0.9859 B(  5-C , 17-H ) :   0.9427
B(  6-O , 18-H ) :   0.9026

Dispersion correction           -0.005411329
FINAL SINGLE POINT ENERGY      -311.007636050820

DIPOLE MOMENT
-------------

Method             : SCF
Type of density    : Electron Density
Multiplicity       :   1
Irrep              :   0
Energy             :  -311.0112958664433336 Eh
Relativity type    :
Basis              : AO
                                X                 Y                 Z
Electronic contribution:      3.130373698      -0.245657173       1.004333942
Nuclear contribution   :     -3.108171672       0.670730700      -1.328681439
                        -----------------------------------------
Total Dipole Moment    :      0.022202027       0.425073526      -0.324347498
                        -----------------------------------------
Magnitude (a.u.)       :      0.535146458
Magnitude (Debye)      :      1.360234198

Rotational constants in cm-1:             0.120179             0.088840             0.067008
Rotational constants in MHz :          3602.862971          2663.355708          2008.841421

                             ****ORCA TERMINATED NORMALLY****
TOTAL RUN TIME: 0 days 0 hours 0 minutes 54 seconds 315 msec
