                         Program Version 6.0.0  -   RELEASE  -
|  1> ! r2scan-3c def2/J RI DEFGRID2 scfconv6 printgap
|  2> %output
|  3>     printlevel normal
|  4> end
|  5> %cpcm
|  6>     smd true
|  7>     smdsolvent "water"
|  8> end
|  9> * xyz 0 1
| 10> C -1.7757301214 -0.0116591522 0.1864424245
| 11> C -0.9074002721 -1.2530530817 0.3645503593
| 12> C 0.2408577159 -1.2537545098 -0.640472145
| 13> C 1.092752133 0.0107433276 -0.504910457
| 14> C 0.215539059 1.2606666468 -0.6450070227
| 15> C -0.927496772 1.2430784876 0.3663135216
| 16> O 1.7580433448 -0.0420937378 0.7453983848
| 17> H -2.5884465764 -0.019100894 0.9149196673
| 18> H -2.2169474585 -0.0148328671 -0.8131492606
| 19> H -0.4886624054 -1.2616725498 1.3724926844
| 20> H -1.5061798936 -2.1562800443 0.2353929337
| 21> H 0.8791883209 -2.1228612226 -0.4744901063
| 22> H -0.1515014867 -1.2998163343 -1.6574840642
| 23> H 1.8483074972 0.0129317297 -1.3103365156
| 24> H 0.8255391523 2.1562183094 -0.5054009329
| 25> H -0.18781408 1.2829077677 -1.6587482164
| 26> H -0.5122721815 1.2496751085 1.3761623407
| 27> H -1.5413032122 2.1372138135 0.2436217135
| 28> H 2.2992615488 0.751221598 0.8489781172
| 29> *
| 30>
| 31>                          ****END OF INPUT****

CARTESIAN COORDINATES (ANGSTROEM)
---------------------------------
  C     -1.775730   -0.011659    0.186442
  C     -0.907400   -1.253053    0.364550
  C      0.240858   -1.253755   -0.640472
  C      1.092752    0.010743   -0.504910
  C      0.215539    1.260667   -0.645007
  C     -0.927497    1.243078    0.366314
  O      1.758043   -0.042094    0.745398
  H     -2.588447   -0.019101    0.914920
  H     -2.216947   -0.014833   -0.813149
  H     -0.488662   -1.261673    1.372493
  H     -1.506180   -2.156280    0.235393
  H      0.879188   -2.122861   -0.474490
  H     -0.151501   -1.299816   -1.657484
  H      1.848307    0.012932   -1.310337
  H      0.825539    2.156218   -0.505401
  H     -0.187814    1.282908   -1.658748
  H     -0.512272    1.249675    1.376162
  H     -1.541303    2.137214    0.243622
  H      2.299262    0.751222    0.848978

 Total Charge           Charge          ....    0
 Multiplicity           Mult            ....    1
 Number of Electrons    NEL             ....   56
 Basis Dimension        Dim             ....  198

ORBITAL ENERGIES
----------------

  NO   OCC          E(Eh)            E(eV)
   0   2.0000     -18.947543      -515.5889
   1   2.0000     -10.071840      -274.0687
   2   2.0000     -10.015149      -272.5261
   3   2.0000     -10.014248      -272.5015
   4   2.0000     -10.013414      -272.4789
   5   2.0000     -10.013388      -272.4781
   6   2.0000     -10.012729      -272.4602
   7   2.0000      -0.985120       -26.8065
   8   2.0000      -0.783911       -21.3313
   9   2.0000      -0.702027       -19.1031
  10   2.0000      -0.691808       -18.8250
  11   2.0000      -0.571138       -15.5414
  12   2.0000      -0.563721       -15.3396
  13   2.0000      -0.518323       -14.1043
  14   2.0000      -0.457029       -12.4364
  15   2.0000      -0.445909       -12.1338
  16   2.0000      -0.408084       -11.1045
  17   2.0000      -0.405653       -11.0384
  18   2.0000      -0.367748       -10.0069
  19   2.0000      -0.355845        -9.6830
  20   2.0000      -0.339418        -9.2360
  21   2.0000      -0.338559        -9.2127
  22   2.0000      -0.317790        -8.6475
  23   2.0000      -0.300058        -8.1650
  24   2.0000      -0.283969        -7.7272
  25   2.0000      -0.274010        -7.4562
  26   2.0000      -0.255900        -6.9634
  27   2.0000      -0.231135        -6.2895
  28   0.0000       0.074823         2.0360
  29   0.0000       0.116239         3.1630
  30   0.0000       0.121579         3.3083
  31   0.0000       0.123275         3.3545
  32   0.0000       0.129245         3.5169

MULLIKEN ATOMIC CHARGES
-----------------------
   0 C :   -0.317499
   1 C :   -0.299732
   2 C :   -0.337423
   3 C :    0.061967
   4 C :   -0.347178
   5 C :   -0.291452
   6 O :   -0.514474
   7 H :    0.154347
   8 H :    0.151431
   9 H :    0.153807
  10 H :    0.155136
  11 H :    0.155425
  12 H :    0.160048
  13 H :    0.146883
  14 H :    0.158648
  15 H :    0.160318
  16 H :    0.152855
  17 H :    0.156030
  18 H :    0.340865
Sum of atomic charges:    0.0000000

LOEWDIN ATOMIC CHARGES
----------------------
   0 C :   -0.304821
   1 C :   -0.303196
   2 C :   -0.275296
   3 C :    0.057665
   4 C :   -0.285555
   5 C :   -0.304301
   6 O :   -0.649906
   7 H :    0.155916
   8 H :    0.157053
   9 H :    0.160579
  10 H :    0.156462
  11 H :    0.165579
  12 H :    0.167961
  13 H :    0.168839
  14 H :    0.163027
  15 H :    0.167336
  16 H :    0.159493
  17 H :    0.156456
  18 H :    0.286710

  Mayer bond orders larger than 0.100000
B(  0-C ,  1-C ) :   0.9194 B(  0-C ,  5-C ) :   0.9130 B(  0-C ,  7-H ) :   0.9440
B(  0-C ,  8-H ) :   0.9930 B(  1-C ,  2-C ) :   0.9137 B(  1-C ,  9-H ) :   0.9894
B(  1-C , 10-H ) :   0.9392 B(  2-C ,  3-C ) :   0.9677 B(  2-C , 11-H ) :   0.9422
B(  2-C , 12-H ) :   0.9811 B(  3-C ,  4-C ) :   0.9533 B(  3-C ,  6-O ) :   0.8747
B(  3-C , 13-H ) :   0.9268 B(  4-C ,  5-C ) :   0.9043 B(  4-C , 14-H ) :   0.9459
B(  4-C , 15-H ) :   0.9826 B(  5-C , 16-H ) :   0.9923 B(  5-C , 17-H ) :   0.9401
B(  6-O , 18-H ) :   0.8767

Dispersion correction           -0.005411329
FINAL SINGLE POINT ENERGY      -311.014239338769

DIPOLE MOMENT
-------------

Method             : SCF
Type of density    : Electron Density
Multiplicity       :   1
Irrep              :   0
Energy             :  -311.0178991543920688 Eh
Relativity type    :
Basis              : AO
                                X                 Y                 Z
Electronic contribution:      3.124882898      -0.025209901       0.769196621
Nuclear contribution   :     -3.108171672       0.670730700      -1.328681439
                        -----------------------------------------
Total Dipole Moment    :      0.016711226       0.645520798      -0.559484819
                        -----------------------------------------
Magnitude (a.u.)       :      0.854400157
Magnitude (Debye)      :      2.171712611

Rotational constants in cm-1:             0.120179             0.088840             0.067008
Rotational constants in MHz :          3602.862971          2663.355708          2008.841421

                             ****ORCA TERMINATED NORMALLY****
TOTAL RUN TIME: 0 days 0 hours 1 minutes 0 seconds 741 msec
