                         Program Version 6.0.0  -   RELEASE  -
|  1> ! pbe def2-sv(p) def2/J RI DEFGRID1 loosescf d4 GCP(DFT/SV(P)) printgap
|  2> %output
|  3>     printlevel normal
|  4> end
|  5> * xyz 0 1
|  6> C -2.4684150491 -0.5573911916 -0.1530471906
|  7> C -1.0377862849 -0.2012721738 0.2648065792
|  8> H -0.9355122359 -0.2712168613 1.3574309584
|  9> C -0.6390827065 1.2200546516 -0.1808585753
| 10> H -1.1187298916 1.4519151241 -1.1436566036
| 11> C 0.8906210553 1.308674776 -0.4065725165
| 12> H 1.1884829284 2.3225054057 -0.1130767218
| 13> C 1.6226525448 0.277636208 0.4657333258
| 14> H 2.6986270891 0.3229122947 0.2388583338
| 15> C 1.1509340484 -1.1356173297 0.077541788
| 16> H 1.2641737483 -1.7802234235 0.9702884202
| 17> O -0.1954669624 -1.1688130903 -0.3469415645
| 18> O 1.9315476406 -1.5781704257 -0.9776848276
| 19> O 1.3869789877 0.4424666435 1.838248242
| 20> O 1.2434854801 1.1755285251 -1.7569549739
| 21> O -0.9665368034 2.1861965501 0.786191417
| 22> O -2.8994961502 -1.7750772709 0.396007672
| 23> H -2.5115545176 -0.5884710599 -1.2493380236
| 24> H -3.1630902259 0.198919179 0.214445361
| 25> H 1.6541585699 -2.4684683333 -1.2459662515
| 26> H 1.6177004571 1.3443816097 2.1045150081
| 27> H 1.3085220353 0.2341775272 -1.9862410012
| 28> H -1.9249462219 2.2312035925 0.9052913456
| 29> H -2.2900415049 -2.471370397 0.1122704015
| 30> *
| 31>
| 32>                          ****END OF INPUT****

CARTESIAN COORDINATES (ANGSTROEM)
---------------------------------
  C     -2.468415   -0.557391   -0.153047
  C     -1.037786   -0.201272    0.264807
  H     -0.935512   -0.271217    1.357431
  C     -0.639083    1.220055   -0.180859
  H     -1.118730    1.451915   -1.143657
  C      0.890621    1.308675   -0.406573
  H      1.188483    2.322505   -0.113077
  C      1.622653    0.277636    0.465733
  H      2.698627    0.322912    0.238858
  C      1.150934   -1.135617    0.077542
  H      1.264174   -1.780223    0.970288
  O     -0.195467   -1.168813   -0.346942
  O      1.931548   -1.578170   -0.977685
  O      1.386979    0.442467    1.838248
  O      1.243485    1.175529   -1.756955
  O     -0.966537    2.186197    0.786191
  O     -2.899496   -1.775077    0.396008
  H     -2.511555   -0.588471   -1.249338
  H     -3.163090    0.198919    0.214445
  H      1.654159   -2.468468   -1.245966
  H      1.617700    1.344382    2.104515
  H      1.308522    0.234178   -1.986241
  H     -1.924946    2.231204    0.905291
  H     -2.290042   -2.471370    0.112270

 Total Charge           Charge          ....    0
 Multiplicity           Mult            ....    1
 Number of Electrons    NEL             ....   96
 Basis Dimension        Dim             ....  192

ORBITAL ENERGIES
----------------

  NO   OCC          E(Eh)            E(eV)
   0   2.0000     -18.782990      -511.1111
   1   2.0000     -18.777217      -510.9540
   2   2.0000     -18.761698      -510.5318
   3   2.0000     -18.756399      -510.3876
   4   2.0000     -18.745331      -510.0864
   5   2.0000     -18.741221      -509.9746
   6   2.0000      -9.996768      -272.0259
   7   2.0000      -9.946458      -270.6569
   8   2.0000      -9.939833      -270.4766
   9   2.0000      -9.938921      -270.4518
  10   2.0000      -9.938135      -270.4304
  11   2.0000      -9.936893      -270.3966
  12   2.0000      -0.995605       -27.0918
  13   2.0000      -0.943775       -25.6814
  14   2.0000      -0.935359       -25.4524
  15   2.0000      -0.930085       -25.3089
  16   2.0000      -0.918194       -24.9853
  17   2.0000      -0.916446       -24.9378
  18   2.0000      -0.699175       -19.0255
  19   2.0000      -0.691134       -18.8067
  20   2.0000      -0.631249       -17.1771
  21   2.0000      -0.577996       -15.7281
  22   2.0000      -0.572776       -15.5860
  23   2.0000      -0.525399       -14.2968
  24   2.0000      -0.508249       -13.8302
  25   2.0000      -0.494288       -13.4503
  26   2.0000      -0.485562       -13.2128
  27   2.0000      -0.463117       -12.6021
  28   2.0000      -0.443055       -12.0561
  29   2.0000      -0.440088       -11.9754
  30   2.0000      -0.418466       -11.3870
  31   2.0000      -0.392834       -10.6896
  32   2.0000      -0.384782       -10.4705
  33   2.0000      -0.370925       -10.0934
  34   2.0000      -0.361213        -9.8291
  35   2.0000      -0.352988        -9.6053
  36   2.0000      -0.336553        -9.1581
  37   2.0000      -0.326774        -8.8920
  38   2.0000      -0.309581        -8.4241
  39   2.0000      -0.298217        -8.1149
  40   2.0000      -0.286118        -7.7857
  41   2.0000      -0.269046        -7.3211
  42   2.0000      -0.261927        -7.1274
  43   2.0000      -0.241730        -6.5778
  44   2.0000      -0.234776        -6.3886
  45   2.0000      -0.222991        -6.0679
  46   2.0000      -0.213182        -5.8010
  47   2.0000      -0.201574        -5.4851
  48   0.0000       0.005638         0.1534
  49   0.0000       0.018567         0.5052
  50   0.0000       0.027754         0.7552
  51   0.0000       0.043424         1.1816
  52   0.0000       0.065862         1.7922

MULLIKEN ATOMIC CHARGES
-----------------------
   0 C :    0.081322
   1 C :   -0.023227
   2 H :    0.080741
   3 C :    0.089066
   4 H :    0.055588
   5 C :    0.044294
   6 H :    0.068309
   7 C :   -0.004296
   8 H :    0.088213
   9 C :    0.168396
  10 H :    0.073873
  11 O :   -0.333817
  12 O :   -0.385255
  13 O :   -0.403928
  14 O :   -0.415352
  15 O :   -0.415722
  16 O :   -0.433196
  17 H :    0.074197
  18 H :    0.070463
  19 H :    0.312713
  20 H :    0.311639
  21 H :    0.297644
  22 H :    0.302024
  23 H :    0.296312
Sum of atomic charges:    0.0000000

LOEWDIN ATOMIC CHARGES
----------------------
   0 C :   -0.126429
   1 C :   -0.087400
   2 H :    0.112707
   3 C :   -0.072687
   4 H :    0.103771
   5 C :   -0.065687
   6 H :    0.114436
   7 C :   -0.089942
   8 H :    0.112769
   9 C :    0.002400
  10 H :    0.094712
  11 O :   -0.169276
  12 O :   -0.288950
  13 O :   -0.306290
  14 O :   -0.315303
  15 O :   -0.317097
  16 O :   -0.335707
  17 H :    0.101019
  18 H :    0.109021
  19 H :    0.293882
  20 H :    0.292679
  21 H :    0.271407
  22 H :    0.285045
  23 H :    0.280922

  Mayer bond orders larger than 0.100000
B(  0-C ,  1-C ) :   1.0378 B(  0-C , 16-O ) :   1.0799 B(  0-C , 17-H ) :   0.9029
B(  0-C , 18-H ) :   0.9206 B(  1-C ,  2-H ) :   0.8642 B(  1-C ,  3-C ) :   0.9983
B(  1-C , 11-O ) :   0.9889 B(  3-C ,  4-H ) :   0.8854 B(  3-C ,  5-C ) :   0.9529
B(  3-C , 15-O ) :   1.0644 B(  5-C ,  6-H ) :   0.8879 B(  5-C ,  7-C ) :   1.0257
B(  5-C , 14-O ) :   1.0882 B(  7-C ,  8-H ) :   0.8965 B(  7-C ,  9-C ) :   0.9617
B(  7-C , 13-O ) :   1.0690 B(  9-C , 10-H ) :   0.9047 B(  9-C , 11-O ) :   1.0289
B(  9-C , 12-O ) :   1.1281 B( 12-O , 19-H ) :   0.8380 B( 13-O , 20-H ) :   0.8405
B( 14-O , 21-H ) :   0.8207 B( 15-O , 22-H ) :   0.8448 B( 16-O , 23-H ) :   0.8464

Dispersion correction           -0.024711494
FINAL SINGLE POINT ENERGY      -685.691753458549

DIPOLE MOMENT
-------------

Method             : SCF
Type of density    : Electron Density
Multiplicity       :   1
Irrep              :   0
Energy             :  -685.8226797085303588 Eh
Relativity type    :
Basis              : AO
                                X                 Y                 Z
Electronic contribution:      2.110535398      -0.907921008      -0.130322707
Nuclear contribution   :     -2.068014267       0.483090911       0.153724680
                        -----------------------------------------
Total Dipole Moment    :      0.042521131      -0.424830097       0.023401973
                        -----------------------------------------
Magnitude (a.u.)       :      0.427593627
Magnitude (Debye)      :      1.086856626

Rotational constants in cm-1:             0.038299             0.027139             0.021773
Rotational constants in MHz :          1148.174599           813.595553           652.727218

                             ****ORCA TERMINATED NORMALLY****
TOTAL RUN TIME: 0 days 0 hours 0 minutes 11 seconds 761 msec
