                         Program Version 6.0.0  -   RELEASE  -
|  1> ! pbe def2-sv(p) def2/J RI DEFGRID1 loosescf d4 GCP(DFT/SV(P)) printgap
|  2> %output
|  3>     printlevel normal
|  4> end
|  5> * xyz 0 1
|  6> C -3.4268450295 -0.1218726031 0.0003692911
|  7> C -2.9891221013 1.1945318745 0.0002621646
|  8> C -1.6362326664 1.4920942724 -7.43446e-05
|  9> C -0.726774391 0.4463675623 -0.0002987218
| 10> C -1.1707689124 -0.8854978374 -0.0002276255
| 11> C -2.5197732306 -1.1729449469 0.0001112624
| 12> C -1.10066e-05 -1.8243270764 -0.0003368674
| 13> C 1.1707558688 -0.88551572 -0.0001211756
| 14> C 0.726782735 0.4463768826 -0.0003763276
| 15> C 1.6362478329 1.4920837216 -0.0003913859
| 16> C 2.9891535377 1.1945161944 0.0001446519
| 17> C 3.4268292379 -0.1218820229 0.0005148405
| 18> C 2.5197504438 -1.172952416 0.000253157
| 19> H -4.486370438 -0.3307362377 0.0008700719
| 20> H -3.7130210011 1.9961163357 0.0006481274
| 21> H -1.298771165 2.5178039179 -7.23524e-05
| 22> H -2.8679602905 -2.1954291355 0.0002139459
| 23> H -8.88382e-05 -2.4704440506 0.8798995014
| 24> H 5.01432e-05 -2.4699302824 -0.880958891
| 25> H 1.2988788599 2.5178431832 -0.0002413199
| 26> H 3.7131366389 1.9960267325 0.0003601803
| 27> H 4.4863250646 -0.3308130025 0.0009232168
| 28> H 2.8679125667 -2.1954393207 0.000396266
| 29> *
| 30>
| 31>                          ****END OF INPUT****

CARTESIAN COORDINATES (ANGSTROEM)
---------------------------------
  C     -3.426845   -0.121873    0.000369
  C     -2.989122    1.194532    0.000262
  C     -1.636233    1.492094   -0.000074
  C     -0.726774    0.446368   -0.000299
  C     -1.170769   -0.885498   -0.000228
  C     -2.519773   -1.172945    0.000111
  C     -0.000011   -1.824327   -0.000337
  C      1.170756   -0.885516   -0.000121
  C      0.726783    0.446377   -0.000376
  C      1.636248    1.492084   -0.000391
  C      2.989154    1.194516    0.000145
  C      3.426829   -0.121882    0.000515
  C      2.519750   -1.172952    0.000253
  H     -4.486370   -0.330736    0.000870
  H     -3.713021    1.996116    0.000648
  H     -1.298771    2.517804   -0.000072
  H     -2.867960   -2.195429    0.000214
  H     -0.000089   -2.470444    0.879900
  H      0.000050   -2.469930   -0.880959
  H      1.298879    2.517843   -0.000241
  H      3.713137    1.996027    0.000360
  H      4.486325   -0.330813    0.000923
  H      2.867913   -2.195439    0.000396

 Total Charge           Charge          ....    0
 Multiplicity           Mult            ....    1
 Number of Electrons    NEL             ....   88
 Basis Dimension        Dim             ....  202

ORBITAL ENERGIES
----------------

  NO   OCC          E(Eh)            E(eV)
   0   2.0000      -9.899849      -269.3886
   1   2.0000      -9.899812      -269.3876
   2   2.0000      -9.899464      -269.3781
   3   2.0000      -9.898980      -269.3649
   4   2.0000      -9.898921      -269.3633
   5   2.0000      -9.892660      -269.1930
   6   2.0000      -9.892524      -269.1893
   7   2.0000      -9.891086      -269.1501
   8   2.0000      -9.891071      -269.1497
   9   2.0000      -9.890507      -269.1344
  10   2.0000      -9.890504      -269.1343
  11   2.0000      -9.889911      -269.1181
  12   2.0000      -9.889906      -269.1180
  13   2.0000      -0.809276       -22.0215
  14   2.0000      -0.766006       -20.8441
  15   2.0000      -0.724599       -19.7173
  16   2.0000      -0.690664       -18.7939
  17   2.0000      -0.667424       -18.1615
  18   2.0000      -0.639820       -17.4104
  19   2.0000      -0.618749       -16.8370
  20   2.0000      -0.570717       -15.5300
  21   2.0000      -0.525303       -14.2942
  22   2.0000      -0.521210       -14.1828
  23   2.0000      -0.514798       -14.0084
  24   2.0000      -0.467468       -12.7204
  25   2.0000      -0.441463       -12.0128
  26   2.0000      -0.428515       -11.6605
  27   2.0000      -0.407958       -11.1011
  28   2.0000      -0.401677       -10.9302
  29   2.0000      -0.389246       -10.5919
  30   2.0000      -0.381882       -10.3915
  31   2.0000      -0.374997       -10.2042
  32   2.0000      -0.361978        -9.8499
  33   2.0000      -0.355852        -9.6832
  34   2.0000      -0.332578        -9.0499
  35   2.0000      -0.322155        -8.7663
  36   2.0000      -0.310102        -8.4383
  37   2.0000      -0.309877        -8.4322
  38   2.0000      -0.291330        -7.9275
  39   2.0000      -0.290987        -7.9182
  40   2.0000      -0.258137        -7.0243
  41   2.0000      -0.229120        -6.2347
  42   2.0000      -0.221139        -6.0175
  43   2.0000      -0.197333        -5.3697
  44   0.0000      -0.059714        -1.6249
  45   0.0000      -0.044080        -1.1995
  46   0.0000      -0.024109        -0.6560
  47   0.0000       0.005899         0.1605
  48   0.0000       0.048394         1.3169

MULLIKEN ATOMIC CHARGES
-----------------------
   0 C :   -0.044549
   1 C :   -0.040110
   2 C :   -0.155888
   3 C :    0.121980
   4 C :   -0.030545
   5 C :   -0.141742
   6 C :    0.031234
   7 C :   -0.030532
   8 C :    0.122015
   9 C :   -0.155920
  10 C :   -0.040111
  11 C :   -0.044549
  12 C :   -0.141748
  13 H :    0.050870
  14 H :    0.050012
  15 H :    0.035692
  16 H :    0.030701
  17 H :    0.107947
  18 H :    0.107972
  19 H :    0.035704
  20 H :    0.050013
  21 H :    0.050859
  22 H :    0.030694
Sum of atomic charges:   -0.0000000

LOEWDIN ATOMIC CHARGES
----------------------
   0 C :   -0.124386
   1 C :   -0.122612
   2 C :   -0.119093
   3 C :   -0.025129
   4 C :   -0.025551
   5 C :   -0.123016
   6 C :   -0.195933
   7 C :   -0.025549
   8 C :   -0.025127
   9 C :   -0.119091
  10 C :   -0.122613
  11 C :   -0.124389
  12 C :   -0.123017
  13 H :    0.122912
  14 H :    0.123107
  15 H :    0.123113
  16 H :    0.122398
  17 H :    0.146210
  18 H :    0.146236
  19 H :    0.123113
  20 H :    0.123108
  21 H :    0.122911
  22 H :    0.122397

  Mayer bond orders larger than 0.100000
B(  0-C ,  1-C ) :   1.3769 B(  0-C ,  5-C ) :   1.3424 B(  0-C , 13-H ) :   0.9602
B(  1-C ,  2-C ) :   1.3585 B(  1-C , 14-H ) :   0.9594 B(  2-C ,  3-C ) :   1.3475
B(  2-C , 15-H ) :   0.9601 B(  3-C ,  4-C ) :   1.3662 B(  3-C ,  8-C ) :   1.0205
B(  4-C ,  5-C ) :   1.3859 B(  4-C ,  6-C ) :   1.0745 B(  5-C , 16-H ) :   0.9716
B(  6-C ,  7-C ) :   1.0745 B(  6-C , 17-H ) :   0.8521 B(  6-C , 18-H ) :   0.8520
B(  7-C ,  8-C ) :   1.3662 B(  7-C , 12-C ) :   1.3859 B(  8-C ,  9-C ) :   1.3474
B(  9-C , 10-C ) :   1.3584 B(  9-C , 19-H ) :   0.9601 B( 10-C , 11-C ) :   1.3769
B( 10-C , 20-H ) :   0.9594 B( 11-C , 12-C ) :   1.3424 B( 11-C , 21-H ) :   0.9602
B( 12-C , 22-H ) :   0.9716

Dispersion correction           -0.030667663
FINAL SINGLE POINT ENERGY      -500.339739157648

DIPOLE MOMENT
-------------

Method             : SCF
Type of density    : Electron Density
Multiplicity       :   1
Irrep              :   0
Energy             :  -500.3922792764492442 Eh
Relativity type    :
Basis              : AO
                                X                 Y                 Z
Electronic contribution:     -0.000071207       0.688096220      -0.001648990
Nuclear contribution   :      0.000085881      -0.905336540       0.001912692
                        -----------------------------------------
Total Dipole Moment    :      0.000014674      -0.217240321       0.000263703
                        -----------------------------------------
Magnitude (a.u.)       :      0.217240481
Magnitude (Debye)      :      0.552181421

Rotational constants in cm-1:             0.073494             0.019854             0.015676
Rotational constants in MHz :          2203.284790           595.196733           469.968947

                             ****ORCA TERMINATED NORMALLY****
TOTAL RUN TIME: 0 days 0 hours 0 minutes 13 seconds 563 msec
