                         Program Version 6.0.0  -   RELEASE  -
|  1> ! pbe def2-sv(p) def2/J RI DEFGRID1 loosescf d4 GCP(DFT/SV(P)) printgap
|  2> %output
|  3>     printlevel normal
|  4> end
|  5> * xyz 0 1
|  6> C -3.5108247378 0.48685294 -0.2247234969
|  7> O -2.1202676936 0.561591869 -0.5525020194
|  8> C -1.2986804185 -0.284911698 0.0600665417
|  9> O -1.6799172277 -1.1125188256 0.860835882
| 10> C 0.137241044 -0.0404218039 -0.3356865669
| 11> C 0.9669719431 -1.3292923793 -0.2516640384
| 12> C 2.4223955888 -1.0436550368 0.1308858888
| 13> C 2.8752129514 0.2762580092 -0.4835246914
| 14> C 2.1092301911 1.4472205992 0.1449630587
| 15> C 0.7117116545 1.0243728665 0.6115602127
| 16> H -3.6487943541 0.621394677 0.8486745179
| 17> H -3.9084220769 -0.4864773305 -0.5141010552
| 18> H -3.9868729595 1.2853571576 -0.7846976862
| 19> H 0.1332865779 0.3696088886 -1.3483517325
| 20> H 0.5096602562 -1.990007421 0.488207607
| 21> H 0.9303299845 -1.8369973615 -1.2167394716
| 22> H 2.524996191 -0.9879032589 1.2152755913
| 23> H 3.0541546262 -1.8608947755 -0.2180416772
| 24> H 3.9466174188 0.4135958589 -0.3353773701
| 25> H 2.6927219127 0.2420341103 -1.5588033307
| 26> H 2.658753281 1.8337414905 1.0040797837
| 27> H 2.0232265058 2.2550083948 -0.5826329127
| 28> H 0.7519651157 0.6026258173 1.6171213445
| 29> H 0.0503292909 1.8918437378 0.6394291083
| 30> *
| 31>
| 32>                          ****END OF INPUT****

CARTESIAN COORDINATES (ANGSTROEM)
---------------------------------
  C     -3.510825    0.486853   -0.224723
  O     -2.120268    0.561592   -0.552502
  C     -1.298680   -0.284912    0.060067
  O     -1.679917   -1.112519    0.860836
  C      0.137241   -0.040422   -0.335687
  C      0.966972   -1.329292   -0.251664
  C      2.422396   -1.043655    0.130886
  C      2.875213    0.276258   -0.483525
  C      2.109230    1.447221    0.144963
  C      0.711712    1.024373    0.611560
  H     -3.648794    0.621395    0.848675
  H     -3.908422   -0.486477   -0.514101
  H     -3.986873    1.285357   -0.784698
  H      0.133287    0.369609   -1.348352
  H      0.509660   -1.990007    0.488208
  H      0.930330   -1.836997   -1.216739
  H      2.524996   -0.987903    1.215276
  H      3.054155   -1.860895   -0.218042
  H      3.946617    0.413596   -0.335377
  H      2.692722    0.242034   -1.558803
  H      2.658753    1.833741    1.004080
  H      2.023227    2.255008   -0.582633
  H      0.751965    0.602626    1.617121
  H      0.050329    1.891844    0.639429

 Total Charge           Charge          ....    0
 Multiplicity           Mult            ....    1
 Number of Electrons    NEL             ....   78
 Basis Dimension        Dim             ....  168

ORBITAL ENERGIES
----------------

  NO   OCC          E(Eh)            E(eV)
   0   2.0000     -18.796399      -511.4760
   1   2.0000     -18.733577      -509.7665
   2   2.0000     -10.000832      -272.1365
   3   2.0000      -9.940226      -270.4873
   4   2.0000      -9.901533      -269.4344
   5   2.0000      -9.890923      -269.1457
   6   2.0000      -9.885527      -268.9989
   7   2.0000      -9.882757      -268.9235
   8   2.0000      -9.881574      -268.8913
   9   2.0000      -9.880607      -268.8650
  10   2.0000      -1.003690       -27.3118
  11   2.0000      -0.908242       -24.7145
  12   2.0000      -0.761598       -20.7241
  13   2.0000      -0.692573       -18.8459
  14   2.0000      -0.665564       -18.1109
  15   2.0000      -0.650008       -17.6876
  16   2.0000      -0.564292       -15.3552
  17   2.0000      -0.548078       -14.9140
  18   2.0000      -0.507350       -13.8057
  19   2.0000      -0.471663       -12.8346
  20   2.0000      -0.459831       -12.5126
  21   2.0000      -0.441933       -12.0256
  22   2.0000      -0.431647       -11.7457
  23   2.0000      -0.409727       -11.1492
  24   2.0000      -0.400107       -10.8875
  25   2.0000      -0.390205       -10.6180
  26   2.0000      -0.362677        -9.8689
  27   2.0000      -0.358422        -9.7532
  28   2.0000      -0.342484        -9.3195
  29   2.0000      -0.332082        -9.0364
  30   2.0000      -0.326308        -8.8793
  31   2.0000      -0.316279        -8.6064
  32   2.0000      -0.310780        -8.4567
  33   2.0000      -0.302738        -8.2379
  34   2.0000      -0.268999        -7.3198
  35   2.0000      -0.264789        -7.2053
  36   2.0000      -0.262948        -7.1552
  37   2.0000      -0.255679        -6.9574
  38   2.0000      -0.217501        -5.9185
  39   0.0000      -0.017487        -0.4759
  40   0.0000       0.029593         0.8053
  41   0.0000       0.048402         1.3171
  42   0.0000       0.056460         1.5364
  43   0.0000       0.072560         1.9745

MULLIKEN ATOMIC CHARGES
-----------------------
   0 C :   -0.105608
   1 O :   -0.240693
   2 C :    0.152520
   3 O :   -0.207078
   4 C :   -0.191989
   5 C :   -0.110491
   6 C :   -0.152671
   7 C :   -0.159178
   8 C :   -0.127837
   9 C :   -0.141241
  10 H :    0.118609
  11 H :    0.118704
  12 H :    0.120445
  13 H :    0.075877
  14 H :    0.100718
  15 H :    0.080745
  16 H :    0.078461
  17 H :    0.085207
  18 H :    0.085858
  19 H :    0.076671
  20 H :    0.083200
  21 H :    0.082079
  22 H :    0.085330
  23 H :    0.092362
Sum of atomic charges:    0.0000000

LOEWDIN ATOMIC CHARGES
----------------------
   0 C :   -0.203201
   1 O :   -0.073777
   2 C :    0.046302
   3 O :   -0.165582
   4 C :   -0.165158
   5 C :   -0.218566
   6 C :   -0.227666
   7 C :   -0.230630
   8 C :   -0.227233
   9 C :   -0.210566
  10 H :    0.119300
  11 H :    0.119685
  12 H :    0.120020
  13 H :    0.126998
  14 H :    0.126728
  15 H :    0.118205
  16 H :    0.115860
  17 H :    0.118984
  18 H :    0.118143
  19 H :    0.114084
  20 H :    0.118869
  21 H :    0.117418
  22 H :    0.121531
  23 H :    0.120251

  Mayer bond orders larger than 0.100000
B(  0-C ,  1-O ) :   0.9390 B(  0-C , 10-H ) :   0.9508 B(  0-C , 11-H ) :   0.9533
B(  0-C , 12-H ) :   0.9593 B(  1-O ,  2-C ) :   1.2189 B(  2-C ,  3-O ) :   2.0580
B(  2-C ,  4-C ) :   0.9446 B(  4-C ,  5-C ) :   1.0891 B(  4-C ,  9-C ) :   1.1411
B(  4-C , 13-H ) :   0.8706 B(  5-C ,  6-C ) :   1.1572 B(  5-C , 14-H ) :   0.8955
B(  5-C , 15-H ) :   0.9168 B(  6-C ,  7-C ) :   1.1822 B(  6-C , 16-H ) :   0.9061
B(  6-C , 17-H ) :   0.9197 B(  7-C ,  8-C ) :   1.1388 B(  7-C , 18-H ) :   0.9223
B(  7-C , 19-H ) :   0.9119 B(  8-C ,  9-C ) :   1.1531 B(  8-C , 20-H ) :   0.9174
B(  8-C , 21-H ) :   0.9198 B(  9-C , 22-H ) :   0.8957 B(  9-C , 23-H ) :   0.9176

Dispersion correction           -0.022625335
FINAL SINGLE POINT ENERGY      -462.698673815767

DIPOLE MOMENT
-------------

Method             : SCF
Type of density    : Electron Density
Multiplicity       :   1
Irrep              :   0
Energy             :  -462.7866256733803993 Eh
Relativity type    :
Basis              : AO
                                X                 Y                 Z
Electronic contribution:     -7.242787732      -1.632092842       0.312185865
Nuclear contribution   :      7.197520436       2.199273415      -0.695261166
                        -----------------------------------------
Total Dipole Moment    :     -0.045267296       0.567180573      -0.383075301
                        -----------------------------------------
Magnitude (a.u.)       :      0.685922457
Magnitude (Debye)      :      1.743476330

Rotational constants in cm-1:             0.099382             0.025432             0.022406
Rotational constants in MHz :          2979.393814           762.444019           671.710772

                             ****ORCA TERMINATED NORMALLY****
TOTAL RUN TIME: 0 days 0 hours 0 minutes 12 seconds 130 msec
