                         Program Version 6.0.0  -   RELEASE  -
|  1> ! wb97x-v def2-tzvp def2/J RIJCOSX DEFGRID2 scfconv7 GCP(DFT/TZ) printgap
|  2> %output
|  3>     printlevel normal
|  4> end
|  5> * xyz 0 1
|  6> C 1.8664485372799073 2.7602845513314125 1.0478641529613655
|  7> C 1.9658153393564608 1.6422128347203373 0.03599342911316379
|  8> C 2.8373098979928213 0.44930069071383955 0.49737405437009985
|  9> C 2.009768727990201 -0.7429974724753381 0.10975337512760576
| 10> C 2.300450294434427 -2.0970059890822017 0.04771761849917989
| 11> C 1.2901639919482863 -2.9919810091189043 -0.3200747858189666
| 12> C 0.006571386162786649 -2.5319402405928297 -0.6120453900445326
| 13> C -0.27626424736818855 -1.1723313085123928 -0.5529232548604661
| 14> C 0.7305013383799602 -0.2854846898717914 -0.1969577425663929
| 15> O 0.5847030815672332 1.0627935985573693 -0.10619194916730715
| 16> O -1.541068673646254 -0.7081403406963924 -0.9279937806632527
| 17> C -2.2922039584383658 -0.1154753894437651 0.07762130480989819
| 18> O -1.9639907432138133 -0.131547606787684 1.257506471890099
| 19> N -3.395116511677654 0.44891076137670266 -0.4273416596218624
| 20> C -4.412136432074643 1.011207496363009 0.45298298708744456
| 21> C 2.3667378093541522 2.1315452856280266 -1.3437703285801554
| 22> H 2.855132250725988 3.206241024962875 1.1921259259800787
| 23> H 1.1848435229470489 3.5409800435068703 0.697567013182042
| 24> H 1.5137194345001483 2.38055421149039 2.0108377840892695
| 25> H 3.8171489160405834 0.46739901809958395 0.012526101640762996
| 26> H 2.995305254523226 0.47353378437738586 1.5824020889937644
| 27> H 3.2973126689339534 -2.4581443713816267 0.280647312931482
| 28> H 1.5007917987994135 -4.0543992171028655 -0.37807586964161605
| 29> H -0.7840736996461743 -3.218770427901607 -0.8961800391264546
| 30> H -3.590195326483634 0.3341685828948511 -1.410071860422393
| 31> H -4.858851752866416 0.24161742350598595 1.0913628646933922
| 32> H -5.192749789183765 1.4529211212282107 -0.16686461340594774
| 33> H -3.9838036434998814 1.7919521309611115 1.0870145933964184
| 34> H 3.3651093196794104 2.576919864326342 -1.30022338253026
| 35> H 1.6627292684966906 2.8870867940010037 -1.7037416882165182
| 36> H 2.390326226194053 1.29904795212983 -2.05464557271108
| 37> *
| 38>
| 39>                          ****END OF INPUT****

CARTESIAN COORDINATES (ANGSTROEM)
---------------------------------
  C      1.866449    2.760285    1.047864
  C      1.965815    1.642213    0.035993
  C      2.837310    0.449301    0.497374
  C      2.009769   -0.742997    0.109753
  C      2.300450   -2.097006    0.047718
  C      1.290164   -2.991981   -0.320075
  C      0.006571   -2.531940   -0.612045
  C     -0.276264   -1.172331   -0.552923
  C      0.730501   -0.285485   -0.196958
  O      0.584703    1.062794   -0.106192
  O     -1.541069   -0.708140   -0.927994
  C     -2.292204   -0.115475    0.077621
  O     -1.963991   -0.131548    1.257506
  N     -3.395117    0.448911   -0.427342
  C     -4.412136    1.011207    0.452983
  C      2.366738    2.131545   -1.343770
  H      2.855132    3.206241    1.192126
  H      1.184844    3.540980    0.697567
  H      1.513719    2.380554    2.010838
  H      3.817149    0.467399    0.012526
  H      2.995305    0.473534    1.582402
  H      3.297313   -2.458144    0.280647
  H      1.500792   -4.054399   -0.378076
  H     -0.784074   -3.218770   -0.896180
  H     -3.590195    0.334169   -1.410072
  H     -4.858852    0.241617    1.091363
  H     -5.192750    1.452921   -0.166865
  H     -3.983804    1.791952    1.087015
  H      3.365109    2.576920   -1.300223
  H      1.662729    2.887087   -1.703742
  H      2.390326    1.299048   -2.054646

 Total Charge           Charge          ....    0
 Multiplicity           Mult            ....    1
 Number of Electrons    NEL             ....  118
 Basis Dimension        Dim             ....  586

ORBITAL ENERGIES
----------------

  NO   OCC          E(Eh)            E(eV)
   0   2.0000     -21.713317      -590.8494
   1   2.0000     -21.690665      -590.2330
   2   2.0000     -21.633014      -588.6642
   3   2.0000     -16.555658      -450.5024
   4   2.0000     -12.189032      -331.6804
   5   2.0000     -12.118260      -329.7546
   6   2.0000     -12.103056      -329.3409
   7   2.0000     -12.098128      -329.2068
   8   2.0000     -12.083242      -328.8017
   9   2.0000     -12.057465      -328.1003
  10   2.0000     -12.051776      -327.9455
  11   2.0000     -12.049008      -327.8702
  12   2.0000     -12.048812      -327.8648
  13   2.0000     -12.043278      -327.7142
  14   2.0000     -12.041278      -327.6598
  15   2.0000     -12.040723      -327.6447
  16   2.0000      -1.749100       -47.5954
  17   2.0000      -1.705526       -46.4097
  18   2.0000      -1.679562       -45.7032
  19   2.0000      -1.525831       -41.5200
  20   2.0000      -1.388736       -37.7894
  21   2.0000      -1.343376       -36.5551
  22   2.0000      -1.301247       -35.4087
  23   2.0000      -1.285485       -34.9798
  24   2.0000      -1.241742       -33.7895
  25   2.0000      -1.200115       -32.6568
  26   2.0000      -1.195598       -32.5339
  27   2.0000      -1.172560       -31.9070
  28   2.0000      -1.127817       -30.6895
  29   2.0000      -1.113684       -30.3049
  30   2.0000      -1.090969       -29.6868
  31   2.0000      -1.080297       -29.3964
  32   2.0000      -1.051740       -28.6193
  33   2.0000      -1.020737       -27.7757
  34   2.0000      -0.995207       -27.0810
  35   2.0000      -0.984326       -26.7849
  36   2.0000      -0.965287       -26.2668
  37   2.0000      -0.960756       -26.1435
  38   2.0000      -0.954386       -25.9702
  39   2.0000      -0.927293       -25.2329
  40   2.0000      -0.917753       -24.9733
  41   2.0000      -0.899719       -24.4826
  42   2.0000      -0.883725       -24.0474
  43   2.0000      -0.880400       -23.9569
  44   2.0000      -0.866004       -23.5652
  45   2.0000      -0.865955       -23.5638
  46   2.0000      -0.864856       -23.5339
  47   2.0000      -0.841188       -22.8899
  48   2.0000      -0.837403       -22.7869
  49   2.0000      -0.832427       -22.6515
  50   2.0000      -0.827884       -22.5279
  51   2.0000      -0.817794       -22.2533
  52   2.0000      -0.814322       -22.1588
  53   2.0000      -0.795846       -21.6561
  54   2.0000      -0.790188       -21.5021
  55   2.0000      -0.759822       -20.6758
  56   2.0000      -0.757118       -20.6022
  57   2.0000      -0.643863       -17.5204
  58   2.0000      -0.629721       -17.1356
  59   0.0000      -0.269395        -7.3306
  60   0.0000      -0.249536        -6.7902
  61   0.0000      -0.240738        -6.5508
  62   0.0000      -0.210480        -5.7275
  63   0.0000      -0.193650        -5.2695

MULLIKEN ATOMIC CHARGES
-----------------------
   0 C :   -0.365728
   1 C :    0.276126
   2 C :   -0.152834
   3 C :   -0.010612
   4 C :   -0.252531
   5 C :   -0.094334
   6 C :   -0.223173
   7 C :    0.138720
   8 C :    0.236247
   9 O :   -0.272424
  10 O :   -0.298865
  11 C :    0.413439
  12 O :   -0.390119
  13 N :   -0.312905
  14 C :   -0.223878
  15 C :   -0.386753
  16 H :    0.111281
  17 H :    0.121295
  18 H :    0.132323
  19 H :    0.116242
  20 H :    0.106183
  21 H :    0.114739
  22 H :    0.112884
  23 H :    0.118478
  24 H :    0.236382
  25 H :    0.128823
  26 H :    0.116628
  27 H :    0.138699
  28 H :    0.112252
  29 H :    0.119996
  30 H :    0.133419
Sum of atomic charges:   -0.0000000

LOEWDIN ATOMIC CHARGES
----------------------
   0 C :   -0.252807
   1 C :   -0.315092
   2 C :   -0.152610
   3 C :   -0.124483
   4 C :   -0.117576
   5 C :   -0.151967
   6 C :   -0.109741
   7 C :   -0.197070
   8 C :   -0.194263
   9 O :    0.265193
  10 O :    0.272516
  11 C :   -0.547711
  12 O :    0.057917
  13 N :    0.092315
  14 C :   -0.291855
  15 C :   -0.252394
  16 H :    0.126911
  17 H :    0.126554
  18 H :    0.128816
  19 H :    0.144540
  20 H :    0.146475
  21 H :    0.142752
  22 H :    0.140465
  23 H :    0.147954
  24 H :    0.185454
  25 H :    0.114903
  26 H :    0.113802
  27 H :    0.120474
  28 H :    0.124675
  29 H :    0.125647
  30 H :    0.130205

  Mayer bond orders larger than 0.100000
B(  0-C ,  1-C ) :   0.9514 B(  0-C , 16-H ) :   0.9708 B(  0-C , 17-H ) :   0.9806
B(  0-C , 18-H ) :   0.9821 B(  1-C ,  2-C ) :   0.9860 B(  1-C ,  9-O ) :   0.8535
B(  1-C , 15-C ) :   0.9895 B(  2-C ,  3-C ) :   0.9975 B(  2-C , 19-H ) :   0.9656
B(  2-C , 20-H ) :   0.9156 B(  3-C ,  4-C ) :   1.3671 B(  3-C ,  8-C ) :   1.2866
B(  4-C ,  5-C ) :   1.4360 B(  4-C , 21-H ) :   0.9753 B(  5-C ,  6-C ) :   1.4285
B(  5-C , 22-H ) :   0.9818 B(  6-C ,  7-C ) :   1.4644 B(  6-C , 23-H ) :   0.9710
B(  7-C ,  8-C ) :   1.3415 B(  7-C , 10-O ) :   0.9673 B(  8-C ,  9-O ) :   1.1721
B( 10-O , 11-C ) :   1.0733 B( 11-C , 12-O ) :   2.0155 B( 11-C , 13-N ) :   1.2717
B( 13-N , 14-C ) :   0.9325 B( 13-N , 24-H ) :   0.9157 B( 14-C , 25-H ) :   0.9795
B( 14-C , 26-H ) :   0.9701 B( 14-C , 27-H ) :   0.9758 B( 15-C , 28-H ) :   0.9703
B( 15-C , 29-H ) :   0.9787 B( 15-C , 30-H ) :   0.9720

FINAL SINGLE POINT ENERGY      -746.812368015770

DIPOLE MOMENT
-------------

Method             : SCF
Type of density    : Electron Density
Multiplicity       :   1
Irrep              :   0
Energy             :  -746.8325885842701837 Eh
Relativity type    :
Basis              : AO
                                X                 Y                 Z
Electronic contribution:     -4.870455420      -9.833939530      -1.472726032
Nuclear contribution   :      4.915149701      10.409196178       0.773946155
                        -----------------------------------------
Total Dipole Moment    :      0.044694281       0.575256648      -0.698779877
                        -----------------------------------------
Magnitude (a.u.)       :      0.906206989
Magnitude (Debye)      :      2.303395112

Rotational constants in cm-1:             0.024732             0.013901             0.010036
Rotational constants in MHz :           741.441748           416.748240           300.876011

                             ****ORCA TERMINATED NORMALLY****
TOTAL RUN TIME: 0 days 0 hours 11 minutes 21 seconds 228 msec
