                         Program Version 6.0.0  -   RELEASE  -
|  1> ! wb97x-v def2-tzvp def2/J RIJCOSX DEFGRID2 scfconv7 GCP(DFT/TZ) printgap
|  2> %output
|  3>     printlevel normal
|  4> end
|  5> %cpcm
|  6>     smd true
|  7>     smdsolvent "water"
|  8> end
|  9> * xyz 0 1
| 10> C 1.8664485372799073 2.7602845513314125 1.0478641529613655
| 11> C 1.9658153393564608 1.6422128347203373 0.03599342911316379
| 12> C 2.8373098979928213 0.44930069071383955 0.49737405437009985
| 13> C 2.009768727990201 -0.7429974724753381 0.10975337512760576
| 14> C 2.300450294434427 -2.0970059890822017 0.04771761849917989
| 15> C 1.2901639919482863 -2.9919810091189043 -0.3200747858189666
| 16> C 0.006571386162786649 -2.5319402405928297 -0.6120453900445326
| 17> C -0.27626424736818855 -1.1723313085123928 -0.5529232548604661
| 18> C 0.7305013383799602 -0.2854846898717914 -0.1969577425663929
| 19> O 0.5847030815672332 1.0627935985573693 -0.10619194916730715
| 20> O -1.541068673646254 -0.7081403406963924 -0.9279937806632527
| 21> C -2.2922039584383658 -0.1154753894437651 0.07762130480989819
| 22> O -1.9639907432138133 -0.131547606787684 1.257506471890099
| 23> N -3.395116511677654 0.44891076137670266 -0.4273416596218624
| 24> C -4.412136432074643 1.011207496363009 0.45298298708744456
| 25> C 2.3667378093541522 2.1315452856280266 -1.3437703285801554
| 26> H 2.855132250725988 3.206241024962875 1.1921259259800787
| 27> H 1.1848435229470489 3.5409800435068703 0.697567013182042
| 28> H 1.5137194345001483 2.38055421149039 2.0108377840892695
| 29> H 3.8171489160405834 0.46739901809958395 0.012526101640762996
| 30> H 2.995305254523226 0.47353378437738586 1.5824020889937644
| 31> H 3.2973126689339534 -2.4581443713816267 0.280647312931482
| 32> H 1.5007917987994135 -4.0543992171028655 -0.37807586964161605
| 33> H -0.7840736996461743 -3.218770427901607 -0.8961800391264546
| 34> H -3.590195326483634 0.3341685828948511 -1.410071860422393
| 35> H -4.858851752866416 0.24161742350598595 1.0913628646933922
| 36> H -5.192749789183765 1.4529211212282107 -0.16686461340594774
| 37> H -3.9838036434998814 1.7919521309611115 1.0870145933964184
| 38> H 3.3651093196794104 2.576919864326342 -1.30022338253026
| 39> H 1.6627292684966906 2.8870867940010037 -1.7037416882165182
| 40> H 2.390326226194053 1.29904795212983 -2.05464557271108
| 41> *
| 42>
| 43>                          ****END OF INPUT****

CARTESIAN COORDINATES (ANGSTROEM)
---------------------------------
  C      1.866449    2.760285    1.047864
  C      1.965815    1.642213    0.035993
  C      2.837310    0.449301    0.497374
  C      2.009769   -0.742997    0.109753
  C      2.300450   -2.097006    0.047718
  C      1.290164   -2.991981   -0.320075
  C      0.006571   -2.531940   -0.612045
  C     -0.276264   -1.172331   -0.552923
  C      0.730501   -0.285485   -0.196958
  O      0.584703    1.062794   -0.106192
  O     -1.541069   -0.708140   -0.927994
  C     -2.292204   -0.115475    0.077621
  O     -1.963991   -0.131548    1.257506
  N     -3.395117    0.448911   -0.427342
  C     -4.412136    1.011207    0.452983
  C      2.366738    2.131545   -1.343770
  H      2.855132    3.206241    1.192126
  H      1.184844    3.540980    0.697567
  H      1.513719    2.380554    2.010838
  H      3.817149    0.467399    0.012526
  H      2.995305    0.473534    1.582402
  H      3.297313   -2.458144    0.280647
  H      1.500792   -4.054399   -0.378076
  H     -0.784074   -3.218770   -0.896180
  H     -3.590195    0.334169   -1.410072
  H     -4.858852    0.241617    1.091363
  H     -5.192750    1.452921   -0.166865
  H     -3.983804    1.791952    1.087015
  H      3.365109    2.576920   -1.300223
  H      1.662729    2.887087   -1.703742
  H      2.390326    1.299048   -2.054646

 Total Charge           Charge          ....    0
 Multiplicity           Mult            ....    1
 Number of Electrons    NEL             ....  118
 Basis Dimension        Dim             ....  586

ORBITAL ENERGIES
----------------

  NO   OCC          E(Eh)            E(eV)
   0   2.0000     -21.730122      -591.3067
   1   2.0000     -21.702053      -590.5429
   2   2.0000     -21.660067      -589.4004
   3   2.0000     -16.558636      -450.5834
   4   2.0000     -12.209155      -332.2280
   5   2.0000     -12.115293      -329.6739
   6   2.0000     -12.113794      -329.6331
   7   2.0000     -12.107965      -329.4745
   8   2.0000     -12.073264      -328.5302
   9   2.0000     -12.057934      -328.1131
  10   2.0000     -12.055546      -328.0481
  11   2.0000     -12.053215      -327.9846
  12   2.0000     -12.049648      -327.8876
  13   2.0000     -12.048782      -327.8640
  14   2.0000     -12.031778      -327.4013
  15   2.0000     -12.030830      -327.3755
  16   2.0000      -1.768387       -48.1203
  17   2.0000      -1.717670       -46.7402
  18   2.0000      -1.705875       -46.4192
  19   2.0000      -1.529681       -41.6247
  20   2.0000      -1.397530       -38.0287
  21   2.0000      -1.342233       -36.5240
  22   2.0000      -1.306300       -35.5462
  23   2.0000      -1.292820       -35.1794
  24   2.0000      -1.244392       -33.8616
  25   2.0000      -1.198900       -32.6237
  26   2.0000      -1.187435       -32.3118
  27   2.0000      -1.178165       -32.0595
  28   2.0000      -1.135346       -30.8943
  29   2.0000      -1.124272       -30.5930
  30   2.0000      -1.099636       -29.9226
  31   2.0000      -1.084653       -29.5149
  32   2.0000      -1.071050       -29.1448
  33   2.0000      -1.030024       -28.0284
  34   2.0000      -1.013861       -27.5886
  35   2.0000      -0.995841       -27.0982
  36   2.0000      -0.971338       -26.4314
  37   2.0000      -0.964010       -26.2320
  38   2.0000      -0.956499       -26.0277
  39   2.0000      -0.936563       -25.4852
  40   2.0000      -0.922613       -25.1056
  41   2.0000      -0.914113       -24.8743
  42   2.0000      -0.895442       -24.3662
  43   2.0000      -0.879964       -23.9450
  44   2.0000      -0.877501       -23.8780
  45   2.0000      -0.873311       -23.7640
  46   2.0000      -0.862231       -23.4625
  47   2.0000      -0.844144       -22.9703
  48   2.0000      -0.830054       -22.5869
  49   2.0000      -0.827722       -22.5235
  50   2.0000      -0.821760       -22.3612
  51   2.0000      -0.814159       -22.1544
  52   2.0000      -0.805847       -21.9282
  53   2.0000      -0.788804       -21.4644
  54   2.0000      -0.783737       -21.3266
  55   2.0000      -0.765128       -20.8202
  56   2.0000      -0.759425       -20.6650
  57   2.0000      -0.653426       -17.7806
  58   2.0000      -0.638550       -17.3758
  59   0.0000      -0.285697        -7.7742
  60   0.0000      -0.259834        -7.0704
  61   0.0000      -0.248749        -6.7688
  62   0.0000      -0.220620        -6.0034
  63   0.0000      -0.194753        -5.2995

MULLIKEN ATOMIC CHARGES
-----------------------
   0 C :   -0.420539
   1 C :    0.325708
   2 C :   -0.155758
   3 C :   -0.030701
   4 C :   -0.286569
   5 C :   -0.145721
   6 C :   -0.264482
   7 C :    0.121338
   8 C :    0.216818
   9 O :   -0.336801
  10 O :   -0.304886
  11 C :    0.459166
  12 O :   -0.519213
  13 N :   -0.298288
  14 C :   -0.281970
  15 C :   -0.439700
  16 H :    0.141402
  17 H :    0.140372
  18 H :    0.139010
  19 H :    0.148217
  20 H :    0.130299
  21 H :    0.163031
  22 H :    0.162319
  23 H :    0.165567
  24 H :    0.292626
  25 H :    0.147134
  26 H :    0.159649
  27 H :    0.148579
  28 H :    0.141717
  29 H :    0.136704
  30 H :    0.144971
Sum of atomic charges:    0.0000000

LOEWDIN ATOMIC CHARGES
----------------------
   0 C :   -0.256577
   1 C :   -0.311032
   2 C :   -0.143232
   3 C :   -0.122473
   4 C :   -0.116792
   5 C :   -0.158246
   6 C :   -0.119453
   7 C :   -0.217095
   8 C :   -0.210609
   9 O :    0.236124
  10 O :    0.270399
  11 C :   -0.543858
  12 O :   -0.016029
  13 N :    0.113607
  14 C :   -0.288726
  15 C :   -0.253899
  16 H :    0.136476
  17 H :    0.129096
  18 H :    0.128584
  19 H :    0.155353
  20 H :    0.154267
  21 H :    0.155162
  22 H :    0.151385
  23 H :    0.159080
  24 H :    0.206557
  25 H :    0.119137
  26 H :    0.127922
  27 H :    0.121337
  28 H :    0.133997
  29 H :    0.127849
  30 H :    0.131690

  Mayer bond orders larger than 0.100000
B(  0-C ,  1-C ) :   0.9569 B(  0-C , 16-H ) :   0.9689 B(  0-C , 17-H ) :   0.9772
B(  0-C , 18-H ) :   0.9745 B(  1-C ,  2-C ) :   0.9796 B(  1-C ,  9-O ) :   0.7784
B(  1-C , 15-C ) :   0.9882 B(  2-C ,  3-C ) :   1.0027 B(  2-C , 19-H ) :   0.9555
B(  2-C , 20-H ) :   0.9173 B(  3-C ,  4-C ) :   1.3437 B(  3-C ,  8-C ) :   1.2825
B(  4-C ,  5-C ) :   1.4100 B(  4-C , 21-H ) :   0.9802 B(  5-C ,  6-C ) :   1.4132
B(  5-C , 22-H ) :   0.9843 B(  6-C ,  7-C ) :   1.4356 B(  6-C , 23-H ) :   0.9758
B(  7-C ,  8-C ) :   1.3285 B(  7-C , 10-O ) :   0.9582 B(  8-C ,  9-O ) :   1.1621
B( 10-O , 11-C ) :   1.0916 B( 11-C , 12-O ) :   1.8664 B( 11-C , 13-N ) :   1.3479
B( 13-N , 14-C ) :   0.9159 B( 13-N , 24-H ) :   0.8886 B( 14-C , 25-H ) :   0.9745
B( 14-C , 26-H ) :   0.9646 B( 14-C , 27-H ) :   0.9708 B( 15-C , 28-H ) :   0.9677
B( 15-C , 29-H ) :   0.9753 B( 15-C , 30-H ) :   0.9668

FINAL SINGLE POINT ENERGY      -746.830638775950

DIPOLE MOMENT
-------------

Method             : SCF
Type of density    : Electron Density
Multiplicity       :   1
Irrep              :   0
Energy             :  -746.8508593444504413 Eh
Relativity type    :
Basis              : AO
                                X                 Y                 Z
Electronic contribution:     -4.633216376      -9.743174277      -1.874796807
Nuclear contribution   :      4.915149701      10.409196178       0.773946155
                        -----------------------------------------
Total Dipole Moment    :      0.281933325       0.666021901      -1.100850652
                        -----------------------------------------
Magnitude (a.u.)       :      1.317172627
Magnitude (Debye)      :      3.347986750

Rotational constants in cm-1:             0.024732             0.013901             0.010036
Rotational constants in MHz :           741.441748           416.748240           300.876011

                             ****ORCA TERMINATED NORMALLY****
TOTAL RUN TIME: 0 days 0 hours 11 minutes 28 seconds 406 msec
