                         Program Version 6.0.0  -   RELEASE  -
|  1> ! pbe def2-sv(p) def2/J RI DEFGRID1 loosescf d4 GCP(DFT/SV(P)) printgap
|  2> %output
|  3>     printlevel normal
|  4> end
|  5> * xyz 0 1
|  6> C -1.2631383306 -0.7263670338 -0.1054756248
|  7> C -8.52505e-05 -0.0029523254 0.3622584308
|  8> C 1.2580415655 -0.7348036788 -0.1052503131
|  9> O 0.0045925698 1.3520149496 -0.0580977702
| 10> H -2.1449083494 -0.1654720765 0.1942459574
| 11> H -1.2627353059 -0.8270491113 -1.1888216081
| 12> H -1.3086881528 -1.7166531397 0.3372222708
| 13> H -0.0002183098 0.0603011998 1.4565965719
| 14> H 2.1440249345 -0.1854940383 0.2033402738
| 15> H 1.2616774965 -0.8259103896 -1.1895627109
| 16> H 1.2915676187 -1.729268031 0.3291704182
| 17> H 0.0081300449 1.3751831336 -1.0256627484
| 18> *
| 19>
| 20>                          ****END OF INPUT****

CARTESIAN COORDINATES (ANGSTROEM)
---------------------------------
  C     -1.263138   -0.726367   -0.105476
  C     -0.000085   -0.002952    0.362258
  C      1.258042   -0.734804   -0.105250
  O      0.004593    1.352015   -0.058098
  H     -2.144908   -0.165472    0.194246
  H     -1.262735   -0.827049   -1.188822
  H     -1.308688   -1.716653    0.337222
  H     -0.000218    0.060301    1.456597
  H      2.144025   -0.185494    0.203340
  H      1.261677   -0.825910   -1.189563
  H      1.291568   -1.729268    0.329170
  H      0.008130    1.375183   -1.025663

 Total Charge           Charge          ....    0
 Multiplicity           Mult            ....    1
 Number of Electrons    NEL             ....   34
 Basis Dimension        Dim             ....   72

ORBITAL ENERGIES
----------------

  NO   OCC          E(Eh)            E(eV)
   0   2.0000     -18.736655      -509.8503
   1   2.0000      -9.936475      -270.3852
   2   2.0000      -9.874765      -268.7060
   3   2.0000      -9.874626      -268.7022
   4   2.0000      -0.914264       -24.8784
   5   2.0000      -0.690249       -18.7826
   6   2.0000      -0.616350       -16.7717
   7   2.0000      -0.539027       -14.6677
   8   2.0000      -0.427795       -11.6409
   9   2.0000      -0.417598       -11.3634
  10   2.0000      -0.377233       -10.2650
  11   2.0000      -0.361660        -9.8413
  12   2.0000      -0.347064        -9.4441
  13   2.0000      -0.315159        -8.5759
  14   2.0000      -0.309641        -8.4258
  15   2.0000      -0.267060        -7.2671
  16   2.0000      -0.210469        -5.7272
  17   0.0000       0.026561         0.7227
  18   0.0000       0.063784         1.7356
  19   0.0000       0.082865         2.2549
  20   0.0000       0.092130         2.5070
  21   0.0000       0.099342         2.7032

MULLIKEN ATOMIC CHARGES
-----------------------
   0 C :   -0.260702
   1 C :    0.003718
   2 C :   -0.260787
   3 O :   -0.432187
   4 H :    0.111484
   5 H :    0.084064
   6 H :    0.097359
   7 H :    0.076659
   8 H :    0.111550
   9 H :    0.084090
  10 H :    0.097427
  11 H :    0.287324
Sum of atomic charges:    0.0000000

LOEWDIN ATOMIC CHARGES
----------------------
   0 C :   -0.353884
   1 C :   -0.064803
   2 C :   -0.353739
   3 O :   -0.334030
   4 H :    0.122800
   5 H :    0.112705
   6 H :    0.122583
   7 H :    0.112740
   8 H :    0.122792
   9 H :    0.112703
  10 H :    0.122604
  11 H :    0.277529

  Mayer bond orders larger than 0.100000
B(  0-C ,  1-C ) :   1.1072 B(  0-C ,  4-H ) :   0.9477 B(  0-C ,  5-H ) :   0.9450
B(  0-C ,  6-H ) :   0.9416 B(  1-C ,  2-C ) :   1.1075 B(  1-C ,  3-O ) :   1.0388
B(  1-C ,  7-H ) :   0.9094 B(  2-C ,  8-H ) :   0.9477 B(  2-C ,  9-H ) :   0.9448
B(  2-C , 10-H ) :   0.9417 B(  3-O , 11-H ) :   0.8571

Dispersion correction           -0.006573492
FINAL SINGLE POINT ENERGY      -193.879882423056

DIPOLE MOMENT
-------------

Method             : SCF
Type of density    : Electron Density
Multiplicity       :   1
Irrep              :   0
Energy             :  -193.9290228411912835 Eh
Relativity type    :
Basis              : AO
                                X                 Y                 Z
Electronic contribution:      0.011291410       3.296039575       0.449223994
Nuclear contribution   :     -0.010392281      -3.746038170      -0.829712823
                        -----------------------------------------
Total Dipole Moment    :      0.000899128      -0.449998595      -0.380488829
                        -----------------------------------------
Magnitude (a.u.)       :      0.589297288
Magnitude (Debye)      :      1.497874667

Rotational constants in cm-1:             0.282599             0.270524             0.159840
Rotational constants in MHz :          8472.101091          8110.099724          4791.868542

                             ****ORCA TERMINATED NORMALLY****
TOTAL RUN TIME: 0 days 0 hours 0 minutes 4 seconds 580 msec
