                         Program Version 6.0.0  -   RELEASE  -
|  1> ! r2scan-3c def2/J RI DEFGRID2 scfconv6 printgap
|  2> %output
|  3>     printlevel normal
|  4> end
|  5> * xyz 0 1
|  6> C -2.5198230169 -0.9901696076 0.3383228967
|  7> C -1.0765284238 -0.5143220376 0.5895184722
|  8> H -0.9207216555 -0.4500091444 1.6774334715
|  9> C -0.7977768941 0.8642655098 -0.0250004285
| 10> H -0.9351311761 0.7990400389 -1.1160371974
| 11> C 0.6628265387 1.2516405163 0.2334816785
| 12> H 0.8280765828 1.3478819572 1.3186513697
| 13> C 1.5816419622 0.1502901438 -0.3010236821
| 14> H 1.4721300895 0.0966219336 -1.3957453241
| 15> C 1.1620354491 -1.2048716244 0.3074697379
| 16> H 1.3494674247 -1.1687108859 1.3962232414
| 17> O -0.1901598303 -1.4758666464 0.0470795207
| 18> O 1.9241262586 -2.2428478441 -0.2004689216
| 19> O 2.9051550456 0.4721123492 0.0463045896
| 20> O 0.8934891199 2.4860193688 -0.4000956009
| 21> O -1.6905501544 1.7924457652 0.531950837
| 22> O -2.9918241277 -0.7445620496 -0.9592514097
| 23> H -3.1660552529 -0.5187830158 1.0844188894
| 24> H -2.5358944179 -2.0738755286 0.4696604332
| 25> H 1.4899274316 -2.5898321732 -0.9960055854
| 26> H 3.47359001 -0.2923645656 -0.1320311593
| 27> H 1.8359742791 2.6974858222 -0.3320181687
| 28> H -1.3960611361 2.6813583768 0.2793547186
| 29> H -3.2225711132 0.1917322063 -1.0381684869
| 30> *
| 31>
| 32>                          ****END OF INPUT****

CARTESIAN COORDINATES (ANGSTROEM)
---------------------------------
  C     -2.519823   -0.990170    0.338323
  C     -1.076528   -0.514322    0.589518
  H     -0.920722   -0.450009    1.677433
  C     -0.797777    0.864266   -0.025000
  H     -0.935131    0.799040   -1.116037
  C      0.662827    1.251641    0.233482
  H      0.828077    1.347882    1.318651
  C      1.581642    0.150290   -0.301024
  H      1.472130    0.096622   -1.395745
  C      1.162035   -1.204872    0.307470
  H      1.349467   -1.168711    1.396223
  O     -0.190160   -1.475867    0.047080
  O      1.924126   -2.242848   -0.200469
  O      2.905155    0.472112    0.046305
  O      0.893489    2.486019   -0.400096
  O     -1.690550    1.792446    0.531951
  O     -2.991824   -0.744562   -0.959251
  H     -3.166055   -0.518783    1.084419
  H     -2.535894   -2.073876    0.469660
  H      1.489927   -2.589832   -0.996006
  H      3.473590   -0.292365   -0.132031
  H      1.835974    2.697486   -0.332018
  H     -1.396061    2.681358    0.279355
  H     -3.222571    0.191732   -1.038168

 Total Charge           Charge          ....    0
 Multiplicity           Mult            ....    1
 Number of Electrons    NEL             ....   96
 Basis Dimension        Dim             ....  318

ORBITAL ENERGIES
----------------

  NO   OCC          E(Eh)            E(eV)
   0   2.0000     -18.976943      -516.3889
   1   2.0000     -18.975419      -516.3474
   2   2.0000     -18.968341      -516.1548
   3   2.0000     -18.966648      -516.1087
   4   2.0000     -18.966473      -516.1040
   5   2.0000     -18.952700      -515.7292
   6   2.0000     -10.144675      -276.0506
   7   2.0000     -10.097492      -274.7667
   8   2.0000     -10.095786      -274.7203
   9   2.0000     -10.094867      -274.6953
  10   2.0000     -10.092943      -274.6429
  11   2.0000     -10.082071      -274.3471
  12   2.0000      -1.059841       -28.8397
  13   2.0000      -1.020380       -27.7660
  14   2.0000      -1.009871       -27.4800
  15   2.0000      -0.993944       -27.0466
  16   2.0000      -0.991891       -26.9907
  17   2.0000      -0.985426       -26.8148
  18   2.0000      -0.757437       -20.6109
  19   2.0000      -0.739370       -20.1193
  20   2.0000      -0.661044       -17.9879
  21   2.0000      -0.624936       -17.0054
  22   2.0000      -0.596924       -16.2431
  23   2.0000      -0.566146       -15.4056
  24   2.0000      -0.533576       -14.5194
  25   2.0000      -0.516211       -14.0468
  26   2.0000      -0.503211       -13.6931
  27   2.0000      -0.477063       -12.9815
  28   2.0000      -0.467649       -12.7254
  29   2.0000      -0.458289       -12.4707
  30   2.0000      -0.446133       -12.1399
  31   2.0000      -0.441229       -12.0064
  32   2.0000      -0.416253       -11.3268
  33   2.0000      -0.394935       -10.7467
  34   2.0000      -0.381816       -10.3897
  35   2.0000      -0.371786       -10.1168
  36   2.0000      -0.358946        -9.7674
  37   2.0000      -0.349894        -9.5211
  38   2.0000      -0.340114        -9.2550
  39   2.0000      -0.321527        -8.7492
  40   2.0000      -0.314553        -8.5594
  41   2.0000      -0.297955        -8.1078
  42   2.0000      -0.285607        -7.7718
  43   2.0000      -0.267794        -7.2870
  44   2.0000      -0.256583        -6.9820
  45   2.0000      -0.249418        -6.7870
  46   2.0000      -0.243432        -6.6241
  47   2.0000      -0.228907        -6.2289
  48   0.0000       0.028111         0.7649
  49   0.0000       0.042110         1.1459
  50   0.0000       0.063584         1.7302
  51   0.0000       0.074847         2.0367
  52   0.0000       0.084469         2.2985

MULLIKEN ATOMIC CHARGES
-----------------------
   0 C :   -0.248842
   1 C :   -0.063571
   2 H :    0.171141
   3 C :   -0.017952
   4 H :    0.182884
   5 C :   -0.055822
   6 H :    0.171091
   7 C :    0.131937
   8 H :    0.163897
   9 C :   -0.166678
  10 H :    0.157754
  11 O :   -0.182734
  12 O :   -0.387487
  13 O :   -0.445632
  14 O :   -0.445419
  15 O :   -0.445240
  16 O :   -0.417178
  17 H :    0.146007
  18 H :    0.152306
  19 H :    0.330321
  20 H :    0.311157
  21 H :    0.315846
  22 H :    0.319740
  23 H :    0.322474
Sum of atomic charges:   -0.0000000

LOEWDIN ATOMIC CHARGES
----------------------
   0 C :    0.043055
   1 C :    0.118768
   2 H :    0.186551
   3 C :    0.111549
   4 H :    0.189124
   5 C :    0.106841
   6 H :    0.184921
   7 C :    0.106241
   8 H :    0.183301
   9 C :    0.292887
  10 H :    0.193223
  11 O :   -0.674984
  12 O :   -0.497720
  13 O :   -0.578772
  14 O :   -0.577486
  15 O :   -0.573304
  16 O :   -0.591544
  17 H :    0.171927
  18 H :    0.192941
  19 H :    0.286842
  20 H :    0.283515
  21 H :    0.284007
  22 H :    0.285770
  23 H :    0.272349

  Mayer bond orders larger than 0.100000
B(  0-C ,  1-C ) :   0.8937 B(  0-C , 16-O ) :   1.0540 B(  0-C , 17-H ) :   0.9799
B(  0-C , 18-H ) :   0.9833 B(  1-C ,  2-H ) :   0.9518 B(  1-C ,  3-C ) :   0.8030
B(  1-C , 11-O ) :   0.7758 B(  1-C , 16-O ) :  -0.1226 B(  3-C ,  4-H ) :   1.0009
B(  3-C ,  5-C ) :   0.8440 B(  3-C , 15-O ) :   0.8575 B(  5-C ,  6-H ) :   0.9915
B(  5-C ,  7-C ) :   0.8662 B(  5-C , 14-O ) :   0.9025 B(  7-C ,  8-H ) :   0.9423
B(  7-C ,  9-C ) :   0.7413 B(  7-C , 13-O ) :   0.8889 B(  9-C , 10-H ) :   1.0196
B(  9-C , 11-O ) :   0.9839 B(  9-C , 12-O ) :   1.0919 B( 12-O , 19-H ) :   0.8669
B( 13-O , 20-H ) :   0.8764 B( 14-O , 21-H ) :   0.8791 B( 15-O , 22-H ) :   0.8738
B( 16-O , 23-H ) :   0.8767

Dispersion correction           -0.008039805
FINAL SINGLE POINT ENERGY      -687.077762632575

DIPOLE MOMENT
-------------

Method             : SCF
Type of density    : Electron Density
Multiplicity       :   1
Irrep              :   0
Energy             :  -687.0891865816444124 Eh
Relativity type    :
Basis              : AO
                                X                 Y                 Z
Electronic contribution:      2.000685400      -0.367437803      -1.067037740
Nuclear contribution   :     -1.607876281       0.680250025       1.126723516
                        -----------------------------------------
Total Dipole Moment    :      0.392809119       0.312812222       0.059685775
                        -----------------------------------------
Magnitude (a.u.)       :      0.505680613
Magnitude (Debye)      :      1.285337970

Rotational constants in cm-1:             0.040829             0.026191             0.017416
Rotational constants in MHz :          1224.015231           785.183482           522.108052

                             ****ORCA TERMINATED NORMALLY****
TOTAL RUN TIME: 0 days 0 hours 0 minutes 48 seconds 661 msec
