                         Program Version 6.0.0  -   RELEASE  -
|  1> ! r2scan-3c def2/J RI DEFGRID2 scfconv6 printgap
|  2> %output
|  3>     printlevel normal
|  4> end
|  5> %cpcm
|  6>     smd true
|  7>     smdsolvent "water"
|  8> end
|  9> * xyz 0 1
| 10> C -2.5198230169 -0.9901696076 0.3383228967
| 11> C -1.0765284238 -0.5143220376 0.5895184722
| 12> H -0.9207216555 -0.4500091444 1.6774334715
| 13> C -0.7977768941 0.8642655098 -0.0250004285
| 14> H -0.9351311761 0.7990400389 -1.1160371974
| 15> C 0.6628265387 1.2516405163 0.2334816785
| 16> H 0.8280765828 1.3478819572 1.3186513697
| 17> C 1.5816419622 0.1502901438 -0.3010236821
| 18> H 1.4721300895 0.0966219336 -1.3957453241
| 19> C 1.1620354491 -1.2048716244 0.3074697379
| 20> H 1.3494674247 -1.1687108859 1.3962232414
| 21> O -0.1901598303 -1.4758666464 0.0470795207
| 22> O 1.9241262586 -2.2428478441 -0.2004689216
| 23> O 2.9051550456 0.4721123492 0.0463045896
| 24> O 0.8934891199 2.4860193688 -0.4000956009
| 25> O -1.6905501544 1.7924457652 0.531950837
| 26> O -2.9918241277 -0.7445620496 -0.9592514097
| 27> H -3.1660552529 -0.5187830158 1.0844188894
| 28> H -2.5358944179 -2.0738755286 0.4696604332
| 29> H 1.4899274316 -2.5898321732 -0.9960055854
| 30> H 3.47359001 -0.2923645656 -0.1320311593
| 31> H 1.8359742791 2.6974858222 -0.3320181687
| 32> H -1.3960611361 2.6813583768 0.2793547186
| 33> H -3.2225711132 0.1917322063 -1.0381684869
| 34> *
| 35>
| 36>                          ****END OF INPUT****

CARTESIAN COORDINATES (ANGSTROEM)
---------------------------------
  C     -2.519823   -0.990170    0.338323
  C     -1.076528   -0.514322    0.589518
  H     -0.920722   -0.450009    1.677433
  C     -0.797777    0.864266   -0.025000
  H     -0.935131    0.799040   -1.116037
  C      0.662827    1.251641    0.233482
  H      0.828077    1.347882    1.318651
  C      1.581642    0.150290   -0.301024
  H      1.472130    0.096622   -1.395745
  C      1.162035   -1.204872    0.307470
  H      1.349467   -1.168711    1.396223
  O     -0.190160   -1.475867    0.047080
  O      1.924126   -2.242848   -0.200469
  O      2.905155    0.472112    0.046305
  O      0.893489    2.486019   -0.400096
  O     -1.690550    1.792446    0.531951
  O     -2.991824   -0.744562   -0.959251
  H     -3.166055   -0.518783    1.084419
  H     -2.535894   -2.073876    0.469660
  H      1.489927   -2.589832   -0.996006
  H      3.473590   -0.292365   -0.132031
  H      1.835974    2.697486   -0.332018
  H     -1.396061    2.681358    0.279355
  H     -3.222571    0.191732   -1.038168

 Total Charge           Charge          ....    0
 Multiplicity           Mult            ....    1
 Number of Electrons    NEL             ....   96
 Basis Dimension        Dim             ....  318

ORBITAL ENERGIES
----------------

  NO   OCC          E(Eh)            E(eV)
   0   2.0000     -18.975982      -516.3627
   1   2.0000     -18.968864      -516.1690
   2   2.0000     -18.963030      -516.0103
   3   2.0000     -18.962618      -515.9991
   4   2.0000     -18.961377      -515.9653
   5   2.0000     -18.957477      -515.8592
   6   2.0000     -10.136746      -275.8349
   7   2.0000     -10.090320      -274.5716
   8   2.0000     -10.088053      -274.5099
   9   2.0000     -10.086995      -274.4811
  10   2.0000     -10.083995      -274.3995
  11   2.0000     -10.077726      -274.2289
  12   2.0000      -1.055499       -28.7216
  13   2.0000      -1.015134       -27.6232
  14   2.0000      -1.005614       -27.3642
  15   2.0000      -0.994382       -27.0585
  16   2.0000      -0.987084       -26.8599
  17   2.0000      -0.982525       -26.7359
  18   2.0000      -0.750429       -20.4202
  19   2.0000      -0.733153       -19.9501
  20   2.0000      -0.655134       -17.8271
  21   2.0000      -0.617598       -16.8057
  22   2.0000      -0.591185       -16.0870
  23   2.0000      -0.558642       -15.2014
  24   2.0000      -0.526857       -14.3365
  25   2.0000      -0.508934       -13.8488
  26   2.0000      -0.498244       -13.5579
  27   2.0000      -0.470530       -12.8038
  28   2.0000      -0.460960       -12.5434
  29   2.0000      -0.452488       -12.3128
  30   2.0000      -0.441068       -12.0021
  31   2.0000      -0.435445       -11.8491
  32   2.0000      -0.414384       -11.2760
  33   2.0000      -0.391779       -10.6608
  34   2.0000      -0.378144       -10.2898
  35   2.0000      -0.368400       -10.0247
  36   2.0000      -0.356529        -9.7016
  37   2.0000      -0.347478        -9.4553
  38   2.0000      -0.336836        -9.1658
  39   2.0000      -0.321437        -8.7468
  40   2.0000      -0.312147        -8.4939
  41   2.0000      -0.299444        -8.1483
  42   2.0000      -0.282081        -7.6758
  43   2.0000      -0.264980        -7.2105
  44   2.0000      -0.253041        -6.8856
  45   2.0000      -0.247388        -6.7318
  46   2.0000      -0.245473        -6.6797
  47   2.0000      -0.225261        -6.1297
  48   0.0000       0.039914         1.0861
  49   0.0000       0.055003         1.4967
  50   0.0000       0.077226         2.1014
  51   0.0000       0.088572         2.4102
  52   0.0000       0.100778         2.7423

MULLIKEN ATOMIC CHARGES
-----------------------
   0 C :   -0.254275
   1 C :   -0.078853
   2 H :    0.201445
   3 C :   -0.020587
   4 H :    0.195756
   5 C :   -0.028014
   6 H :    0.186004
   7 C :    0.096095
   8 H :    0.184437
   9 C :   -0.138550
  10 H :    0.177686
  11 O :   -0.230620
  12 O :   -0.437934
  13 O :   -0.499631
  14 O :   -0.498265
  15 O :   -0.495712
  16 O :   -0.488064
  17 H :    0.164789
  18 H :    0.166210
  19 H :    0.374905
  20 H :    0.348631
  21 H :    0.352435
  22 H :    0.354905
  23 H :    0.367208
Sum of atomic charges:   -0.0000000

LOEWDIN ATOMIC CHARGES
----------------------
   0 C :    0.040570
   1 C :    0.119642
   2 H :    0.198996
   3 C :    0.112133
   4 H :    0.193474
   5 C :    0.108245
   6 H :    0.192718
   7 C :    0.109526
   8 H :    0.191412
   9 C :    0.294818
  10 H :    0.202981
  11 O :   -0.695384
  12 O :   -0.514991
  13 O :   -0.596561
  14 O :   -0.596904
  15 O :   -0.591184
  16 O :   -0.625831
  17 H :    0.180912
  18 H :    0.196835
  19 H :    0.301723
  20 H :    0.295916
  21 H :    0.295827
  22 H :    0.297260
  23 H :    0.287868

  Mayer bond orders larger than 0.100000
B(  0-C ,  1-C ) :   0.8949 B(  0-C , 16-O ) :   1.0297 B(  0-C , 17-H ) :   0.9710
B(  0-C , 18-H ) :   0.9797 B(  1-C ,  2-H ) :   0.9460 B(  1-C ,  3-C ) :   0.8230
B(  1-C , 11-O ) :   0.7854 B(  1-C , 16-O ) :  -0.1050 B(  3-C ,  4-H ) :   0.9934
B(  3-C ,  5-C ) :   0.8559 B(  3-C , 15-O ) :   0.8398 B(  5-C ,  6-H ) :   0.9688
B(  5-C ,  7-C ) :   0.8851 B(  5-C , 14-O ) :   0.8883 B(  7-C ,  8-H ) :   0.9443
B(  7-C ,  9-C ) :   0.7720 B(  7-C , 13-O ) :   0.8774 B(  9-C , 10-H ) :   1.0012
B(  9-C , 11-O ) :   0.9688 B(  9-C , 12-O ) :   1.0871 B( 12-O , 19-H ) :   0.8406
B( 13-O , 20-H ) :   0.8593 B( 14-O , 21-H ) :   0.8610 B( 15-O , 22-H ) :   0.8564
B( 16-O , 23-H ) :   0.8524

Dispersion correction           -0.008039805
FINAL SINGLE POINT ENERGY      -687.108460229283

DIPOLE MOMENT
-------------

Method             : SCF
Type of density    : Electron Density
Multiplicity       :   1
Irrep              :   0
Energy             :  -687.1198841783527769 Eh
Relativity type    :
Basis              : AO
                                X                 Y                 Z
Electronic contribution:      2.145806194      -0.227000301      -0.970772669
Nuclear contribution   :     -1.607876281       0.680250025       1.126723516
                        -----------------------------------------
Total Dipole Moment    :      0.537929913       0.453249724       0.155950846
                        -----------------------------------------
Magnitude (a.u.)       :      0.720502998
Magnitude (Debye)      :      1.831373080

Rotational constants in cm-1:             0.040829             0.026191             0.017416
Rotational constants in MHz :          1224.015231           785.183482           522.108052

                             ****ORCA TERMINATED NORMALLY****
TOTAL RUN TIME: 0 days 0 hours 0 minutes 57 seconds 682 msec
