                         Program Version 6.0.0  -   RELEASE  -
|  1> ! wb97x-v def2-tzvp def2/J RIJCOSX DEFGRID2 scfconv7 GCP(DFT/TZ) printgap
|  2> %output
|  3>     printlevel normal
|  4> end
|  5> * xyz 0 1
|  6> C 1.168655987652627 -0.6942337242885078 0.0004927204029337419
|  7> C 1.1686450784809155 0.6942618164214444 0.000397070145319714
|  8> C 2.368785969541694 1.3949589042266475 -0.00010995117664453163
|  9> C 3.5833255045307175 0.6985610622582249 -0.00027001119278402384
| 10> C 3.583336596557931 -0.6984913468147143 1.521697621290664e-05
| 11> C 2.368809362286121 -1.3949103139930719 0.0004126976955674227
| 12> Cl 2.320385540736805 -3.1234442268954656 0.0008053596418112088
| 13> Cl 5.073879313012766 -1.5742431265281827 -7.637331558033795e-05
| 14> Cl 5.073852999857843 1.574336385443295 -0.0008856240621876021
| 15> Cl 2.3203319276614893 3.1234924431506004 -0.0004734555697499492
| 16> O -9.035053238660973e-06 1.4160320887010496 0.0007648918112881627
| 17> C -1.1686513906962939 0.694242728869389 0.00048482843302916816
| 18> C -1.1686402051530052 -0.6942529025240266 0.0003983801570598546
| 19> C -2.3687812556179617 -1.3949500119815312 -0.00010960205773724014
| 20> C -3.5833208459048715 -0.6985516769407701 -0.00027999704151404983
| 21> C -3.5833321164315013 0.6985008857668444 -5.50784257029751e-08
| 22> C -2.3688044032760645 1.3949196053375124 0.0004002903900567791
| 23> Cl -2.3203814605967854 3.1234535348552503 0.0007917984995193377
| 24> Cl -5.073873388684849 1.574253971598388 -9.898263311816308e-05
| 25> Cl -5.073847662126098 -1.5743286047354286 -0.0009008994039057077
| 26> Cl -2.3203278949272708 -3.123483138402276 -0.0004590782367523342
| 27> O 1.3781428519802293e-05 -1.4160227962758969 0.0007775081477132222
| 28> *
| 29>
| 30>                          ****END OF INPUT****

CARTESIAN COORDINATES (ANGSTROEM)
---------------------------------
  C      1.168656   -0.694234    0.000493
  C      1.168645    0.694262    0.000397
  C      2.368786    1.394959   -0.000110
  C      3.583326    0.698561   -0.000270
  C      3.583337   -0.698491    0.000015
  C      2.368809   -1.394910    0.000413
  Cl     2.320386   -3.123444    0.000805
  Cl     5.073879   -1.574243   -0.000076
  Cl     5.073853    1.574336   -0.000886
  Cl     2.320332    3.123492   -0.000473
  O     -0.000009    1.416032    0.000765
  C     -1.168651    0.694243    0.000485
  C     -1.168640   -0.694253    0.000398
  C     -2.368781   -1.394950   -0.000110
  C     -3.583321   -0.698552   -0.000280
  C     -3.583332    0.698501   -0.000000
  C     -2.368804    1.394920    0.000400
  Cl    -2.320381    3.123454    0.000792
  Cl    -5.073873    1.574254   -0.000099
  Cl    -5.073848   -1.574329   -0.000901
  Cl    -2.320328   -3.123483   -0.000459
  O      0.000014   -1.416023    0.000778

 Total Charge           Charge          ....    0
 Multiplicity           Mult            ....    1
 Number of Electrons    NEL             ....  224
 Basis Dimension        Dim             ....  730

ORBITAL ENERGIES
----------------

  NO   OCC          E(Eh)            E(eV)
   0   2.0000    -107.174332     -2916.3618
   1   2.0000    -107.174328     -2916.3617
   2   2.0000    -107.174323     -2916.3616
   3   2.0000    -107.174315     -2916.3614
   4   2.0000    -107.172743     -2916.3186
   5   2.0000    -107.172743     -2916.3186
   6   2.0000    -107.172712     -2916.3177
   7   2.0000    -107.172707     -2916.3176
   8   2.0000     -21.775127      -592.5313
   9   2.0000     -21.775069      -592.5297
  10   2.0000     -12.175366      -331.3086
  11   2.0000     -12.174912      -331.2962
  12   2.0000     -12.173094      -331.2467
  13   2.0000     -12.172957      -331.2430
  14   2.0000     -12.162605      -330.9613
  15   2.0000     -12.162581      -330.9607
  16   2.0000     -12.161452      -330.9299
  17   2.0000     -12.161435      -330.9295
  18   2.0000     -12.159861      -330.8867
  19   2.0000     -12.159808      -330.8852
  20   2.0000     -12.158886      -330.8601
  21   2.0000     -12.158775      -330.8571
  22   2.0000     -11.327174      -308.2281
  23   2.0000     -11.327165      -308.2278
  24   2.0000     -11.327128      -308.2268
  25   2.0000     -11.327120      -308.2266
  26   2.0000     -11.325712      -308.1883
  27   2.0000     -11.325711      -308.1883
  28   2.0000     -11.325670      -308.1871
  29   2.0000     -11.325652      -308.1867
  30   2.0000      -9.119084      -248.1429
  31   2.0000      -9.119082      -248.1428
  32   2.0000      -9.118907      -248.1381
  33   2.0000      -9.118902      -248.1379
  34   2.0000      -9.117751      -248.1066
  35   2.0000      -9.117720      -248.1058
  36   2.0000      -9.116898      -248.0834
  37   2.0000      -9.116858      -248.0823
  38   2.0000      -9.116184      -248.0640
  39   2.0000      -9.116160      -248.0633
  40   2.0000      -9.116144      -248.0629
  41   2.0000      -9.116055      -248.0605
  42   2.0000      -9.115977      -248.0583
  43   2.0000      -9.115808      -248.0538
  44   2.0000      -9.115790      -248.0533
  45   2.0000      -9.115768      -248.0526
  46   2.0000      -9.114628      -248.0216
  47   2.0000      -9.114618      -248.0214
  48   2.0000      -9.114534      -248.0191
  49   2.0000      -9.114514      -248.0185
  50   2.0000      -9.114431      -248.0163
  51   2.0000      -9.114373      -248.0147
  52   2.0000      -9.113860      -248.0007
  53   2.0000      -9.113855      -248.0006
  54   2.0000      -1.813514       -49.3482
  55   2.0000      -1.795809       -48.8664
  56   2.0000      -1.511174       -41.1211
  57   2.0000      -1.501519       -40.8584
  58   2.0000      -1.472226       -40.0613
  59   2.0000      -1.467575       -39.9348
  60   2.0000      -1.459456       -39.7138
  61   2.0000      -1.449136       -39.4330
  62   2.0000      -1.434646       -39.0387
  63   2.0000      -1.433415       -39.0052
  64   2.0000      -1.420921       -38.6652
  65   2.0000      -1.396707       -38.0063
  66   2.0000      -1.351668       -36.7807
  67   2.0000      -1.340948       -36.4891
  68   2.0000      -1.309824       -35.6421
  69   2.0000      -1.299327       -35.3565
  70   2.0000      -1.254502       -34.1367
  71   2.0000      -1.200712       -32.6730
  72   2.0000      -1.200373       -32.6638
  73   2.0000      -1.151940       -31.3459
  74   2.0000      -1.144599       -31.1461
  75   2.0000      -1.095044       -29.7977
  76   2.0000      -1.092366       -29.7248
  77   2.0000      -1.072912       -29.1954
  78   2.0000      -1.055334       -28.7171
  79   2.0000      -1.052666       -28.6445
  80   2.0000      -1.026410       -27.9300
  81   2.0000      -1.017090       -27.6764
  82   2.0000      -0.998302       -27.1652
  83   2.0000      -0.987447       -26.8698
  84   2.0000      -0.979951       -26.6658
  85   2.0000      -0.977716       -26.6050
  86   2.0000      -0.954403       -25.9706
  87   2.0000      -0.949004       -25.8237
  88   2.0000      -0.940020       -25.5792
  89   2.0000      -0.930001       -25.3066
  90   2.0000      -0.899654       -24.4808
  91   2.0000      -0.890020       -24.2187
  92   2.0000      -0.855412       -23.2769
  93   2.0000      -0.852811       -23.2062
  94   2.0000      -0.841040       -22.8859
  95   2.0000      -0.836522       -22.7629
  96   2.0000      -0.828820       -22.5533
  97   2.0000      -0.828505       -22.5448
  98   2.0000      -0.828492       -22.5444
  99   2.0000      -0.828007       -22.5312
 100   2.0000      -0.827488       -22.5171
 101   2.0000      -0.827439       -22.5158
 102   2.0000      -0.821607       -22.3571
 103   2.0000      -0.821327       -22.3495
 104   2.0000      -0.812322       -22.1044
 105   2.0000      -0.811778       -22.0896
 106   2.0000      -0.800639       -21.7865
 107   2.0000      -0.782402       -21.2902
 108   2.0000      -0.713232       -19.4080
 109   2.0000      -0.705043       -19.1852
 110   2.0000      -0.692894       -18.8546
 111   2.0000      -0.690917       -18.8008
 112   0.0000      -0.374729       -10.1969
 113   0.0000      -0.357688        -9.7332
 114   0.0000      -0.334031        -9.0894
 115   0.0000      -0.332569        -9.0497
 116   0.0000      -0.329004        -8.9526

MULLIKEN ATOMIC CHARGES
-----------------------
   0 C :    0.231698
   1 C :    0.230579
   2 C :   -0.131290
   3 C :    0.036562
   4 C :    0.036946
   5 C :   -0.131921
   6 Cl:   -0.012090
   7 Cl:   -0.018470
   8 Cl:   -0.018478
   9 Cl:   -0.012076
  10 O :   -0.211424
  11 C :    0.231368
  12 C :    0.230837
  13 C :   -0.131062
  14 C :    0.035173
  15 C :    0.036593
  16 C :   -0.130735
  17 Cl:   -0.012027
  18 Cl:   -0.018469
  19 Cl:   -0.018245
  20 Cl:   -0.012057
  21 O :   -0.211410
Sum of atomic charges:   -0.0000000

LOEWDIN ATOMIC CHARGES
----------------------
   0 C :   -0.207279
   1 C :   -0.207282
   2 C :   -0.411924
   3 C :   -0.447042
   4 C :   -0.447037
   5 C :   -0.411928
   6 Cl:    0.452774
   7 Cl:    0.442945
   8 Cl:    0.442948
   9 Cl:    0.452773
  10 O :    0.341051
  11 C :   -0.207280
  12 C :   -0.207281
  13 C :   -0.411929
  14 C :   -0.447039
  15 C :   -0.447038
  16 C :   -0.411927
  17 Cl:    0.452774
  18 Cl:    0.442948
  19 Cl:    0.442948
  20 Cl:    0.452775
  21 O :    0.341052

  Mayer bond orders larger than 0.100000
B(  0-C ,  1-C ) :   1.4080 B(  0-C ,  5-C ) :   1.2860 B(  0-C , 21-O ) :   1.0803
B(  1-C ,  2-C ) :   1.2866 B(  1-C , 10-O ) :   1.0803 B(  2-C ,  3-C ) :   1.3126
B(  2-C ,  9-Cl) :   1.2826 B(  3-C ,  4-C ) :   1.3403 B(  3-C ,  8-Cl) :   1.1987
B(  4-C ,  5-C ) :   1.3126 B(  4-C ,  7-Cl) :   1.1985 B(  5-C ,  6-Cl) :   1.2834
B( 10-O , 11-C ) :   1.0804 B( 11-C , 12-C ) :   1.4076 B( 11-C , 16-C ) :   1.2860
B( 12-C , 13-C ) :   1.2867 B( 12-C , 21-O ) :   1.0804 B( 13-C , 14-C ) :   1.3130
B( 13-C , 20-Cl) :   1.2825 B( 14-C , 15-C ) :   1.3400 B( 14-C , 19-Cl) :   1.2015
B( 15-C , 16-C ) :   1.3130 B( 15-C , 18-Cl) :   1.2007 B( 16-C , 17-Cl) :   1.2833

FINAL SINGLE POINT ENERGY     -4288.899299644240

DIPOLE MOMENT
-------------

Method             : SCF
Type of density    : Electron Density
Multiplicity       :   1
Irrep              :   0
Energy             : -4288.9120319824405669 Eh
Relativity type    :
Basis              : AO
                                X                 Y                 Z
Electronic contribution:      0.000002626      -0.000002522      -0.001744428
Nuclear contribution   :     -0.000000256      -0.000000239       0.001779938
                        -----------------------------------------
Total Dipole Moment    :      0.000002370      -0.000002761       0.000035510
                        -----------------------------------------
Magnitude (a.u.)       :      0.000035696
Magnitude (Debye)      :      0.000090732

Rotational constants in cm-1:             0.008693             0.003141             0.002307
Rotational constants in MHz :           260.607463            94.174051            69.176269

                             ****ORCA TERMINATED NORMALLY****
TOTAL RUN TIME: 0 days 0 hours 16 minutes 5 seconds 542 msec
