                         Program Version 6.0.0  -   RELEASE  -
|  1> ! wb97x-v def2-tzvp def2/J RIJCOSX DEFGRID2 scfconv7 GCP(DFT/TZ) printgap
|  2> %output
|  3>     printlevel normal
|  4> end
|  5> %cpcm
|  6>     smd true
|  7>     smdsolvent "water"
|  8> end
|  9> * xyz 0 1
| 10> C 1.168655987652627 -0.6942337242885078 0.0004927204029337419
| 11> C 1.1686450784809155 0.6942618164214444 0.000397070145319714
| 12> C 2.368785969541694 1.3949589042266475 -0.00010995117664453163
| 13> C 3.5833255045307175 0.6985610622582249 -0.00027001119278402384
| 14> C 3.583336596557931 -0.6984913468147143 1.521697621290664e-05
| 15> C 2.368809362286121 -1.3949103139930719 0.0004126976955674227
| 16> Cl 2.320385540736805 -3.1234442268954656 0.0008053596418112088
| 17> Cl 5.073879313012766 -1.5742431265281827 -7.637331558033795e-05
| 18> Cl 5.073852999857843 1.574336385443295 -0.0008856240621876021
| 19> Cl 2.3203319276614893 3.1234924431506004 -0.0004734555697499492
| 20> O -9.035053238660973e-06 1.4160320887010496 0.0007648918112881627
| 21> C -1.1686513906962939 0.694242728869389 0.00048482843302916816
| 22> C -1.1686402051530052 -0.6942529025240266 0.0003983801570598546
| 23> C -2.3687812556179617 -1.3949500119815312 -0.00010960205773724014
| 24> C -3.5833208459048715 -0.6985516769407701 -0.00027999704151404983
| 25> C -3.5833321164315013 0.6985008857668444 -5.50784257029751e-08
| 26> C -2.3688044032760645 1.3949196053375124 0.0004002903900567791
| 27> Cl -2.3203814605967854 3.1234535348552503 0.0007917984995193377
| 28> Cl -5.073873388684849 1.574253971598388 -9.898263311816308e-05
| 29> Cl -5.073847662126098 -1.5743286047354286 -0.0009008994039057077
| 30> Cl -2.3203278949272708 -3.123483138402276 -0.0004590782367523342
| 31> O 1.3781428519802293e-05 -1.4160227962758969 0.0007775081477132222
| 32> *
| 33>
| 34>                          ****END OF INPUT****

CARTESIAN COORDINATES (ANGSTROEM)
---------------------------------
  C      1.168656   -0.694234    0.000493
  C      1.168645    0.694262    0.000397
  C      2.368786    1.394959   -0.000110
  C      3.583326    0.698561   -0.000270
  C      3.583337   -0.698491    0.000015
  C      2.368809   -1.394910    0.000413
  Cl     2.320386   -3.123444    0.000805
  Cl     5.073879   -1.574243   -0.000076
  Cl     5.073853    1.574336   -0.000886
  Cl     2.320332    3.123492   -0.000473
  O     -0.000009    1.416032    0.000765
  C     -1.168651    0.694243    0.000485
  C     -1.168640   -0.694253    0.000398
  C     -2.368781   -1.394950   -0.000110
  C     -3.583321   -0.698552   -0.000280
  C     -3.583332    0.698501   -0.000000
  C     -2.368804    1.394920    0.000400
  Cl    -2.320381    3.123454    0.000792
  Cl    -5.073873    1.574254   -0.000099
  Cl    -5.073848   -1.574329   -0.000901
  Cl    -2.320328   -3.123483   -0.000459
  O      0.000014   -1.416023    0.000778

 Total Charge           Charge          ....    0
 Multiplicity           Mult            ....    1
 Number of Electrons    NEL             ....  224
 Basis Dimension        Dim             ....  730

ORBITAL ENERGIES
----------------

  NO   OCC          E(Eh)            E(eV)
   0   2.0000    -107.170314     -2916.2525
   1   2.0000    -107.170310     -2916.2524
   2   2.0000    -107.170305     -2916.2522
   3   2.0000    -107.170297     -2916.2520
   4   2.0000    -107.169053     -2916.2182
   5   2.0000    -107.169052     -2916.2182
   6   2.0000    -107.169021     -2916.2173
   7   2.0000    -107.169016     -2916.2172
   8   2.0000     -21.765004      -592.2559
   9   2.0000     -21.764948      -592.2543
  10   2.0000     -12.165141      -331.0303
  11   2.0000     -12.164691      -331.0181
  12   2.0000     -12.162872      -330.9686
  13   2.0000     -12.162730      -330.9647
  14   2.0000     -12.154362      -330.7370
  15   2.0000     -12.154344      -330.7365
  16   2.0000     -12.152949      -330.6985
  17   2.0000     -12.152941      -330.6983
  18   2.0000     -12.151026      -330.6462
  19   2.0000     -12.150973      -330.6448
  20   2.0000     -12.150297      -330.6264
  21   2.0000     -12.150171      -330.6230
  22   2.0000     -11.323203      -308.1200
  23   2.0000     -11.323195      -308.1198
  24   2.0000     -11.323157      -308.1188
  25   2.0000     -11.323149      -308.1185
  26   2.0000     -11.322069      -308.0892
  27   2.0000     -11.322068      -308.0891
  28   2.0000     -11.322024      -308.0879
  29   2.0000     -11.322006      -308.0875
  30   2.0000      -9.115127      -248.0352
  31   2.0000      -9.115123      -248.0351
  32   2.0000      -9.114925      -248.0297
  33   2.0000      -9.114920      -248.0296
  34   2.0000      -9.114086      -248.0069
  35   2.0000      -9.114055      -248.0061
  36   2.0000      -9.113216      -247.9832
  37   2.0000      -9.113176      -247.9821
  38   2.0000      -9.112288      -247.9580
  39   2.0000      -9.112233      -247.9565
  40   2.0000      -9.112207      -247.9558
  41   2.0000      -9.112199      -247.9555
  42   2.0000      -9.112071      -247.9521
  43   2.0000      -9.111898      -247.9474
  44   2.0000      -9.111859      -247.9463
  45   2.0000      -9.111837      -247.9457
  46   2.0000      -9.110965      -247.9220
  47   2.0000      -9.110950      -247.9215
  48   2.0000      -9.110910      -247.9205
  49   2.0000      -9.110890      -247.9199
  50   2.0000      -9.110819      -247.9180
  51   2.0000      -9.110765      -247.9165
  52   2.0000      -9.110246      -247.9024
  53   2.0000      -9.110239      -247.9022
  54   2.0000      -1.802389       -49.0455
  55   2.0000      -1.784920       -48.5702
  56   2.0000      -1.503246       -40.9054
  57   2.0000      -1.494661       -40.6718
  58   2.0000      -1.466595       -39.9081
  59   2.0000      -1.462355       -39.7927
  60   2.0000      -1.453595       -39.5543
  61   2.0000      -1.444425       -39.3048
  62   2.0000      -1.430599       -38.9286
  63   2.0000      -1.429449       -38.8973
  64   2.0000      -1.413859       -38.4731
  65   2.0000      -1.388645       -37.7870
  66   2.0000      -1.342582       -36.5335
  67   2.0000      -1.332839       -36.2684
  68   2.0000      -1.300649       -35.3925
  69   2.0000      -1.291123       -35.1332
  70   2.0000      -1.245818       -33.9004
  71   2.0000      -1.191473       -32.4216
  72   2.0000      -1.190712       -32.4009
  73   2.0000      -1.142815       -31.0976
  74   2.0000      -1.136125       -30.9155
  75   2.0000      -1.086787       -29.5730
  76   2.0000      -1.083876       -29.4938
  77   2.0000      -1.063533       -28.9402
  78   2.0000      -1.043671       -28.3997
  79   2.0000      -1.043522       -28.3957
  80   2.0000      -1.015272       -27.6269
  81   2.0000      -1.009876       -27.4801
  82   2.0000      -0.992553       -27.0087
  83   2.0000      -0.980466       -26.6798
  84   2.0000      -0.974515       -26.5179
  85   2.0000      -0.972037       -26.4505
  86   2.0000      -0.948976       -25.8230
  87   2.0000      -0.943425       -25.6719
  88   2.0000      -0.934197       -25.4208
  89   2.0000      -0.923319       -25.1248
  90   2.0000      -0.891497       -24.2589
  91   2.0000      -0.882955       -24.0264
  92   2.0000      -0.850403       -23.1406
  93   2.0000      -0.848003       -23.0753
  94   2.0000      -0.836481       -22.7618
  95   2.0000      -0.832524       -22.6541
  96   2.0000      -0.825268       -22.4567
  97   2.0000      -0.825001       -22.4494
  98   2.0000      -0.824971       -22.4486
  99   2.0000      -0.824482       -22.4353
 100   2.0000      -0.824169       -22.4268
 101   2.0000      -0.824113       -22.4253
 102   2.0000      -0.818159       -22.2632
 103   2.0000      -0.817840       -22.2546
 104   2.0000      -0.809138       -22.0178
 105   2.0000      -0.808557       -22.0019
 106   2.0000      -0.793124       -21.5820
 107   2.0000      -0.775124       -21.0922
 108   2.0000      -0.703967       -19.1559
 109   2.0000      -0.696328       -18.9481
 110   2.0000      -0.684443       -18.6246
 111   2.0000      -0.680332       -18.5128
 112   0.0000      -0.367095        -9.9892
 113   0.0000      -0.351165        -9.5557
 114   0.0000      -0.323170        -8.7939
 115   0.0000      -0.322310        -8.7705
 116   0.0000      -0.319180        -8.6853

MULLIKEN ATOMIC CHARGES
-----------------------
   0 C :    0.263327
   1 C :    0.262170
   2 C :   -0.121409
   3 C :    0.045755
   4 C :    0.046172
   5 C :   -0.122086
   6 Cl:   -0.033347
   7 Cl:   -0.037238
   8 Cl:   -0.037245
   9 Cl:   -0.033334
  10 O :   -0.232734
  11 C :    0.263012
  12 C :    0.262439
  13 C :   -0.121196
  14 C :    0.044361
  15 C :    0.045826
  16 C :   -0.120912
  17 Cl:   -0.033279
  18 Cl:   -0.037238
  19 Cl:   -0.037013
  20 Cl:   -0.033310
  21 O :   -0.232721
Sum of atomic charges:   -0.0000000

LOEWDIN ATOMIC CHARGES
----------------------
   0 C :   -0.190266
   1 C :   -0.190269
   2 C :   -0.406108
   3 C :   -0.443460
   4 C :   -0.443455
   5 C :   -0.406111
   6 Cl:    0.439898
   7 Cl:    0.430937
   8 Cl:    0.430941
   9 Cl:    0.439897
  10 O :    0.337994
  11 C :   -0.190267
  12 C :   -0.190268
  13 C :   -0.406112
  14 C :   -0.443458
  15 C :   -0.443456
  16 C :   -0.406111
  17 Cl:    0.439898
  18 Cl:    0.430940
  19 Cl:    0.430940
  20 Cl:    0.439900
  21 O :    0.337995

  Mayer bond orders larger than 0.100000
B(  0-C ,  1-C ) :   1.4256 B(  0-C ,  5-C ) :   1.2817 B(  0-C , 21-O ) :   1.0686
B(  1-C ,  2-C ) :   1.2823 B(  1-C , 10-O ) :   1.0685 B(  2-C ,  3-C ) :   1.3149
B(  2-C ,  9-Cl) :   1.2358 B(  3-C ,  4-C ) :   1.3477 B(  3-C ,  8-Cl) :   1.1684
B(  4-C ,  5-C ) :   1.3149 B(  4-C ,  7-Cl) :   1.1682 B(  5-C ,  6-Cl) :   1.2367
B( 10-O , 11-C ) :   1.0686 B( 11-C , 12-C ) :   1.4251 B( 11-C , 16-C ) :   1.2816
B( 12-C , 13-C ) :   1.2823 B( 12-C , 21-O ) :   1.0686 B( 13-C , 14-C ) :   1.3153
B( 13-C , 20-Cl) :   1.2358 B( 14-C , 15-C ) :   1.3474 B( 14-C , 19-Cl) :   1.1712
B( 15-C , 16-C ) :   1.3153 B( 15-C , 18-Cl) :   1.1704 B( 16-C , 17-Cl) :   1.2366

FINAL SINGLE POINT ENERGY     -4288.898176896026

DIPOLE MOMENT
-------------

Method             : SCF
Type of density    : Electron Density
Multiplicity       :   1
Irrep              :   0
Energy             : -4288.9109092342259828 Eh
Relativity type    :
Basis              : AO
                                X                 Y                 Z
Electronic contribution:      0.000006190      -0.000006305      -0.001707252
Nuclear contribution   :     -0.000000256      -0.000000239       0.001779938
                        -----------------------------------------
Total Dipole Moment    :      0.000005934      -0.000006544       0.000072686
                        -----------------------------------------
Magnitude (a.u.)       :      0.000073221
Magnitude (Debye)      :      0.000186114

Rotational constants in cm-1:             0.008693             0.003141             0.002307
Rotational constants in MHz :           260.607463            94.174051            69.176269

                             ****ORCA TERMINATED NORMALLY****
TOTAL RUN TIME: 0 days 0 hours 15 minutes 56 seconds 137 msec
