                         Program Version 6.0.0  -   RELEASE  -
|  1> ! r2scan-3c def2/J RI DEFGRID2 scfconv6 printgap
|  2> %output
|  3>     printlevel normal
|  4> end
|  5> * xyz 0 1
|  6> C -2.2789275844 0.3011028885 0.1032724269
|  7> C -1.3668122572 1.3320541499 -0.0476647434
|  8> C -0.0181255519 1.0508782054 -0.1736199966
|  9> C 0.4328254289 -0.2625301226 -0.1435311677
| 10> C -0.48630141 -1.2917819987 0.011652446
| 11> C -1.8362155193 -1.0109323793 0.1306040774
| 12> C 1.9050552173 -0.5614213085 -0.2939749174
| 13> O 2.7479308177 0.402117422 0.3027406436
| 14> H -3.3317750554 0.5191191279 0.1998255761
| 15> H -1.7061802233 2.3567140719 -0.0714179857
| 16> H 0.7006101897 1.8482325907 -0.2946261923
| 17> H -0.1427676544 -2.3158091896 0.036635736
| 18> H -2.5437112621 -1.8177222434 0.2498458051
| 19> H 2.1265249205 -1.5625303312 0.1001790662
| 20> H 2.1691232563 -0.5513780371 -1.357346046
| 21> H 2.5852430458 0.4148558372 1.2558684669
| 22> *
| 23>
| 24>                          ****END OF INPUT****

CARTESIAN COORDINATES (ANGSTROEM)
---------------------------------
  C     -2.278928    0.301103    0.103272
  C     -1.366812    1.332054   -0.047665
  C     -0.018126    1.050878   -0.173620
  C      0.432825   -0.262530   -0.143531
  C     -0.486301   -1.291782    0.011652
  C     -1.836216   -1.010932    0.130604
  C      1.905055   -0.561421   -0.293975
  O      2.747931    0.402117    0.302741
  H     -3.331775    0.519119    0.199826
  H     -1.706180    2.356714   -0.071418
  H      0.700610    1.848233   -0.294626
  H     -0.142768   -2.315809    0.036636
  H     -2.543711   -1.817722    0.249846
  H      2.126525   -1.562530    0.100179
  H      2.169123   -0.551378   -1.357346
  H      2.585243    0.414856    1.255868

 Total Charge           Charge          ....    0
 Multiplicity           Mult            ....    1
 Number of Electrons    NEL             ....   58
 Basis Dimension        Dim             ....  197

ORBITAL ENERGIES
----------------

  NO   OCC          E(Eh)            E(eV)
   0   2.0000     -18.954626      -515.7816
   1   2.0000     -10.084708      -274.4189
   2   2.0000     -10.042917      -273.2817
   3   2.0000     -10.037490      -273.1340
   4   2.0000     -10.036900      -273.1179
   5   2.0000     -10.036519      -273.1076
   6   2.0000     -10.035421      -273.0777
   7   2.0000     -10.033171      -273.0165
   8   2.0000      -0.991767       -26.9874
   9   2.0000      -0.829914       -22.5831
  10   2.0000      -0.736617       -20.0444
  11   2.0000      -0.718352       -19.5474
  12   2.0000      -0.647710       -17.6251
  13   2.0000      -0.578814       -15.7503
  14   2.0000      -0.560435       -15.2502
  15   2.0000      -0.497648       -13.5417
  16   2.0000      -0.469834       -12.7848
  17   2.0000      -0.433295       -11.7906
  18   2.0000      -0.414694       -11.2844
  19   2.0000      -0.414382       -11.2759
  20   2.0000      -0.393663       -10.7121
  21   2.0000      -0.389112       -10.5883
  22   2.0000      -0.343552        -9.3485
  23   2.0000      -0.333174        -9.0661
  24   2.0000      -0.314821        -8.5667
  25   2.0000      -0.296022        -8.0552
  26   2.0000      -0.252684        -6.8759
  27   2.0000      -0.239931        -6.5289
  28   2.0000      -0.228694        -6.2231
  29   0.0000      -0.035751        -0.9728
  30   0.0000      -0.034458        -0.9377
  31   0.0000       0.061796         1.6816
  32   0.0000       0.085427         2.3246
  33   0.0000       0.105571         2.8727

MULLIKEN ATOMIC CHARGES
-----------------------
   0 C :   -0.142383
   1 C :   -0.150901
   2 C :   -0.189922
   3 C :    0.142485
   4 C :   -0.226040
   5 C :   -0.152645
   6 C :   -0.205268
   7 O :   -0.428419
   8 H :    0.147110
   9 H :    0.145997
  10 H :    0.173450
  11 H :    0.147924
  12 H :    0.145727
  13 H :    0.137547
  14 H :    0.154650
  15 H :    0.300687
Sum of atomic charges:    0.0000000

LOEWDIN ATOMIC CHARGES
----------------------
   0 C :   -0.168582
   1 C :   -0.159803
   2 C :   -0.150006
   3 C :   -0.088659
   4 C :   -0.162891
   5 C :   -0.161414
   6 C :    0.028722
   7 O :   -0.608428
   8 H :    0.166759
   9 H :    0.167221
  10 H :    0.180818
  11 H :    0.168745
  12 H :    0.166915
  13 H :    0.164221
  14 H :    0.187872
  15 H :    0.268509

  Mayer bond orders larger than 0.100000
B(  0-C ,  1-C ) :   1.4139 B(  0-C ,  5-C ) :   1.4287 B(  0-C ,  8-H ) :   0.9470
B(  1-C ,  2-C ) :   1.4116 B(  1-C ,  9-H ) :   0.9554 B(  2-C ,  3-C ) :   1.4174
B(  2-C , 10-H ) :   0.9540 B(  3-C ,  4-C ) :   1.4070 B(  3-C ,  6-C ) :   0.8257
B(  4-C ,  5-C ) :   1.4327 B(  4-C , 11-H ) :   0.9402 B(  5-C , 12-H ) :   0.9485
B(  6-C ,  7-O ) :   1.0036 B(  6-C , 13-H ) :   1.0201 B(  6-C , 14-H ) :   0.9619
B(  7-O , 15-H ) :   0.8939

Dispersion correction           -0.004927160
FINAL SINGLE POINT ENERGY      -346.689374722213

DIPOLE MOMENT
-------------

Method             : SCF
Type of density    : Electron Density
Multiplicity       :   1
Irrep              :   0
Energy             :  -346.6902617135897913 Eh
Relativity type    :
Basis              : AO
                                X                 Y                 Z
Electronic contribution:     -0.254001484       0.747545929       0.168090196
Nuclear contribution   :     -0.093311224      -1.034014553       0.116102565
                        -----------------------------------------
Total Dipole Moment    :     -0.347312707      -0.286468624       0.284192761
                        -----------------------------------------
Magnitude (a.u.)       :      0.532405780
Magnitude (Debye)      :      1.353267947

Rotational constants in cm-1:             0.163184             0.049707             0.039370
Rotational constants in MHz :          4892.136573          1490.178047          1180.283445

                             ****ORCA TERMINATED NORMALLY****
TOTAL RUN TIME: 0 days 0 hours 0 minutes 20 seconds 740 msec
