                         Program Version 6.0.0  -   RELEASE  -
|  1> ! r2scan-3c def2/J RI DEFGRID2 scfconv6 printgap
|  2> %output
|  3>     printlevel normal
|  4> end
|  5> %cpcm
|  6>     smd true
|  7>     smdsolvent "water"
|  8> end
|  9> * xyz 0 1
| 10> C -2.2789275844 0.3011028885 0.1032724269
| 11> C -1.3668122572 1.3320541499 -0.0476647434
| 12> C -0.0181255519 1.0508782054 -0.1736199966
| 13> C 0.4328254289 -0.2625301226 -0.1435311677
| 14> C -0.48630141 -1.2917819987 0.011652446
| 15> C -1.8362155193 -1.0109323793 0.1306040774
| 16> C 1.9050552173 -0.5614213085 -0.2939749174
| 17> O 2.7479308177 0.402117422 0.3027406436
| 18> H -3.3317750554 0.5191191279 0.1998255761
| 19> H -1.7061802233 2.3567140719 -0.0714179857
| 20> H 0.7006101897 1.8482325907 -0.2946261923
| 21> H -0.1427676544 -2.3158091896 0.036635736
| 22> H -2.5437112621 -1.8177222434 0.2498458051
| 23> H 2.1265249205 -1.5625303312 0.1001790662
| 24> H 2.1691232563 -0.5513780371 -1.357346046
| 25> H 2.5852430458 0.4148558372 1.2558684669
| 26> *
| 27>
| 28>                          ****END OF INPUT****

CARTESIAN COORDINATES (ANGSTROEM)
---------------------------------
  C     -2.278928    0.301103    0.103272
  C     -1.366812    1.332054   -0.047665
  C     -0.018126    1.050878   -0.173620
  C      0.432825   -0.262530   -0.143531
  C     -0.486301   -1.291782    0.011652
  C     -1.836216   -1.010932    0.130604
  C      1.905055   -0.561421   -0.293975
  O      2.747931    0.402117    0.302741
  H     -3.331775    0.519119    0.199826
  H     -1.706180    2.356714   -0.071418
  H      0.700610    1.848233   -0.294626
  H     -0.142768   -2.315809    0.036636
  H     -2.543711   -1.817722    0.249846
  H      2.126525   -1.562530    0.100179
  H      2.169123   -0.551378   -1.357346
  H      2.585243    0.414856    1.255868

 Total Charge           Charge          ....    0
 Multiplicity           Mult            ....    1
 Number of Electrons    NEL             ....   58
 Basis Dimension        Dim             ....  197

ORBITAL ENERGIES
----------------

  NO   OCC          E(Eh)            E(eV)
   0   2.0000     -18.955274      -515.7992
   1   2.0000     -10.077608      -274.2256
   2   2.0000     -10.040588      -273.2183
   3   2.0000     -10.033263      -273.0190
   4   2.0000     -10.033200      -273.0172
   5   2.0000     -10.032134      -272.9882
   6   2.0000     -10.031466      -272.9701
   7   2.0000     -10.031015      -272.9578
   8   2.0000      -0.991329       -26.9754
   9   2.0000      -0.828175       -22.5358
  10   2.0000      -0.733230       -19.9522
  11   2.0000      -0.715584       -19.4720
  12   2.0000      -0.642950       -17.4955
  13   2.0000      -0.574589       -15.6354
  14   2.0000      -0.556288       -15.1374
  15   2.0000      -0.493205       -13.4208
  16   2.0000      -0.464392       -12.6368
  17   2.0000      -0.428219       -11.6524
  18   2.0000      -0.411936       -11.2094
  19   2.0000      -0.409394       -11.1402
  20   2.0000      -0.389544       -10.6000
  21   2.0000      -0.383600       -10.4383
  22   2.0000      -0.344938        -9.3862
  23   2.0000      -0.330242        -8.9863
  24   2.0000      -0.309374        -8.4185
  25   2.0000      -0.294802        -8.0220
  26   2.0000      -0.254295        -6.9197
  27   2.0000      -0.240069        -6.5326
  28   2.0000      -0.228384        -6.2146
  29   0.0000      -0.034769        -0.9461
  30   0.0000      -0.033056        -0.8995
  31   0.0000       0.075227         2.0470
  32   0.0000       0.097490         2.6528
  33   0.0000       0.112864         3.0712

MULLIKEN ATOMIC CHARGES
-----------------------
   0 C :   -0.175742
   1 C :   -0.201840
   2 C :   -0.216068
   3 C :    0.142052
   4 C :   -0.248712
   5 C :   -0.189471
   6 C :   -0.193323
   7 O :   -0.502914
   8 H :    0.179528
   9 H :    0.177521
  10 H :    0.186995
  11 H :    0.180943
  12 H :    0.178013
  13 H :    0.159751
  14 H :    0.171244
  15 H :    0.352023
Sum of atomic charges:    0.0000000

LOEWDIN ATOMIC CHARGES
----------------------
   0 C :   -0.181113
   1 C :   -0.171000
   2 C :   -0.162456
   3 C :   -0.089331
   4 C :   -0.167049
   5 C :   -0.171616
   6 C :    0.030004
   7 O :   -0.640162
   8 H :    0.177037
   9 H :    0.177530
  10 H :    0.184256
  11 H :    0.180914
  12 H :    0.177578
  13 H :    0.175888
  14 H :    0.193284
  15 H :    0.286236

  Mayer bond orders larger than 0.100000
B(  0-C ,  1-C ) :   1.3829 B(  0-C ,  5-C ) :   1.3897 B(  0-C ,  8-H ) :   0.9533
B(  1-C ,  2-C ) :   1.3957 B(  1-C ,  9-H ) :   0.9625 B(  2-C ,  3-C ) :   1.3654
B(  2-C , 10-H ) :   0.9585 B(  3-C ,  4-C ) :   1.3954 B(  3-C ,  6-C ) :   0.8417
B(  4-C ,  5-C ) :   1.3989 B(  4-C , 11-H ) :   0.9487 B(  5-C , 12-H ) :   0.9577
B(  6-C ,  7-O ) :   0.9888 B(  6-C , 13-H ) :   1.0042 B(  6-C , 14-H ) :   0.9593
B(  7-O , 15-H ) :   0.8676

Dispersion correction           -0.004927160
FINAL SINGLE POINT ENERGY      -346.698244715092

DIPOLE MOMENT
-------------

Method             : SCF
Type of density    : Electron Density
Multiplicity       :   1
Irrep              :   0
Energy             :  -346.6991317064682221 Eh
Relativity type    :
Basis              : AO
                                X                 Y                 Z
Electronic contribution:     -0.357806654       0.559452848       0.290693865
Nuclear contribution   :     -0.093311224      -1.034014553       0.116102565
                        -----------------------------------------
Total Dipole Moment    :     -0.451117878      -0.474561705       0.406796430
                        -----------------------------------------
Magnitude (a.u.)       :      0.770843361
Magnitude (Debye)      :      1.959328113

Rotational constants in cm-1:             0.163184             0.049707             0.039370
Rotational constants in MHz :          4892.136573          1490.178047          1180.283445

                             ****ORCA TERMINATED NORMALLY****
TOTAL RUN TIME: 0 days 0 hours 0 minutes 24 seconds 491 msec
