                         Program Version 6.0.0  -   RELEASE  -
|  1> ! pbe def2-sv(p) def2/J RI DEFGRID1 loosescf d4 GCP(DFT/SV(P)) printgap
|  2> %output
|  3>     printlevel normal
|  4> end
|  5> * xyz 0 1
|  6> C -3.0585686563 0.7221953568 0.6129221991
|  7> O -1.8553550546 0.7076296717 -0.1603080541
|  8> C -1.0696928458 -0.3628735714 -0.1109722399
|  9> O -1.3191897586 -1.3412858334 0.5620898402
| 10> C 0.126863343 -0.2214726779 -1.0311348582
| 11> C 1.1672439054 -1.3094099089 -0.7547642568
| 12> C 1.859312891 -1.0841505864 0.5874801542
| 13> C 2.4888266316 0.3040929828 0.6477418057
| 14> C 1.4287221114 1.3759537682 0.4141537113
| 15> C 0.7581402417 1.1726349584 -0.9412525788
| 16> H -3.067504606 1.6506322276 1.1797530449
| 17> H -3.0813859393 -0.1398330183 1.2806760487
| 18> H -3.9035662394 0.6892308923 -0.0732108089
| 19> H -0.2772127811 -0.3583553873 -2.0417142267
| 20> H 0.6778991253 -2.2849408366 -0.7541963825
| 21> H 1.9088771653 -1.294301147 -1.5546772188
| 22> H 1.124366153 -1.1899820234 1.3885640089
| 23> H 2.6235921865 -1.8490711037 0.7348245696
| 24> H 2.962529217 0.4533149506 1.6195150057
| 25> H 3.2608687239 0.3857823105 -0.120261605
| 26> H 0.6767903162 1.3194404582 1.2053888939
| 27> H 1.8833798849 2.3671741599 0.4532774939
| 28> H -0.0054597351 1.9332441839 -1.1040407052
| 29> H 1.507065141 1.2623094976 -1.7297435995
| 30> *
| 31>
| 32>                          ****END OF INPUT****

CARTESIAN COORDINATES (ANGSTROEM)
---------------------------------
  C     -3.058569    0.722195    0.612922
  O     -1.855355    0.707630   -0.160308
  C     -1.069693   -0.362874   -0.110972
  O     -1.319190   -1.341286    0.562090
  C      0.126863   -0.221473   -1.031135
  C      1.167244   -1.309410   -0.754764
  C      1.859313   -1.084151    0.587480
  C      2.488827    0.304093    0.647742
  C      1.428722    1.375954    0.414154
  C      0.758140    1.172635   -0.941253
  H     -3.067505    1.650632    1.179753
  H     -3.081386   -0.139833    1.280676
  H     -3.903566    0.689231   -0.073211
  H     -0.277213   -0.358355   -2.041714
  H      0.677899   -2.284941   -0.754196
  H      1.908877   -1.294301   -1.554677
  H      1.124366   -1.189982    1.388564
  H      2.623592   -1.849071    0.734825
  H      2.962529    0.453315    1.619515
  H      3.260869    0.385782   -0.120262
  H      0.676790    1.319440    1.205389
  H      1.883380    2.367174    0.453277
  H     -0.005460    1.933244   -1.104041
  H      1.507065    1.262309   -1.729744

 Total Charge           Charge          ....    0
 Multiplicity           Mult            ....    1
 Number of Electrons    NEL             ....   78
 Basis Dimension        Dim             ....  168

ORBITAL ENERGIES
----------------

  NO   OCC          E(Eh)            E(eV)
   0   2.0000     -18.799027      -511.5475
   1   2.0000     -18.735678      -509.8237
   2   2.0000     -10.006050      -272.2785
   3   2.0000      -9.940317      -270.4898
   4   2.0000      -9.904051      -269.5029
   5   2.0000      -9.885634      -269.0018
   6   2.0000      -9.882194      -268.9082
   7   2.0000      -9.880903      -268.8730
   8   2.0000      -9.878878      -268.8179
   9   2.0000      -9.875372      -268.7225
  10   2.0000      -1.006018       -27.3751
  11   2.0000      -0.911333       -24.7986
  12   2.0000      -0.759960       -20.6796
  13   2.0000      -0.691361       -18.8129
  14   2.0000      -0.665573       -18.1112
  15   2.0000      -0.650926       -17.7126
  16   2.0000      -0.558854       -15.2072
  17   2.0000      -0.539751       -14.6874
  18   2.0000      -0.514795       -14.0083
  19   2.0000      -0.492233       -13.3943
  20   2.0000      -0.447826       -12.1860
  21   2.0000      -0.436038       -11.8652
  22   2.0000      -0.424735       -11.5576
  23   2.0000      -0.411580       -11.1997
  24   2.0000      -0.393124       -10.6975
  25   2.0000      -0.388220       -10.5640
  26   2.0000      -0.378179       -10.2908
  27   2.0000      -0.359247        -9.7756
  28   2.0000      -0.333986        -9.0882
  29   2.0000      -0.332554        -9.0493
  30   2.0000      -0.326375        -8.8811
  31   2.0000      -0.324396        -8.8273
  32   2.0000      -0.301122        -8.1939
  33   2.0000      -0.295919        -8.0524
  34   2.0000      -0.280792        -7.6407
  35   2.0000      -0.260493        -7.0884
  36   2.0000      -0.258127        -7.0240
  37   2.0000      -0.255120        -6.9422
  38   2.0000      -0.219711        -5.9786
  39   0.0000      -0.021988        -0.5983
  40   0.0000       0.034655         0.9430
  41   0.0000       0.048551         1.3211
  42   0.0000       0.065376         1.7790
  43   0.0000       0.074096         2.0163

MULLIKEN ATOMIC CHARGES
-----------------------
   0 C :   -0.130071
   1 O :   -0.242559
   2 C :    0.133166
   3 O :   -0.193086
   4 C :   -0.191469
   5 C :   -0.095636
   6 C :   -0.168585
   7 C :   -0.153762
   8 C :   -0.160226
   9 C :   -0.115676
  10 H :    0.122160
  11 H :    0.134250
  12 H :    0.122215
  13 H :    0.098823
  14 H :    0.094791
  15 H :    0.071450
  16 H :    0.095894
  17 H :    0.083008
  18 H :    0.083458
  19 H :    0.070544
  20 H :    0.083724
  21 H :    0.084541
  22 H :    0.097184
  23 H :    0.075863
Sum of atomic charges:   -0.0000000

LOEWDIN ATOMIC CHARGES
----------------------
   0 C :   -0.208662
   1 O :   -0.069270
   2 C :    0.045052
   3 O :   -0.163921
   4 C :   -0.166549
   5 C :   -0.213816
   6 C :   -0.229906
   7 C :   -0.226626
   8 C :   -0.227495
   9 C :   -0.216159
  10 H :    0.120270
  11 H :    0.124509
  12 H :    0.120228
  13 H :    0.140664
  14 H :    0.124337
  15 H :    0.115430
  16 H :    0.120266
  17 H :    0.116757
  18 H :    0.115473
  19 H :    0.111773
  20 H :    0.114217
  21 H :    0.117106
  22 H :    0.119903
  23 H :    0.116419

  Mayer bond orders larger than 0.100000
B(  0-C ,  1-O ) :   0.9369 B(  0-C , 10-H ) :   0.9603 B(  0-C , 11-H ) :   0.9289
B(  0-C , 12-H ) :   0.9607 B(  1-O ,  2-C ) :   1.2076 B(  2-C ,  3-O ) :   2.0629
B(  2-C ,  4-C ) :   0.9388 B(  4-C ,  5-C ) :   1.1008 B(  4-C ,  9-C ) :   1.0855
B(  4-C , 13-H ) :   0.8595 B(  5-C ,  6-C ) :   1.1310 B(  5-C , 14-H ) :   0.9055
B(  5-C , 15-H ) :   0.9105 B(  6-C ,  7-C ) :   1.1297 B(  6-C , 16-H ) :   0.9117
B(  6-C , 17-H ) :   0.9177 B(  7-C ,  8-C ) :   1.1283 B(  7-C , 18-H ) :   0.9196
B(  7-C , 19-H ) :   0.9146 B(  8-C ,  9-C ) :   1.1301 B(  8-C , 20-H ) :   0.9122
B(  8-C , 21-H ) :   0.9176 B(  9-C , 22-H ) :   0.9073 B(  9-C , 23-H ) :   0.9102

Dispersion correction           -0.023693754
FINAL SINGLE POINT ENERGY      -462.706081978617

DIPOLE MOMENT
-------------

Method             : SCF
Type of density    : Electron Density
Multiplicity       :   1
Irrep              :   0
Energy             :  -462.7943285917058347 Eh
Relativity type    :
Basis              : AO
                                X                 Y                 Z
Electronic contribution:     -6.050653409      -2.110560714      -0.676531774
Nuclear contribution   :      5.854228444       2.753174593       0.460174818
                        -----------------------------------------
Total Dipole Moment    :     -0.196424965       0.642613879      -0.216356956
                        -----------------------------------------
Magnitude (a.u.)       :      0.705936043
Magnitude (Debye)      :      1.794346823

Rotational constants in cm-1:             0.076761             0.032418             0.028337
Rotational constants in MHz :          2301.235832           971.880341           849.521211

                             ****ORCA TERMINATED NORMALLY****
TOTAL RUN TIME: 0 days 0 hours 0 minutes 12 seconds 477 msec
