                         Program Version 6.0.0  -   RELEASE  -
|  1> ! pbe def2-sv(p) def2/J RI DEFGRID1 loosescf d4 GCP(DFT/SV(P)) printgap
|  2> %output
|  3>     printlevel normal
|  4> end
|  5> * xyz 0 1
|  6> C -1.9505054903 0.4890432977 0.103222774
|  7> C -0.8999795687 -0.5767846943 -0.1796668953
|  8> C 0.5508936282 -0.1620037944 -0.030360404
|  9> O 1.4563096637 -0.9859597776 -0.162793295
| 10> N 0.8046897624 1.1209355874 0.2428325038
| 11> H -1.8746514168 1.3138930179 -0.6008059533
| 12> H -2.9391856048 0.0503828924 -0.0059505813
| 13> H -1.862672738 0.8646329583 1.1196030874
| 14> H -1.0075430138 -0.9522755663 -1.2003247985
| 15> H -1.0425431592 -1.4353583492 0.4806348118
| 16> H 0.0668759081 1.7945406379 0.3479692003
| 17> H 1.7631307939 1.4137497296 0.3411585135
| 18> *
| 19>
| 20>                          ****END OF INPUT****

CARTESIAN COORDINATES (ANGSTROEM)
---------------------------------
  C     -1.950505    0.489043    0.103223
  C     -0.899980   -0.576785   -0.179667
  C      0.550894   -0.162004   -0.030360
  O      1.456310   -0.985960   -0.162793
  N      0.804690    1.120936    0.242833
  H     -1.874651    1.313893   -0.600806
  H     -2.939186    0.050383   -0.005951
  H     -1.862673    0.864633    1.119603
  H     -1.007543   -0.952276   -1.200325
  H     -1.042543   -1.435358    0.480635
  H      0.066876    1.794541    0.347969
  H      1.763131    1.413750    0.341159

 Total Charge           Charge          ....    0
 Multiplicity           Mult            ....    1
 Number of Electrons    NEL             ....   40
 Basis Dimension        Dim             ....   84

ORBITAL ENERGIES
----------------

  NO   OCC          E(Eh)            E(eV)
   0   2.0000     -18.695356      -508.7265
   1   2.0000     -14.010179      -381.2363
   2   2.0000      -9.973201      -271.3846
   3   2.0000      -9.893220      -269.2082
   4   2.0000      -9.892120      -269.1783
   5   2.0000      -0.916007       -24.9258
   6   2.0000      -0.815779       -22.1985
   7   2.0000      -0.702532       -19.1169
   8   2.0000      -0.588522       -16.0145
   9   2.0000      -0.527747       -14.3607
  10   2.0000      -0.498345       -13.5607
  11   2.0000      -0.421728       -11.4758
  12   2.0000      -0.402147       -10.9430
  13   2.0000      -0.369202       -10.0465
  14   2.0000      -0.351326        -9.5601
  15   2.0000      -0.326508        -8.8847
  16   2.0000      -0.323036        -8.7903
  17   2.0000      -0.305129        -8.3030
  18   2.0000      -0.220002        -5.9866
  19   2.0000      -0.184610        -5.0235
  20   0.0000       0.006043         0.1644
  21   0.0000       0.021705         0.5906
  22   0.0000       0.063950         1.7402
  23   0.0000       0.074066         2.0154
  24   0.0000       0.090277         2.4565

MULLIKEN ATOMIC CHARGES
-----------------------
   0 C :   -0.313017
   1 C :   -0.201681
   2 C :    0.022703
   3 O :   -0.235162
   4 N :   -0.303947
   5 H :    0.110311
   6 H :    0.113446
   7 H :    0.112508
   8 H :    0.120861
   9 H :    0.118699
  10 H :    0.224929
  11 H :    0.230350
Sum of atomic charges:   -0.0000000

LOEWDIN ATOMIC CHARGES
----------------------
   0 C :   -0.355107
   1 C :   -0.258203
   2 C :    0.006555
   3 O :   -0.222610
   4 N :   -0.288372
   5 H :    0.118022
   6 H :    0.130472
   7 H :    0.119451
   8 H :    0.142559
   9 H :    0.141882
  10 H :    0.230245
  11 H :    0.235108

  Mayer bond orders larger than 0.100000
B(  0-C ,  1-C ) :   1.1399 B(  0-C ,  5-H ) :   0.9450 B(  0-C ,  6-H ) :   0.9403
B(  0-C ,  7-H ) :   0.9492 B(  1-C ,  2-C ) :   0.9973 B(  1-C ,  8-H ) :   0.9066
B(  1-C ,  9-H ) :   0.9090 B(  2-C ,  3-O ) :   2.0799 B(  2-C ,  4-N ) :   1.3109
B(  4-N , 10-H ) :   0.8542 B(  4-N , 11-H ) :   0.8634

Dispersion correction           -0.007554383
FINAL SINGLE POINT ENERGY      -247.971611569170

DIPOLE MOMENT
-------------

Method             : SCF
Type of density    : Electron Density
Multiplicity       :   1
Irrep              :   0
Energy             :  -248.0178115983527505 Eh
Relativity type    :
Basis              : AO
                                X                 Y                 Z
Electronic contribution:      5.600286520      -1.644423831      -0.245232090
Nuclear contribution   :     -6.444125244       2.852544913       0.451384864
                        -----------------------------------------
Total Dipole Moment    :     -0.843838724       1.208121082       0.206152775
                        -----------------------------------------
Magnitude (a.u.)       :      1.487991702
Magnitude (Debye)      :      3.782174333

Rotational constants in cm-1:             0.317998             0.130009             0.095620
Rotational constants in MHz :          9533.334942          3897.582305          2866.609245

                             ****ORCA TERMINATED NORMALLY****
TOTAL RUN TIME: 0 days 0 hours 0 minutes 4 seconds 413 msec
