                         Program Version 6.0.0  -   RELEASE  -
|  1> ! pbe def2-sv(p) def2/J RI DEFGRID1 loosescf d4 GCP(DFT/SV(P)) printgap
|  2> %output
|  3>     printlevel normal
|  4> end
|  5> * xyz 0 1
|  6> C -2.3096130917 -0.8834464193 0.7259998488
|  7> C -0.8588587233 -0.3835757973 0.737873287
|  8> H -0.5723114424 -0.1422174776 1.7705227468
|  9> C -0.6659281207 0.8680726957 -0.1309406653
| 10> H -0.950980974 0.6233909337 -1.1637806061
| 11> C 0.8145038321 1.2933396688 -0.1365156884
| 12> H 0.8994610522 2.1529513885 0.5383735854
| 13> C 1.7456659083 0.1798632419 0.3908826925
| 14> H 2.7476249163 0.3474345204 -0.0324698961
| 15> C 1.2539888816 -1.1738011043 -0.1477111066
| 16> H 1.8629308962 -2.0033568397 0.2389484813
| 17> O -0.0672168845 -1.4656554696 0.2509708123
| 18> O 1.3957915924 -1.2325222575 -1.5326382314
| 19> O 1.7791988985 0.2429119536 1.7919461157
| 20> O 1.1505747357 1.6270786361 -1.4648697593
| 21> O -1.4157731168 1.9588357623 0.3439529974
| 22> O -2.7980813168 -1.0934313116 -0.5745847758
| 23> H -2.9567177203 -0.1380408926 1.1895535148
| 24> H -2.3525174132 -1.8082104501 1.3125848475
| 25> H 1.1251769943 -0.3889394043 -1.9392251055
| 26> H 2.4445347861 -0.3696052717 2.1380449054
| 27> H 1.8894341095 2.2510829286 -1.4845041391
| 28> H -2.3404365201 1.8547306347 0.0805459093
| 29> H -2.2612819477 -1.783711669 -0.9897407509
| 30> *
| 31>
| 32>                          ****END OF INPUT****

CARTESIAN COORDINATES (ANGSTROEM)
---------------------------------
  C     -2.309613   -0.883446    0.726000
  C     -0.858859   -0.383576    0.737873
  H     -0.572311   -0.142217    1.770523
  C     -0.665928    0.868073   -0.130941
  H     -0.950981    0.623391   -1.163781
  C      0.814504    1.293340   -0.136516
  H      0.899461    2.152951    0.538374
  C      1.745666    0.179863    0.390883
  H      2.747625    0.347435   -0.032470
  C      1.253989   -1.173801   -0.147711
  H      1.862931   -2.003357    0.238948
  O     -0.067217   -1.465655    0.250971
  O      1.395792   -1.232522   -1.532638
  O      1.779199    0.242912    1.791946
  O      1.150575    1.627079   -1.464870
  O     -1.415773    1.958836    0.343953
  O     -2.798081   -1.093431   -0.574585
  H     -2.956718   -0.138041    1.189554
  H     -2.352517   -1.808210    1.312585
  H      1.125177   -0.388939   -1.939225
  H      2.444535   -0.369605    2.138045
  H      1.889434    2.251083   -1.484504
  H     -2.340437    1.854731    0.080546
  H     -2.261282   -1.783712   -0.989741

 Total Charge           Charge          ....    0
 Multiplicity           Mult            ....    1
 Number of Electrons    NEL             ....   96
 Basis Dimension        Dim             ....  192

ORBITAL ENERGIES
----------------

  NO   OCC          E(Eh)            E(eV)
   0   2.0000     -18.774719      -510.8861
   1   2.0000     -18.767530      -510.6905
   2   2.0000     -18.761417      -510.5241
   3   2.0000     -18.753969      -510.3214
   4   2.0000     -18.746252      -510.1115
   5   2.0000     -18.745373      -510.0875
   6   2.0000      -9.981403      -271.6078
   7   2.0000      -9.951554      -270.7955
   8   2.0000      -9.950227      -270.7594
   9   2.0000      -9.941215      -270.5142
  10   2.0000      -9.932134      -270.2671
  11   2.0000      -9.930197      -270.2144
  12   2.0000      -0.974384       -26.5143
  13   2.0000      -0.948692       -25.8152
  14   2.0000      -0.939753       -25.5720
  15   2.0000      -0.931278       -25.3414
  16   2.0000      -0.921491       -25.0751
  17   2.0000      -0.899492       -24.4764
  18   2.0000      -0.706869       -19.2349
  19   2.0000      -0.685619       -18.6566
  20   2.0000      -0.623785       -16.9741
  21   2.0000      -0.586398       -15.9567
  22   2.0000      -0.564156       -15.3515
  23   2.0000      -0.522237       -14.2108
  24   2.0000      -0.509677       -13.8690
  25   2.0000      -0.484620       -13.1872
  26   2.0000      -0.475296       -12.9335
  27   2.0000      -0.467314       -12.7163
  28   2.0000      -0.446125       -12.1397
  29   2.0000      -0.438069       -11.9205
  30   2.0000      -0.422213       -11.4890
  31   2.0000      -0.391353       -10.6493
  32   2.0000      -0.381526       -10.3818
  33   2.0000      -0.373099       -10.1525
  34   2.0000      -0.363095        -9.8803
  35   2.0000      -0.351842        -9.5741
  36   2.0000      -0.324777        -8.8376
  37   2.0000      -0.314769        -8.5653
  38   2.0000      -0.303657        -8.2629
  39   2.0000      -0.296126        -8.0580
  40   2.0000      -0.279282        -7.5997
  41   2.0000      -0.272168        -7.4061
  42   2.0000      -0.256261        -6.9732
  43   2.0000      -0.245826        -6.6893
  44   2.0000      -0.235746        -6.4150
  45   2.0000      -0.219679        -5.9778
  46   2.0000      -0.213169        -5.8006
  47   2.0000      -0.204454        -5.5635
  48   0.0000       0.008456         0.2301
  49   0.0000       0.014030         0.3818
  50   0.0000       0.026378         0.7178
  51   0.0000       0.053475         1.4551
  52   0.0000       0.064976         1.7681

MULLIKEN ATOMIC CHARGES
-----------------------
   0 C :    0.062703
   1 C :    0.029597
   2 H :    0.066744
   3 C :    0.047241
   4 H :    0.050605
   5 C :    0.043499
   6 H :    0.083436
   7 C :   -0.001793
   8 H :    0.062337
   9 C :    0.200737
  10 H :    0.050147
  11 O :   -0.320018
  12 O :   -0.404378
  13 O :   -0.403487
  14 O :   -0.412442
  15 O :   -0.415171
  16 O :   -0.442924
  17 H :    0.077399
  18 H :    0.087761
  19 H :    0.301564
  20 H :    0.308986
  21 H :    0.311461
  22 H :    0.311688
  23 H :    0.304311
Sum of atomic charges:    0.0000000

LOEWDIN ATOMIC CHARGES
----------------------
   0 C :   -0.129537
   1 C :   -0.085171
   2 H :    0.111808
   3 C :   -0.070685
   4 H :    0.105620
   5 C :   -0.062780
   6 H :    0.122015
   7 C :   -0.101217
   8 H :    0.103474
   9 C :   -0.005009
  10 H :    0.097849
  11 O :   -0.155547
  12 O :   -0.313975
  13 O :   -0.308341
  14 O :   -0.307741
  15 O :   -0.312987
  16 O :   -0.338196
  17 H :    0.109815
  18 H :    0.106557
  19 H :    0.270406
  20 H :    0.292106
  21 H :    0.293705
  22 H :    0.291700
  23 H :    0.286130

  Mayer bond orders larger than 0.100000
B(  0-C ,  1-C ) :   1.0320 B(  0-C , 16-O ) :   1.0657 B(  0-C , 17-H ) :   0.9163
B(  0-C , 18-H ) :   0.9206 B(  1-C ,  2-H ) :   0.8485 B(  1-C ,  3-C ) :   1.0545
B(  1-C , 11-O ) :   0.9756 B(  3-C ,  4-H ) :   0.8552 B(  3-C ,  5-C ) :   1.0312
B(  3-C , 15-O ) :   1.0820 B(  5-C ,  6-H ) :   0.8547 B(  5-C ,  7-C ) :   1.0057
B(  5-C , 14-O ) :   1.0526 B(  7-C ,  8-H ) :   0.8928 B(  7-C ,  9-C ) :   0.9950
B(  7-C , 13-O ) :   1.0381 B(  9-C , 10-H ) :   0.9000 B(  9-C , 11-O ) :   1.0498
B(  9-C , 12-O ) :   1.1427 B( 12-O , 19-H ) :   0.8087 B( 13-O , 20-H ) :   0.8438
B( 14-O , 21-H ) :   0.8411 B( 15-O , 22-H ) :   0.8416 B( 16-O , 23-H ) :   0.8402

Dispersion correction           -0.025028021
FINAL SINGLE POINT ENERGY      -685.693579684150

DIPOLE MOMENT
-------------

Method             : SCF
Type of density    : Electron Density
Multiplicity       :   1
Irrep              :   0
Energy             :  -685.8246903279554090 Eh
Relativity type    :
Basis              : AO
                                X                 Y                 Z
Electronic contribution:      1.289368497      -0.178678936      -1.209208838
Nuclear contribution   :     -0.435668065       0.559239542       1.538728304
                        -----------------------------------------
Total Dipole Moment    :      0.853700431       0.380560607       0.329519465
                        -----------------------------------------
Magnitude (a.u.)       :      0.991067041
Magnitude (Debye)      :      2.519092223

Rotational constants in cm-1:             0.040054             0.026903             0.023520
Rotational constants in MHz :          1200.786520           806.521397           705.121167

                             ****ORCA TERMINATED NORMALLY****
TOTAL RUN TIME: 0 days 0 hours 0 minutes 11 seconds 883 msec
