                         Program Version 6.0.0  -   RELEASE  -
|  1> ! pbe def2-sv(p) def2/J RI DEFGRID1 loosescf d4 GCP(DFT/SV(P)) printgap
|  2> %output
|  3>     printlevel normal
|  4> end
|  5> * xyz 0 1
|  6> C 1.9699490123 5.45918e-05 0.6984889438
|  7> N 1.1116829253 5.4217e-06 -0.470403646
|  8> C 0.2799451004 -1.1869533414 -0.5980338999
|  9> C -0.9332261896 -1.1706182949 0.3414371813
| 10> O -1.713187353 7.8376e-06 0.150292262
| 11> C -0.9331558711 1.1705849292 0.3414910684
| 12> C 0.2798804669 1.1869291132 -0.5981188648
| 13> H 1.436026464 -4.78052e-05 1.6581901186
| 14> H 2.6038803774 0.8841519137 0.65704418
| 15> H 2.604045204 -0.8839274761 0.6569602369
| 16> H -0.0801618911 -1.2195280812 -1.6308239991
| 17> H 0.8863832752 -2.072208869 -0.4060439222
| 18> H -1.5998744417 -2.0073407315 0.1315272079
| 19> H -0.6080292493 -1.2244636345 1.3911495821
| 20> H -1.5997860755 2.0073549107 0.131716528
| 21> H -0.6078633742 1.2243190401 1.391173566
| 22> H -0.0803463506 1.2192853532 -1.630885278
| 23> H 0.886338187 2.0722413964 -0.4063573832
| 24> *
| 25>
| 26>                          ****END OF INPUT****

CARTESIAN COORDINATES (ANGSTROEM)
---------------------------------
  C      1.969949    0.000055    0.698489
  N      1.111683    0.000005   -0.470404
  C      0.279945   -1.186953   -0.598034
  C     -0.933226   -1.170618    0.341437
  O     -1.713187    0.000008    0.150292
  C     -0.933156    1.170585    0.341491
  C      0.279880    1.186929   -0.598119
  H      1.436026   -0.000048    1.658190
  H      2.603880    0.884152    0.657044
  H      2.604045   -0.883927    0.656960
  H     -0.080162   -1.219528   -1.630824
  H      0.886383   -2.072209   -0.406044
  H     -1.599874   -2.007341    0.131527
  H     -0.608029   -1.224464    1.391150
  H     -1.599786    2.007355    0.131717
  H     -0.607863    1.224319    1.391174
  H     -0.080346    1.219285   -1.630885
  H      0.886338    2.072241   -0.406357

 Total Charge           Charge          ....    0
 Multiplicity           Mult            ....    1
 Number of Electrons    NEL             ....   56
 Basis Dimension        Dim             ....  120

ORBITAL ENERGIES
----------------

  NO   OCC          E(Eh)            E(eV)
   0   2.0000     -18.750253      -510.2203
   1   2.0000     -13.985705      -380.5704
   2   2.0000      -9.926607      -270.1167
   3   2.0000      -9.926600      -270.1165
   4   2.0000      -9.908644      -269.6279
   5   2.0000      -9.908638      -269.6277
   6   2.0000      -9.903699      -269.4933
   7   2.0000      -0.935825       -25.4651
   8   2.0000      -0.836839       -22.7715
   9   2.0000      -0.691544       -18.8179
  10   2.0000      -0.648133       -17.6366
  11   2.0000      -0.586720       -15.9655
  12   2.0000      -0.576735       -15.6938
  13   2.0000      -0.498366       -13.5612
  14   2.0000      -0.447639       -12.1809
  15   2.0000      -0.426464       -11.6047
  16   2.0000      -0.424734       -11.5576
  17   2.0000      -0.413743       -11.2585
  18   2.0000      -0.401279       -10.9194
  19   2.0000      -0.373452       -10.1621
  20   2.0000      -0.349748        -9.5171
  21   2.0000      -0.338007        -9.1976
  22   2.0000      -0.323020        -8.7898
  23   2.0000      -0.317199        -8.6314
  24   2.0000      -0.303079        -8.2472
  25   2.0000      -0.264516        -7.1979
  26   2.0000      -0.221185        -6.0188
  27   2.0000      -0.157010        -4.2725
  28   0.0000       0.030983         0.8431
  29   0.0000       0.057214         1.5569
  30   0.0000       0.071907         1.9567
  31   0.0000       0.078495         2.1360
  32   0.0000       0.085151         2.3171

MULLIKEN ATOMIC CHARGES
-----------------------
   0 C :   -0.180840
   1 N :   -0.291348
   2 C :   -0.074974
   3 C :    0.008691
   4 O :   -0.337276
   5 C :    0.008688
   6 C :   -0.074977
   7 H :    0.084082
   8 H :    0.103303
   9 H :    0.103305
  10 H :    0.084329
  11 H :    0.083396
  12 H :    0.091356
  13 H :    0.066582
  14 H :    0.091353
  15 H :    0.066592
  16 H :    0.084332
  17 H :    0.083406
Sum of atomic charges:    0.0000000

LOEWDIN ATOMIC CHARGES
----------------------
   0 C :   -0.261666
   1 N :   -0.149712
   2 C :   -0.177087
   3 C :   -0.129270
   4 O :   -0.177096
   5 C :   -0.129268
   6 C :   -0.177081
   7 H :    0.087080
   8 H :    0.115185
   9 H :    0.115185
  10 H :    0.114993
  11 H :    0.115264
  12 H :    0.115116
  13 H :    0.096489
  14 H :    0.115115
  15 H :    0.096494
  16 H :    0.114997
  17 H :    0.115261

  Mayer bond orders larger than 0.100000
B(  0-C ,  1-N ) :   1.0446 B(  0-C ,  7-H ) :   0.9247 B(  0-C ,  8-H ) :   0.9542
B(  0-C ,  9-H ) :   0.9542 B(  1-N ,  2-C ) :   1.0587 B(  1-N ,  6-C ) :   1.0587
B(  2-C ,  3-C ) :   1.1064 B(  2-C , 10-H ) :   0.9082 B(  2-C , 11-H ) :   0.9175
B(  3-C ,  4-O ) :   1.0213 B(  3-C , 12-H ) :   0.9270 B(  3-C , 13-H ) :   0.9004
B(  4-O ,  5-C ) :   1.0213 B(  5-C ,  6-C ) :   1.1064 B(  5-C , 14-H ) :   0.9270
B(  5-C , 15-H ) :   0.9003 B(  6-C , 16-H ) :   0.9082 B(  6-C , 17-H ) :   0.9175

Dispersion correction           -0.015739739
FINAL SINGLE POINT ENERGY      -326.341566418230

DIPOLE MOMENT
-------------

Method             : SCF
Type of density    : Electron Density
Multiplicity       :   1
Irrep              :   0
Energy             :  -326.4145440281761807 Eh
Relativity type    :
Basis              : AO
                                X                 Y                 Z
Electronic contribution:     -3.216948499       0.000159287      -1.561404851
Nuclear contribution   :      3.583813125      -0.000153698       1.823120447
                        -----------------------------------------
Total Dipole Moment    :      0.366864626       0.000005589       0.261715595
                        -----------------------------------------
Magnitude (a.u.)       :      0.450649206
Magnitude (Debye)      :      1.145459251

Rotational constants in cm-1:             0.134826             0.088298             0.067931
Rotational constants in MHz :          4041.966812          2647.105606          2036.529512

                             ****ORCA TERMINATED NORMALLY****
TOTAL RUN TIME: 0 days 0 hours 0 minutes 7 seconds 948 msec
