                         Program Version 6.0.0  -   RELEASE  -
|  1> ! r2scan-3c def2/J RI DEFGRID2 scfconv6 printgap
|  2> %output
|  3>     printlevel normal
|  4> end
|  5> * xyz 0 1
|  6> C -2.9066938375 1.4629808204 -0.0001838781
|  7> C -1.8047606499 0.4540506448 -0.0001731287
|  8> C -2.0996153526 -0.9103694164 0.0001655839
|  9> C -1.0971000206 -1.8672575298 0.0003277848
| 10> C 0.2301501114 -1.4834898094 0.0001266424
| 11> C 0.5304936842 -0.1232441028 -8.42395e-05
| 12> C -0.4750442448 0.841897263 -0.0002289627
| 13> N 1.8889551188 0.290716281 -3.28185e-05
| 14> O 2.7630522598 -0.5652092336 -0.0005667522
| 15> O 2.13866133 1.488083366 0.0006617432
| 16> H -3.5325496445 1.333003435 0.8801305216
| 17> H -2.5093397212 2.4731551056 -0.0027897737
| 18> H -3.5359371173 1.3296341044 -0.8775487702
| 19> H -3.1329463239 -1.2217186698 0.0001367875
| 20> H -1.3504851937 -2.914987027 0.000187118
| 21> H 1.0330803935 -2.203148117 0.0001595096
| 22> H -0.1951700289 1.8843441226 -0.0007290036
| 23> *
| 24>
| 25>                          ****END OF INPUT****

CARTESIAN COORDINATES (ANGSTROEM)
---------------------------------
  C     -2.906694    1.462981   -0.000184
  C     -1.804761    0.454051   -0.000173
  C     -2.099615   -0.910369    0.000166
  C     -1.097100   -1.867258    0.000328
  C      0.230150   -1.483490    0.000127
  C      0.530494   -0.123244   -0.000084
  C     -0.475044    0.841897   -0.000229
  N      1.888955    0.290716   -0.000033
  O      2.763052   -0.565209   -0.000567
  O      2.138661    1.488083    0.000662
  H     -3.532550    1.333003    0.880131
  H     -2.509340    2.473155   -0.002790
  H     -3.535937    1.329634   -0.877549
  H     -3.132946   -1.221719    0.000137
  H     -1.350485   -2.914987    0.000187
  H      1.033080   -2.203148    0.000160
  H     -0.195170    1.884344   -0.000729

 Total Charge           Charge          ....    0
 Multiplicity           Mult            ....    1
 Number of Electrons    NEL             ....   72
 Basis Dimension        Dim             ....  240

ORBITAL ENERGIES
----------------

  NO   OCC          E(Eh)            E(eV)
   0   2.0000     -18.977286      -516.3982
   1   2.0000     -18.977054      -516.3919
   2   2.0000     -14.389352      -391.5542
   3   2.0000     -10.101493      -274.8756
   4   2.0000     -10.073651      -274.1180
   5   2.0000     -10.065816      -273.9048
   6   2.0000     -10.064718      -273.8749
   7   2.0000     -10.064338      -273.8646
   8   2.0000     -10.063844      -273.8511
   9   2.0000     -10.047274      -273.4002
  10   2.0000      -1.197104       -32.5748
  11   2.0000      -1.016455       -27.6592
  12   2.0000      -0.868243       -23.6261
  13   2.0000      -0.795487       -21.6463
  14   2.0000      -0.763224       -20.7684
  15   2.0000      -0.688383       -18.7318
  16   2.0000      -0.675343       -18.3770
  17   2.0000      -0.594990       -16.1905
  18   2.0000      -0.557453       -15.1691
  19   2.0000      -0.524843       -14.2817
  20   2.0000      -0.507416       -13.8075
  21   2.0000      -0.485940       -13.2231
  22   2.0000      -0.482387       -13.1264
  23   2.0000      -0.452771       -12.3205
  24   2.0000      -0.430581       -11.7167
  25   2.0000      -0.416362       -11.3298
  26   2.0000      -0.406700       -11.0669
  27   2.0000      -0.378721       -10.3055
  28   2.0000      -0.359399        -9.7797
  29   2.0000      -0.354789        -9.6543
  30   2.0000      -0.338170        -9.2021
  31   2.0000      -0.286638        -7.7998
  32   2.0000      -0.277802        -7.5594
  33   2.0000      -0.268440        -7.3046
  34   2.0000      -0.255581        -6.9547
  35   2.0000      -0.251376        -6.8403
  36   0.0000      -0.123265        -3.3542
  37   0.0000      -0.054527        -1.4838
  38   0.0000      -0.030685        -0.8350
  39   0.0000       0.059521         1.6196
  40   0.0000       0.085152         2.3171

MULLIKEN ATOMIC CHARGES
-----------------------
   0 C :   -0.520670
   1 C :    0.220425
   2 C :   -0.151024
   3 C :   -0.138548
   4 C :   -0.203135
   5 C :    0.006804
   6 C :   -0.278038
   7 N :    0.360106
   8 O :   -0.231243
   9 O :   -0.230024
  10 H :    0.166325
  11 H :    0.158248
  12 H :    0.166155
  13 H :    0.151847
  14 H :    0.152544
  15 H :    0.185162
  16 H :    0.185066
Sum of atomic charges:    0.0000000

LOEWDIN ATOMIC CHARGES
----------------------
   0 C :   -0.382761
   1 C :   -0.090364
   2 C :   -0.127968
   3 C :   -0.146830
   4 C :   -0.079217
   5 C :    0.193958
   6 C :   -0.074659
   7 N :   -0.493621
   8 O :   -0.021893
   9 O :   -0.022455
  10 H :    0.168602
  11 H :    0.163475
  12 H :    0.168557
  13 H :    0.173168
  14 H :    0.173328
  15 H :    0.198759
  16 H :    0.199920

  Mayer bond orders larger than 0.100000
B(  0-C ,  1-C ) :   0.7935 B(  0-C , 10-H ) :   0.9748 B(  0-C , 11-H ) :   0.9883
B(  0-C , 12-H ) :   0.9749 B(  1-C ,  2-C ) :   1.3475 B(  1-C ,  6-C ) :   1.3605
B(  2-C ,  3-C ) :   1.4239 B(  2-C , 13-H ) :   0.9462 B(  3-C ,  4-C ) :   1.3397
B(  3-C , 14-H ) :   0.9580 B(  4-C ,  5-C ) :   1.4351 B(  4-C ,  8-O ) :   0.1062
B(  4-C , 15-H ) :   0.9303 B(  5-C ,  6-C ) :   1.4678 B(  5-C ,  7-N ) :   0.9637
B(  6-C , 16-H ) :   0.9166 B(  7-N ,  8-O ) :   1.8419 B(  7-N ,  9-O ) :   1.8428
B(  8-O ,  9-O ) :   0.2469

Dispersion correction           -0.005827697
FINAL SINGLE POINT ENERGY      -475.975064666157

DIPOLE MOMENT
-------------

Method             : SCF
Type of density    : Electron Density
Multiplicity       :   1
Irrep              :   0
Energy             :  -475.9799973500751662 Eh
Relativity type    :
Basis              : AO
                                X                 Y                 Z
Electronic contribution:     10.318206704      -1.066604579       0.000329545
Nuclear contribution   :    -12.322807399       0.653485256      -0.000424338
                        -----------------------------------------
Total Dipole Moment    :     -2.004600696      -0.413119323      -0.000094793
                        -----------------------------------------
Magnitude (a.u.)       :      2.046727029
Magnitude (Debye)      :      5.202366670

Rotational constants in cm-1:             0.090290             0.033318             0.024447
Rotational constants in MHz :          2706.833285           998.839993           732.904297

                             ****ORCA TERMINATED NORMALLY****
TOTAL RUN TIME: 0 days 0 hours 0 minutes 30 seconds 956 msec
