                         Program Version 6.0.0  -   RELEASE  -
|  1> ! r2scan-3c def2/J RI DEFGRID2 scfconv6 printgap
|  2> %output
|  3>     printlevel normal
|  4> end
|  5> %cpcm
|  6>     smd true
|  7>     smdsolvent "water"
|  8> end
|  9> * xyz 0 1
| 10> C -2.9066938375 1.4629808204 -0.0001838781
| 11> C -1.8047606499 0.4540506448 -0.0001731287
| 12> C -2.0996153526 -0.9103694164 0.0001655839
| 13> C -1.0971000206 -1.8672575298 0.0003277848
| 14> C 0.2301501114 -1.4834898094 0.0001266424
| 15> C 0.5304936842 -0.1232441028 -8.42395e-05
| 16> C -0.4750442448 0.841897263 -0.0002289627
| 17> N 1.8889551188 0.290716281 -3.28185e-05
| 18> O 2.7630522598 -0.5652092336 -0.0005667522
| 19> O 2.13866133 1.488083366 0.0006617432
| 20> H -3.5325496445 1.333003435 0.8801305216
| 21> H -2.5093397212 2.4731551056 -0.0027897737
| 22> H -3.5359371173 1.3296341044 -0.8775487702
| 23> H -3.1329463239 -1.2217186698 0.0001367875
| 24> H -1.3504851937 -2.914987027 0.000187118
| 25> H 1.0330803935 -2.203148117 0.0001595096
| 26> H -0.1951700289 1.8843441226 -0.0007290036
| 27> *
| 28>
| 29>                          ****END OF INPUT****

CARTESIAN COORDINATES (ANGSTROEM)
---------------------------------
  C     -2.906694    1.462981   -0.000184
  C     -1.804761    0.454051   -0.000173
  C     -2.099615   -0.910369    0.000166
  C     -1.097100   -1.867258    0.000328
  C      0.230150   -1.483490    0.000127
  C      0.530494   -0.123244   -0.000084
  C     -0.475044    0.841897   -0.000229
  N      1.888955    0.290716   -0.000033
  O      2.763052   -0.565209   -0.000567
  O      2.138661    1.488083    0.000662
  H     -3.532550    1.333003    0.880131
  H     -2.509340    2.473155   -0.002790
  H     -3.535937    1.329634   -0.877549
  H     -3.132946   -1.221719    0.000137
  H     -1.350485   -2.914987    0.000187
  H      1.033080   -2.203148    0.000160
  H     -0.195170    1.884344   -0.000729

 Total Charge           Charge          ....    0
 Multiplicity           Mult            ....    1
 Number of Electrons    NEL             ....   72
 Basis Dimension        Dim             ....  240

ORBITAL ENERGIES
----------------

  NO   OCC          E(Eh)            E(eV)
   0   2.0000     -18.991748      -516.7917
   1   2.0000     -18.991428      -516.7830
   2   2.0000     -14.402960      -391.9245
   3   2.0000     -10.096781      -274.7474
   4   2.0000     -10.060309      -273.7549
   5   2.0000     -10.056753      -273.6582
   6   2.0000     -10.054587      -273.5992
   7   2.0000     -10.050506      -273.4882
   8   2.0000     -10.049488      -273.4605
   9   2.0000     -10.023418      -272.7511
  10   2.0000      -1.211384       -32.9634
  11   2.0000      -1.031569       -28.0704
  12   2.0000      -0.860890       -23.4260
  13   2.0000      -0.789920       -21.4948
  14   2.0000      -0.750464       -20.4212
  15   2.0000      -0.679730       -18.4964
  16   2.0000      -0.662215       -18.0198
  17   2.0000      -0.582926       -15.8622
  18   2.0000      -0.559272       -15.2186
  19   2.0000      -0.523929       -14.2568
  20   2.0000      -0.518961       -14.1216
  21   2.0000      -0.497985       -13.5509
  22   2.0000      -0.472549       -12.8587
  23   2.0000      -0.446262       -12.1434
  24   2.0000      -0.415467       -11.3054
  25   2.0000      -0.396607       -10.7922
  26   2.0000      -0.392303       -10.6751
  27   2.0000      -0.357869        -9.7381
  28   2.0000      -0.348160        -9.4739
  29   2.0000      -0.338618        -9.2143
  30   2.0000      -0.323017        -8.7898
  31   2.0000      -0.303609        -8.2616
  32   2.0000      -0.294467        -8.0128
  33   2.0000      -0.268854        -7.3159
  34   2.0000      -0.260863        -7.0985
  35   2.0000      -0.244782        -6.6609
  36   0.0000      -0.130258        -3.5445
  37   0.0000      -0.043391        -1.1807
  38   0.0000      -0.025500        -0.6939
  39   0.0000       0.076690         2.0868
  40   0.0000       0.094767         2.5787

MULLIKEN ATOMIC CHARGES
-----------------------
   0 C :   -0.548959
   1 C :    0.188162
   2 C :   -0.145856
   3 C :   -0.187643
   4 C :   -0.219605
   5 C :    0.047480
   6 C :   -0.289404
   7 N :    0.411576
   8 O :   -0.294502
   9 O :   -0.293018
  10 H :    0.182983
  11 H :    0.176033
  12 H :    0.182844
  13 H :    0.189407
  14 H :    0.189543
  15 H :    0.205067
  16 H :    0.205893
Sum of atomic charges:   -0.0000000

LOEWDIN ATOMIC CHARGES
----------------------
   0 C :   -0.385246
   1 C :   -0.085767
   2 C :   -0.111546
   3 C :   -0.145133
   4 C :   -0.079280
   5 C :    0.189275
   6 C :   -0.073764
   7 N :   -0.493954
   8 O :   -0.059595
   9 O :   -0.059473
  10 H :    0.175646
  11 H :    0.168521
  12 H :    0.175604
  13 H :    0.187605
  14 H :    0.186637
  15 H :    0.204146
  16 H :    0.206323

  Mayer bond orders larger than 0.100000
B(  0-C ,  1-C ) :   0.8004 B(  0-C , 10-H ) :   0.9661 B(  0-C , 11-H ) :   0.9865
B(  0-C , 12-H ) :   0.9663 B(  1-C ,  2-C ) :   1.3306 B(  1-C ,  6-C ) :   1.3741
B(  2-C ,  3-C ) :   1.3986 B(  2-C , 13-H ) :   0.9456 B(  3-C ,  4-C ) :   1.3409
B(  3-C , 14-H ) :   0.9621 B(  4-C ,  5-C ) :   1.3501 B(  4-C , 15-H ) :   0.9397
B(  5-C ,  6-C ) :   1.3809 B(  5-C ,  7-N ) :   1.0007 B(  6-C , 16-H ) :   0.9251
B(  7-N ,  8-O ) :   1.7828 B(  7-N ,  9-O ) :   1.7849 B(  8-O ,  9-O ) :   0.2281

Dispersion correction           -0.005827697
FINAL SINGLE POINT ENERGY      -475.979600730454

DIPOLE MOMENT
-------------

Method             : SCF
Type of density    : Electron Density
Multiplicity       :   1
Irrep              :   0
Energy             :  -475.9845334143723790 Eh
Relativity type    :
Basis              : AO
                                X                 Y                 Z
Electronic contribution:      9.487906100      -1.270770172       0.000302242
Nuclear contribution   :    -12.322807399       0.653485256      -0.000424338
                        -----------------------------------------
Total Dipole Moment    :     -2.834901300      -0.617284916      -0.000122097
                        -----------------------------------------
Magnitude (a.u.)       :      2.901328327
Magnitude (Debye)      :      7.374590539

Rotational constants in cm-1:             0.090290             0.033318             0.024447
Rotational constants in MHz :          2706.833285           998.839993           732.904297

                             ****ORCA TERMINATED NORMALLY****
TOTAL RUN TIME: 0 days 0 hours 0 minutes 38 seconds 950 msec
