                         Program Version 6.0.0  -   RELEASE  -
|  1> ! wb97x-v def2-tzvp def2/J RIJCOSX DEFGRID2 scfconv7 GCP(DFT/TZ) printgap
|  2> %output
|  3>     printlevel normal
|  4> end
|  5> * xyz 0 1
|  6> C -3.44820495652225 -0.1214012774232875 0.00032280466498403886
|  7> C -3.0053589679342356 1.2040131372329885 0.0002466667539546605
|  8> C -1.6435564478600906 1.4996586562414032 -8.020135159177183e-06
|  9> C -0.7309301264108415 0.44534038709716767 -0.00015643483662394715
| 10> C -1.1776462990380685 -0.8912826151210116 -0.00011193964027922347
| 11> C -2.53486401978295 -1.178428465174525 0.0001194541233298082
| 12> C -1.0340515547069458e-05 -1.8313315761316074 -0.00024105662293769553
| 13> C 1.1776403879276438 -0.8913010749880633 -8.40503896042181e-05
| 14> C 0.7309443992914492 0.4453299928750709 -0.0001514863006779066
| 15> C 1.6435864854221507 1.4996331749234646 -6.184973960799926e-05
| 16> C 3.0053852862969177 1.2039662140700946 0.00017355908866452263
| 17> C 3.4482108880455264 -0.12145398486391511 0.0003214160843401827
| 18> C 2.534852865056974 -1.178467762615196 0.00017395211057917709
| 19> H -4.513338422726524 -0.3310970252952737 0.0005622724664255652
| 20> H -3.7310608124478435 2.0114724893172715 0.0004122780383751362
| 21> H -1.3023568484009524 2.530730632515815 -3.185349411699358e-05
| 22> H -2.8846049059698884 -2.206893279580628 0.00019159599379104842
| 23> H -3.40617698897535e-05 -2.4884774412498083 0.8785096771210291
| 24> H 3.134938544898794e-06 -2.4880541154148457 -0.8793192748551555
| 25> H 1.302407600056104 2.5307119033213126 -0.0001647183799158131
| 26> H 3.7310995615791827 2.011414377950735 0.0002809602527780942
| 27> H 4.513340659786971 -0.3311684685067852 0.0005886446624483757
| 28> H 2.8845788201956135 -2.206937689423869 0.00029503570480348014
| 29> *
| 30>
| 31>                          ****END OF INPUT****

CARTESIAN COORDINATES (ANGSTROEM)
---------------------------------
  C     -3.448205   -0.121401    0.000323
  C     -3.005359    1.204013    0.000247
  C     -1.643556    1.499659   -0.000008
  C     -0.730930    0.445340   -0.000156
  C     -1.177646   -0.891283   -0.000112
  C     -2.534864   -1.178428    0.000119
  C     -0.000010   -1.831332   -0.000241
  C      1.177640   -0.891301   -0.000084
  C      0.730944    0.445330   -0.000151
  C      1.643586    1.499633   -0.000062
  C      3.005385    1.203966    0.000174
  C      3.448211   -0.121454    0.000321
  C      2.534853   -1.178468    0.000174
  H     -4.513338   -0.331097    0.000562
  H     -3.731061    2.011472    0.000412
  H     -1.302357    2.530731   -0.000032
  H     -2.884605   -2.206893    0.000192
  H     -0.000034   -2.488477    0.878510
  H      0.000003   -2.488054   -0.879319
  H      1.302408    2.530712   -0.000165
  H      3.731100    2.011414    0.000281
  H      4.513341   -0.331168    0.000589
  H      2.884579   -2.206938    0.000295

 Total Charge           Charge          ....    0
 Multiplicity           Mult            ....    1
 Number of Electrons    NEL             ....   88
 Basis Dimension        Dim             ....  463

ORBITAL ENERGIES
----------------

  NO   OCC          E(Eh)            E(eV)
   0   2.0000     -12.059353      -328.1517
   1   2.0000     -12.058327      -328.1238
   2   2.0000     -12.057904      -328.1123
   3   2.0000     -12.056423      -328.0719
   4   2.0000     -12.055440      -328.0452
   5   2.0000     -12.053234      -327.9852
   6   2.0000     -12.053203      -327.9843
   7   2.0000     -12.052864      -327.9751
   8   2.0000     -12.052556      -327.9667
   9   2.0000     -12.051497      -327.9379
  10   2.0000     -12.051354      -327.9340
  11   2.0000     -12.049820      -327.8923
  12   2.0000     -12.049811      -327.8920
  13   2.0000      -1.417315       -38.5671
  14   2.0000      -1.373087       -37.3636
  15   2.0000      -1.325157       -36.0593
  16   2.0000      -1.292926       -35.1823
  17   2.0000      -1.272880       -34.6368
  18   2.0000      -1.245128       -33.8817
  19   2.0000      -1.207493       -32.8575
  20   2.0000      -1.143396       -31.1134
  21   2.0000      -1.091798       -29.7093
  22   2.0000      -1.081295       -29.4235
  23   2.0000      -1.076767       -29.3003
  24   2.0000      -0.985262       -26.8103
  25   2.0000      -0.967508       -26.3272
  26   2.0000      -0.951281       -25.8857
  27   2.0000      -0.929138       -25.2831
  28   2.0000      -0.919543       -25.0220
  29   2.0000      -0.901625       -24.5345
  30   2.0000      -0.884454       -24.0672
  31   2.0000      -0.876636       -23.8545
  32   2.0000      -0.868279       -23.6271
  33   2.0000      -0.864879       -23.5346
  34   2.0000      -0.828274       -22.5385
  35   2.0000      -0.826884       -22.5007
  36   2.0000      -0.805889       -21.9294
  37   2.0000      -0.800942       -21.7947
  38   2.0000      -0.776774       -21.1371
  39   2.0000      -0.760322       -20.6894
  40   2.0000      -0.674455       -18.3529
  41   2.0000      -0.642305       -17.4780
  42   2.0000      -0.633373       -17.2350
  43   2.0000      -0.602847       -16.4043
  44   0.0000      -0.278234        -7.5711
  45   0.0000      -0.243665        -6.6305
  46   0.0000      -0.233582        -6.3561
  47   0.0000      -0.198365        -5.3978
  48   0.0000      -0.089123        -2.4252

MULLIKEN ATOMIC CHARGES
-----------------------
   0 C :   -0.092809
   1 C :   -0.111853
   2 C :   -0.211524
   3 C :    0.102325
   4 C :   -0.035837
   5 C :   -0.223669
   6 C :    0.004759
   7 C :   -0.035691
   8 C :    0.101928
   9 C :   -0.211686
  10 C :   -0.111715
  11 C :   -0.092756
  12 C :   -0.223583
  13 H :    0.116038
  14 H :    0.115154
  15 H :    0.114331
  16 H :    0.114478
  17 H :    0.111094
  18 H :    0.111067
  19 H :    0.114290
  20 H :    0.115173
  21 H :    0.115990
  22 H :    0.114495
Sum of atomic charges:    0.0000000

LOEWDIN ATOMIC CHARGES
----------------------
   0 C :   -0.139334
   1 C :   -0.140543
   2 C :   -0.101132
   3 C :   -0.067489
   4 C :   -0.085565
   5 C :   -0.113868
   6 C :   -0.145406
   7 C :   -0.085563
   8 C :   -0.067489
   9 C :   -0.101133
  10 C :   -0.140541
  11 C :   -0.139334
  12 C :   -0.113869
  13 H :    0.140834
  14 H :    0.141211
  15 H :    0.142745
  16 H :    0.143041
  17 H :    0.152796
  18 H :    0.152810
  19 H :    0.142744
  20 H :    0.141211
  21 H :    0.140834
  22 H :    0.143040

  Mayer bond orders larger than 0.100000
B(  0-C ,  1-C ) :   1.4136 B(  0-C ,  5-C ) :   1.4273 B(  0-C , 13-H ) :   0.9777
B(  1-C ,  2-C ) :   1.4579 B(  1-C , 14-H ) :   0.9774 B(  2-C ,  3-C ) :   1.3688
B(  2-C , 15-H ) :   0.9757 B(  3-C ,  4-C ) :   1.3790 B(  3-C ,  8-C ) :   0.9414
B(  4-C ,  5-C ) :   1.3930 B(  4-C ,  6-C ) :   1.0297 B(  5-C , 16-H ) :   0.9839
B(  6-C ,  7-C ) :   1.0292 B(  6-C , 17-H ) :   0.9065 B(  6-C , 18-H ) :   0.9062
B(  7-C ,  8-C ) :   1.3791 B(  7-C , 12-C ) :   1.3936 B(  8-C ,  9-C ) :   1.3689
B(  9-C , 10-C ) :   1.4581 B(  9-C , 19-H ) :   0.9757 B( 10-C , 11-C ) :   1.4136
B( 10-C , 20-H ) :   0.9773 B( 11-C , 12-C ) :   1.4273 B( 11-C , 21-H ) :   0.9777
B( 12-C , 22-H ) :   0.9837

FINAL SINGLE POINT ENERGY      -501.445024233127

DIPOLE MOMENT
-------------

Method             : SCF
Type of density    : Electron Density
Multiplicity       :   1
Irrep              :   0
Energy             :  -501.4563869637270841 Eh
Relativity type    :
Basis              : AO
                                X                 Y                 Z
Electronic contribution:     -0.000004722       0.700776907      -0.000699893
Nuclear contribution   :     -0.000002719      -0.910476938       0.000799248
                        -----------------------------------------
Total Dipole Moment    :     -0.000007441      -0.209700031       0.000099356
                        -----------------------------------------
Magnitude (a.u.)       :      0.209700054
Magnitude (Debye)      :      0.533015179

Rotational constants in cm-1:             0.072713             0.019628             0.015500
Rotational constants in MHz :          2179.887791           588.420647           464.675243

                             ****ORCA TERMINATED NORMALLY****
TOTAL RUN TIME: 0 days 0 hours 7 minutes 10 seconds 284 msec
