                         Program Version 6.0.0  -   RELEASE  -
|  1> ! wb97x-v def2-tzvp def2/J RIJCOSX DEFGRID2 scfconv7 GCP(DFT/TZ) printgap
|  2> %output
|  3>     printlevel normal
|  4> end
|  5> %cpcm
|  6>     smd true
|  7>     smdsolvent "water"
|  8> end
|  9> * xyz 0 1
| 10> C -3.44820495652225 -0.1214012774232875 0.00032280466498403886
| 11> C -3.0053589679342356 1.2040131372329885 0.0002466667539546605
| 12> C -1.6435564478600906 1.4996586562414032 -8.020135159177183e-06
| 13> C -0.7309301264108415 0.44534038709716767 -0.00015643483662394715
| 14> C -1.1776462990380685 -0.8912826151210116 -0.00011193964027922347
| 15> C -2.53486401978295 -1.178428465174525 0.0001194541233298082
| 16> C -1.0340515547069458e-05 -1.8313315761316074 -0.00024105662293769553
| 17> C 1.1776403879276438 -0.8913010749880633 -8.40503896042181e-05
| 18> C 0.7309443992914492 0.4453299928750709 -0.0001514863006779066
| 19> C 1.6435864854221507 1.4996331749234646 -6.184973960799926e-05
| 20> C 3.0053852862969177 1.2039662140700946 0.00017355908866452263
| 21> C 3.4482108880455264 -0.12145398486391511 0.0003214160843401827
| 22> C 2.534852865056974 -1.178467762615196 0.00017395211057917709
| 23> H -4.513338422726524 -0.3310970252952737 0.0005622724664255652
| 24> H -3.7310608124478435 2.0114724893172715 0.0004122780383751362
| 25> H -1.3023568484009524 2.530730632515815 -3.185349411699358e-05
| 26> H -2.8846049059698884 -2.206893279580628 0.00019159599379104842
| 27> H -3.40617698897535e-05 -2.4884774412498083 0.8785096771210291
| 28> H 3.134938544898794e-06 -2.4880541154148457 -0.8793192748551555
| 29> H 1.302407600056104 2.5307119033213126 -0.0001647183799158131
| 30> H 3.7310995615791827 2.011414377950735 0.0002809602527780942
| 31> H 4.513340659786971 -0.3311684685067852 0.0005886446624483757
| 32> H 2.8845788201956135 -2.206937689423869 0.00029503570480348014
| 33> *
| 34>
| 35>                          ****END OF INPUT****

CARTESIAN COORDINATES (ANGSTROEM)
---------------------------------
  C     -3.448205   -0.121401    0.000323
  C     -3.005359    1.204013    0.000247
  C     -1.643556    1.499659   -0.000008
  C     -0.730930    0.445340   -0.000156
  C     -1.177646   -0.891283   -0.000112
  C     -2.534864   -1.178428    0.000119
  C     -0.000010   -1.831332   -0.000241
  C      1.177640   -0.891301   -0.000084
  C      0.730944    0.445330   -0.000151
  C      1.643586    1.499633   -0.000062
  C      3.005385    1.203966    0.000174
  C      3.448211   -0.121454    0.000321
  C      2.534853   -1.178468    0.000174
  H     -4.513338   -0.331097    0.000562
  H     -3.731061    2.011472    0.000412
  H     -1.302357    2.530731   -0.000032
  H     -2.884605   -2.206893    0.000192
  H     -0.000034   -2.488477    0.878510
  H      0.000003   -2.488054   -0.879319
  H      1.302408    2.530712   -0.000165
  H      3.731100    2.011414    0.000281
  H      4.513341   -0.331168    0.000589
  H      2.884579   -2.206938    0.000295

 Total Charge           Charge          ....    0
 Multiplicity           Mult            ....    1
 Number of Electrons    NEL             ....   88
 Basis Dimension        Dim             ....  463

ORBITAL ENERGIES
----------------

  NO   OCC          E(Eh)            E(eV)
   0   2.0000     -12.057636      -328.1050
   1   2.0000     -12.057529      -328.1021
   2   2.0000     -12.056220      -328.0664
   3   2.0000     -12.054987      -328.0329
   4   2.0000     -12.051054      -327.9258
   5   2.0000     -12.050921      -327.9222
   6   2.0000     -12.050473      -327.9100
   7   2.0000     -12.050221      -327.9032
   8   2.0000     -12.050038      -327.8982
   9   2.0000     -12.048907      -327.8674
  10   2.0000     -12.048680      -327.8612
  11   2.0000     -12.047377      -327.8258
  12   2.0000     -12.047354      -327.8252
  13   2.0000      -1.416950       -38.5572
  14   2.0000      -1.372982       -37.3607
  15   2.0000      -1.323816       -36.0229
  16   2.0000      -1.291653       -35.1477
  17   2.0000      -1.271721       -34.6053
  18   2.0000      -1.244624       -33.8679
  19   2.0000      -1.203755       -32.7559
  20   2.0000      -1.141887       -31.0723
  21   2.0000      -1.089778       -29.6544
  22   2.0000      -1.078306       -29.3422
  23   2.0000      -1.074935       -29.2505
  24   2.0000      -0.982934       -26.7470
  25   2.0000      -0.965640       -26.2764
  26   2.0000      -0.947970       -25.7956
  27   2.0000      -0.927803       -25.2468
  28   2.0000      -0.915210       -24.9041
  29   2.0000      -0.897040       -24.4097
  30   2.0000      -0.880840       -23.9689
  31   2.0000      -0.872936       -23.7538
  32   2.0000      -0.861853       -23.4522
  33   2.0000      -0.860199       -23.4072
  34   2.0000      -0.824717       -22.4417
  35   2.0000      -0.823403       -22.4059
  36   2.0000      -0.802060       -21.8251
  37   2.0000      -0.796936       -21.6857
  38   2.0000      -0.776097       -21.1187
  39   2.0000      -0.761508       -20.7217
  40   2.0000      -0.675673       -18.3860
  41   2.0000      -0.642557       -17.4849
  42   2.0000      -0.632827       -17.2201
  43   2.0000      -0.603921       -16.4335
  44   0.0000      -0.278780        -7.5860
  45   0.0000      -0.242897        -6.6096
  46   0.0000      -0.233548        -6.3552
  47   0.0000      -0.199094        -5.4176
  48   0.0000      -0.087910        -2.3921

MULLIKEN ATOMIC CHARGES
-----------------------
   0 C :   -0.136327
   1 C :   -0.157010
   2 C :   -0.253864
   3 C :    0.082433
   4 C :   -0.048963
   5 C :   -0.267596
   6 C :    0.009175
   7 C :   -0.048794
   8 C :    0.082031
   9 C :   -0.253993
  10 C :   -0.156890
  11 C :   -0.136264
  12 C :   -0.267524
  13 H :    0.160418
  14 H :    0.159010
  15 H :    0.162561
  16 H :    0.157442
  17 H :    0.137408
  18 H :    0.137376
  19 H :    0.162517
  20 H :    0.159023
  21 H :    0.160371
  22 H :    0.157459
Sum of atomic charges:    0.0000000

LOEWDIN ATOMIC CHARGES
----------------------
   0 C :   -0.149445
   1 C :   -0.152484
   2 C :   -0.109169
   3 C :   -0.079492
   4 C :   -0.090534
   5 C :   -0.119299
   6 C :   -0.139176
   7 C :   -0.090532
   8 C :   -0.079492
   9 C :   -0.109170
  10 C :   -0.152483
  11 C :   -0.149444
  12 C :   -0.119299
  13 H :    0.150205
  14 H :    0.150456
  15 H :    0.154050
  16 H :    0.153653
  17 H :    0.161640
  18 H :    0.161654
  19 H :    0.154050
  20 H :    0.150455
  21 H :    0.150204
  22 H :    0.153653

  Mayer bond orders larger than 0.100000
B(  0-C ,  1-C ) :   1.3893 B(  0-C ,  5-C ) :   1.4086 B(  0-C , 13-H ) :   0.9794
B(  1-C ,  2-C ) :   1.4373 B(  1-C , 14-H ) :   0.9805 B(  2-C ,  3-C ) :   1.3493
B(  2-C , 15-H ) :   0.9824 B(  3-C ,  4-C ) :   1.3544 B(  3-C ,  8-C ) :   0.9476
B(  4-C ,  5-C ) :   1.3660 B(  4-C ,  6-C ) :   1.0401 B(  5-C , 16-H ) :   0.9945
B(  6-C ,  7-C ) :   1.0397 B(  6-C , 17-H ) :   0.9027 B(  6-C , 18-H ) :   0.9025
B(  7-C ,  8-C ) :   1.3545 B(  7-C , 12-C ) :   1.3666 B(  8-C ,  9-C ) :   1.3494
B(  9-C , 10-C ) :   1.4375 B(  9-C , 19-H ) :   0.9824 B( 10-C , 11-C ) :   1.3894
B( 10-C , 20-H ) :   0.9804 B( 11-C , 12-C ) :   1.4086 B( 11-C , 21-H ) :   0.9794
B( 12-C , 22-H ) :   0.9943

FINAL SINGLE POINT ENERGY      -501.450134827029

DIPOLE MOMENT
-------------

Method             : SCF
Type of density    : Electron Density
Multiplicity       :   1
Irrep              :   0
Energy             :  -501.4614975576294569 Eh
Relativity type    :
Basis              : AO
                                X                 Y                 Z
Electronic contribution:     -0.000008041       0.558968883      -0.000671974
Nuclear contribution   :     -0.000002719      -0.910476938       0.000799248
                        -----------------------------------------
Total Dipole Moment    :     -0.000010760      -0.351508054       0.000127275
                        -----------------------------------------
Magnitude (a.u.)       :      0.351508078
Magnitude (Debye)      :      0.893462529

Rotational constants in cm-1:             0.072713             0.019628             0.015500
Rotational constants in MHz :          2179.887791           588.420647           464.675243

                             ****ORCA TERMINATED NORMALLY****
TOTAL RUN TIME: 0 days 0 hours 6 minutes 59 seconds 321 msec
