                         Program Version 6.0.0  -   RELEASE  -
|  1> ! pbe def2-sv(p) def2/J RI DEFGRID1 loosescf d4 GCP(DFT/SV(P)) printgap
|  2> %output
|  3>     printlevel normal
|  4> end
|  5> * xyz 0 1
|  6> C 1.884982572 0.9081200777 -0.2403572002
|  7> C 0.9510173463 -0.0853811007 0.4371051555
|  8> C -0.3841612355 -0.2627199042 -0.2927929606
|  9> H -0.1798773449 -0.4477193345 -1.3613051856
| 10> C -1.2893750554 0.9597300957 -0.1590132448
| 11> O -0.9957392658 -1.4190524064 0.2635868483
| 12> H 2.8396201608 0.9290746345 0.2782101865
| 13> H 1.4677887801 1.9112066055 -0.2252104046
| 14> H 2.0610964002 0.6213019953 -1.2745273653
| 15> H 0.7470713028 0.2254314111 1.4631640997
| 16> H 1.4263571683 -1.0675451192 0.4799965283
| 17> H -0.8030074911 1.8336534631 -0.5800464345
| 18> H -2.2263113312 0.8003404736 -0.6884524894
| 19> H -1.5066236555 1.1439573558 0.8905845103
| 20> H -1.8724355759 -1.5340767018 -0.1271190614
| 21> *
| 22>
| 23>                          ****END OF INPUT****

CARTESIAN COORDINATES (ANGSTROEM)
---------------------------------
  C      1.884983    0.908120   -0.240357
  C      0.951017   -0.085381    0.437105
  C     -0.384161   -0.262720   -0.292793
  H     -0.179877   -0.447719   -1.361305
  C     -1.289375    0.959730   -0.159013
  O     -0.995739   -1.419052    0.263587
  H      2.839620    0.929075    0.278210
  H      1.467789    1.911207   -0.225210
  H      2.061096    0.621302   -1.274527
  H      0.747071    0.225431    1.463164
  H      1.426357   -1.067545    0.479997
  H     -0.803007    1.833653   -0.580046
  H     -2.226311    0.800340   -0.688452
  H     -1.506624    1.143957    0.890585
  H     -1.872436   -1.534077   -0.127119

 Total Charge           Charge          ....    0
 Multiplicity           Mult            ....    1
 Number of Electrons    NEL             ....   42
 Basis Dimension        Dim             ....   90

ORBITAL ENERGIES
----------------

  NO   OCC          E(Eh)            E(eV)
   0   2.0000     -18.735179      -509.8101
   1   2.0000      -9.934212      -270.3237
   2   2.0000      -9.878406      -268.8051
   3   2.0000      -9.875684      -268.7310
   4   2.0000      -9.874715      -268.7046
   5   2.0000      -0.912331       -24.8258
   6   2.0000      -0.707240       -19.2450
   7   2.0000      -0.645100       -17.5541
   8   2.0000      -0.577118       -15.7042
   9   2.0000      -0.505277       -13.7493
  10   2.0000      -0.451486       -12.2856
  11   2.0000      -0.415069       -11.2946
  12   2.0000      -0.394736       -10.7413
  13   2.0000      -0.370418       -10.0796
  14   2.0000      -0.345089        -9.3904
  15   2.0000      -0.330540        -8.9944
  16   2.0000      -0.316068        -8.6007
  17   2.0000      -0.303915        -8.2700
  18   2.0000      -0.290588        -7.9073
  19   2.0000      -0.263576        -7.1723
  20   2.0000      -0.209503        -5.7009
  21   0.0000       0.028047         0.7632
  22   0.0000       0.051759         1.4084
  23   0.0000       0.072650         1.9769
  24   0.0000       0.086152         2.3443
  25   0.0000       0.097750         2.6599

MULLIKEN ATOMIC CHARGES
-----------------------
   0 C :   -0.289955
   1 C :   -0.155313
   2 C :    0.013411
   3 H :    0.054862
   4 C :   -0.273859
   5 O :   -0.426536
   6 H :    0.106685
   7 H :    0.104707
   8 H :    0.099788
   9 H :    0.083955
  10 H :    0.094661
  11 H :    0.101467
  12 H :    0.092021
  13 H :    0.103459
  14 H :    0.290648
Sum of atomic charges:   -0.0000000

LOEWDIN ATOMIC CHARGES
----------------------
   0 C :   -0.341552
   1 C :   -0.235559
   2 C :   -0.056702
   3 H :    0.092020
   4 C :   -0.354420
   5 O :   -0.337577
   6 H :    0.122918
   7 H :    0.115773
   8 H :    0.117614
   9 H :    0.117265
  10 H :    0.121941
  11 H :    0.122782
  12 H :    0.113853
  13 H :    0.122253
  14 H :    0.279391

  Mayer bond orders larger than 0.100000
B(  0-C ,  1-C ) :   1.1400 B(  0-C ,  6-H ) :   0.9505 B(  0-C ,  7-H ) :   0.9497
B(  0-C ,  8-H ) :   0.9529 B(  1-C ,  2-C ) :   1.0788 B(  1-C ,  9-H ) :   0.9196
B(  1-C , 10-H ) :   0.9196 B(  2-C ,  3-H ) :   0.9120 B(  2-C ,  4-C ) :   1.1040
B(  2-C ,  5-O ) :   1.0640 B(  4-C , 11-H ) :   0.9334 B(  4-C , 12-H ) :   0.9456
B(  4-C , 13-H ) :   0.9423 B(  5-O , 14-H ) :   0.8538

Dispersion correction           -0.009549284
FINAL SINGLE POINT ENERGY      -233.092343619636

DIPOLE MOMENT
-------------

Method             : SCF
Type of density    : Electron Density
Multiplicity       :   1
Irrep              :   0
Energy             :  -233.1517370041860602 Eh
Relativity type    :
Basis              : AO
                                X                 Y                 Z
Electronic contribution:     -2.098628741      -3.813938132       0.694432718
Nuclear contribution   :      1.818064022       4.121491357      -1.070006880
                        -----------------------------------------
Total Dipole Moment    :     -0.280564720       0.307553225      -0.375574162
                        -----------------------------------------
Magnitude (a.u.)       :      0.560679498
Magnitude (Debye)      :      1.425134027

Rotational constants in cm-1:             0.256000             0.115554             0.088506
Rotational constants in MHz :          7674.681303          3464.218894          2653.339778

                             ****ORCA TERMINATED NORMALLY****
TOTAL RUN TIME: 0 days 0 hours 0 minutes 5 seconds 174 msec
