                         Program Version 6.0.0  -   RELEASE  -
|  1> ! wb97x-v def2-tzvp def2/J RIJCOSX DEFGRID2 scfconv7 GCP(DFT/TZ) printgap
|  2> %output
|  3>     printlevel normal
|  4> end
|  5> * xyz 0 1
|  6> C -3.3699257957852504 -0.44801938771576444 1.6959506868341603
|  7> N -2.3332346668107418 0.012598203740461169 0.7782913194169532
|  8> C -2.359159521695124 -0.3447603519940325 -0.5095927243204378
|  9> O -3.2287877395847087 -1.0252573381202994 -1.042542939608984
| 10> O -1.3277816942167184 0.11317828759730662 -1.3151003169422766
| 11> C -0.2176931859526173 0.7450461786267081 -0.7355206753716483
| 12> C -0.17435133243747533 2.1142554895002545 -0.6936205498293044
| 13> C 0.967461650513552 2.753628201127643 -0.16630705072530017
| 14> C 2.0269640736966523 2.014711546498585 0.30233947642714126
| 15> C 1.9964225700367673 0.5988887713640577 0.26341675973771617
| 16> C 0.8476146653024433 -0.06657352521748662 -0.27271391210220153
| 17> C 0.8165892508009818 -1.480641966039571 -0.31708852600131565
| 18> C 1.8822970397239025 -2.209662908829476 0.15575839497625055
| 19> C 3.017737112733807 -1.5605602405296806 0.6870515255346055
| 20> C 3.0738994730191407 -0.18823271721422688 0.7384107082068967
| 21> H -3.3410216067788636 -1.5361678605725362 1.8105262477498796
| 22> H -4.360883949331756 -0.15501807807413806 1.3382349909733762
| 23> H -3.193166747184023 0.01495417187355843 2.6672335072308986
| 24> H -1.5746125737179497 0.5772290880665198 1.1308517380828897
| 25> H -1.016150604343922 2.690021852349616 -1.063604049555854
| 26> H 0.9985306356384603 3.837584873113233 -0.13518234099009968
| 27> H 2.905183798372806 2.5060386742710055 0.7101706103938177
| 28> H -0.052630823575831195 -1.9841105041743592 -0.7272555463056012
| 29> H 1.85348906714033 -3.29388681710881 0.11940912656224252
| 30> H 3.8493830636589808 -2.1529777021010736 1.0548231077786376
| 31> H 3.946111937301226 0.3155999536446899 1.1446213727421108
| 32> *
| 33>
| 34>                          ****END OF INPUT****

CARTESIAN COORDINATES (ANGSTROEM)
---------------------------------
  C     -3.369926   -0.448019    1.695951
  N     -2.333235    0.012598    0.778291
  C     -2.359160   -0.344760   -0.509593
  O     -3.228788   -1.025257   -1.042543
  O     -1.327782    0.113178   -1.315100
  C     -0.217693    0.745046   -0.735521
  C     -0.174351    2.114255   -0.693621
  C      0.967462    2.753628   -0.166307
  C      2.026964    2.014712    0.302339
  C      1.996423    0.598889    0.263417
  C      0.847615   -0.066574   -0.272714
  C      0.816589   -1.480642   -0.317089
  C      1.882297   -2.209663    0.155758
  C      3.017737   -1.560560    0.687052
  C      3.073899   -0.188233    0.738411
  H     -3.341022   -1.536168    1.810526
  H     -4.360884   -0.155018    1.338235
  H     -3.193167    0.014954    2.667234
  H     -1.574613    0.577229    1.130852
  H     -1.016151    2.690022   -1.063604
  H      0.998531    3.837585   -0.135182
  H      2.905184    2.506039    0.710171
  H     -0.052631   -1.984111   -0.727256
  H      1.853489   -3.293887    0.119409
  H      3.849383   -2.152978    1.054823
  H      3.946112    0.315600    1.144621

 Total Charge           Charge          ....    0
 Multiplicity           Mult            ....    1
 Number of Electrons    NEL             ....  106
 Basis Dimension        Dim             ....  531

ORBITAL ENERGIES
----------------

  NO   OCC          E(Eh)            E(eV)
   0   2.0000     -21.719609      -591.0206
   1   2.0000     -21.633554      -588.6789
   2   2.0000     -16.564586      -450.7453
   3   2.0000     -12.195912      -331.8676
   4   2.0000     -12.126484      -329.9784
   5   2.0000     -12.088463      -328.9438
   6   2.0000     -12.079238      -328.6928
   7   2.0000     -12.077223      -328.6379
   8   2.0000     -12.071336      -328.4778
   9   2.0000     -12.068917      -328.4119
  10   2.0000     -12.067388      -328.3703
  11   2.0000     -12.067149      -328.3638
  12   2.0000     -12.065981      -328.3320
  13   2.0000     -12.064892      -328.3024
  14   2.0000     -12.063315      -328.2595
  15   2.0000      -1.754478       -47.7418
  16   2.0000      -1.682423       -45.7811
  17   2.0000      -1.532161       -41.6922
  18   2.0000      -1.421087       -38.6698
  19   2.0000      -1.368194       -37.2304
  20   2.0000      -1.325899       -36.0795
  21   2.0000      -1.289609       -35.0920
  22   2.0000      -1.276491       -34.7351
  23   2.0000      -1.248020       -33.9604
  24   2.0000      -1.194725       -32.5101
  25   2.0000      -1.147971       -31.2379
  26   2.0000      -1.141536       -31.0628
  27   2.0000      -1.123400       -30.5693
  28   2.0000      -1.081120       -29.4188
  29   2.0000      -1.041896       -28.3514
  30   2.0000      -1.031987       -28.0818
  31   2.0000      -1.011842       -27.5336
  32   2.0000      -1.003865       -27.3166
  33   2.0000      -0.973349       -26.4862
  34   2.0000      -0.966361       -26.2960
  35   2.0000      -0.958076       -26.0706
  36   2.0000      -0.928153       -25.2563
  37   2.0000      -0.925622       -25.1875
  38   2.0000      -0.905605       -24.6428
  39   2.0000      -0.900460       -24.5028
  40   2.0000      -0.876244       -23.8438
  41   2.0000      -0.868511       -23.6334
  42   2.0000      -0.866779       -23.5862
  43   2.0000      -0.857526       -23.3345
  44   2.0000      -0.844011       -22.9667
  45   2.0000      -0.834620       -22.7112
  46   2.0000      -0.818981       -22.2856
  47   2.0000      -0.815331       -22.1863
  48   2.0000      -0.765244       -20.8233
  49   2.0000      -0.744585       -20.2612
  50   2.0000      -0.700001       -19.0480
  51   2.0000      -0.646500       -17.5922
  52   2.0000      -0.617673       -16.8077
  53   0.0000      -0.305146        -8.3035
  54   0.0000      -0.276363        -7.5202
  55   0.0000      -0.272752        -7.4220
  56   0.0000      -0.220382        -5.9969
  57   0.0000      -0.210444        -5.7265

MULLIKEN ATOMIC CHARGES
-----------------------
   0 C :   -0.236296
   1 N :   -0.281007
   2 C :    0.338246
   3 O :   -0.371574
   4 O :   -0.211292
   5 C :    0.101293
   6 C :   -0.169761
   7 C :   -0.093152
   8 C :   -0.228155
   9 C :    0.117412
  10 C :    0.093613
  11 C :   -0.219188
  12 C :   -0.097281
  13 C :   -0.112360
  14 C :   -0.178309
  15 H :    0.132980
  16 H :    0.139716
  17 H :    0.118420
  18 H :    0.243357
  19 H :    0.138210
  20 H :    0.125661
  21 H :    0.119150
  22 H :    0.162563
  23 H :    0.126384
  24 H :    0.123129
  25 H :    0.118241
Sum of atomic charges:   -0.0000000

LOEWDIN ATOMIC CHARGES
----------------------
   0 C :   -0.286410
   1 N :    0.095912
   2 C :   -0.559221
   3 O :    0.047681
   4 O :    0.297455
   5 C :   -0.202311
   6 C :   -0.117758
   7 C :   -0.135922
   8 C :   -0.101470
   9 C :   -0.089398
  10 C :   -0.077813
  11 C :   -0.088943
  12 C :   -0.131011
  13 C :   -0.132995
  14 C :   -0.097684
  15 H :    0.117436
  16 H :    0.120626
  17 H :    0.114563
  18 H :    0.188590
  19 H :    0.152893
  20 H :    0.145298
  21 H :    0.147366
  22 H :    0.157132
  23 H :    0.145110
  24 H :    0.144067
  25 H :    0.146809

  Mayer bond orders larger than 0.100000
B(  0-C ,  1-N ) :   0.9383 B(  0-C , 15-H ) :   0.9789 B(  0-C , 16-H ) :   0.9747
B(  0-C , 17-H ) :   0.9695 B(  1-N ,  2-C ) :   1.2359 B(  1-N , 18-H ) :   0.9093
B(  2-C ,  3-O ) :   2.1029 B(  2-C ,  4-O ) :   1.0811 B(  4-O ,  5-C ) :   1.0018
B(  5-C ,  6-C ) :   1.6266 B(  5-C , 10-C ) :   1.1507 B(  6-C ,  7-C ) :   1.2320
B(  6-C , 19-H ) :   0.9733 B(  7-C ,  8-C ) :   1.5653 B(  7-C , 20-H ) :   0.9780
B(  8-C ,  9-C ) :   1.2194 B(  8-C , 21-H ) :   0.9835 B(  9-C , 10-C ) :   1.2573
B(  9-C , 14-C ) :   1.2349 B( 10-C , 11-C ) :   1.2527 B( 11-C , 12-C ) :   1.5722
B( 11-C , 22-H ) :   0.9442 B( 12-C , 13-C ) :   1.2662 B( 12-C , 23-H ) :   0.9750
B( 13-C , 14-C ) :   1.5666 B( 13-C , 24-H ) :   0.9757 B( 14-C , 25-H ) :   0.9798

FINAL SINGLE POINT ENERGY      -669.165529249900

DIPOLE MOMENT
-------------

Method             : SCF
Type of density    : Electron Density
Multiplicity       :   1
Irrep              :   0
Energy             :  -669.1801949556000864 Eh
Relativity type    :
Basis              : AO
                                X                 Y                 Z
Electronic contribution:      1.037316931       0.537983202      -6.154349963
Nuclear contribution   :      0.107048469       0.262824643       7.774479430
                        -----------------------------------------
Total Dipole Moment    :      1.144365399       0.800807845       1.620129467
                        -----------------------------------------
Magnitude (a.u.)       :      2.139085053
Magnitude (Debye)      :      5.437122108

Rotational constants in cm-1:             0.032251             0.015459             0.012466
Rotational constants in MHz :           966.872075           463.454568           373.725390

                             ****ORCA TERMINATED NORMALLY****
TOTAL RUN TIME: 0 days 0 hours 8 minutes 21 seconds 225 msec
